<event>
 8    1  0.7224924E-009  0.2786432E+03  0.7561462E-02  0.1096432E+00
          2   -1    0    0  501    0  0.00000000000E+00  0.00000000000E+00  0.12269768392E+04  0.12269768392E+04  0.00000000000E+00 0. -1.
         -2   -1    0    0    0  501 -0.00000000000E+00 -0.00000000000E+00 -0.75450883550E+02  0.75450883550E+02  0.00000000000E+00 0.  1.
         25    2    1    2    0    0  0.18785177632E+03  0.19079509728E+03  0.38384056388E+03  0.48442913655E+03  0.12508777256E+03 0.  0.
         23    2    1    2    0    0 -0.18785177632E+03 -0.19079509728E+03  0.76768539181E+03  0.81799858624E+03  0.89943133585E+02 0.  0.
          5    1    3    3  502    0  0.82829855600E+02  0.15680450290E+03  0.28768234666E+03  0.33797491341E+03  0.41800000000E+01 0.  1.
         -5    1    3    3    0  502  0.10502192072E+03  0.33990594381E+02  0.96158217216E+02  0.14645422314E+03  0.41800000000E+01 0.  1.
        -11    1    4    4    0    0 -0.58516512868E+02 -0.40566426863E+02  0.32880126033E+03  0.33642248150E+03  0.00000000000E+00 0. -1.
         11    1    4    4    0    0 -0.12933526345E+03 -0.15022867042E+03  0.43888413148E+03  0.48157610474E+03  0.00000000000E+00 0.  1.
</event>
<event>
 8    1  0.7224924E-009  0.9222031E+02  0.7561462E-02  0.1297562E+00
         -2   -1    0    0    0  501 -0.00000000000E+00  0.00000000000E+00  0.25860379632E+02  0.25860379632E+02  0.00000000000E+00 0. -1.
          2   -1    0    0  501    0  0.00000000000E+00 -0.00000000000E+00 -0.50773490630E+03  0.50773490630E+03  0.00000000000E+00 0.  1.
         25    2    1    2    0    0  0.84994655507E+01 -0.35979859047E+02 -0.25309098663E+03  0.28472812608E+03  0.12509303376E+03 0.  0.
         23    2    1    2    0    0 -0.84994655507E+01  0.35979859047E+02 -0.22878354004E+03  0.24886715985E+03  0.90698202237E+02 0.  0.
          5    1    3    3  502    0  0.45166208916E+02  0.29446511160E+02 -0.12570313328E+03  0.13684236757E+03  0.41800000000E+01 0.  1.
         -5    1    3    3    0  502 -0.36666743365E+02 -0.65426370207E+02 -0.12738785335E+03  0.14788575851E+03  0.41800000000E+01 0.  1.
        -11    1    4    4    0    0 -0.14806894475E+02 -0.35403748265E+01  0.13460323977E+01  0.15283657322E+02  0.00000000000E+00 0. -1.
         11    1    4    4    0    0  0.63074289247E+01  0.39520233873E+02 -0.23012957243E+03  0.23358350253E+03  0.00000000000E+00 0.  1.
</event>
<event>
 8    1  0.7224924E-009  0.1005503E+03  0.7561462E-02  0.1279143E+00
         -1   -1    0    0    0  501 -0.00000000000E+00  0.00000000000E+00  0.37434923755E+03  0.37434923755E+03  0.00000000000E+00 0.  1.
          1   -1    0    0  501    0  0.00000000000E+00 -0.00000000000E+00 -0.59724913919E+02  0.59724913919E+02  0.00000000000E+00 0. -1.
         25    2    1    2    0    0  0.77118376250E+02  0.56496236869E+02  0.11568989574E+03  0.19537368658E+03  0.12509059396E+03 0.  0.
         23    2    1    2    0    0 -0.77118376250E+02 -0.56496236869E+02  0.19893442789E+03  0.23870046489E+03  0.90906196709E+02 0.  0.
          5    1    3    3  502    0  0.43873415385E+02  0.21479066727E+02  0.13467568480E+03  0.14332215237E+03  0.41800000000E+01 0. -1.
         -5    1    3    3    0  502  0.33244960864E+02  0.35017170142E+02 -0.18985789058E+02  0.52051534212E+02  0.41800000000E+01 0. -1.
        -11    1    4    4    0    0 -0.35062046212E+02 -0.49976027259E+02  0.37266073344E+02  0.71524195960E+02  0.00000000000E+00 0. -1.
         11    1    4    4    0    0 -0.42056330038E+02 -0.65202096092E+01  0.16166835455E+03  0.16717626893E+03  0.00000000000E+00 0.  1.
</event>
<event>
 8    1  0.7224924E-009  0.1118451E+03  0.7561462E-02  0.1257191E+00
         -2   -1    0    0    0  501 -0.00000000000E+00  0.00000000000E+00  0.13687050750E+02  0.13687050750E+02  0.00000000000E+00 0. -1.
          2   -1    0    0  501    0  0.00000000000E+00 -0.00000000000E+00 -0.12607968234E+04  0.12607968234E+04  0.00000000000E+00 0.  1.
         25    2    1    2    0    0  0.21311454174E+02 -0.66758529799E+02 -0.87944119973E+03  0.89105173033E+03  0.12508190501E+03 0.  0.
         23    2    1    2    0    0 -0.21311454174E+02  0.66758529799E+02 -0.36766857296E+03  0.38343214386E+03  0.83241516221E+02 0.  0.
          5    1    3    3  502    0  0.70305000945E+02 -0.43152593852E+02 -0.64943980959E+03  0.65467127491E+03  0.41800000000E+01 0.  1.
         -5    1    3    3    0  502 -0.48993546772E+02 -0.23605935947E+02 -0.23000139014E+03  0.23638045542E+03  0.41800000000E+01 0.  1.
        -11    1    4    4    0    0 -0.35377348785E+02  0.62557981505E+02 -0.35953928686E+03  0.36665181938E+03  0.00000000000E+00 0.  1.
         11    1    4    4    0    0  0.14065894612E+02  0.42005482948E+01 -0.81292860972E+01  0.16780324480E+02  0.00000000000E+00 0. -1.
</event>
<event>
 8    1  0.7224924E-009  0.1129672E+03  0.7561462E-02  0.1255172E+00
          3   -1    0    0  501    0  0.00000000000E+00  0.00000000000E+00  0.24988533435E+02  0.24988533435E+02  0.00000000000E+00 0. -1.
         -3   -1    0    0    0  501 -0.00000000000E+00 -0.00000000000E+00 -0.72581197305E+03  0.72581197305E+03  0.00000000000E+00 0.  1.
         25    2    1    2    0    0  0.73130648606E+01 -0.72761936730E+02 -0.50348012747E+03  0.52391450043E+03  0.12508550934E+03 0.  0.
         23    2    1    2    0    0 -0.73130648606E+01  0.72761936730E+02 -0.19734331215E+03  0.22688600606E+03  0.84764948780E+02 0.  0.
          5    1    3    3  502    0  0.54962731159E+02 -0.32410530367E+02 -0.38146489762E+03  0.38678713114E+03  0.41800000000E+01 0.  1.
         -5    1    3    3    0  502 -0.47649666298E+02 -0.40351406364E+02 -0.12201522985E+03  0.13712736929E+03  0.41800000000E+01 0.  1.
        -11    1    4    4    0    0 -0.73972594408E+01 -0.12297822192E+02 -0.83775610907E+02  0.84995934378E+02  0.00000000000E+00 0.  1.
         11    1    4    4    0    0  0.84194580240E-01  0.85059758922E+02 -0.11356770124E+03  0.14189007168E+03  0.00000000000E+00 0. -1.
</event>
<event>
 8    1  0.7224924E-009  0.1336982E+03  0.7561462E-02  0.1222069E+00
         -2   -1    0    0    0  501 -0.00000000000E+00  0.00000000000E+00  0.20515886811E+03  0.20515886811E+03  0.00000000000E+00 0. -1.
          2   -1    0    0  501    0  0.00000000000E+00 -0.00000000000E+00 -0.99426709097E+02  0.99426709097E+02  0.00000000000E+00 0.  1.
         25    2    1    2    0    0  0.54514461604E+02 -0.65451824770E+02  0.99537898804E+02  0.18113852176E+03  0.12509037884E+03 0.  0.
         23    2    1    2    0    0 -0.54514461604E+02  0.65451824770E+02  0.61942602124E+01  0.12344705545E+03  0.89134946848E+02 0.  0.
          5    1    3    3  502    0 -0.88318421058E+01 -0.80595091251E+02  0.32129200683E+02  0.87311672216E+02  0.41800000000E+01 0. -1.
         -5    1    3    3    0  502  0.63346303709E+02  0.15143266481E+02  0.67408698121E+02  0.93826849546E+02  0.41800000000E+01 0. -1.
        -11    1    4    4    0    0 -0.17294213597E+02 -0.20773579463E+02  0.11514978339E+02  0.29380710573E+02  0.00000000000E+00 0. -1.
         11    1    4    4    0    0 -0.37220248007E+02  0.86225404233E+02 -0.53207181265E+01  0.94066344875E+02  0.00000000000E+00 0.  1.
</event>
<event>
 8    1  0.7224924E-009  0.1134013E+03  0.7561462E-02  0.1254398E+00
         -2   -1    0    0    0  501 -0.00000000000E+00  0.00000000000E+00  0.61723294098E+02  0.61723294098E+02  0.00000000000E+00 0.  1.
          2   -1    0    0  501    0  0.00000000000E+00 -0.00000000000E+00 -0.26133109725E+03  0.26133109725E+03  0.00000000000E+00 0. -1.
         25    2    1    2    0    0  0.19867111646E+02  0.60876274165E+02 -0.14047116875E+03  0.19869550340E+03  0.12508849244E+03 0.  0.
         23    2    1    2    0    0 -0.19867111646E+02 -0.60876274165E+02 -0.59136634396E+02  0.12435888794E+03  0.88698188262E+02 0.  0.
          5    1    3    3  502    0 -0.40196640636E+02 -0.11505603258E+02 -0.22192533584E+02  0.47519782950E+02  0.41800000000E+01 0.  1.
         -5    1    3    3    0  502  0.60063752282E+02  0.72381877422E+02 -0.11827863517E+03  0.15117572045E+03  0.41800000000E+01 0.  1.
        -11    1    4    4    0    0  0.23393557899E+02 -0.16274592939E+02  0.11099534897E+02  0.30583011648E+02  0.00000000000E+00 0.  1.
         11    1    4    4    0    0 -0.43260669546E+02 -0.44601681225E+02 -0.70236169293E+02  0.93775876294E+02  0.00000000000E+00 0. -1.
</event>
<event>
 8    1  0.7224924E-009  0.1842644E+03  0.7561462E-02  0.1163739E+00
         -1   -1    0    0    0  501 -0.00000000000E+00  0.00000000000E+00  0.12638252557E+03  0.12638252557E+03  0.00000000000E+00 0.  1.
          1   -1    0    0  501    0  0.00000000000E+00 -0.00000000000E+00 -0.35110793764E+03  0.35110793764E+03  0.00000000000E+00 0. -1.
         25    2    1    2    0    0 -0.10812283853E+03 -0.13885562719E+03 -0.16022650063E+03  0.26887366052E+03  0.12509628454E+03 0.  0.
         23    2    1    2    0    0  0.10812283853E+03  0.13885562719E+03 -0.64498911444E+02  0.20861680268E+03  0.91593817308E+02 0.  0.
          5    1    3    3  502    0 -0.98022433452E+02 -0.12507459533E+03 -0.18149915140E+03  0.24127052496E+03  0.41800000000E+01 0.  1.
         -5    1    3    3    0  502 -0.10100405077E+02 -0.13781031859E+02  0.21272650773E+02  0.27603135560E+02  0.41800000000E+01 0.  1.
        -11    1    4    4    0    0  0.12031778702E+03  0.12447126877E+03 -0.39960491807E+02  0.17766909559E+03  0.00000000000E+00 0.  1.
         11    1    4    4    0    0 -0.12194948491E+02  0.14384358425E+02 -0.24538419636E+02  0.30947707092E+02  0.00000000000E+00 0. -1.
</event>
<event>
 8    1  0.7224924E-009  0.1353932E+03  0.7561462E-02  0.1219666E+00
          2   -1    0    0  501    0  0.00000000000E+00  0.00000000000E+00  0.74117324408E+02  0.74117324408E+02  0.00000000000E+00 0. -1.
         -2   -1    0    0    0  501 -0.00000000000E+00 -0.00000000000E+00 -0.35290874785E+03  0.35290874785E+03  0.00000000000E+00 0.  1.
         25    2    1    2    0    0  0.13860231724E+02 -0.84098773663E+02 -0.37993622052E+02  0.15606118477E+03  0.12508744269E+03 0.  0.
         23    2    1    2    0    0 -0.13860231724E+02  0.84098773663E+02 -0.24079780139E+03  0.27096488749E+03  0.90408403064E+02 0.  0.
          5    1    3    3  502    0 -0.29389110870E+02  0.18754643735E+02  0.67836370549E+01  0.35762363331E+02  0.41800000000E+01 0.  1.
         -5    1    3    3    0  502  0.43249342594E+02 -0.10285341740E+03 -0.44777259107E+02  0.12029882143E+03  0.41800000000E+01 0.  1.
        -11    1    4    4    0    0  0.14690480546E+02  0.92968321044E+02 -0.18961237979E+03  0.21168791535E+03  0.00000000000E+00 0. -1.
         11    1    4    4    0    0 -0.28550712270E+02 -0.88695473808E+01 -0.51185421602E+02  0.59276972143E+02  0.00000000000E+00 0.  1.
</event>
<event>
 8    1  0.7224924E-009  0.1549899E+03  0.7561462E-02  0.1194472E+00
         -1   -1    0    0    0  501 -0.00000000000E+00  0.00000000000E+00  0.51281079768E+02  0.51281079768E+02  0.00000000000E+00 0.  1.
          1   -1    0    0  501    0  0.00000000000E+00 -0.00000000000E+00 -0.54738567661E+03  0.54738567661E+03  0.00000000000E+00 0. -1.
         25    2    1    2    0    0  0.10549088213E+03  0.55598451336E+02 -0.34793247222E+03  0.38848901622E+03  0.12508875448E+03 0.  0.
         23    2    1    2    0    0 -0.10549088213E+03 -0.55598451336E+02 -0.14817212462E+03  0.21017774015E+03  0.89443780880E+02 0.  0.
          5    1    3    3  502    0  0.11736644313E+03  0.82074687195E+02 -0.28108991693E+03  0.31549984160E+03  0.41800000000E+01 0.  1.
         -5    1    3    3    0  502 -0.11875561000E+02 -0.26476235859E+02 -0.66842555293E+02  0.72989174625E+02  0.41800000000E+01 0.  1.
        -11    1    4    4    0    0 -0.44518159127E+01  0.14002571397E+02  0.34898585677E+01  0.15101979455E+02  0.00000000000E+00 0.  1.
         11    1    4    4    0    0 -0.10103906622E+03 -0.69601022733E+02 -0.15166198319E+03  0.19507576070E+03  0.00000000000E+00 0. -1.
</event>
<event>
 8    1  0.7224924E-009  0.1035616E+03  0.7561462E-02  0.1272980E+00
          2   -1    0    0  501    0  0.00000000000E+00  0.00000000000E+00  0.38247534238E+03  0.38247534238E+03  0.00000000000E+00 0. -1.
         -2   -1    0    0    0  501 -0.00000000000E+00 -0.00000000000E+00 -0.54638001092E+02  0.54638001092E+02  0.00000000000E+00 0.  1.
         25    2    1    2    0    0  0.62540697470E+02  0.50371178453E+02  0.10370648132E+03  0.18124592416E+03  0.12508579575E+03 0.  0.
         23    2    1    2    0    0 -0.62540697470E+02 -0.50371178453E+02  0.22413085996E+03  0.25586741931E+03  0.93727794260E+02 0.  0.
          5    1    3    3  502    0  0.14803973554E+02 -0.14089247316E+02  0.98578842670E+02  0.10076172460E+03  0.41800000000E+01 0. -1.
         -5    1    3    3    0  502  0.47736723916E+02  0.64460425769E+02  0.51276386526E+01  0.80484199559E+02  0.41800000000E+01 0. -1.
        -11    1    4    4    0    0 -0.45396886124E+02 -0.67735473724E+02  0.21477647077E+03  0.22973442073E+03  0.00000000000E+00 0. -1.
         11    1    4    4    0    0 -0.17143811346E+02  0.17364295271E+02  0.93543891949E+01  0.26132998583E+02  0.00000000000E+00 0.  1.
</event>
<event>
 8    1  0.7224924E-009  0.5313360E+02  0.7561462E-02  0.1429137E+00
          3   -1    0    0  501    0  0.00000000000E+00  0.00000000000E+00  0.27364215128E+02  0.27364215128E+02  0.00000000000E+00 0. -1.
         -3   -1    0    0    0  501 -0.00000000000E+00 -0.00000000000E+00 -0.53551808016E+03  0.53551808016E+03  0.00000000000E+00 0.  1.
         25    2    1    2    0    0  0.17402595753E+02 -0.42923236311E+01 -0.40461374176E+03  0.42388809199E+03  0.12509020797E+03 0.  0.
         23    2    1    2    0    0 -0.17402595753E+02  0.42923236311E+01 -0.10354012327E+03  0.13899420329E+03  0.90981080678E+02 0.  0.
          5    1    3    3  502    0 -0.11040827694E+02  0.64611994083E+01  0.40647894976E+01  0.14058516551E+02  0.41800000000E+01 0. -1.
         -5    1    3    3    0  502  0.28443423446E+02 -0.10753523039E+02 -0.40867853126E+03  0.40982957544E+03  0.41800000000E+01 0. -1.
        -11    1    4    4    0    0 -0.18724138050E+02  0.30545920238E+02 -0.10666581257E+03  0.11252218519E+03  0.00000000000E+00 0.  1.
         11    1    4    4    0    0  0.13215422973E+01 -0.26253596607E+02  0.31256892997E+01  0.26472018103E+02  0.00000000000E+00 0. -1.
</event>
<event>
 8    1  0.7224924E-009  0.1359692E+03  0.7561462E-02  0.1218858E+00
          1   -1    0    0  501    0  0.00000000000E+00  0.00000000000E+00  0.14052108322E+03  0.14052108322E+03  0.00000000000E+00 0. -1.
         -1   -1    0    0    0  501 -0.00000000000E+00 -0.00000000000E+00 -0.14684916811E+03  0.14684916811E+03  0.00000000000E+00 0.  1.
         25    2    1    2    0    0  0.61379863449E+02  0.59141956032E+02  0.34832363879E+02  0.15532720871E+03  0.12509192456E+03 0.  0.
         23    2    1    2    0    0 -0.61379863449E+02 -0.59141956032E+02 -0.41160448777E+02  0.13204304262E+03  0.92064781331E+02 0.  0.
          5    1    3    3  502    0 -0.15538644847E+02 -0.27885172714E+02  0.20636705611E+02  0.38241055940E+02  0.41800000000E+01 0.  1.
         -5    1    3    3    0  502  0.76918508296E+02  0.87027128746E+02  0.14195658268E+02  0.11708615277E+03  0.41800000000E+01 0.  1.
        -11    1    4    4    0    0 -0.18492168705E+02  0.23804370533E+02 -0.37226372254E+00  0.30145429839E+02  0.00000000000E+00 0.  1.
         11    1    4    4    0    0 -0.42887694744E+02 -0.82946326566E+02 -0.40788185054E+02  0.10189761278E+03  0.00000000000E+00 0. -1.
</event>
<event>
 8    1  0.7224924E-009  0.1314851E+03  0.7561462E-02  0.1225269E+00
         -1   -1    0    0    0  501 -0.00000000000E+00  0.00000000000E+00  0.85517911157E+02  0.85517911157E+02  0.00000000000E+00 0.  1.
          1   -1    0    0  501    0  0.00000000000E+00 -0.00000000000E+00 -0.27372976823E+03  0.27372976823E+03  0.00000000000E+00 0. -1.
         25    2    1    2    0    0 -0.93931674407E+02  0.25689365464E+02 -0.15588502502E+03  0.22233085586E+03  0.12509102880E+03 0.  0.
         23    2    1    2    0    0  0.93931674407E+02 -0.25689365464E+02 -0.32326832056E+02  0.13691682353E+03  0.90653679135E+02 0.  0.
          5    1    3    3  502    0 -0.58887719207E+02  0.68290856504E+02 -0.13662329093E+03  0.16375225366E+03  0.41800000000E+01 0. -1.
         -5    1    3    3    0  502 -0.35043955200E+02 -0.42601491040E+02 -0.19261734093E+02  0.58578602195E+02  0.41800000000E+01 0. -1.
        -11    1    4    4    0    0  0.33815453405E+02  0.22257213943E+02 -0.43260858020E+02  0.59248378021E+02  0.00000000000E+00 0. -1.
         11    1    4    4    0    0  0.60116221002E+02 -0.47946579407E+02  0.10934025964E+02  0.77668445512E+02  0.00000000000E+00 0.  1.
</event>
<event>
 8    1  0.7224924E-009  0.1052464E+03  0.7561462E-02  0.1269635E+00
         -1   -1    0    0    0  501 -0.00000000000E+00  0.00000000000E+00  0.14524846442E+03  0.14524846442E+03  0.00000000000E+00 0.  1.
          1   -1    0    0  501    0  0.00000000000E+00 -0.00000000000E+00 -0.11697561022E+03  0.11697561022E+03  0.00000000000E+00 0. -1.
         25    2    1    2    0    0  0.15373451929E+02 -0.85757129184E+01  0.86748309644E+02  0.15323709396E+03  0.12508577802E+03 0.  0.
         23    2    1    2    0    0 -0.15373451929E+02  0.85757129184E+01 -0.58475455440E+02  0.10898698068E+03  0.90271242337E+02 0.  0.
          5    1    3    3  502    0  0.61925743229E+02 -0.29071514345E+02  0.24599748996E+02  0.72818752197E+02  0.41800000000E+01 0. -1.
         -5    1    3    3    0  502 -0.46552291300E+02  0.20495801427E+02  0.62148560647E+02  0.80418341763E+02  0.41800000000E+01 0. -1.
        -11    1    4    4    0    0 -0.38354915228E+02  0.37726081294E+02 -0.26395376886E+02  0.59925559262E+02  0.00000000000E+00 0.  1.
         11    1    4    4    0    0  0.22981463299E+02 -0.29150368375E+02 -0.32080078555E+02  0.49061421421E+02  0.00000000000E+00 0. -1.
</event>
<event>
 8    1  0.7224924E-009  0.1212720E+03  0.7561462E-02  0.1241013E+00
         -2   -1    0    0    0  501 -0.00000000000E+00  0.00000000000E+00  0.41751635785E+02  0.41751635785E+02  0.00000000000E+00 0.  1.
          2   -1    0    0  501    0  0.00000000000E+00 -0.00000000000E+00 -0.51550180579E+03  0.51550180579E+03  0.00000000000E+00 0. -1.
         25    2    1    2    0    0 -0.75566175937E+02  0.57875415279E+02 -0.28926850551E+03  0.32921764383E+03  0.12509267800E+03 0.  0.
         23    2    1    2    0    0  0.75566175937E+02 -0.57875415279E+02 -0.18448166450E+03  0.22803579775E+03  0.94377062254E+02 0.  0.
          5    1    3    3  502    0 -0.99899625624E+02  0.62841784616E+02 -0.16795594093E+03  0.20531852227E+03  0.41800000000E+01 0.  1.
         -5    1    3    3    0  502  0.24333449687E+02 -0.49663693365E+01 -0.12131256458E+03  0.12389912156E+03  0.41800000000E+01 0.  1.
        -11    1    4    4    0    0  0.38335875434E+02 -0.11974076955E+02 -0.15843987634E+03  0.16345094762E+03  0.00000000000E+00 0. -1.
         11    1    4    4    0    0  0.37230300503E+02 -0.45901338324E+02 -0.26041788160E+02  0.64584850128E+02  0.00000000000E+00 0.  1.
</event>
<event>
 8    1  0.7224924E-009  0.7828442E+02  0.7561462E-02  0.1333992E+00
          1   -1    0    0  501    0  0.00000000000E+00  0.00000000000E+00  0.51212711923E+03  0.51212711923E+03  0.00000000000E+00 0. -1.
         -1   -1    0    0    0  501 -0.00000000000E+00 -0.00000000000E+00 -0.37709809232E+02  0.37709809232E+02  0.00000000000E+00 0.  1.
         25    2    1    2    0    0  0.63706245048E+02  0.25842475988E+02  0.36197536564E+03  0.38910274953E+03  0.12509382532E+03 0.  0.
         23    2    1    2    0    0 -0.63706245048E+02 -0.25842475988E+02  0.11244194436E+03  0.16073417894E+03  0.92010685273E+02 0.  0.
          5    1    3    3  502    0  0.19471327996E+02  0.34709956424E+02  0.33283622222E+03  0.33523325746E+03  0.41800000000E+01 0.  1.
         -5    1    3    3    0  502  0.44234917052E+02 -0.88674804357E+01  0.29139143428E+02  0.53869492067E+02  0.41800000000E+01 0.  1.
        -11    1    4    4    0    0 -0.32474844962E+02 -0.31275646204E+01 -0.85514559215E+01  0.33727208810E+02  0.00000000000E+00 0.  1.
         11    1    4    4    0    0 -0.31231400086E+02 -0.22714911367E+02  0.12099340028E+03  0.12700697013E+03  0.00000000000E+00 0. -1.
</event>
<event>
 8    1  0.7224924E-009  0.1123845E+03  0.7561462E-02  0.1256217E+00
         -1   -1    0    0    0  501 -0.00000000000E+00  0.00000000000E+00  0.10503741357E+02  0.10503741357E+02  0.00000000000E+00 0.  1.
          1   -1    0    0  501    0  0.00000000000E+00 -0.00000000000E+00 -0.15923887672E+04  0.15923887672E+04  0.00000000000E+00 0. -1.
         25    2    1    2    0    0  0.21112787855E+02 -0.25366216112E+02 -0.12642217017E+04  0.12708242513E+04  0.12509425199E+03 0.  0.
         23    2    1    2    0    0 -0.21112787855E+02  0.25366216112E+02 -0.31766332405E+03  0.33206825718E+03  0.90940338940E+02 0.  0.
          5    1    3    3  502    0  0.13015901970E+02  0.50643918703E+02 -0.46793258064E+03  0.47086366671E+03  0.41800000000E+01 0. -1.
         -5    1    3    3    0  502  0.80968858856E+01 -0.76010134815E+02 -0.79628912111E+03  0.79996058462E+03  0.41800000000E+01 0. -1.
        -11    1    4    4    0    0  0.33202801351E+02 -0.49262252689E+01 -0.89731869430E+02  0.95804499395E+02  0.00000000000E+00 0.  1.
         11    1    4    4    0    0 -0.54315589206E+02  0.30292441381E+02 -0.22793145462E+03  0.23626375778E+03  0.00000000000E+00 0. -1.
</event>
<event>
 8    1  0.7224924E-009  0.1029874E+03  0.7561462E-02  0.1274136E+00
         -3   -1    0    0    0  501 -0.00000000000E+00  0.00000000000E+00  0.12809305494E+02  0.12809305494E+02  0.00000000000E+00 0.  1.
          3   -1    0    0  501    0  0.00000000000E+00 -0.00000000000E+00 -0.95587090154E+03  0.95587090154E+03  0.00000000000E+00 0. -1.
         25    2    1    2    0    0  0.58730514257E+00  0.18894952380E+02 -0.59162087261E+03  0.60499684994E+03  0.12509423398E+03 0.  0.
         23    2    1    2    0    0 -0.58730514257E+00 -0.18894952380E+02 -0.35144072343E+03  0.36368335710E+03  0.91638627156E+02 0.  0.
          5    1    3    3  502    0  0.46212796959E+02  0.44228951854E+02 -0.43877914571E+03  0.44343706870E+03  0.41800000000E+01 0.  1.
         -5    1    3    3    0  502 -0.45625491816E+02 -0.25333999474E+02 -0.15284172690E+03  0.16155978124E+03  0.41800000000E+01 0.  1.
        -11    1    4    4    0    0  0.31151570070E+02 -0.40520412333E+02 -0.25098545897E+03  0.25613673057E+03  0.00000000000E+00 0. -1.
         11    1    4    4    0    0 -0.31738875213E+02  0.21625459954E+02 -0.10045526447E+03  0.10754662653E+03  0.00000000000E+00 0.  1.
</event>
<event>
 8    1  0.7224924E-009  0.2514778E+03  0.7561462E-02  0.1112374E+00
          2   -1    0    0  501    0  0.00000000000E+00  0.00000000000E+00  0.58404681726E+02  0.58404681726E+02  0.00000000000E+00 0. -1.
         -2   -1    0    0    0  501 -0.00000000000E+00 -0.00000000000E+00 -0.15815587235E+04  0.15815587235E+04  0.00000000000E+00 0.  1.
         25    2    1    2    0    0  0.94408889968E+01 -0.23567026014E+03 -0.11951308731E+04  0.12245878472E+04  0.12509192523E+03 0.  0.
         23    2    1    2    0    0 -0.94408889968E+01  0.23567026014E+03 -0.32802316862E+03  0.41537555799E+03  0.96478252053E+02 0.  0.
          5    1    3    3  502    0  0.67299269730E+02 -0.12829613647E+03 -0.64815119951E+03  0.66415852036E+03  0.41800000000E+01 0. -1.
         -5    1    3    3    0  502 -0.57858380733E+02 -0.10737412367E+03 -0.54697967364E+03  0.56042932688E+03  0.41800000000E+01 0. -1.
        -11    1    4    4    0    0 -0.40768047171E+01  0.35240948250E+02 -0.59198498478E+01  0.35966503757E+02  0.00000000000E+00 0. -1.
         11    1    4    4    0    0 -0.53640842797E+01  0.20042931189E+03 -0.32210331878E+03  0.37940905423E+03  0.00000000000E+00 0.  1.
</event>
<event>
 8    1  0.7224924E-009  0.3682604E+02  0.7561462E-02  0.1532958E+00
          2   -1    0    0  501    0  0.00000000000E+00  0.00000000000E+00  0.74120581496E+03  0.74120581496E+03  0.00000000000E+00 0. -1.
         -2   -1    0    0    0  501 -0.00000000000E+00 -0.00000000000E+00 -0.57825094261E+02  0.57825094261E+02  0.00000000000E+00 0.  1.
         25    2    1    2    0    0  0.19702888256E+02  0.13957621651E+02  0.68829450300E+03  0.69998566905E+03  0.12509034736E+03 0.  0.
         23    2    1    2    0    0 -0.19702888256E+02 -0.13957621651E+02 -0.49137823032E+01  0.99045240172E+02  0.95931201058E+02 0.  0.
          5    1    3    3  502    0  0.19426299369E+02 -0.83658832134E+01  0.67123064012E+03  0.67157681150E+03  0.41800000000E+01 0. -1.
         -5    1    3    3    0  502  0.27658888726E+00  0.22323504864E+02  0.17063862885E+02  0.28408857552E+02  0.41800000000E+01 0. -1.
        -11    1    4    4    0    0 -0.97541226509E+01 -0.16448228346E+02 -0.49620203138E+02  0.53177548682E+02  0.00000000000E+00 0.  1.
         11    1    4    4    0    0 -0.99487656052E+01  0.24906066949E+01  0.44706420835E+02  0.45867691490E+02  0.00000000000E+00 0. -1.
</event>
<event>
 8    1  0.7224924E-009  0.1141096E+03  0.7561462E-02  0.1253143E+00
         -2   -1    0    0    0  501 -0.00000000000E+00  0.00000000000E+00  0.26867029936E+02  0.26867029936E+02  0.00000000000E+00 0.  1.
          2   -1    0    0  501    0  0.00000000000E+00 -0.00000000000E+00 -0.59577937751E+03  0.59577937751E+03  0.00000000000E+00 0. -1.
         25    2    1    2    0    0 -0.47270282846E+02 -0.23060578723E+02 -0.41165488346E+03  0.43344415405E+03  0.12509125337E+03 0.  0.
         23    2    1    2    0    0  0.47270282846E+02  0.23060578723E+02 -0.15725746411E+03  0.18920225339E+03  0.91111540105E+02 0.  0.
          5    1    3    3  502    0 -0.80108550582E+02 -0.35751103093E+02 -0.19442439045E+03  0.21333972263E+03  0.41800000000E+01 0.  1.
         -5    1    3    3    0  502  0.32838267736E+02  0.12690524370E+02 -0.21723049302E+03  0.22010443142E+03  0.41800000000E+01 0.  1.
        -11    1    4    4    0    0 -0.16669422211E+02  0.36031798540E+02 -0.53143871187E+02  0.66335745927E+02  0.00000000000E+00 0.  1.
         11    1    4    4    0    0  0.63939705058E+02 -0.12971219817E+02 -0.10411359292E+03  0.12286650747E+03  0.00000000000E+00 0. -1.
</event>
<event>
 8    1  0.7224924E-009  0.1187351E+03  0.7561462E-02  0.1245198E+00
          1   -1    0    0  501    0  0.00000000000E+00  0.00000000000E+00  0.18532972192E+03  0.18532972192E+03  0.00000000000E+00 0. -1.
         -1   -1    0    0    0  501 -0.00000000000E+00 -0.00000000000E+00 -0.98270332326E+02  0.98270332326E+02  0.00000000000E+00 0.  1.
         25    2    1    2    0    0  0.50535653942E+02 -0.49696392492E+02  0.88087311836E+02  0.16861035386E+03  0.12508594315E+03 0.  0.
         23    2    1    2    0    0 -0.50535653942E+02  0.49696392492E+02 -0.10279222385E+01  0.11498970039E+03  0.90542756898E+02 0.  0.
          5    1    3    3  502    0  0.25891330722E+02  0.38658667001E+02  0.93284083267E+01  0.47637644177E+02  0.41800000000E+01 0.  1.
         -5    1    3    3    0  502  0.24644323219E+02 -0.88355059493E+02  0.78758903509E+02  0.12097270968E+03  0.41800000000E+01 0.  1.
        -11    1    4    4    0    0 -0.63763457277E+02  0.20664021553E+02 -0.28549960372E+02  0.72855202339E+02  0.00000000000E+00 0.  1.
         11    1    4    4    0    0  0.13227803335E+02  0.29032370939E+02  0.27522038133E+02  0.42134498056E+02  0.00000000000E+00 0. -1.
</event>
<event>
 8    1  0.7224924E-009  0.1475705E+03  0.7561462E-02  0.1203490E+00
         -2   -1    0    0    0  501 -0.00000000000E+00  0.00000000000E+00  0.76817694433E+02  0.76817694433E+02  0.00000000000E+00 0.  1.
          2   -1    0    0  501    0  0.00000000000E+00 -0.00000000000E+00 -0.37914541782E+03  0.37914541782E+03  0.00000000000E+00 0. -1.
         25    2    1    2    0    0  0.12151855822E+03 -0.46997545517E+02 -0.16730767973E+03  0.24620719909E+03  0.12510234174E+03 0.  0.
         23    2    1    2    0    0 -0.12151855822E+03  0.46997545517E+02 -0.13502004366E+03  0.20975591317E+03  0.93763541119E+02 0.  0.
          5    1    3    3  502    0  0.10037397529E+03 -0.13225841437E+02 -0.33797956150E+02  0.10681587915E+03  0.41800000000E+01 0.  1.
         -5    1    3    3    0  502  0.21144582925E+02 -0.33771704080E+02 -0.13350972358E+03  0.13939131994E+03  0.41800000000E+01 0.  1.
        -11    1    4    4    0    0 -0.11758559480E+03  0.11624752535E+02 -0.74922626254E+02  0.13991035309E+03  0.00000000000E+00 0.  1.
         11    1    4    4    0    0 -0.39329634197E+01  0.35372792981E+02 -0.60097417402E+02  0.69845560080E+02  0.00000000000E+00 0. -1.
</event>
<event>
 8    1  0.7224924E-009  0.6543519E+02  0.7561462E-02  0.1376342E+00
          1   -1    0    0  501    0  0.00000000000E+00  0.00000000000E+00  0.46908171139E+02  0.46908171139E+02  0.00000000000E+00 0. -1.
         -1   -1    0    0    0  501 -0.00000000000E+00 -0.00000000000E+00 -0.26776465004E+03  0.26776465004E+03  0.00000000000E+00 0.  1.
         25    2    1    2    0    0  0.28561660299E+02 -0.66412184567E+01 -0.12320881496E+03  0.17800244147E+03  0.12507830693E+03 0.  0.
         23    2    1    2    0    0 -0.28561660299E+02  0.66412184567E+01 -0.97647663940E+02  0.13667037971E+03  0.91015670052E+02 0.  0.
          5    1    3    3  502    0  0.54258218335E+02 -0.28115403460E+02 -0.12988205591E+03  0.14360101329E+03  0.41800000000E+01 0. -1.
         -5    1    3    3    0  502 -0.25696558037E+02  0.21474185003E+02  0.66732409513E+01  0.34401428186E+02  0.41800000000E+01 0. -1.
        -11    1    4    4    0    0 -0.20256391241E+02 -0.56553753408E+01 -0.11322211917E+03  0.11515881610E+03  0.00000000000E+00 0.  1.
         11    1    4    4    0    0 -0.83052690581E+01  0.12296593797E+02  0.15574455230E+02  0.21511563608E+02  0.00000000000E+00 0. -1.
</event>
<event>
 8    1  0.7224924E-009  0.1123496E+03  0.7561462E-02  0.1256280E+00
         -2   -1    0    0    0  501 -0.00000000000E+00  0.00000000000E+00  0.16216840801E+02  0.16216840801E+02  0.00000000000E+00 0.  1.
          2   -1    0    0  501    0  0.00000000000E+00 -0.00000000000E+00 -0.13248873270E+04  0.13248873270E+04  0.00000000000E+00 0. -1.
         25    2    1    2    0    0 -0.53883521308E+02  0.51460127131E+02 -0.10202375316E+04  0.10305751960E+04  0.12509610321E+03 0.  0.
         23    2    1    2    0    0  0.53883521308E+02 -0.51460127131E+02 -0.28843295454E+03  0.31052897180E+03  0.87653262999E+02 0.  0.
          5    1    3    3  502    0 -0.80373689279E+02  0.59623870055E+00 -0.74886733999E+03  0.75317995906E+03  0.41800000000E+01 0.  1.
         -5    1    3    3    0  502  0.26490167971E+02  0.50863888430E+02 -0.27137019164E+03  0.27739523691E+03  0.41800000000E+01 0.  1.
        -11    1    4    4    0    0  0.61205990059E+02 -0.40011293130E+02 -0.28777799159E+03  0.29692296853E+03  0.00000000000E+00 0. -1.
         11    1    4    4    0    0 -0.73224687514E+01 -0.11448834001E+02 -0.65496294471E+00  0.13606003273E+02  0.00000000000E+00 0.  1.
</event>
<event>
 8    1  0.7224924E-009  0.1226034E+03  0.7561462E-02  0.1238863E+00
          1   -1    0    0  501    0  0.00000000000E+00  0.00000000000E+00  0.70279347535E+03  0.70279347535E+03  0.00000000000E+00 0. -1.
         -1   -1    0    0    0  501 -0.00000000000E+00 -0.00000000000E+00 -0.32936412527E+02  0.32936412527E+02  0.00000000000E+00 0.  1.
         25    2    1    2    0    0 -0.62212767399E+02 -0.66774598092E+01  0.55194303441E+03  0.56938940063E+03  0.12509260340E+03 0.  0.
         23    2    1    2    0    0  0.62212767399E+02  0.66774598092E+01  0.11791402841E+03  0.16634048724E+03  0.99249295728E+02 0.  0.
          5    1    3    3  502    0 -0.50244886382E+02  0.53592233404E+02  0.37174394571E+03  0.37895607880E+03  0.41800000000E+01 0.  1.
         -5    1    3    3    0  502 -0.11967881017E+02 -0.60269693214E+02  0.18019908870E+03  0.19043332183E+03  0.41800000000E+01 0.  1.
        -11    1    4    4    0    0  0.56191906864E+02 -0.36132392095E+02  0.41798657777E+02  0.78804872612E+02  0.00000000000E+00 0.  1.
         11    1    4    4    0    0  0.60208605349E+01  0.42809851904E+02  0.76115370636E+02  0.87535614630E+02  0.00000000000E+00 0. -1.
</event>
<event>
 8    1  0.7224924E-009  0.1350817E+03  0.7561462E-02  0.1220104E+00
         -2   -1    0    0    0  501 -0.00000000000E+00  0.00000000000E+00  0.39423148983E+02  0.39423148983E+02  0.00000000000E+00 0. -1.
          2   -1    0    0  501    0  0.00000000000E+00 -0.00000000000E+00 -0.70925779455E+03  0.70925779455E+03  0.00000000000E+00 0.  1.
         25    2    1    2    0    0  0.97468122888E+02  0.68454428758E+02 -0.45328916291E+03  0.48508239874E+03  0.12509126491E+03 0.  0.
         23    2    1    2    0    0 -0.97468122888E+02 -0.68454428758E+02 -0.21654548266E+03  0.26359854479E+03  0.91685347590E+02 0.  0.
          5    1    3    3  502    0 -0.83021402119E+01  0.13894825067E+02 -0.31946407449E+00  0.16720231847E+02  0.41800000000E+01 0. -1.
         -5    1    3    3    0  502  0.10577026310E+03  0.54559603692E+02 -0.45296969883E+03  0.46836216689E+03  0.41800000000E+01 0. -1.
        -11    1    4    4    0    0 -0.71474014340E+02 -0.12359538253E+02 -0.56238231238E+02  0.91782523197E+02  0.00000000000E+00 0. -1.
         11    1    4    4    0    0 -0.25994108548E+02 -0.56094890506E+02 -0.16030725142E+03  0.17181602160E+03  0.00000000000E+00 0.  1.
</event>
<event>
 8    1  0.7224924E-009  0.2323013E+03  0.7561462E-02  0.1125030E+00
         -3   -1    0    0    0  501 -0.00000000000E+00  0.00000000000E+00  0.33060910821E+03  0.33060910821E+03  0.00000000000E+00 0.  1.
          3   -1    0    0  501    0  0.00000000000E+00 -0.00000000000E+00 -0.17664536354E+03  0.17664536354E+03  0.00000000000E+00 0. -1.
         25    2    1    2    0    0  0.20119751326E+03 -0.45064781858E+02  0.14010810233E+03  0.27890588547E+03  0.12508772405E+03 0.  0.
         23    2    1    2    0    0 -0.20119751326E+03  0.45064781858E+02  0.13855642337E+02  0.22834858628E+03  0.97158757330E+02 0.  0.
          5    1    3    3  502    0  0.11125584806E+03 -0.84043895830E+02  0.58405894586E+02  0.15122817554E+03  0.41800000000E+01 0. -1.
         -5    1    3    3    0  502  0.89941665196E+02  0.38979113972E+02  0.81702207741E+02  0.12767770993E+03  0.41800000000E+01 0. -1.
        -11    1    4    4    0    0 -0.13963144280E+03 -0.15675333575E+02  0.18593185399E+02  0.14173342035E+03  0.00000000000E+00 0.  1.
         11    1    4    4    0    0 -0.61566070455E+02  0.60740115432E+02 -0.47375430615E+01  0.86615165926E+02  0.00000000000E+00 0. -1.
</event>
<event>
 8    1  0.7224924E-009  0.1170745E+03  0.7561462E-02  0.1248003E+00
          2   -1    0    0  501    0  0.00000000000E+00  0.00000000000E+00  0.27469972012E+04  0.27469972012E+04  0.00000000000E+00 0. -1.
         -2   -1    0    0    0  501 -0.00000000000E+00 -0.00000000000E+00 -0.86548476404E+01  0.86548476404E+01  0.00000000000E+00 0.  1.
         25    2    1    2    0    0 -0.90621080751E+02 -0.20280472435E+02  0.19333456080E+04  0.19396126567E+04  0.12509412559E+03 0.  0.
         23    2    1    2    0    0  0.90621080751E+02  0.20280472435E+02  0.80499674555E+03  0.81603939212E+03  0.96317450697E+02 0.  0.
          5    1    3    3  502    0 -0.50630741010E+02  0.76848444036E+01  0.23457983669E+03  0.24014100223E+03  0.41800000000E+01 0.  1.
         -5    1    3    3    0  502 -0.39990339741E+02 -0.27965316838E+02  0.16987657713E+04  0.16994716545E+04  0.41800000000E+01 0.  1.
        -11    1    4    4    0    0  0.10929353639E+03  0.29157029153E+02  0.68219969211E+03  0.69151401241E+03  0.00000000000E+00 0.  1.
         11    1    4    4    0    0 -0.18672455635E+02 -0.88765567182E+01  0.12279705344E+03  0.12452537971E+03  0.00000000000E+00 0. -1.
</event>
<event>
 8    1  0.7224924E-009  0.2161764E+03  0.7561462E-02  0.1136766E+00
         -1   -1    0    0    0  501 -0.00000000000E+00  0.00000000000E+00  0.18034999723E+03  0.18034999723E+03  0.00000000000E+00 0.  1.
          1   -1    0    0  501    0  0.00000000000E+00 -0.00000000000E+00 -0.38172845370E+03  0.38172845370E+03  0.00000000000E+00 0. -1.
         25    2    1    2    0    0 -0.18653881256E+03  0.48683797667E+02 -0.25438582439E+03  0.34282515157E+03  0.12510034435E+03 0.  0.
         23    2    1    2    0    0  0.18653881256E+03 -0.48683797667E+02  0.53007367918E+02  0.21925329936E+03  0.89974371245E+02 0.  0.
          5    1    3    3  502    0 -0.18989631368E+03  0.74032961203E+02 -0.22341213860E+03  0.30244329281E+03  0.41800000000E+01 0. -1.
         -5    1    3    3    0  502  0.33575011213E+01 -0.25349163536E+02 -0.30973685786E+02  0.40381858760E+02  0.41800000000E+01 0. -1.
        -11    1    4    4    0    0  0.87997364580E+02 -0.55113272850E+02  0.60580541314E+02  0.12021235795E+03  0.00000000000E+00 0.  1.
         11    1    4    4    0    0  0.98541447979E+02  0.64294751827E+01 -0.75731733963E+01  0.99040941414E+02  0.00000000000E+00 0. -1.
</event>
<event>
 8    1  0.7224924E-009  0.9062480E+02  0.7561462E-02  0.1301346E+00
          3   -1    0    0  501    0  0.00000000000E+00  0.00000000000E+00  0.41644313482E+02  0.41644313482E+02  0.00000000000E+00 0. -1.
         -3   -1    0    0    0  501 -0.00000000000E+00 -0.00000000000E+00 -0.37664537231E+03  0.37664537231E+03  0.00000000000E+00 0.  1.
         25    2    1    2    0    0 -0.16774448435E+02  0.47106009628E+02 -0.12441770345E+03  0.18338085384E+03  0.12509362238E+03 0.  0.
         23    2    1    2    0    0  0.16774448435E+02 -0.47106009628E+02 -0.21058335538E+03  0.23490883195E+03  0.91304170236E+02 0.  0.
          5    1    3    3  502    0 -0.63152722051E+02  0.50347603669E+02 -0.48622977827E+02  0.94365321334E+02  0.41800000000E+01 0. -1.
         -5    1    3    3    0  502  0.46378273616E+02 -0.32415940411E+01 -0.75794725622E+02  0.89015532507E+02  0.41800000000E+01 0. -1.
        -11    1    4    4    0    0  0.73124200378E+01 -0.42587968786E+02 -0.21788700783E+03  0.22213049037E+03  0.00000000000E+00 0.  1.
         11    1    4    4    0    0  0.94620283971E+01 -0.45180408428E+01  0.73036524491E+01  0.12778341580E+02  0.00000000000E+00 0. -1.
</event>
<event>
 8    1  0.7224924E-009  0.9925976E+02  0.7561462E-02  0.1281860E+00
          1   -1    0    0  501    0  0.00000000000E+00  0.00000000000E+00  0.33102903335E+02  0.33102903335E+02  0.00000000000E+00 0. -1.
         -1   -1    0    0    0  501 -0.00000000000E+00 -0.00000000000E+00 -0.45036615428E+03  0.45036615428E+03  0.00000000000E+00 0.  1.
         25    2    1    2    0    0  0.38050278650E+02  0.40856036235E+02 -0.25300467182E+03  0.28770730451E+03  0.12508832762E+03 0.  0.
         23    2    1    2    0    0 -0.38050278650E+02 -0.40856036235E+02 -0.16425857913E+03  0.19576175310E+03  0.90690373021E+02 0.  0.
          5    1    3    3  502    0  0.66243947100E+02  0.32569863718E+02 -0.24646163115E+03  0.25731277578E+03  0.41800000000E+01 0. -1.
         -5    1    3    3    0  502 -0.28193668450E+02  0.82861725169E+01 -0.65430406663E+01  0.30394528732E+02  0.41800000000E+01 0. -1.
        -11    1    4    4    0    0 -0.14408540985E+02  0.22814530361E+02 -0.95002860986E+02  0.98760581431E+02  0.00000000000E+00 0.  1.
         11    1    4    4    0    0 -0.23641737664E+02 -0.63670566596E+02 -0.69255718141E+02  0.97001171672E+02  0.00000000000E+00 0. -1.
</event>
<event>
 8    1  0.7224924E-009  0.1153348E+03  0.7561462E-02  0.1250998E+00
          1   -1    0    0  501    0  0.00000000000E+00  0.00000000000E+00  0.34676715575E+03  0.34676715575E+03  0.00000000000E+00 0. -1.
         -1   -1    0    0    0  501 -0.00000000000E+00 -0.00000000000E+00 -0.60568114190E+02  0.60568114190E+02  0.00000000000E+00 0.  1.
         25    2    1    2    0    0  0.52698347534E+02  0.82413563193E+01  0.44121062963E+02  0.14296253110E+03  0.12508629547E+03 0.  0.
         23    2    1    2    0    0 -0.52698347534E+02 -0.82413563193E+01  0.24207797860E+03  0.26437273885E+03  0.91903000691E+02 0.  0.
          5    1    3    3  502    0 -0.27740253994E+02  0.30827767213E+02  0.42159615534E+02  0.59285567426E+02  0.41800000000E+01 0. -1.
         -5    1    3    3    0  502  0.80438601528E+02 -0.22586410894E+02  0.19614474288E+01  0.83676963669E+02  0.41800000000E+01 0. -1.
        -11    1    4    4    0    0 -0.16425441150E+02 -0.48463877640E+02  0.10025708923E+03  0.11256121221E+03  0.00000000000E+00 0.  1.
         11    1    4    4    0    0 -0.36272906384E+02  0.40222521321E+02  0.14182088937E+03  0.15181152664E+03  0.00000000000E+00 0. -1.
</event>
<event>
 8    1  0.7224924E-009  0.1475611E+03  0.7561462E-02  0.1203502E+00
          2   -1    0    0  501    0  0.00000000000E+00  0.00000000000E+00  0.17102870218E+03  0.17102870218E+03  0.00000000000E+00 0. -1.
         -2   -1    0    0    0  501 -0.00000000000E+00 -0.00000000000E+00 -0.13044398349E+03  0.13044398349E+03  0.00000000000E+00 0.  1.
         25    2    1    2    0    0  0.69322884139E+02  0.71549685724E+02  0.74009652912E+01  0.16008217047E+03  0.12508599930E+03 0.  0.
         23    2    1    2    0    0 -0.69322884139E+02 -0.71549685724E+02  0.33183753396E+02  0.14139051520E+03  0.94684193545E+02 0.  0.
          5    1    3    3  502    0  0.19214056676E+02  0.10013858157E+03  0.58817402961E+01  0.10222026590E+03  0.41800000000E+01 0.  1.
         -5    1    3    3    0  502  0.50108827463E+02 -0.28588895844E+02  0.15192249951E+01  0.57861904565E+02  0.41800000000E+01 0.  1.
        -11    1    4    4    0    0 -0.78465143555E+02 -0.17475354914E+02  0.32038372372E+02  0.86536836589E+02  0.00000000000E+00 0. -1.
         11    1    4    4    0    0  0.91422594159E+01 -0.54074330810E+02  0.11453810235E+01  0.54853678614E+02  0.00000000000E+00 0.  1.
</event>
<event>
 8    1  0.7224924E-009  0.9853545E+02  0.7561462E-02  0.1283406E+00
         -2   -1    0    0    0  501 -0.00000000000E+00  0.00000000000E+00  0.33787405328E+02  0.33787405328E+02  0.00000000000E+00 0.  1.
          2   -1    0    0  501    0  0.00000000000E+00 -0.00000000000E+00 -0.56664924126E+03  0.56664924126E+03  0.00000000000E+00 0. -1.
         25    2    1    2    0    0 -0.41030475449E+02  0.71162635108E+02 -0.23997549262E+03  0.28281320029E+03  0.12508976236E+03 0.  0.
         23    2    1    2    0    0  0.41030475449E+02 -0.71162635108E+02 -0.29288634331E+03  0.31762344630E+03  0.91403626792E+02 0.  0.
          5    1    3    3  502    0 -0.36401794720E+02  0.12340116287E+02 -0.32390824761E+01  0.38798623482E+02  0.41800000000E+01 0. -1.
         -5    1    3    3    0  502 -0.46286807291E+01  0.58822518821E+02 -0.23673641014E+03  0.24401457681E+03  0.41800000000E+01 0. -1.
        -11    1    4    4    0    0 -0.10476193013E+02 -0.34440152491E+02 -0.21151580868E+03  0.21455724655E+03  0.00000000000E+00 0. -1.
         11    1    4    4    0    0  0.51506668462E+02 -0.36722482618E+02 -0.81370534625E+02  0.10306619975E+03  0.00000000000E+00 0.  1.
</event>
<event>
 8    1  0.7224924E-009  0.1595058E+03  0.7561462E-02  0.1189256E+00
          1   -1    0    0  501    0  0.00000000000E+00  0.00000000000E+00  0.33220663519E+03  0.33220663519E+03  0.00000000000E+00 0. -1.
         -1   -1    0    0    0  501 -0.00000000000E+00 -0.00000000000E+00 -0.10192653144E+03  0.10192653144E+03  0.00000000000E+00 0.  1.
         25    2    1    2    0    0  0.25347461793E+02  0.14495643941E+03  0.13618882845E+03  0.23632581770E+03  0.12509049513E+03 0.  0.
         23    2    1    2    0    0 -0.25347461793E+02 -0.14495643941E+03  0.94091275303E+02  0.19780734894E+03  0.92842425974E+02 0.  0.
          5    1    3    3  502    0  0.26816305966E+02  0.12260578772E+02 -0.16450629473E+02  0.34022517067E+02  0.41800000000E+01 0.  1.
         -5    1    3    3    0  502 -0.14688441734E+01  0.13269586063E+03  0.15263945792E+03  0.20230330063E+03  0.41800000000E+01 0.  1.
        -11    1    4    4    0    0 -0.37122463070E+02 -0.59037907631E+02 -0.14658490281E+00  0.69739323835E+02  0.00000000000E+00 0.  1.
         11    1    4    4    0    0  0.11775001277E+02 -0.85918531776E+02  0.94237860206E+02  0.12806802510E+03  0.00000000000E+00 0. -1.
</event>
<event>
 8    1  0.7224924E-009  0.1541587E+03  0.7561462E-02  0.1195454E+00
          1   -1    0    0  501    0  0.00000000000E+00  0.00000000000E+00  0.75967427118E+03  0.75967427118E+03  0.00000000000E+00 0. -1.
         -1   -1    0    0    0  501 -0.00000000000E+00 -0.00000000000E+00 -0.37770278188E+02  0.37770278188E+02  0.00000000000E+00 0.  1.
         25    2    1    2    0    0  0.10687841695E+02 -0.12758103632E+03  0.44805726398E+03  0.48248569651E+03  0.12508391081E+03 0.  0.
         23    2    1    2    0    0 -0.10687841695E+02  0.12758103632E+03  0.27384672901E+03  0.31495885285E+03  0.88407563100E+02 0.  0.
          5    1    3    3  502    0 -0.43784426839E+02 -0.47348483279E+01  0.12347111037E+03  0.13115670901E+03  0.41800000000E+01 0.  1.
         -5    1    3    3    0  502  0.54472268534E+02 -0.12284618799E+03  0.32458615361E+03  0.35132898750E+03  0.41800000000E+01 0.  1.
        -11    1    4    4    0    0  0.53146431123E+01  0.57655264636E+02  0.21351832185E+03  0.22122940297E+03  0.00000000000E+00 0.  1.
         11    1    4    4    0    0 -0.16002484807E+02  0.69925771685E+02  0.60328407160E+02  0.93729449888E+02  0.00000000000E+00 0. -1.
</event>
<event>
 8    1  0.7224924E-009  0.9334582E+02  0.7561462E-02  0.1294946E+00
         -1   -1    0    0    0  501 -0.00000000000E+00  0.00000000000E+00  0.37640934585E+03  0.37640934585E+03  0.00000000000E+00 0.  1.
          1   -1    0    0  501    0  0.00000000000E+00 -0.00000000000E+00 -0.34901298300E+02  0.34901298300E+02  0.00000000000E+00 0. -1.
         25    2    1    2    0    0  0.73658753060E+01 -0.35611990413E+02  0.21997707477E+03  0.25565594355E+03  0.12509027967E+03 0.  0.
         23    2    1    2    0    0 -0.73658753060E+01  0.35611990413E+02  0.12153097279E+03  0.15565470060E+03  0.90200545971E+02 0.  0.
          5    1    3    3  502    0 -0.35373005575E+01 -0.61572753754E+02  0.40422922987E+02  0.73859336599E+02  0.41800000000E+01 0. -1.
         -5    1    3    3    0  502  0.10903175864E+02  0.25960763341E+02  0.17955415178E+03  0.18179660695E+03  0.41800000000E+01 0. -1.
        -11    1    4    4    0    0  0.25630083599E+01 -0.29970577168E+02  0.47815485202E+02  0.56490044546E+02  0.00000000000E+00 0.  1.
         11    1    4    4    0    0 -0.99288836659E+01  0.65582567581E+02  0.73715487583E+02  0.99164656057E+02  0.00000000000E+00 0. -1.
</event>
<event>
 8    1  0.7224924E-009  0.9493338E+02  0.7561462E-02  0.1291326E+00
         -3   -1    0    0    0  501 -0.00000000000E+00  0.00000000000E+00  0.21610049294E+02  0.21610049294E+02  0.00000000000E+00 0.  1.
          3   -1    0    0  501    0  0.00000000000E+00 -0.00000000000E+00 -0.64043351589E+03  0.64043351589E+03  0.00000000000E+00 0. -1.
         25    2    1    2    0    0 -0.38158069243E+02  0.78724623614E+01 -0.42227594685E+03  0.44213370865E+03  0.12508887689E+03 0.  0.
         23    2    1    2    0    0  0.38158069243E+02 -0.78724623614E+01 -0.19654751975E+03  0.21990985654E+03  0.90616795197E+02 0.  0.
          5    1    3    3  502    0 -0.82213451217E+02 -0.94220847401E+01 -0.28893622885E+03  0.30058184241E+03  0.41800000000E+01 0.  1.
         -5    1    3    3    0  502  0.44055381974E+02  0.17294547101E+02 -0.13333971800E+03  0.14155186624E+03  0.41800000000E+01 0.  1.
        -11    1    4    4    0    0  0.81626900765E+01 -0.24063859140E+02 -0.56997873897E+01  0.26042012255E+02  0.00000000000E+00 0.  1.
         11    1    4    4    0    0  0.29995379167E+02  0.16191396778E+02 -0.19084773236E+03  0.19386784429E+03  0.00000000000E+00 0. -1.
</event>
<event>
 8    1  0.7224924E-009  0.1649859E+03  0.7561462E-02  0.1183180E+00
         -1   -1    0    0    0  501 -0.00000000000E+00  0.00000000000E+00  0.84776030980E+02  0.84776030980E+02  0.00000000000E+00 0.  1.
          1   -1    0    0  501    0  0.00000000000E+00 -0.00000000000E+00 -0.48032349563E+03  0.48032349563E+03  0.00000000000E+00 0. -1.
         25    2    1    2    0    0 -0.92059203753E+02 -0.11880004371E+03 -0.95385912167E+02  0.21756543111E+03  0.12509155525E+03 0.  0.
         23    2    1    2    0    0  0.92059203753E+02  0.11880004371E+03 -0.30016155249E+03  0.34753409550E+03  0.89970231539E+02 0.  0.
          5    1    3    3  502    0 -0.63983922596E+02 -0.72023016905E+01 -0.77807202464E+02  0.10108040688E+03  0.41800000000E+01 0. -1.
         -5    1    3    3    0  502 -0.28075281157E+02 -0.11159774202E+03 -0.17578709703E+02  0.11648502423E+03  0.41800000000E+01 0. -1.
        -11    1    4    4    0    0  0.38787621045E+02  0.49274065667E+02 -0.43448648203E+02  0.76290222993E+02  0.00000000000E+00 0.  1.
         11    1    4    4    0    0  0.53271582708E+02  0.69525978040E+02 -0.25671290428E+03  0.27124387251E+03  0.00000000000E+00 0. -1.
</event>
<event>
 8    1  0.7224924E-009  0.1092702E+03  0.7561462E-02  0.1261927E+00
         -2   -1    0    0    0  501 -0.00000000000E+00  0.00000000000E+00  0.31097250737E+02  0.31097250737E+02  0.00000000000E+00 0.  1.
          2   -1    0    0  501    0  0.00000000000E+00 -0.00000000000E+00 -0.54974780447E+03  0.54974780447E+03  0.00000000000E+00 0. -1.
         25    2    1    2    0    0  0.58798269734E+02  0.20067799623E+02 -0.37015021662E+03  0.39562894361E+03  0.12510445655E+03 0.  0.
         23    2    1    2    0    0 -0.58798269734E+02 -0.20067799623E+02 -0.14850033711E+03  0.18521611160E+03  0.91611706503E+02 0.  0.
          5    1    3    3  502    0 -0.91362870593E+01  0.45955630912E+02 -0.25559511643E+03  0.25988791372E+03  0.41800000000E+01 0.  1.
         -5    1    3    3    0  502  0.67934556793E+02 -0.25887831289E+02 -0.11455510019E+03  0.13574102989E+03  0.41800000000E+01 0.  1.
        -11    1    4    4    0    0 -0.50830905749E+02  0.22344426970E+02 -0.12334231350E+03  0.13526411458E+03  0.00000000000E+00 0. -1.
         11    1    4    4    0    0 -0.79673639852E+01 -0.42412226593E+02 -0.25158023612E+02  0.49951997012E+02  0.00000000000E+00 0.  1.
</event>
<event>
 8    1  0.7224924E-009  0.1633311E+03  0.7561462E-02  0.1184986E+00
         -2   -1    0    0    0  501 -0.00000000000E+00  0.00000000000E+00  0.45664821386E+02  0.45664821386E+02  0.00000000000E+00 0.  1.
          2   -1    0    0  501    0  0.00000000000E+00 -0.00000000000E+00 -0.74533730627E+03  0.74533730627E+03  0.00000000000E+00 0. -1.
         25    2    1    2    0    0 -0.10531243188E+03  0.79019629173E+02 -0.21790808989E+03  0.28366507353E+03  0.12508848146E+03 0.  0.
         23    2    1    2    0    0  0.10531243188E+03 -0.79019629173E+02 -0.48176439499E+03  0.50733705413E+03  0.89214035384E+02 0.  0.
          5    1    3    3  502    0 -0.22846284494E+02 -0.26753395070E+02 -0.11078987065E+02  0.37120253465E+02  0.41800000000E+01 0.  1.
         -5    1    3    3    0  502 -0.82466147383E+02  0.10577302424E+03 -0.20682910283E+03  0.24654482006E+03  0.41800000000E+01 0.  1.
        -11    1    4    4    0    0  0.11736423222E+03 -0.53824320780E+02 -0.36133185501E+03  0.38370839183E+03  0.00000000000E+00 0.  1.
         11    1    4    4    0    0 -0.12051800348E+02 -0.25195308393E+02 -0.12043253997E+03  0.12362866230E+03  0.00000000000E+00 0. -1.
</event>
<event>
 8    1  0.7224924E-009  0.9007553E+02  0.7561462E-02  0.1302669E+00
         -2   -1    0    0    0  501 -0.00000000000E+00  0.00000000000E+00  0.60051643331E+02  0.60051643331E+02  0.00000000000E+00 0.  1.
          2   -1    0    0  501    0  0.00000000000E+00 -0.00000000000E+00 -0.23363487403E+03  0.23363487403E+03  0.00000000000E+00 0. -1.
         25    2    1    2    0    0  0.28642983565E+02 -0.31038929847E+02 -0.69400477105E+02  0.14915623291E+03  0.12508924782E+03 0.  0.
         23    2    1    2    0    0 -0.28642983565E+02  0.31038929847E+02 -0.10418275360E+03  0.14453028445E+03  0.90835682983E+02 0.  0.
          5    1    3    3  502    0 -0.32075254207E+02 -0.63161204037E+01  0.19746126068E+02  0.38420010464E+02  0.41800000000E+01 0. -1.
         -5    1    3    3    0  502  0.60718237771E+02 -0.24722809443E+02 -0.89146603173E+02  0.11073622245E+03  0.41800000000E+01 0. -1.
        -11    1    4    4    0    0  0.15181514252E+02 -0.12545502486E+02 -0.72397718562E+02  0.75028645601E+02  0.00000000000E+00 0. -1.
         11    1    4    4    0    0 -0.43824497817E+02  0.43584432333E+02 -0.31785035033E+02  0.69501638849E+02  0.00000000000E+00 0.  1.
</event>
<event>
 8    1  0.7224924E-009  0.1172659E+03  0.7561462E-02  0.1247677E+00
         -1   -1    0    0    0  501 -0.00000000000E+00  0.00000000000E+00  0.38925416983E+03  0.38925416983E+03  0.00000000000E+00 0.  1.
          1   -1    0    0  501    0  0.00000000000E+00 -0.00000000000E+00 -0.42172186084E+02  0.42172186084E+02  0.00000000000E+00 0. -1.
         25    2    1    2    0    0 -0.22084382547E+02 -0.63887913065E+02  0.19007394266E+03  0.23737071574E+03  0.12508943850E+03 0.  0.
         23    2    1    2    0    0  0.22084382547E+02  0.63887913065E+02  0.15700804108E+03  0.19405564017E+03  0.91851407880E+02 0.  0.
          5    1    3    3  502    0 -0.46928339650E+02  0.48652329441E+01  0.18543946979E+02  0.50865409892E+02  0.41800000000E+01 0. -1.
         -5    1    3    3    0  502  0.24843957103E+02 -0.68753146009E+02  0.17152999568E+03  0.18650530585E+03  0.41800000000E+01 0. -1.
        -11    1    4    4    0    0  0.16762431452E+02  0.87830976701E+02  0.12648130430E+03  0.15489602937E+03  0.00000000000E+00 0. -1.
         11    1    4    4    0    0  0.53219510958E+01 -0.23943063636E+02  0.30526736778E+02  0.39159610800E+02  0.00000000000E+00 0.  1.
</event>
<event>
 8    1  0.7224924E-009  0.1057701E+03  0.7561462E-02  0.1268610E+00
         -3   -1    0    0    0  501 -0.00000000000E+00  0.00000000000E+00  0.75061365064E+03  0.75061365064E+03  0.00000000000E+00 0.  1.
          3   -1    0    0  501    0  0.00000000000E+00 -0.00000000000E+00 -0.15502347433E+02  0.15502347433E+02  0.00000000000E+00 0. -1.
         25    2    1    2    0    0  0.61776374939E+01  0.25156079920E+02  0.43277505575E+03  0.45123503915E+03  0.12509124718E+03 0.  0.
         23    2    1    2    0    0 -0.61776374939E+01 -0.25156079920E+02  0.30233624746E+03  0.31488095892E+03  0.84094115131E+02 0.  0.
          5    1    3    3  502    0 -0.48702772807E+02 -0.23223449787E+02  0.20045756552E+03  0.20763428588E+03  0.41800000000E+01 0.  1.
         -5    1    3    3    0  502  0.54880410301E+02  0.48379529707E+02  0.23231749023E+03  0.24360075327E+03  0.41800000000E+01 0.  1.
        -11    1    4    4    0    0  0.36115287023E+02 -0.20670666092E+02  0.19572346613E+03  0.20009813989E+03  0.00000000000E+00 0.  1.
         11    1    4    4    0    0 -0.42292924517E+02 -0.44854138281E+01  0.10661278133E+03  0.11478281903E+03  0.00000000000E+00 0. -1.
</event>
<event>
 8    1  0.7224924E-009  0.1164662E+03  0.7561462E-02  0.1249043E+00
         -2   -1    0    0    0  501 -0.00000000000E+00  0.00000000000E+00  0.32475803803E+02  0.32475803803E+02  0.00000000000E+00 0.  1.
          2   -1    0    0  501    0  0.00000000000E+00 -0.00000000000E+00 -0.59598563844E+03  0.59598563844E+03  0.00000000000E+00 0. -1.
         25    2    1    2    0    0 -0.64787272642E+02  0.53640939106E+02 -0.36308507421E+03  0.39313586108E+03  0.12510113152E+03 0.  0.
         23    2    1    2    0    0  0.64787272642E+02 -0.53640939106E+02 -0.20042476042E+03  0.23532558116E+03  0.90184829730E+02 0.  0.
          5    1    3    3  502    0  0.21591794614E+02 -0.22445740297E+02 -0.12146281543E+03  0.12546196549E+03  0.41800000000E+01 0.  1.
         -5    1    3    3    0  502 -0.86379067256E+02  0.76086679404E+02 -0.24162225878E+03  0.26767389559E+03  0.41800000000E+01 0.  1.
        -11    1    4    4    0    0  0.39963625461E+02 -0.20501432545E+02 -0.18211575757E+02  0.48467118627E+02  0.00000000000E+00 0.  1.
         11    1    4    4    0    0  0.24823647180E+02 -0.33139506561E+02 -0.18221318467E+03  0.18685846253E+03  0.00000000000E+00 0. -1.
</event>
<event>
 8    1  0.7224924E-009  0.1238625E+03  0.7561462E-02  0.1236858E+00
         -2   -1    0    0    0  501 -0.00000000000E+00  0.00000000000E+00  0.31648802098E+02  0.31648802098E+02  0.00000000000E+00 0. -1.
          2   -1    0    0  501    0  0.00000000000E+00 -0.00000000000E+00 -0.79418841378E+03  0.79418841378E+03  0.00000000000E+00 0.  1.
         25    2    1    2    0    0  0.85069951046E+02 -0.63515441509E+02 -0.29523781994E+03  0.33776049385E+03  0.12508266468E+03 0.  0.
         23    2    1    2    0    0 -0.85069951046E+02  0.63515441509E+02 -0.46730179174E+03  0.48807672203E+03  0.92611090792E+02 0.  0.
          5    1    3    3  502    0 -0.52507818958E+01  0.35112598112E+01 -0.16685438899E+03  0.16702622303E+03  0.41800000000E+01 0.  1.
         -5    1    3    3    0  502  0.90320732942E+02 -0.67026701320E+02 -0.12838343095E+03  0.17073427082E+03  0.41800000000E+01 0.  1.
        -11    1    4    4    0    0 -0.26714559852E+02  0.63881305790E+02 -0.14686410188E+03  0.16236857257E+03  0.00000000000E+00 0. -1.
         11    1    4    4    0    0 -0.58355391194E+02 -0.36586428129E+00 -0.32043768986E+03  0.32570814945E+03  0.00000000000E+00 0.  1.
</event>
<event>
 8    1  0.7224924E-009  0.1593640E+03  0.7561462E-02  0.1189417E+00
          1   -1    0    0  501    0  0.00000000000E+00  0.00000000000E+00  0.45644118042E+03  0.45644118042E+03  0.00000000000E+00 0. -1.
         -1   -1    0    0    0  501 -0.00000000000E+00 -0.00000000000E+00 -0.76204566857E+02  0.76204566857E+02  0.00000000000E+00 0.  1.
         25    2    1    2    0    0 -0.10896988734E+03 -0.92192157754E+02  0.26489582391E+03  0.32587227388E+03  0.12509640706E+03 0.  0.
         23    2    1    2    0    0  0.10896988734E+03  0.92192157754E+02  0.11534078965E+03  0.20677347339E+03  0.95278230692E+02 0.  0.
          5    1    3    3  502    0 -0.11091208041E+03 -0.67139036316E+02  0.27031560388E+03  0.29982851412E+03  0.41800000000E+01 0. -1.
         -5    1    3    3    0  502  0.19421930691E+01 -0.25053121438E+02 -0.54197799669E+01  0.26043759763E+02  0.41800000000E+01 0. -1.
        -11    1    4    4    0    0  0.21534170694E+01  0.47824078979E+02  0.64758441950E+02  0.80532201876E+02  0.00000000000E+00 0.  1.
         11    1    4    4    0    0  0.10681647027E+03  0.44368078775E+02  0.50582347698E+02  0.12624127152E+03  0.00000000000E+00 0. -1.
</event>
<event>
 8    1  0.7224924E-009  0.1018272E+03  0.7561462E-02  0.1276500E+00
          1   -1    0    0  501    0  0.00000000000E+00  0.00000000000E+00  0.37306823565E+03  0.37306823565E+03  0.00000000000E+00 0. -1.
         -1   -1    0    0    0  501 -0.00000000000E+00 -0.00000000000E+00 -0.65235702676E+02  0.65235702676E+02  0.00000000000E+00 0.  1.
         25    2    1    2    0    0 -0.17487980043E+02 -0.72025072495E+02  0.28442914610E+03  0.31943956170E+03  0.12509298107E+03 0.  0.
         23    2    1    2    0    0  0.17487980043E+02  0.72025072495E+02  0.23403386874E+02  0.11886437663E+03  0.89930979094E+02 0.  0.
          5    1    3    3  502    0  0.14837561401E+02  0.14464541922E+02  0.82579184512E+00  0.21154917478E+02  0.41800000000E+01 0. -1.
         -5    1    3    3    0  502 -0.32325541444E+02 -0.86489614417E+02  0.28360335426E+03  0.29828464422E+03  0.41800000000E+01 0. -1.
        -11    1    4    4    0    0 -0.18140448213E+02  0.29249048849E+02 -0.27017145961E+02  0.43755101369E+02  0.00000000000E+00 0.  1.
         11    1    4    4    0    0  0.35628428256E+02  0.42776023646E+02  0.50420532835E+02  0.75109275262E+02  0.00000000000E+00 0. -1.
</event>
<event>
 8    1  0.7224924E-009  0.2007784E+03  0.7561462E-02  0.1149084E+00
         -2   -1    0    0    0  501 -0.00000000000E+00  0.00000000000E+00  0.66024158485E+02  0.66024158485E+02  0.00000000000E+00 0. -1.
          2   -1    0    0  501    0  0.00000000000E+00 -0.00000000000E+00 -0.95479395320E+03  0.95479395320E+03  0.00000000000E+00 0.  1.
         25    2    1    2    0    0  0.12016684997E+03 -0.15810366712E+03 -0.23807412959E+03  0.33431075331E+03  0.12509015632E+03 0.  0.
         23    2    1    2    0    0 -0.12016684997E+03  0.15810366712E+03 -0.65069566512E+03  0.68650735838E+03  0.91927488297E+02 0.  0.
          5    1    3    3  502    0  0.16175040171E+02 -0.45046188817E+02 -0.14930808491E+03  0.15684759376E+03  0.41800000000E+01 0.  1.
         -5    1    3    3    0  502  0.10399180980E+03 -0.11305747831E+03 -0.88766044689E+02  0.17746315955E+03  0.41800000000E+01 0.  1.
        -11    1    4    4    0    0 -0.69500634415E+02  0.10910619609E+03 -0.53998810544E+03  0.55526719175E+03  0.00000000000E+00 0.  1.
         11    1    4    4    0    0 -0.50666215557E+02  0.48997471039E+02 -0.11070755968E+03  0.13124016663E+03  0.00000000000E+00 0. -1.
</event>
<event>
 8    1  0.7224924E-009  0.9257403E+02  0.7561462E-02  0.1296735E+00
          2   -1    0    0  501    0  0.00000000000E+00  0.00000000000E+00  0.17676424770E+03  0.17676424770E+03  0.00000000000E+00 0. -1.
         -2   -1    0    0    0  501 -0.00000000000E+00 -0.00000000000E+00 -0.81008442949E+02  0.81008442949E+02  0.00000000000E+00 0.  1.
         25    2    1    2    0    0  0.14604492328E+01  0.16106424321E+02  0.10585298595E+03  0.16466536906E+03  0.12509308262E+03 0.  0.
         23    2    1    2    0    0 -0.14604492328E+01 -0.16106424321E+02 -0.10097181200E+02  0.93107321580E+02  0.91134353825E+02 0.  0.
          5    1    3    3  502    0  0.61650819886E+02 -0.53541185575E+00  0.66269320171E+02  0.90610184054E+02  0.41800000000E+01 0.  1.
         -5    1    3    3    0  502 -0.60190370653E+02  0.16641836177E+02  0.39583665776E+02  0.74055185011E+02  0.41800000000E+01 0.  1.
        -11    1    4    4    0    0  0.16156340250E+02  0.16882030827E+02 -0.39256771908E+02  0.45685057030E+02  0.00000000000E+00 0.  1.
         11    1    4    4    0    0 -0.17616789483E+02 -0.32988455149E+02  0.29159590708E+02  0.47422264550E+02  0.00000000000E+00 0. -1.
</event>
<event>
 8    1  0.7224924E-009  0.8312274E+02  0.7561462E-02  0.1320416E+00
          2   -1    0    0  501    0  0.00000000000E+00  0.00000000000E+00  0.36766377554E+03  0.36766377554E+03  0.00000000000E+00 0. -1.
         -2   -1    0    0    0  501 -0.00000000000E+00 -0.00000000000E+00 -0.33849990810E+02  0.33849990810E+02  0.00000000000E+00 0.  1.
         25    2    1    2    0    0 -0.23639304070E+02 -0.67084525011E+01  0.22283655352E+03  0.25672201809E+03  0.12508495095E+03 0.  0.
         23    2    1    2    0    0  0.23639304070E+02  0.67084525011E+01  0.11097723121E+03  0.14479174826E+03  0.89693280046E+02 0.  0.
          5    1    3    3  502    0  0.17665418338E+01  0.46051787647E+02  0.30003829699E+02  0.55150612074E+02  0.41800000000E+01 0. -1.
         -5    1    3    3    0  502 -0.25405845903E+02 -0.52760240148E+02  0.19283272382E+03  0.20157140602E+03  0.41800000000E+01 0. -1.
        -11    1    4    4    0    0  0.62403511418E+01 -0.24635682549E+02 -0.27367439344E+01  0.25560684741E+02  0.00000000000E+00 0.  1.
         11    1    4    4    0    0  0.17398952928E+02  0.31344135050E+02  0.11371397514E+03  0.11923106352E+03  0.00000000000E+00 0. -1.
</event>
<event>
 8    1  0.7224924E-009  0.1225141E+03  0.7561462E-02  0.1239006E+00
          4   -1    0    0  501    0  0.00000000000E+00  0.00000000000E+00  0.85778330122E+02  0.85778330122E+02  0.00000000000E+00 0. -1.
         -4   -1    0    0    0  501 -0.00000000000E+00 -0.00000000000E+00 -0.26682599020E+03  0.26682599020E+03  0.00000000000E+00 0.  1.
         25    2    1    2    0    0  0.75982891886E+02  0.60964960264E+02 -0.14495791623E+03  0.21482833642E+03  0.12509312696E+03 0.  0.
         23    2    1    2    0    0 -0.75982891886E+02 -0.60964960264E+02 -0.36089743855E+02  0.13777598391E+03  0.90496551818E+02 0.  0.
          5    1    3    3  502    0 -0.97821684130E-02  0.29478348272E+02 -0.12711360408E+03  0.13055387338E+03  0.41800000000E+01 0. -1.
         -5    1    3    3    0  502  0.75992674055E+02  0.31486611992E+02 -0.17844312150E+02  0.84274463041E+02  0.41800000000E+01 0. -1.
        -11    1    4    4    0    0 -0.65204429071E+02 -0.84660390913E+02 -0.27185573350E+02  0.11026356950E+03  0.00000000000E+00 0.  1.
         11    1    4    4    0    0 -0.10778462815E+02  0.23695430649E+02 -0.89041705056E+01  0.27512414410E+02  0.00000000000E+00 0. -1.
</event>
<event>
 8    1  0.7224924E-009  0.1143827E+03  0.7561462E-02  0.1252663E+00
         -1   -1    0    0    0  501 -0.00000000000E+00  0.00000000000E+00  0.20830780044E+03  0.20830780044E+03  0.00000000000E+00 0.  1.
          1   -1    0    0  501    0  0.00000000000E+00 -0.00000000000E+00 -0.89053950193E+02  0.89053950193E+02  0.00000000000E+00 0. -1.
         25    2    1    2    0    0 -0.28416608172E+01 -0.66888807380E+02  0.11771815691E+03  0.18435573311E+03  0.12508910534E+03 0.  0.
         23    2    1    2    0    0  0.28416608172E+01  0.66888807380E+02  0.15356933320E+01  0.11300601752E+03  0.91026446999E+02 0.  0.
          5    1    3    3  502    0 -0.15577392621E+02  0.35271845055E+02  0.29871015472E+02  0.48954143643E+02  0.41800000000E+01 0.  1.
         -5    1    3    3    0  502  0.12735731804E+02 -0.10216065244E+03  0.87847141442E+02  0.13540158947E+03  0.41800000000E+01 0.  1.
        -11    1    4    4    0    0 -0.23368252485E+02  0.12341149651E+02  0.34996675355E+02  0.43853694084E+02  0.00000000000E+00 0.  1.
         11    1    4    4    0    0  0.26209913302E+02  0.54547657729E+02 -0.33460982023E+02  0.69152323438E+02  0.00000000000E+00 0. -1.
</event>
<event>
 8    1  0.7224924E-009  0.9260963E+02  0.7561462E-02  0.1296652E+00
          2   -1    0    0  501    0  0.00000000000E+00  0.00000000000E+00  0.10569812688E+03  0.10569812688E+03  0.00000000000E+00 0.  1.
         -2   -1    0    0    0  501 -0.00000000000E+00 -0.00000000000E+00 -0.16146335698E+03  0.16146335698E+03  0.00000000000E+00 0. -1.
         25    2    1    2    0    0 -0.47249585573E+01 -0.68738987287E+02 -0.51054180388E+02  0.15166528684E+03  0.12509378998E+03 0.  0.
         23    2    1    2    0    0  0.47249585573E+01  0.68738987287E+02 -0.47110497096E+01  0.11549619702E+03  0.92573235498E+02 0.  0.
          5    1    3    3  502    0  0.16950695021E+02 -0.86334811193E+02  0.57118342024E+01  0.88267339007E+02  0.41800000000E+01 0. -1.
         -5    1    3    3    0  502 -0.21675653579E+02  0.17595823906E+02 -0.56766014590E+02  0.63397947833E+02  0.41800000000E+01 0. -1.
        -11    1    4    4    0    0  0.14291180419E+01  0.27264080017E+02 -0.48146891849E+02  0.55348853938E+02  0.00000000000E+00 0. -1.
         11    1    4    4    0    0  0.32958405154E+01  0.41474907269E+02  0.43435842139E+02  0.60147343084E+02  0.00000000000E+00 0.  1.
</event>
<event>
 8    1  0.7224924E-009  0.1194894E+03  0.7561462E-02  0.1243942E+00
          1   -1    0    0  501    0  0.00000000000E+00  0.00000000000E+00  0.39051302742E+03  0.39051302742E+03  0.00000000000E+00 0. -1.
         -1   -1    0    0    0  501 -0.00000000000E+00 -0.00000000000E+00 -0.43480937752E+02  0.43480937752E+02  0.00000000000E+00 0.  1.
         25    2    1    2    0    0 -0.48549617952E+02  0.62097623900E+02  0.20850598332E+03  0.25560782089E+03  0.12508969871E+03 0.  0.
         23    2    1    2    0    0  0.48549617952E+02 -0.62097623900E+02  0.13852610634E+03  0.17838614428E+03  0.80118375140E+02 0.  0.
          5    1    3    3  502    0 -0.70249165649E+02 -0.50465769170E+01  0.14195520416E+03  0.15852181427E+03  0.41800000000E+01 0. -1.
         -5    1    3    3    0  502  0.21699547698E+02  0.67144200817E+02  0.66550779165E+02  0.97086006618E+02  0.41800000000E+01 0. -1.
        -11    1    4    4    0    0  0.13250812167E+02  0.10569974034E+02 -0.11930723106E+01  0.16992109808E+02  0.00000000000E+00 0.  1.
         11    1    4    4    0    0  0.35298805784E+02 -0.72667597934E+02  0.13971917865E+03  0.16139403447E+03  0.00000000000E+00 0. -1.
</event>
<event>
 8    1  0.7224924E-009  0.1261751E+03  0.7561462E-02  0.1233244E+00
         -2   -1    0    0    0  501 -0.00000000000E+00  0.00000000000E+00  0.51316855813E+02  0.51316855813E+02  0.00000000000E+00 0.  1.
          2   -1    0    0  501    0  0.00000000000E+00 -0.00000000000E+00 -0.50916310218E+03  0.50916310218E+03  0.00000000000E+00 0. -1.
         25    2    1    2    0    0 -0.65100914716E+02 -0.44193377333E+02 -0.88251502906E+02  0.17212553182E+03  0.12509071605E+03 0.  0.
         23    2    1    2    0    0  0.65100914716E+02  0.44193377333E+02 -0.36959474346E+03  0.38835442617E+03  0.89597445471E+02 0.  0.
          5    1    3    3  502    0  0.23632035179E+02  0.18152441167E+02  0.31261422941E+01  0.30252758100E+02  0.41800000000E+01 0. -1.
         -5    1    3    3    0  502 -0.88732949895E+02 -0.62345818500E+02 -0.91377645200E+02  0.14187277372E+03  0.41800000000E+01 0. -1.
        -11    1    4    4    0    0  0.23616506921E+02  0.63666301664E+02 -0.27476808480E+03  0.28303469362E+03  0.00000000000E+00 0. -1.
         11    1    4    4    0    0  0.41484407795E+02 -0.19472924331E+02 -0.94826658666E+02  0.10531973256E+03  0.00000000000E+00 0.  1.
</event>
<event>
 8    1  0.7224924E-009  0.1415288E+03  0.7561462E-02  0.1211287E+00
         -2   -1    0    0    0  501 -0.00000000000E+00  0.00000000000E+00  0.51538823716E+02  0.51538823716E+02  0.00000000000E+00 0.  1.
          2   -1    0    0  501    0  0.00000000000E+00 -0.00000000000E+00 -0.58753467320E+03  0.58753467320E+03  0.00000000000E+00 0. -1.
         25    2    1    2    0    0 -0.34964663445E+02 -0.85878646391E+02 -0.10211217653E+03  0.18620428050E+03  0.12508983925E+03 0.  0.
         23    2    1    2    0    0  0.34964663445E+02  0.85878646391E+02 -0.43388367296E+03  0.45286921642E+03  0.90762414722E+02 0.  0.
          5    1    3    3  502    0 -0.22587690690E+02 -0.11719063104E+03 -0.65168047400E+02  0.13604482561E+03  0.41800000000E+01 0. -1.
         -5    1    3    3    0  502 -0.12376972754E+02  0.31311984648E+02 -0.36944129127E+02  0.50159454883E+02  0.41800000000E+01 0. -1.
        -11    1    4    4    0    0  0.66085005032E+02  0.57992949450E+02 -0.29948257836E+03  0.31212213125E+03  0.00000000000E+00 0.  1.
         11    1    4    4    0    0 -0.31120341587E+02  0.27885696941E+02 -0.13440109460E+03  0.14074708517E+03  0.00000000000E+00 0. -1.
</event>
<event>
 8    1  0.7224924E-009  0.2148832E+03  0.7561462E-02  0.1137756E+00
         -1   -1    0    0    0  501 -0.00000000000E+00  0.00000000000E+00  0.22320566367E+03  0.22320566367E+03  0.00000000000E+00 0.  1.
          1   -1    0    0  501    0  0.00000000000E+00 -0.00000000000E+00 -0.26045504517E+03  0.26045504517E+03  0.00000000000E+00 0. -1.
         25    2    1    2    0    0  0.58820565056E+02 -0.19200082661E+03  0.57360216166E+02  0.24343222112E+03  0.12507947709E+03 0.  0.
         23    2    1    2    0    0 -0.58820565056E+02  0.19200082661E+03 -0.94609597664E+02  0.24022848773E+03  0.91839937136E+02 0.  0.
          5    1    3    3  502    0  0.59395445908E+02 -0.31115774053E+02  0.47328516493E+02  0.82179506344E+02  0.41800000000E+01 0. -1.
         -5    1    3    3    0  502 -0.57488085226E+00 -0.16088505255E+03  0.10031699673E+02  0.16125271477E+03  0.41800000000E+01 0. -1.
        -11    1    4    4    0    0 -0.82488998319E+01  0.54836205149E+02  0.15074652179E+02  0.57465632180E+02  0.00000000000E+00 0.  1.
         11    1    4    4    0    0 -0.50571665224E+02  0.13716462146E+03 -0.10968424984E+03  0.18276285554E+03  0.00000000000E+00 0. -1.
</event>
<event>
 8    1  0.7224924E-009  0.8067724E+02  0.7561462E-02  0.1327140E+00
         -2   -1    0    0    0  501 -0.00000000000E+00  0.00000000000E+00  0.38879743004E+02  0.38879743004E+02  0.00000000000E+00 0.  1.
          2   -1    0    0  501    0  0.00000000000E+00 -0.00000000000E+00 -0.42669647590E+03  0.42669647590E+03  0.00000000000E+00 0. -1.
         25    2    1    2    0    0 -0.68987997365E+02 -0.18738285978E+01 -0.20099931080E+03  0.24659858034E+03  0.12508909573E+03 0.  0.
         23    2    1    2    0    0  0.68987997365E+02  0.18738285978E+01 -0.18681742209E+03  0.21897763856E+03  0.91036267373E+02 0.  0.
          5    1    3    3  502    0  0.61421985173E+01 -0.65170146474E+01  0.14920018354E+02  0.17896296550E+02  0.41800000000E+01 0.  1.
         -5    1    3    3    0  502 -0.75130195882E+02  0.46431860496E+01 -0.21591932915E+03  0.22870228379E+03  0.41800000000E+01 0.  1.
        -11    1    4    4    0    0  0.32838412978E+02  0.16902376473E+02 -0.17386063199E+03  0.17774017850E+03  0.00000000000E+00 0. -1.
         11    1    4    4    0    0  0.36149584387E+02 -0.15028547875E+02 -0.12956790108E+02  0.41237460063E+02  0.00000000000E+00 0.  1.
</event>
<event>
 8    1  0.7224924E-009  0.9987517E+02  0.7561462E-02  0.1280559E+00
         -1   -1    0    0    0  501 -0.00000000000E+00  0.00000000000E+00  0.88267127031E+02  0.88267127031E+02  0.00000000000E+00 0.  1.
          1   -1    0    0  501    0  0.00000000000E+00 -0.00000000000E+00 -0.14237949888E+03  0.14237949888E+03  0.00000000000E+00 0. -1.
         25    2    1    2    0    0  0.17813343519E+02  0.17566685145E+02 -0.39708297170E+02  0.13360535587E+03  0.12509092141E+03 0.  0.
         23    2    1    2    0    0 -0.17813343519E+02 -0.17566685145E+02 -0.14404074678E+02  0.97041270035E+02  0.92647866076E+02 0.  0.
          5    1    3    3  502    0  0.38810016316E+02  0.54542353431E+02  0.10270067317E+02  0.67853020323E+02  0.41800000000E+01 0. -1.
         -5    1    3    3    0  502 -0.20996672797E+02 -0.36975668286E+02 -0.49978364487E+02  0.65752335552E+02  0.41800000000E+01 0. -1.
        -11    1    4    4    0    0  0.16640639212E+02 -0.43666121578E+02  0.94457627969E+01  0.47674558015E+02  0.00000000000E+00 0.  1.
         11    1    4    4    0    0 -0.34453982731E+02  0.26099436433E+02 -0.23849837475E+02  0.49366712021E+02  0.00000000000E+00 0. -1.
</event>
<event>
 8    1  0.7224924E-009  0.2168386E+03  0.7561462E-02  0.1136262E+00
         -1   -1    0    0    0  501 -0.00000000000E+00  0.00000000000E+00  0.44882876917E+02  0.44882876917E+02  0.00000000000E+00 0.  1.
          1   -1    0    0  501    0  0.00000000000E+00 -0.00000000000E+00 -0.11965354773E+04  0.11965354773E+04  0.00000000000E+00 0. -1.
         25    2    1    2    0    0 -0.15693780977E+03 -0.10952515704E+03 -0.39868761234E+03  0.45959401142E+03  0.12509838905E+03 0.  0.
         23    2    1    2    0    0  0.15693780977E+03  0.10952515704E+03 -0.75296498809E+03  0.78182434284E+03  0.87565938628E+02 0.  0.
          5    1    3    3  502    0 -0.64724640250E+02  0.17391537614E+02 -0.80663414892E+02  0.10495619819E+03  0.41800000000E+01 0. -1.
         -5    1    3    3    0  502 -0.92213169520E+02 -0.12691669465E+03 -0.31802419745E+03  0.35463781324E+03  0.41800000000E+01 0. -1.
        -11    1    4    4    0    0  0.11142510148E+03  0.25918765011E+02 -0.44601309532E+03  0.46045088426E+03  0.00000000000E+00 0.  1.
         11    1    4    4    0    0  0.45512708286E+02  0.83606392029E+02 -0.30695189277E+03  0.32137345858E+03  0.00000000000E+00 0. -1.
</event>
<event>
 8    1  0.7224924E-009  0.1085919E+03  0.7561462E-02  0.1263200E+00
          1   -1    0    0  501    0  0.00000000000E+00  0.00000000000E+00  0.39786766344E+03  0.39786766344E+03  0.00000000000E+00 0. -1.
         -1   -1    0    0    0  501 -0.00000000000E+00 -0.00000000000E+00 -0.36515933208E+02  0.36515933208E+02  0.00000000000E+00 0.  1.
         25    2    1    2    0    0 -0.59821830992E+01  0.41727645260E+02  0.15419900423E+03  0.20298182326E+03  0.12508918729E+03 0.  0.
         23    2    1    2    0    0  0.59821830992E+01 -0.41727645260E+02  0.20715272601E+03  0.23140177339E+03  0.94114536290E+02 0.  0.
          5    1    3    3  502    0  0.56810954250E+02  0.32491123893E+02  0.99075060055E+02  0.11881286790E+03  0.41800000000E+01 0.  1.
         -5    1    3    3    0  502 -0.62793137350E+02  0.92365213672E+01  0.55123944173E+02  0.84168955360E+02  0.41800000000E+01 0.  1.
        -11    1    4    4    0    0  0.41728941815E+02 -0.22548072266E+02  0.49269369037E+02  0.68389991031E+02  0.00000000000E+00 0.  1.
         11    1    4    4    0    0 -0.35746758716E+02 -0.19179572994E+02  0.15788335697E+03  0.16301178235E+03  0.00000000000E+00 0. -1.
</event>
<event>
 8    1  0.7224924E-009  0.8849752E+02  0.7561462E-02  0.1306532E+00
          1   -1    0    0  501    0  0.00000000000E+00  0.00000000000E+00  0.17000852444E+03  0.17000852444E+03  0.00000000000E+00 0. -1.
         -1   -1    0    0    0  501 -0.00000000000E+00 -0.00000000000E+00 -0.89832854735E+02  0.89832854735E+02  0.00000000000E+00 0.  1.
         25    2    1    2    0    0 -0.22994571428E+02  0.50408053809E+02  0.27339188405E+02  0.13951675155E+03  0.12509104899E+03 0.  0.
         23    2    1    2    0    0  0.22994571428E+02 -0.50408053809E+02  0.52836481303E+02  0.12032462763E+03  0.92825643293E+02 0.  0.
          5    1    3    3  502    0  0.90700713770E+01  0.49692191156E+02  0.69724277652E+02  0.86200506674E+02  0.41800000000E+01 0. -1.
         -5    1    3    3    0  502 -0.32064642805E+02  0.71586265244E+00 -0.42385089247E+02  0.53316244880E+02  0.41800000000E+01 0. -1.
        -11    1    4    4    0    0  0.50960963986E+02 -0.36832811786E+02  0.47406703351E+01  0.63056719148E+02  0.00000000000E+00 0.  1.
         11    1    4    4    0    0 -0.27966392558E+02 -0.13575242023E+02  0.48095810968E+02  0.57267908477E+02  0.00000000000E+00 0. -1.
</event>
<event>
 8    1  0.7224924E-009  0.1150346E+03  0.7561462E-02  0.1251521E+00
         -2   -1    0    0    0  501 -0.00000000000E+00  0.00000000000E+00  0.13213553388E+02  0.13213553388E+02  0.00000000000E+00 0.  1.
          2   -1    0    0  501    0  0.00000000000E+00 -0.00000000000E+00 -0.14745434777E+04  0.14745434777E+04  0.00000000000E+00 0. -1.
         25    2    1    2    0    0  0.42282609675E+02  0.58464032631E+02 -0.10726649980E+04  0.10823409070E+04  0.12508308772E+03 0.  0.
         23    2    1    2    0    0 -0.42282609675E+02 -0.58464032631E+02 -0.38866492625E+03  0.40541612403E+03  0.89977477923E+02 0.  0.
          5    1    3    3  502    0 -0.83650706104E+01  0.68737877518E+02 -0.88287730686E+03  0.88559848780E+03  0.41800000000E+01 0.  1.
         -5    1    3    3    0  502  0.50647680285E+02 -0.10273844886E+02 -0.18978769118E+03  0.19674241924E+03  0.41800000000E+01 0.  1.
        -11    1    4    4    0    0 -0.47329987443E+02  0.27675831081E+01 -0.10551481449E+03  0.11567697828E+03  0.00000000000E+00 0.  1.
         11    1    4    4    0    0  0.50473777683E+01 -0.61231615739E+02 -0.28315011176E+03  0.28973914575E+03  0.00000000000E+00 0. -1.
</event>
<event>
 8    1  0.7224924E-009  0.1218278E+03  0.7561462E-02  0.1240112E+00
          1   -1    0    0  501    0  0.00000000000E+00  0.00000000000E+00  0.73978129740E+02  0.73978129740E+02  0.00000000000E+00 0. -1.
         -1   -1    0    0    0  501 -0.00000000000E+00 -0.00000000000E+00 -0.26115905422E+03  0.26115905422E+03  0.00000000000E+00 0.  1.
         25    2    1    2    0    0  0.75119173982E+02 -0.35027105143E+02 -0.13253737276E+03  0.20020884034E+03  0.12509051195E+03 0.  0.
         23    2    1    2    0    0 -0.75119173982E+02  0.35027105143E+02 -0.54643551723E+02  0.13492834362E+03  0.91378070520E+02 0.  0.
          5    1    3    3  502    0  0.56182578648E+02  0.41304636284E+02 -0.76207286893E+02  0.10338074336E+03  0.41800000000E+01 0.  1.
         -5    1    3    3    0  502  0.18936595334E+02 -0.76331741427E+02 -0.56330085866E+02  0.96828096985E+02  0.41800000000E+01 0.  1.
        -11    1    4    4    0    0 -0.58567825437E+02  0.46600807677E+02  0.19172080995E+01  0.74869894747E+02  0.00000000000E+00 0. -1.
         11    1    4    4    0    0 -0.16551348545E+02 -0.11573702534E+02 -0.56560759823E+02  0.60058448870E+02  0.00000000000E+00 0.  1.
</event>
<event>
 8    1  0.7224924E-009  0.9713576E+02  0.7561462E-02  0.1286437E+00
         -1   -1    0    0    0  501 -0.00000000000E+00  0.00000000000E+00  0.24282252819E+03  0.24282252819E+03  0.00000000000E+00 0.  1.
          1   -1    0    0  501    0  0.00000000000E+00 -0.00000000000E+00 -0.65864226210E+02  0.65864226210E+02  0.00000000000E+00 0. -1.
         25    2    1    2    0    0  0.28271345480E+02 -0.43191289533E+02  0.14955286834E+03  0.20168898327E+03  0.12509048356E+03 0.  0.
         23    2    1    2    0    0 -0.28271345480E+02  0.43191289533E+02  0.27405433635E+02  0.10699777113E+03  0.89625380147E+02 0.  0.
          5    1    3    3  502    0 -0.52968686792E+01 -0.60312232096E+02  0.15202926921E+03  0.16369481744E+03  0.41800000000E+01 0.  1.
         -5    1    3    3    0  502  0.33568214159E+02  0.17120942563E+02 -0.24764008711E+01  0.37994165833E+02  0.41800000000E+01 0.  1.
        -11    1    4    4    0    0  0.25893620397E+02 -0.77713577294E+00 -0.10083706701E+02  0.27798644897E+02  0.00000000000E+00 0. -1.
         11    1    4    4    0    0 -0.54164965877E+02  0.43968425306E+02  0.37489140336E+02  0.79199126230E+02  0.00000000000E+00 0.  1.
</event>
<event>
 8    1  0.7224924E-009  0.1693883E+03  0.7561462E-02  0.1178487E+00
          2   -1    0    0  501    0  0.00000000000E+00  0.00000000000E+00  0.51388885514E+02  0.51388885514E+02  0.00000000000E+00 0. -1.
         -2   -1    0    0    0  501 -0.00000000000E+00 -0.00000000000E+00 -0.85269019881E+03  0.85269019881E+03  0.00000000000E+00 0.  1.
         25    2    1    2    0    0  0.40618590726E+01 -0.14513852328E+03 -0.64827803679E+03  0.67601354278E+03  0.12509279511E+03 0.  0.
         23    2    1    2    0    0 -0.40618590726E+01  0.14513852328E+03 -0.15302327650E+03  0.22806554155E+03  0.86695319657E+02 0.  0.
          5    1    3    3  502    0 -0.23856497722E+02 -0.15854896888E+03 -0.54007698727E+03  0.56338932595E+03  0.41800000000E+01 0. -1.
         -5    1    3    3    0  502  0.27918356794E+02  0.13410445604E+02 -0.10820104952E+03  0.11262421682E+03  0.41800000000E+01 0. -1.
        -11    1    4    4    0    0 -0.95492219162E+01  0.23402442235E+02 -0.84632452203E+02  0.88326179062E+02  0.00000000000E+00 0.  1.
         11    1    4    4    0    0  0.54873628436E+01  0.12173608105E+03 -0.68390824297E+02  0.13973936248E+03  0.00000000000E+00 0. -1.
</event>
<event>
 8    1  0.7224924E-009  0.1135568E+03  0.7561462E-02  0.1254122E+00
         -2   -1    0    0    0  501 -0.00000000000E+00  0.00000000000E+00  0.87527019657E+02  0.87527019657E+02  0.00000000000E+00 0.  1.
          2   -1    0    0  501    0  0.00000000000E+00 -0.00000000000E+00 -0.20366571539E+03  0.20366571539E+03  0.00000000000E+00 0. -1.
         25    2    1    2    0    0  0.34725279127E+02 -0.63579925232E+02 -0.39282790343E+02  0.14979541062E+03  0.12508907036E+03 0.  0.
         23    2    1    2    0    0 -0.34725279127E+02  0.63579925232E+02 -0.76855905386E+02  0.14139732442E+03  0.94011282609E+02 0.  0.
          5    1    3    3  502    0 -0.46372634166E+02 -0.11587029563E+02 -0.16258319138E+02  0.50660495406E+02  0.41800000000E+01 0. -1.
         -5    1    3    3    0  502  0.81097913293E+02 -0.51992895669E+02 -0.23024471205E+02  0.99134915216E+02  0.41800000000E+01 0. -1.
        -11    1    4    4    0    0 -0.43433435402E+02  0.47098887375E+02 -0.95521637380E+02  0.11501804950E+03  0.00000000000E+00 0. -1.
         11    1    4    4    0    0  0.87081562747E+01  0.16481037856E+02  0.18665731994E+02  0.26379274922E+02  0.00000000000E+00 0.  1.
</event>
<event>
 8    1  0.7224924E-009  0.1099491E+03  0.7561462E-02  0.1260664E+00
         -2   -1    0    0    0  501 -0.00000000000E+00  0.00000000000E+00  0.30287157620E+02  0.30287157620E+02  0.00000000000E+00 0.  1.
          2   -1    0    0  501    0  0.00000000000E+00 -0.00000000000E+00 -0.10497539866E+04  0.10497539866E+04  0.00000000000E+00 0. -1.
         25    2    1    2    0    0 -0.76483098860E+02  0.33153886477E+02 -0.88316137006E+03  0.89586266359E+03  0.12508821620E+03 0.  0.
         23    2    1    2    0    0  0.76483098860E+02 -0.33153886477E+02 -0.13630545888E+03  0.18417848060E+03  0.91617083535E+02 0.  0.
          5    1    3    3  502    0 -0.45743362238E+02 -0.36212352933E+02 -0.59438727897E+03  0.59725831890E+03  0.41800000000E+01 0. -1.
         -5    1    3    3    0  502 -0.30739736622E+02  0.69366239410E+02 -0.28877409109E+03  0.29860434468E+03  0.41800000000E+01 0. -1.
        -11    1    4    4    0    0  0.39392843878E+02 -0.69371868879E+01 -0.13272051359E+03  0.13861693777E+03  0.00000000000E+00 0. -1.
         11    1    4    4    0    0  0.37090254982E+02 -0.26216699589E+02 -0.35849452934E+01  0.45561542827E+02  0.00000000000E+00 0.  1.
</event>
<event>
 8    1  0.7224924E-009  0.6352198E+02  0.7561462E-02  0.1383619E+00
          1   -1    0    0  501    0  0.00000000000E+00  0.00000000000E+00  0.16831228466E+03  0.16831228466E+03  0.00000000000E+00 0. -1.
         -1   -1    0    0    0  501 -0.00000000000E+00 -0.00000000000E+00 -0.82929528704E+02  0.82929528704E+02  0.00000000000E+00 0.  1.
         25    2    1    2    0    0 -0.11635030487E+02 -0.72545545685E+01  0.92231561316E+02  0.15601978108E+03  0.12509000235E+03 0.  0.
         23    2    1    2    0    0  0.11635030487E+02  0.72545545685E+01 -0.68488053641E+01  0.95222032283E+02  0.93980459675E+02 0.  0.
          5    1    3    3  502    0  0.27834779956E+02 -0.25062307392E+02 -0.14796704674E+02  0.40488382237E+02  0.41800000000E+01 0.  1.
         -5    1    3    3    0  502 -0.39469810443E+02  0.17807752824E+02  0.10702826599E+03  0.11553139884E+03  0.41800000000E+01 0.  1.
        -11    1    4    4    0    0  0.22620463778E+02 -0.10529017307E+02 -0.45151481474E+02  0.51586838111E+02  0.00000000000E+00 0.  1.
         11    1    4    4    0    0 -0.10985433291E+02  0.17783571875E+02  0.38302676110E+02  0.43635194172E+02  0.00000000000E+00 0. -1.
</event>
<event>
 8    1  0.7224924E-009  0.1060777E+03  0.7561462E-02  0.1268011E+00
          2   -1    0    0  501    0  0.00000000000E+00  0.00000000000E+00  0.16629437088E+03  0.16629437088E+03  0.00000000000E+00 0. -1.
         -2   -1    0    0    0  501 -0.00000000000E+00 -0.00000000000E+00 -0.75025985702E+02  0.75025985702E+02  0.00000000000E+00 0.  1.
         25    2    1    2    0    0  0.27001222771E+01  0.25668032940E+02  0.45710795986E+02  0.13565585472E+03  0.12508755124E+03 0.  0.
         23    2    1    2    0    0 -0.27001222771E+01 -0.25668032940E+02  0.45557589187E+02  0.10566450186E+03  0.91778834409E+02 0.  0.
          5    1    3    3  502    0  0.59452772729E+02 -0.51997477248E+01  0.70206229531E+01  0.60236459958E+02  0.41800000000E+01 0.  1.
         -5    1    3    3    0  502 -0.56752650452E+02  0.30867780665E+02  0.38690173032E+02  0.75419394759E+02  0.41800000000E+01 0.  1.
        -11    1    4    4    0    0  0.29883240061E+02 -0.41679565638E+02  0.54631069274E+01  0.51575573342E+02  0.00000000000E+00 0.  1.
         11    1    4    4    0    0 -0.32583362338E+02  0.16011532697E+02  0.40094482260E+02  0.54088928518E+02  0.00000000000E+00 0. -1.
</event>
<event>
 8    1  0.7224924E-009  0.1583742E+03  0.7561462E-02  0.1190545E+00
          2   -1    0    0  501    0  0.00000000000E+00  0.00000000000E+00  0.24126322165E+03  0.24126322165E+03  0.00000000000E+00 0. -1.
         -2   -1    0    0    0  501 -0.00000000000E+00 -0.00000000000E+00 -0.12796676685E+03  0.12796676685E+03  0.00000000000E+00 0.  1.
         25    2    1    2    0    0  0.83967713351E+02  0.10497682734E+03  0.93934381962E+02  0.20625773268E+03  0.12509145859E+03 0.  0.
         23    2    1    2    0    0 -0.83967713351E+02 -0.10497682734E+03  0.19362072829E+02  0.16297225582E+03  0.90079715459E+02 0.  0.
          5    1    3    3  502    0 -0.12565246719E+02  0.53385578995E+02  0.78189069005E+02  0.95597637950E+02  0.41800000000E+01 0. -1.
         -5    1    3    3    0  502  0.96532960071E+02  0.51591248349E+02  0.15745312957E+02  0.11066009473E+03  0.41800000000E+01 0. -1.
        -11    1    4    4    0    0  0.13090535850E+02 -0.14271281993E+02  0.23013014264E+02  0.30077075058E+02  0.00000000000E+00 0. -1.
         11    1    4    4    0    0 -0.97058249201E+02 -0.90705545351E+02 -0.36509414352E+01  0.13289518076E+03  0.00000000000E+00 0.  1.
</event>
<event>
 8    1  0.7224924E-009  0.2525724E+03  0.7561462E-02  0.1111690E+00
          1   -1    0    0  501    0  0.00000000000E+00  0.00000000000E+00  0.67651522741E+02  0.67651522741E+02  0.00000000000E+00 0. -1.
         -1   -1    0    0    0  501 -0.00000000000E+00 -0.00000000000E+00 -0.13572660702E+04  0.13572660702E+04  0.00000000000E+00 0.  1.
         25    2    1    2    0    0 -0.23413021617E+03  0.78576168748E+02 -0.98077957247E+03  0.10191015024E+04  0.12509248556E+03 0.  0.
         23    2    1    2    0    0  0.23413021617E+03 -0.78576168748E+02 -0.30883497498E+03  0.40581609056E+03  0.91194765033E+02 0.  0.
          5    1    3    3  502    0 -0.11294629554E+03 -0.65100329885E+00 -0.25374982695E+03  0.27778361464E+03  0.41800000000E+01 0.  1.
         -5    1    3    3    0  502 -0.12118392063E+03  0.79227172047E+02 -0.72702974552E+03  0.74131788773E+03  0.41800000000E+01 0.  1.
        -11    1    4    4    0    0  0.15165420442E+02 -0.19536829622E+01 -0.74580249628E+02  0.76131599805E+02  0.00000000000E+00 0.  1.
         11    1    4    4    0    0  0.21896479573E+03 -0.76622485786E+02 -0.23425472535E+03  0.32968449076E+03  0.00000000000E+00 0. -1.
</event>
<event>
 8    1  0.7224924E-009  0.1152836E+03  0.7561462E-02  0.1251087E+00
         -1   -1    0    0    0  501 -0.00000000000E+00  0.00000000000E+00  0.60372607513E+02  0.60372607513E+02  0.00000000000E+00 0.  1.
          1   -1    0    0  501    0  0.00000000000E+00 -0.00000000000E+00 -0.34277190540E+03  0.34277190540E+03  0.00000000000E+00 0. -1.
         25    2    1    2    0    0  0.23289637415E+02  0.89191862668E+02 -0.11934168882E+03  0.19593166211E+03  0.12509669041E+03 0.  0.
         23    2    1    2    0    0 -0.23289637415E+02 -0.89191862668E+02 -0.16305760907E+03  0.20721285080E+03  0.88610304620E+02 0.  0.
          5    1    3    3  502    0  0.31314866922E+02  0.32603273449E+02 -0.12994877529E+03  0.13765082974E+03  0.41800000000E+01 0.  1.
         -5    1    3    3    0  502 -0.80252295072E+01  0.56588589219E+02  0.10607086469E+02  0.58280832370E+02  0.41800000000E+01 0.  1.
        -11    1    4    4    0    0 -0.56826103126E+02 -0.45591924021E+02 -0.93715327908E+02  0.11870295791E+03  0.00000000000E+00 0.  1.
         11    1    4    4    0    0  0.33536465711E+02 -0.43599938647E+02 -0.69342281162E+02  0.88509892889E+02  0.00000000000E+00 0. -1.
</event>
<event>
 8    1  0.7224924E-009  0.9584707E+02  0.7561462E-02  0.1289280E+00
          2   -1    0    0  501    0  0.00000000000E+00  0.00000000000E+00  0.12917107703E+03  0.12917107703E+03  0.00000000000E+00 0. -1.
         -2   -1    0    0    0  501 -0.00000000000E+00 -0.00000000000E+00 -0.11017520039E+03  0.11017520039E+03  0.00000000000E+00 0.  1.
         25    2    1    2    0    0  0.37727343968E+02 -0.34771529508E+02  0.17321717149E+02  0.13629683699E+03  0.12507747256E+03 0.  0.
         23    2    1    2    0    0 -0.37727343968E+02  0.34771529508E+02  0.16741594914E+01  0.10304944042E+03  0.89353078366E+02 0.  0.
          5    1    3    3  502    0  0.71040300413E+02 -0.28586136262E+02 -0.26146808033E+02  0.81024807556E+02  0.41800000000E+01 0. -1.
         -5    1    3    3    0  502 -0.33312956445E+02 -0.61853932455E+01  0.43468525182E+02  0.55272029438E+02  0.41800000000E+01 0. -1.
        -11    1    4    4    0    0 -0.79504904932E+01  0.47732105549E+02 -0.30609166314E+02  0.57258058487E+02  0.00000000000E+00 0.  1.
         11    1    4    4    0    0 -0.29776853475E+02 -0.12960576041E+02  0.32283325806E+02  0.45791381932E+02  0.00000000000E+00 0. -1.
</event>
<event>
 8    1  0.7224924E-009  0.1753005E+03  0.7561462E-02  0.1172430E+00
         -1   -1    0    0    0  501 -0.00000000000E+00  0.00000000000E+00  0.15597538795E+03  0.15597538795E+03  0.00000000000E+00 0.  1.
          1   -1    0    0  501    0  0.00000000000E+00 -0.00000000000E+00 -0.38977574453E+03  0.38977574453E+03  0.00000000000E+00 0. -1.
         25    2    1    2    0    0  0.11115995682E+03  0.12467868719E+03  0.40050470347E+02  0.21249214517E+03  0.12509020963E+03 0.  0.
         23    2    1    2    0    0 -0.11115995682E+03 -0.12467868719E+03 -0.27385082693E+03  0.33325898732E+03  0.90365735654E+02 0.  0.
          5    1    3    3  502    0  0.12031974411E+02  0.65931233796E+02 -0.34191151675E+02  0.75353853590E+02  0.41800000000E+01 0. -1.
         -5    1    3    3    0  502  0.99127982411E+02  0.58747453389E+02  0.74241622021E+02  0.13713829158E+03  0.41800000000E+01 0. -1.
        -11    1    4    4    0    0 -0.10721643955E+03 -0.11277778884E+03 -0.27919431326E+03  0.31963050405E+03  0.00000000000E+00 0. -1.
         11    1    4    4    0    0 -0.39435172747E+01 -0.11900898349E+02  0.53434863300E+01  0.13628483268E+02  0.00000000000E+00 0.  1.
</event>
<event>
 8    1  0.7224924E-009  0.1063461E+03  0.7561462E-02  0.1267490E+00
         -3   -1    0    0    0  501 -0.00000000000E+00  0.00000000000E+00  0.88305196871E+02  0.88305196871E+02  0.00000000000E+00 0.  1.
          3   -1    0    0  501    0  0.00000000000E+00 -0.00000000000E+00 -0.18816584184E+03  0.18816584184E+03  0.00000000000E+00 0. -1.
         25    2    1    2    0    0 -0.47342835389E+02 -0.49356656666E+02 -0.66578355372E+02  0.15734697661E+03  0.12509184636E+03 0.  0.
         23    2    1    2    0    0  0.47342835389E+02  0.49356656666E+02 -0.33282289593E+02  0.11912406210E+03  0.91681010848E+02 0.  0.
          5    1    3    3  502    0  0.18449469365E+02 -0.64650488935E+02 -0.58449994988E+02  0.89184880745E+02  0.41800000000E+01 0.  1.
         -5    1    3    3    0  502 -0.65792304754E+02  0.15293832269E+02 -0.81283603838E+01  0.68162095866E+02  0.41800000000E+01 0.  1.
        -11    1    4    4    0    0  0.30721028700E+02  0.61079406020E+01  0.28194402974E+02  0.42142768085E+02  0.00000000000E+00 0.  1.
         11    1    4    4    0    0  0.16621806689E+02  0.43248716064E+02 -0.61476692568E+02  0.76981294012E+02  0.00000000000E+00 0. -1.
</event>
<event>
 8    1  0.7224924E-009  0.1334229E+03  0.7561462E-02  0.1222463E+00
         -3   -1    0    0    0  501 -0.00000000000E+00  0.00000000000E+00  0.16066973854E+04  0.16066973854E+04  0.00000000000E+00 0.  1.
          3   -1    0    0  501    0  0.00000000000E+00 -0.00000000000E+00 -0.17209259414E+02  0.17209259414E+02  0.00000000000E+00 0. -1.
         25    2    1    2    0    0 -0.11748459483E+03  0.33210487833E+02  0.10204712175E+04  0.10353329782E+04  0.12508918228E+03 0.  0.
         23    2    1    2    0    0  0.11748459483E+03 -0.33210487833E+02  0.56901690852E+03  0.58857366663E+03  0.87938343959E+02 0.  0.
          5    1    3    3  502    0 -0.56885992523E+02  0.94480165941E+01  0.12765750265E+03  0.14013989991E+03  0.41800000000E+01 0.  1.
         -5    1    3    3    0  502 -0.60598602306E+02  0.23762471239E+02  0.89281371481E+03  0.89519307827E+03  0.41800000000E+01 0.  1.
        -11    1    4    4    0    0  0.12486048537E+03 -0.17023201787E+02  0.54024103638E+03  0.55474346107E+03  0.00000000000E+00 0.  1.
         11    1    4    4    0    0 -0.73758905395E+01 -0.16187286046E+02  0.28775872139E+02  0.33830205559E+02  0.00000000000E+00 0. -1.
</event>
<event>
 8    1  0.7224924E-009  0.1201475E+03  0.7561462E-02  0.1242854E+00
          2   -1    0    0  501    0  0.00000000000E+00  0.00000000000E+00  0.28509651916E+03  0.28509651916E+03  0.00000000000E+00 0. -1.
         -2   -1    0    0    0  501 -0.00000000000E+00 -0.00000000000E+00 -0.87837984954E+02  0.87837984954E+02  0.00000000000E+00 0.  1.
         25    2    1    2    0    0 -0.71569749368E+01 -0.11118619095E+03  0.12149518925E+03  0.20693662468E+03  0.12509234300E+03 0.  0.
         23    2    1    2    0    0  0.71569749368E+01  0.11118619095E+03  0.75763344962E+02  0.16599787944E+03  0.96961952278E+02 0.  0.
          5    1    3    3  502    0  0.25055480754E+01 -0.10061410389E+03  0.17946107776E+02  0.10231818439E+03  0.41800000000E+01 0.  1.
         -5    1    3    3    0  502 -0.96625230123E+01 -0.10572087060E+02  0.10354908147E+03  0.10461844029E+03  0.41800000000E+01 0.  1.
        -11    1    4    4    0    0 -0.23787155046E+02  0.34092235891E+02 -0.13836710106E+02  0.43812827343E+02  0.00000000000E+00 0.  1.
         11    1    4    4    0    0  0.30944129982E+02  0.77093955057E+02  0.89600055068E+02  0.12218505209E+03  0.00000000000E+00 0. -1.
</event>
<event>
 8    1  0.7224924E-009  0.2051654E+03  0.7561462E-02  0.1145453E+00
         -1   -1    0    0    0  501 -0.00000000000E+00  0.00000000000E+00  0.15376169173E+03  0.15376169173E+03  0.00000000000E+00 0.  1.
          1   -1    0    0  501    0  0.00000000000E+00 -0.00000000000E+00 -0.35752321663E+03  0.35752321663E+03  0.00000000000E+00 0. -1.
         25    2    1    2    0    0 -0.55947953716E+01  0.18649341378E+03 -0.20489720475E+03  0.30404107003E+03  0.12508801956E+03 0.  0.
         23    2    1    2    0    0  0.55947953716E+01 -0.18649341378E+03  0.11356798453E+01  0.20724383832E+03  0.90208778043E+02 0.  0.
          5    1    3    3  502    0 -0.40361066968E+02  0.64363040445E+02 -0.14462564809E+03  0.16341868678E+03  0.41800000000E+01 0.  1.
         -5    1    3    3    0  502  0.34766271596E+02  0.12213037333E+03 -0.60271556654E+02  0.14062238325E+03  0.41800000000E+01 0.  1.
        -11    1    4    4    0    0 -0.17064998596E+02 -0.18355219176E+03  0.23944978030E+01  0.18435930922E+03  0.00000000000E+00 0.  1.
         11    1    4    4    0    0  0.22659793968E+02 -0.29412220205E+01 -0.12588179577E+01  0.22884529103E+02  0.00000000000E+00 0. -1.
</event>
<event>
 8    1  0.7224924E-009  0.1057836E+03  0.7561462E-02  0.1268583E+00
         -2   -1    0    0    0  501 -0.00000000000E+00  0.00000000000E+00  0.69455440630E+02  0.69455440630E+02  0.00000000000E+00 0. -1.
          2   -1    0    0  501    0  0.00000000000E+00 -0.00000000000E+00 -0.20176346731E+03  0.20176346731E+03  0.00000000000E+00 0.  1.
         25    2    1    2    0    0  0.43000022256E+02 -0.55698880203E+01 -0.96028981238E+02  0.16355204014E+03  0.12509068323E+03 0.  0.
         23    2    1    2    0    0 -0.43000022256E+02  0.55698880203E+01 -0.36279045441E+02  0.10766686780E+03  0.91629469694E+02 0.  0.
          5    1    3    3  502    0 -0.77132353159E+01  0.42483398541E+02 -0.81123578543E+02  0.91993698405E+02  0.41800000000E+01 0. -1.
         -5    1    3    3    0  502  0.50713257572E+02 -0.48053286561E+02 -0.14905402695E+02  0.71558341739E+02  0.41800000000E+01 0. -1.
        -11    1    4    4    0    0 -0.26692510455E+02  0.46790900390E+02 -0.33095138680E+02  0.63223149858E+02  0.00000000000E+00 0. -1.
         11    1    4    4    0    0 -0.16307511801E+02 -0.41221012370E+02 -0.31839067616E+01  0.44443717939E+02  0.00000000000E+00 0.  1.
</event>
<event>
 8    1  0.7224924E-009  0.2684974E+03  0.7561462E-02  0.1102143E+00
          1   -1    0    0  501    0  0.00000000000E+00  0.00000000000E+00  0.35169241571E+03  0.35169241571E+03  0.00000000000E+00 0. -1.
         -1   -1    0    0    0  501 -0.00000000000E+00 -0.00000000000E+00 -0.24175250487E+03  0.24175250487E+03  0.00000000000E+00 0.  1.
         25    2    1    2    0    0  0.19541721681E+03  0.16439320040E+03 -0.36118607219E+02  0.28664826619E+03  0.12509860813E+03 0.  0.
         23    2    1    2    0    0 -0.19541721681E+03 -0.16439320040E+03  0.14605851807E+03  0.30679665439E+03  0.87052188270E+02 0.  0.
          5    1    3    3  502    0  0.15143879896E+03  0.17824057572E+03 -0.11485518075E+02  0.23420675094E+03  0.41800000000E+01 0.  1.
         -5    1    3    3    0  502  0.43978417855E+02 -0.13847375320E+02 -0.24633089144E+02  0.52441515243E+02  0.41800000000E+01 0.  1.
        -11    1    4    4    0    0 -0.58994957216E+02 -0.66292234777E+02  0.75963891422E+01  0.89066101838E+02  0.00000000000E+00 0.  1.
         11    1    4    4    0    0 -0.13642225960E+03 -0.98100965621E+02  0.13846212892E+03  0.21773055255E+03  0.00000000000E+00 0. -1.
</event>
<event>
 8    1  0.7224924E-009  0.1561720E+03  0.7561462E-02  0.1193088E+00
         -2   -1    0    0    0  501 -0.00000000000E+00  0.00000000000E+00  0.86163824682E+02  0.86163824682E+02  0.00000000000E+00 0. -1.
          2   -1    0    0  501    0  0.00000000000E+00 -0.00000000000E+00 -0.45878445388E+03  0.45878445388E+03  0.00000000000E+00 0.  1.
         25    2    1    2    0    0 -0.15335732378E+03  0.11650265954E+02 -0.27786186706E+03  0.34133399902E+03  0.12508990473E+03 0.  0.
         23    2    1    2    0    0  0.15335732378E+03 -0.11650265954E+02 -0.94758762143E+02  0.20361427955E+03  0.93943357287E+02 0.  0.
          5    1    3    3  502    0 -0.12061642895E+03  0.23009217047E+02 -0.28060086008E+03  0.30632019535E+03  0.41800000000E+01 0.  1.
         -5    1    3    3    0  502 -0.32740894835E+02 -0.11358951093E+02  0.27389930226E+01  0.35013803668E+02  0.41800000000E+01 0.  1.
        -11    1    4    4    0    0  0.19180754789E+02  0.36630640098E+01 -0.61508209552E+02  0.64533551232E+02  0.00000000000E+00 0.  1.
         11    1    4    4    0    0  0.13417656899E+03 -0.15313329964E+02 -0.33250552591E+02  0.13908072832E+03  0.00000000000E+00 0. -1.
</event>
<event>
 8    1  0.7224924E-009  0.1045748E+03  0.7561462E-02  0.1270960E+00
         -1   -1    0    0    0  501 -0.00000000000E+00  0.00000000000E+00  0.45421621542E+02  0.45421621542E+02  0.00000000000E+00 0.  1.
          1   -1    0    0  501    0  0.00000000000E+00 -0.00000000000E+00 -0.55888050992E+03  0.55888050992E+03  0.00000000000E+00 0. -1.
         25    2    1    2    0    0 -0.17463755643E+02  0.79525319354E+02 -0.12041660155E+03  0.19177413013E+03  0.12509156598E+03 0.  0.
         23    2    1    2    0    0  0.17463755643E+02 -0.79525319354E+02 -0.39304228683E+03  0.41252800133E+03  0.95225277460E+02 0.  0.
          5    1    3    3  502    0  0.22826841977E+02  0.33403567590E+02  0.14795193253E+02  0.43280863967E+02  0.41800000000E+01 0.  1.
         -5    1    3    3    0  502 -0.40290597620E+02  0.46121751764E+02 -0.13521179480E+03  0.14849326616E+03  0.41800000000E+01 0.  1.
        -11    1    4    4    0    0  0.66108731712E+01  0.12653443453E+02 -0.78114612662E+01  0.16273665918E+02  0.00000000000E+00 0.  1.
         11    1    4    4    0    0  0.10852882472E+02 -0.92178762807E+02 -0.38523082556E+03  0.39625433541E+03  0.00000000000E+00 0. -1.
</event>
<event>
 8    1  0.7224924E-009  0.1158789E+03  0.7561462E-02  0.1250055E+00
         -1   -1    0    0    0  501 -0.00000000000E+00  0.00000000000E+00  0.47949459788E+02  0.47949459788E+02  0.00000000000E+00 0.  1.
          1   -1    0    0  501    0  0.00000000000E+00 -0.00000000000E+00 -0.41548165010E+03  0.41548165010E+03  0.00000000000E+00 0. -1.
         25    2    1    2    0    0  0.98934818880E+01  0.61267373417E+02 -0.30360025112E+03  0.33417292104E+03  0.12508739605E+03 0.  0.
         23    2    1    2    0    0 -0.98934818880E+01 -0.61267373417E+02 -0.63931939190E+02  0.12925818884E+03  0.93641948421E+02 0.  0.
          5    1    3    3  502    0  0.59944829552E+02  0.78601018871E+01 -0.18568520178E+03  0.19532442334E+03  0.41800000000E+01 0.  1.
         -5    1    3    3    0  502 -0.50051347664E+02  0.53407271530E+02 -0.11791504934E+03  0.13884849771E+03  0.41800000000E+01 0.  1.
        -11    1    4    4    0    0 -0.12913442789E+02 -0.78901184493E+02 -0.20873366703E+02  0.82630813602E+02  0.00000000000E+00 0.  1.
         11    1    4    4    0    0  0.30199609005E+01  0.17633811076E+02 -0.43058572487E+02  0.46627375237E+02  0.00000000000E+00 0. -1.
</event>
<event>
 8    1  0.7224924E-009  0.1725629E+03  0.7561462E-02  0.1175201E+00
         -3   -1    0    0    0  501 -0.00000000000E+00  0.00000000000E+00  0.89402255329E+03  0.89402255329E+03  0.00000000000E+00 0.  1.
          3   -1    0    0  501    0  0.00000000000E+00 -0.00000000000E+00 -0.41440409044E+02  0.41440409044E+02  0.00000000000E+00 0. -1.
         25    2    1    2    0    0  0.13355690114E+03 -0.70823017025E+02  0.33595704575E+03  0.38906096040E+03  0.12509176126E+03 0.  0.
         23    2    1    2    0    0 -0.13355690114E+03  0.70823017025E+02  0.51662509849E+03  0.54640200193E+03  0.93809966089E+02 0.  0.
          5    1    3    3  502    0  0.76291412925E+02 -0.99159858134E+02  0.16950923780E+03  0.21072235584E+03  0.41800000000E+01 0. -1.
         -5    1    3    3    0  502  0.57265488219E+02  0.28336841109E+02  0.16644780795E+03  0.17833860456E+03  0.41800000000E+01 0. -1.
        -11    1    4    4    0    0 -0.22709100309E+02  0.30357266532E+02  0.38898421153E+02  0.54317161527E+02  0.00000000000E+00 0. -1.
         11    1    4    4    0    0 -0.11084780083E+03  0.40465750493E+02  0.47772667734E+03  0.49208484040E+03  0.00000000000E+00 0.  1.
</event>
<event>
 8    1  0.7224924E-009  0.5939606E+02  0.7561462E-02  0.1400384E+00
          2   -1    0    0  501    0  0.00000000000E+00  0.00000000000E+00  0.23731264244E+03  0.23731264244E+03  0.00000000000E+00 0. -1.
         -2   -1    0    0    0  501 -0.00000000000E+00 -0.00000000000E+00 -0.52146096544E+02  0.52146096544E+02  0.00000000000E+00 0.  1.
         25    2    1    2    0    0 -0.21247366331E+02  0.15210420239E+02  0.11885104543E+03  0.17451657341E+03  0.12509059091E+03 0.  0.
         23    2    1    2    0    0  0.21247366331E+02 -0.15210420239E+02  0.66315500468E+02  0.11494216558E+03  0.90172880436E+02 0.  0.
          5    1    3    3  502    0 -0.12138586010E+02  0.29673189209E+02  0.14188992123E+03  0.14552685517E+03  0.41800000000E+01 0.  1.
         -5    1    3    3    0  502 -0.91087803214E+01 -0.14462768969E+02 -0.23038875802E+02  0.28989718236E+02  0.41800000000E+01 0.  1.
        -11    1    4    4    0    0  0.16532876858E+02  0.24125874207E+02 -0.83510816945E+01  0.30416021911E+02  0.00000000000E+00 0.  1.
         11    1    4    4    0    0  0.47144894733E+01 -0.39336294446E+02  0.74666582162E+02  0.84526143669E+02  0.00000000000E+00 0. -1.
</event>
<event>
 8    1  0.7224924E-009  0.8839883E+02  0.7561462E-02  0.1306776E+00
          2   -1    0    0  501    0  0.00000000000E+00  0.00000000000E+00  0.66384007558E+03  0.66384007558E+03  0.00000000000E+00 0. -1.
         -2   -1    0    0    0  501 -0.00000000000E+00 -0.00000000000E+00 -0.26167465498E+02  0.26167465498E+02  0.00000000000E+00 0.  1.
         25    2    1    2    0    0  0.32017397082E+02 -0.61377035055E+02  0.26831354309E+03  0.30402639312E+03  0.12509051186E+03 0.  0.
         23    2    1    2    0    0 -0.32017397082E+02  0.61377035055E+02  0.36935906699E+03  0.38598114796E+03  0.88108297358E+02 0.  0.
          5    1    3    3  502    0  0.42519205584E+02 -0.14538578247E+02  0.17143527192E+02  0.48276557723E+02  0.41800000000E+01 0.  1.
         -5    1    3    3    0  502 -0.10501808503E+02 -0.46838456808E+02  0.25117001590E+03  0.25574983540E+03  0.41800000000E+01 0.  1.
        -11    1    4    4    0    0 -0.14818418108E+02 -0.44305679001E+01  0.64577596708E+01  0.16760611776E+02  0.00000000000E+00 0.  1.
         11    1    4    4    0    0 -0.17198978973E+02  0.65807602955E+02  0.36290130732E+03  0.36922053618E+03  0.00000000000E+00 0. -1.
</event>
<event>
 8    1  0.7224924E-009  0.1271478E+03  0.7561462E-02  0.1231750E+00
         -2   -1    0    0    0  501 -0.00000000000E+00  0.00000000000E+00  0.37306860333E+02  0.37306860333E+02  0.00000000000E+00 0. -1.
          2   -1    0    0  501    0  0.00000000000E+00 -0.00000000000E+00 -0.61666191760E+03  0.61666191760E+03  0.00000000000E+00 0.  1.
         25    2    1    2    0    0 -0.35803408684E+02 -0.97708392652E+02 -0.31087349240E+03  0.35088315912E+03  0.12509136265E+03 0.  0.
         23    2    1    2    0    0  0.35803408684E+02  0.97708392652E+02 -0.26848156487E+03  0.30308561881E+03  0.94602999902E+02 0.  0.
          5    1    3    3  502    0  0.22341459441E+02 -0.68294380747E+02 -0.25494093672E+03  0.26490680789E+03  0.41800000000E+01 0.  1.
         -5    1    3    3    0  502 -0.58144868125E+02 -0.29414011905E+02 -0.55932555681E+02  0.85976351229E+02  0.41800000000E+01 0.  1.
        -11    1    4    4    0    0 -0.10105580823E+02  0.12321092225E+01  0.35841007235E+01  0.10792897428E+02  0.00000000000E+00 0. -1.
         11    1    4    4    0    0  0.45908989507E+02  0.96476283430E+02 -0.27206566559E+03  0.29229272138E+03  0.00000000000E+00 0.  1.
</event>
<event>
 8    1  0.7224924E-009  0.1329818E+03  0.7561462E-02  0.1223097E+00
          1   -1    0    0  501    0  0.00000000000E+00  0.00000000000E+00  0.15716887479E+03  0.15716887479E+03  0.00000000000E+00 0. -1.
         -1   -1    0    0    0  501 -0.00000000000E+00 -0.00000000000E+00 -0.15997192889E+03  0.15997192889E+03  0.00000000000E+00 0.  1.
         25    2    1    2    0    0 -0.86152813271E+02 -0.12927270495E+02  0.70272666405E+02  0.16785258250E+03  0.12508725056E+03 0.  0.
         23    2    1    2    0    0  0.86152813271E+02  0.12927270495E+02 -0.73075720509E+02  0.14928822117E+03  0.96734122710E+02 0.  0.
          5    1    3    3  502    0 -0.77589560473E+02  0.39281573572E+02  0.74531521567E+02  0.11461065406E+03  0.41800000000E+01 0.  1.
         -5    1    3    3    0  502 -0.85632527977E+01 -0.52208844067E+02 -0.42588551619E+01  0.53241928445E+02  0.41800000000E+01 0.  1.
        -11    1    4    4    0    0  0.42371960863E+02 -0.39219435385E+02 -0.14644805289E+02  0.59565237356E+02  0.00000000000E+00 0. -1.
         11    1    4    4    0    0  0.43780852408E+02  0.52146705880E+02 -0.58430915221E+02  0.89722983818E+02  0.00000000000E+00 0.  1.
</event>
<event>
 8    1  0.7224924E-009  0.1233516E+03  0.7561462E-02  0.1237668E+00
          1   -1    0    0  501    0  0.00000000000E+00  0.00000000000E+00  0.18084886093E+02  0.18084886093E+02  0.00000000000E+00 0. -1.
         -1   -1    0    0    0  501 -0.00000000000E+00 -0.00000000000E+00 -0.97079366407E+03  0.97079366407E+03  0.00000000000E+00 0.  1.
         25    2    1    2    0    0  0.21067250314E+02  0.72632034163E+02 -0.47768669104E+03  0.49955152620E+03  0.12509161084E+03 0.  0.
         23    2    1    2    0    0 -0.21067250314E+02 -0.72632034163E+02 -0.47502208694E+03  0.48932702397E+03  0.89864964731E+02 0.  0.
          5    1    3    3  502    0 -0.38457281523E+02  0.55256576672E+02 -0.13107743699E+03  0.14741444521E+03  0.41800000000E+01 0. -1.
         -5    1    3    3    0  502  0.59524531837E+02  0.17375457492E+02 -0.34660925405E+03  0.35213708099E+03  0.41800000000E+01 0. -1.
        -11    1    4    4    0    0  0.29972741774E+02 -0.55831478051E+02 -0.27574091243E+03  0.28292855985E+03  0.00000000000E+00 0.  1.
         11    1    4    4    0    0 -0.51039992088E+02 -0.16800556112E+02 -0.19928117451E+03  0.20639846412E+03  0.00000000000E+00 0. -1.
</event>
<event>
 8    1  0.7224924E-009  0.1001068E+03  0.7561462E-02  0.1280072E+00
         -3   -1    0    0    0  501 -0.00000000000E+00  0.00000000000E+00  0.24223069376E+02  0.24223069376E+02  0.00000000000E+00 0.  1.
          3   -1    0    0  501    0  0.00000000000E+00 -0.00000000000E+00 -0.76410705296E+03  0.76410705296E+03  0.00000000000E+00 0. -1.
         25    2    1    2    0    0  0.19802011130E+01 -0.64688533773E+02 -0.26697363826E+03  0.30184516510E+03  0.12508817917E+03 0.  0.
         23    2    1    2    0    0 -0.19802011130E+01  0.64688533773E+02 -0.47291034532E+03  0.48648495724E+03  0.93994102508E+02 0.  0.
          5    1    3    3  502    0  0.16381191840E+02 -0.68573471716E+02 -0.55550756979E+02  0.89855570057E+02  0.41800000000E+01 0. -1.
         -5    1    3    3    0  502 -0.14400990727E+02  0.38849379433E+01 -0.21142288128E+03  0.21198959504E+03  0.41800000000E+01 0. -1.
        -11    1    4    4    0    0 -0.43996107018E+02  0.99771115766E+01 -0.19186945896E+03  0.19710172366E+03  0.00000000000E+00 0.  1.
         11    1    4    4    0    0  0.42015905905E+02  0.54711422196E+02 -0.28104088636E+03  0.28938323358E+03  0.00000000000E+00 0. -1.
</event>
<event>
 8    1  0.7224924E-009  0.8375655E+02  0.7561462E-02  0.1318717E+00
          1   -1    0    0  501    0  0.00000000000E+00  0.00000000000E+00  0.17476176648E+03  0.17476176648E+03  0.00000000000E+00 0. -1.
         -1   -1    0    0    0  501 -0.00000000000E+00 -0.00000000000E+00 -0.10568446917E+03  0.10568446917E+03  0.00000000000E+00 0.  1.
         25    2    1    2    0    0 -0.36261207383E+02  0.48106419097E+02  0.94350555625E+02  0.16786087560E+03  0.12508454537E+03 0.  0.
         23    2    1    2    0    0  0.36261207383E+02 -0.48106419097E+02 -0.25273258307E+02  0.11258536005E+03  0.91693091307E+02 0.  0.
          5    1    3    3  502    0 -0.34863686185E+02  0.17909409891E+02 -0.23657080930E+02  0.45971224208E+02  0.41800000000E+01 0.  1.
         -5    1    3    3    0  502 -0.13975211976E+01  0.30197009205E+02  0.11800763656E+03  0.12188965139E+03  0.41800000000E+01 0.  1.
        -11    1    4    4    0    0  0.54879892355E+02 -0.10868069939E+02  0.11409052141E+02  0.57097145286E+02  0.00000000000E+00 0.  1.
         11    1    4    4    0    0 -0.18618684972E+02 -0.37238349158E+02 -0.36682310448E+02  0.55488214766E+02  0.00000000000E+00 0. -1.
</event>
<event>
 8    1  0.7224924E-009  0.1604237E+03  0.7561462E-02  0.1188219E+00
          1   -1    0    0  501    0  0.00000000000E+00  0.00000000000E+00  0.64413379424E+02  0.64413379424E+02  0.00000000000E+00 0. -1.
         -1   -1    0    0    0  501 -0.00000000000E+00 -0.00000000000E+00 -0.43159226445E+03  0.43159226445E+03  0.00000000000E+00 0.  1.
         25    2    1    2    0    0 -0.88799350383E+02  0.82718242852E+02 -0.14535090396E+03  0.22694127694E+03  0.12509126895E+03 0.  0.
         23    2    1    2    0    0  0.88799350383E+02 -0.82718242852E+02 -0.22182798106E+03  0.26906436693E+03  0.91980150248E+02 0.  0.
          5    1    3    3  502    0 -0.20492186546E+02 -0.33322828613E+02 -0.28125928128E+02  0.48361977310E+02  0.41800000000E+01 0. -1.
         -5    1    3    3    0  502 -0.68307163837E+02  0.11604107147E+03 -0.11722497583E+03  0.17857929963E+03  0.41800000000E+01 0. -1.
        -11    1    4    4    0    0 -0.16085589502E+02 -0.76867094929E+01 -0.84154834994E+01  0.19714260193E+02  0.00000000000E+00 0. -1.
         11    1    4    4    0    0  0.10488493989E+03 -0.75031533359E+02 -0.21341249756E+03  0.24935010674E+03  0.00000000000E+00 0.  1.
</event>
<event>
 8    1  0.7224924E-009  0.9022158E+02  0.7561462E-02  0.1302316E+00
         -1   -1    0    0    0  501 -0.00000000000E+00  0.00000000000E+00  0.17011056565E+02  0.17011056565E+02  0.00000000000E+00 0.  1.
          1   -1    0    0  501    0  0.00000000000E+00 -0.00000000000E+00 -0.71887193940E+03  0.71887193940E+03  0.00000000000E+00 0. -1.
         25    2    1    2    0    0  0.82055289139E+01 -0.13735388243E+02 -0.43498145306E+03  0.45289382700E+03  0.12509181601E+03 0.  0.
         23    2    1    2    0    0 -0.82055289139E+01  0.13735388243E+02 -0.26687942977E+03  0.28298916896E+03  0.92748305210E+02 0.  0.
          5    1    3    3  502    0 -0.30023208500E+02  0.19120532487E+02 -0.36281089162E+02  0.50997819973E+02  0.41800000000E+01 0. -1.
         -5    1    3    3    0  502  0.38228737414E+02 -0.32855920731E+02 -0.39870036389E+03  0.40189600702E+03  0.41800000000E+01 0. -1.
        -11    1    4    4    0    0  0.85026605799E+01  0.51778770895E+02 -0.15522979390E+03  0.16385855262E+03  0.00000000000E+00 0. -1.
         11    1    4    4    0    0 -0.16708189494E+02 -0.38043382652E+02 -0.11164963588E+03  0.11913061635E+03  0.00000000000E+00 0.  1.
</event>
<event>
 8    1  0.7224924E-009  0.8929764E+02  0.7561462E-02  0.1304562E+00
         -1   -1    0    0    0  501 -0.00000000000E+00  0.00000000000E+00  0.59268679306E+03  0.59268679306E+03  0.00000000000E+00 0.  1.
          1   -1    0    0  501    0  0.00000000000E+00 -0.00000000000E+00 -0.31796300142E+02  0.31796300142E+02  0.00000000000E+00 0. -1.
         25    2    1    2    0    0  0.59223704422E+02 -0.58351616482E+02  0.34234345497E+03  0.37384378123E+03  0.12509106000E+03 0.  0.
         23    2    1    2    0    0 -0.59223704422E+02  0.58351616482E+02  0.21854703794E+03  0.25063931197E+03  0.90249091947E+02 0.  0.
          5    1    3    3  502    0  0.19626996989E+02  0.46986900767E+01 -0.27435434700E+01  0.20791732251E+02  0.41800000000E+01 0. -1.
         -5    1    3    3    0  502  0.39596707433E+02 -0.63050306559E+02  0.34508699844E+03  0.35305204898E+03  0.41800000000E+01 0. -1.
        -11    1    4    4    0    0 -0.24630930797E+02  0.28996557725E+02  0.13093189292E+02  0.40235739308E+02  0.00000000000E+00 0. -1.
         11    1    4    4    0    0 -0.34592773626E+02  0.29355058757E+02  0.20545384865E+03  0.21040357266E+03  0.00000000000E+00 0.  1.
</event>
<event>
 8    1  0.7224924E-009  0.1248439E+03  0.7561462E-02  0.1235313E+00
         -1   -1    0    0    0  501 -0.00000000000E+00  0.00000000000E+00  0.16928977380E+03  0.16928977380E+03  0.00000000000E+00 0.  1.
          1   -1    0    0  501    0  0.00000000000E+00 -0.00000000000E+00 -0.13952617867E+03  0.13952617867E+03  0.00000000000E+00 0. -1.
         25    2    1    2    0    0 -0.11293949384E+02 -0.10718840371E+03  0.30315714162E+02  0.16787555430E+03  0.12508497921E+03 0.  0.
         23    2    1    2    0    0  0.11293949384E+02  0.10718840371E+03 -0.55211903578E+00  0.14094039817E+03  0.90812905573E+02 0.  0.
          5    1    3    3  502    0 -0.35355138823E+02 -0.48712895036E+02 -0.40636279574E+02  0.72744151666E+02  0.41800000000E+01 0. -1.
         -5    1    3    3    0  502  0.24061189438E+02 -0.58475508673E+02  0.70951993736E+02  0.95131402633E+02  0.41800000000E+01 0. -1.
        -11    1    4    4    0    0 -0.27369894237E+02  0.40115926430E+02 -0.31149630948E+02  0.57694871280E+02  0.00000000000E+00 0. -1.
         11    1    4    4    0    0  0.38663843621E+02  0.67072477280E+02  0.30597511912E+02  0.83245526891E+02  0.00000000000E+00 0.  1.
</event>
<event>
 8    1  0.7224924E-009  0.1002468E+03  0.7561462E-02  0.1279778E+00
         -1   -1    0    0    0  501 -0.00000000000E+00  0.00000000000E+00  0.14150522457E+03  0.14150522457E+03  0.00000000000E+00 0.  1.
          1   -1    0    0  501    0  0.00000000000E+00 -0.00000000000E+00 -0.40243880654E+03  0.40243880654E+03  0.00000000000E+00 0. -1.
         25    2    1    2    0    0 -0.46163564630E+01  0.44331644071E+02 -0.37058998625E+03  0.39366416957E+03  0.12509170669E+03 0.  0.
         23    2    1    2    0    0  0.46163564630E+01 -0.44331644071E+02  0.10965640428E+03  0.15027986154E+03  0.92589979868E+02 0.  0.
          5    1    3    3  502    0  0.33378840211E+02 -0.23727547916E+02 -0.55807062460E+02  0.69347271932E+02  0.41800000000E+01 0.  1.
         -5    1    3    3    0  502 -0.37995196674E+02  0.68059191987E+02 -0.31478292379E+03  0.32431689764E+03  0.41800000000E+01 0.  1.
        -11    1    4    4    0    0 -0.30173662006E+02 -0.32917881658E+02  0.10406468392E+03  0.11324087270E+03  0.00000000000E+00 0.  1.
         11    1    4    4    0    0  0.34790018469E+02 -0.11413762413E+02  0.55917203626E+01  0.37038988838E+02  0.00000000000E+00 0. -1.
</event>
<event>
 8    1  0.7224924E-009  0.1198267E+03  0.7561462E-02  0.1243383E+00
         -2   -1    0    0    0  501 -0.00000000000E+00  0.00000000000E+00  0.26233930116E+02  0.26233930116E+02  0.00000000000E+00 0.  1.
          2   -1    0    0  501    0  0.00000000000E+00 -0.00000000000E+00 -0.84591799355E+03  0.84591799355E+03  0.00000000000E+00 0. -1.
         25    2    1    2    0    0 -0.59441566299E+02  0.43667592961E+02 -0.65288775934E+03  0.66884024277E+03  0.12507871751E+03 0.  0.
         23    2    1    2    0    0  0.59441566299E+02 -0.43667592961E+02 -0.16679630409E+03  0.20331168090E+03  0.89858077265E+02 0.  0.
          5    1    3    3  502    0  0.38858113345E+02  0.20119360579E+02 -0.20822640681E+03  0.21281553171E+03  0.41800000000E+01 0.  1.
         -5    1    3    3    0  502 -0.98299679644E+02  0.23548232382E+02 -0.44466135253E+03  0.45602471106E+03  0.41800000000E+01 0.  1.
        -11    1    4    4    0    0  0.30020281173E+02 -0.55274879894E+02 -0.44650697117E+02  0.77137632722E+02  0.00000000000E+00 0.  1.
         11    1    4    4    0    0  0.29421285126E+02  0.11607286932E+02 -0.12214560698E+03  0.12617404817E+03  0.00000000000E+00 0. -1.
</event>
<event>
 8    1  0.7224924E-009  0.9859442E+02  0.7561462E-02  0.1283280E+00
         -2   -1    0    0    0  501 -0.00000000000E+00  0.00000000000E+00  0.13765141686E+02  0.13765141686E+02  0.00000000000E+00 0.  1.
          2   -1    0    0  501    0  0.00000000000E+00 -0.00000000000E+00 -0.85941422842E+03  0.85941422842E+03  0.00000000000E+00 0. -1.
         25    2    1    2    0    0 -0.10025891781E+02  0.25199245484E+01 -0.46149844542E+03  0.47826273400E+03  0.12509020375E+03 0.  0.
         23    2    1    2    0    0  0.10025891781E+02 -0.25199245484E+01 -0.38415064131E+03  0.39491663611E+03  0.90997613877E+02 0.  0.
          5    1    3    3  502    0  0.19171988930E+02 -0.46248858814E+02 -0.96039675288E+02  0.10838640934E+03  0.41800000000E+01 0. -1.
         -5    1    3    3    0  502 -0.29197880711E+02  0.48768783363E+02 -0.36545877014E+03  0.36987632465E+03  0.41800000000E+01 0. -1.
        -11    1    4    4    0    0  0.44621572065E+02 -0.22532351534E+02 -0.24956221201E+03  0.25451932976E+03  0.00000000000E+00 0. -1.
         11    1    4    4    0    0 -0.34595680284E+02  0.20012426985E+02 -0.13458842930E+03  0.14039730634E+03  0.00000000000E+00 0.  1.
</event>
<event>
 8    1  0.7224924E-009  0.1137825E+03  0.7561462E-02  0.1253721E+00
          1   -1    0    0  501    0  0.00000000000E+00  0.00000000000E+00  0.43726967019E+03  0.43726967019E+03  0.00000000000E+00 0. -1.
         -1   -1    0    0    0  501 -0.00000000000E+00 -0.00000000000E+00 -0.61261789058E+02  0.61261789058E+02  0.00000000000E+00 0.  1.
         25    2    1    2    0    0 -0.69809499800E+02 -0.20779729053E+02  0.51468867151E+02  0.15362762470E+03  0.12508892590E+03 0.  0.
         23    2    1    2    0    0  0.69809499800E+02  0.20779729053E+02  0.32453901398E+03  0.34490383455E+03  0.91257438548E+02 0.  0.
          5    1    3    3  502    0 -0.91387071497E+02  0.16800182043E+02  0.57986500307E+02  0.10960725145E+03  0.41800000000E+01 0.  1.
         -5    1    3    3    0  502  0.21577571697E+02 -0.37579911097E+02 -0.65176331561E+01  0.44020373242E+02  0.41800000000E+01 0.  1.
        -11    1    4    4    0    0 -0.38755147944E+01  0.16782225545E+02  0.64895952745E+01  0.18405910898E+02  0.00000000000E+00 0.  1.
         11    1    4    4    0    0  0.73685014595E+02  0.39975035083E+01  0.31804941870E+03  0.32649792365E+03  0.00000000000E+00 0. -1.
</event>
<event>
 8    1  0.7224924E-009  0.1058233E+03  0.7561462E-02  0.1268506E+00
          2   -1    0    0  501    0  0.00000000000E+00  0.00000000000E+00  0.35372731357E+03  0.35372731357E+03  0.00000000000E+00 0. -1.
         -2   -1    0    0    0  501 -0.00000000000E+00 -0.00000000000E+00 -0.38926845550E+02  0.38926845550E+02  0.00000000000E+00 0.  1.
         25    2    1    2    0    0 -0.33307567582E+02  0.34019110949E+01  0.22123432515E+03  0.25634566976E+03  0.12509000250E+03 0.  0.
         23    2    1    2    0    0  0.33307567582E+02 -0.34019110949E+01  0.93566142874E+02  0.13630848936E+03  0.93297449707E+02 0.  0.
          5    1    3    3  502    0 -0.81713260940E+01  0.54978321920E+02  0.17139724551E+03  0.18023283447E+03  0.41800000000E+01 0.  1.
         -5    1    3    3    0  502 -0.25136241488E+02 -0.51576410825E+02  0.49837079632E+02  0.76112835291E+02  0.41800000000E+01 0.  1.
        -11    1    4    4    0    0  0.40396647378E+02 -0.42504969079E+02  0.63814101067E+02  0.86664877608E+02  0.00000000000E+00 0.  1.
         11    1    4    4    0    0 -0.70890797955E+01  0.39103057984E+02  0.29752041807E+02  0.49643611752E+02  0.00000000000E+00 0. -1.
</event>
<event>
 8    1  0.7224924E-009  0.1408916E+03  0.7561462E-02  0.1212134E+00
          2   -1    0    0  501    0  0.00000000000E+00  0.00000000000E+00  0.17223366525E+03  0.17223366525E+03  0.00000000000E+00 0.  1.
         -2   -1    0    0    0  501 -0.00000000000E+00 -0.00000000000E+00 -0.14035262865E+03  0.14035262865E+03  0.00000000000E+00 0. -1.
         25    2    1    2    0    0 -0.93608374065E+02  0.53045021800E+02 -0.11055835147E+02  0.16536179866E+03  0.12508393555E+03 0.  0.
         23    2    1    2    0    0  0.93608374065E+02 -0.53045021800E+02  0.42936871750E+02  0.14722449524E+03  0.90857993648E+02 0.  0.
          5    1    3    3  502    0 -0.11693989497E+03  0.12332834640E+02 -0.40346073315E+01  0.11773184914E+03  0.41800000000E+01 0.  1.
         -5    1    3    3    0  502  0.23331520907E+02  0.40712187160E+02 -0.70212278160E+01  0.47629949519E+02  0.41800000000E+01 0.  1.
        -11    1    4    4    0    0  0.24661192634E+02  0.69432902606E+01 -0.23080457601E+02  0.34483202068E+02  0.00000000000E+00 0. -1.
         11    1    4    4    0    0  0.68947181431E+02 -0.59988312060E+02  0.66017329351E+02  0.11274129317E+03  0.00000000000E+00 0.  1.
</event>
<event>
 8    1  0.7224924E-009  0.1769316E+03  0.7561462E-02  0.1170806E+00
         -2   -1    0    0    0  501 -0.00000000000E+00  0.00000000000E+00  0.29835830423E+03  0.29835830423E+03  0.00000000000E+00 0.  1.
          2   -1    0    0  501    0  0.00000000000E+00 -0.00000000000E+00 -0.13409734266E+03  0.13409734266E+03  0.00000000000E+00 0. -1.
         25    2    1    2    0    0  0.76311128830E+02 -0.14964576190E+03  0.74830124732E+02  0.22240067893E+03  0.12508106165E+03 0.  0.
         23    2    1    2    0    0 -0.76311128830E+02  0.14964576190E+03  0.89430836846E+02  0.21005496796E+03  0.88926781932E+02 0.  0.
          5    1    3    3  502    0  0.56229852942E+02 -0.12434969662E+03 -0.45371391050E+01  0.13661149821E+03  0.41800000000E+01 0. -1.
         -5    1    3    3    0  502  0.20081275888E+02 -0.25296065283E+02  0.79367263837E+02  0.85789180722E+02  0.41800000000E+01 0. -1.
        -11    1    4    4    0    0 -0.40233422124E+02  0.14238323248E+03  0.50146161279E+02  0.15622532009E+03  0.00000000000E+00 0. -1.
         11    1    4    4    0    0 -0.36077706707E+02  0.72625294268E+01  0.39284675567E+02  0.53829647865E+02  0.00000000000E+00 0.  1.
</event>
<event>
 8    1  0.7224924E-009  0.8978845E+02  0.7561462E-02  0.1303365E+00
          2   -1    0    0  501    0  0.00000000000E+00  0.00000000000E+00  0.38646947805E+03  0.38646947805E+03  0.00000000000E+00 0. -1.
         -2   -1    0    0    0  501 -0.00000000000E+00 -0.00000000000E+00 -0.31581930592E+02  0.31581930592E+02  0.00000000000E+00 0.  1.
         25    2    1    2    0    0 -0.32593160402E+02 -0.42503350410E+01  0.21169743158E+03  0.24807788186E+03  0.12508578446E+03 0.  0.
         23    2    1    2    0    0  0.32593160402E+02  0.42503350410E+01  0.14319011588E+03  0.16997352679E+03  0.85482226638E+02 0.  0.
          5    1    3    3  502    0 -0.75005943661E+02 -0.19430747788E+02  0.93413364397E+02  0.12143712197E+03  0.41800000000E+01 0.  1.
         -5    1    3    3    0  502  0.42412783259E+02  0.15180412747E+02  0.11828406718E+03  0.12664075989E+03  0.41800000000E+01 0.  1.
        -11    1    4    4    0    0 -0.27201380821E+01  0.18472360300E+02 -0.29971534954E+01  0.18910583685E+02  0.00000000000E+00 0.  1.
         11    1    4    4    0    0  0.35313298485E+02 -0.14222025259E+02  0.14618726938E+03  0.15106294311E+03  0.00000000000E+00 0. -1.
</event>
<event>
 8    1  0.7224924E-009  0.1220463E+03  0.7561462E-02  0.1239759E+00
          1   -1    0    0  501    0  0.00000000000E+00  0.00000000000E+00  0.17566842280E+04  0.17566842280E+04  0.00000000000E+00 0. -1.
         -1   -1    0    0    0  501 -0.00000000000E+00 -0.00000000000E+00 -0.15074497462E+02  0.15074497462E+02  0.00000000000E+00 0.  1.
         25    2    1    2    0    0 -0.89324842165E+01 -0.84381818824E+02  0.14031914044E+04  0.14113091104E+04  0.12508879716E+03 0.  0.
         23    2    1    2    0    0  0.89324842165E+01  0.84381818824E+02  0.33841832616E+03  0.36044961505E+03  0.90536627342E+02 0.  0.
          5    1    3    3  502    0  0.38298194076E+02 -0.61073943881E+01  0.82485613899E+03  0.82577792073E+03  0.41800000000E+01 0. -1.
         -5    1    3    3    0  502 -0.47230678293E+02 -0.78274424436E+02  0.57833526538E+03  0.58553118967E+03  0.41800000000E+01 0. -1.
        -11    1    4    4    0    0 -0.32216998023E+02  0.22655991654E+02  0.56085997145E+02  0.68533699704E+02  0.00000000000E+00 0.  1.
         11    1    4    4    0    0  0.41149482239E+02  0.61725827170E+02  0.28233232901E+03  0.29191591535E+03  0.00000000000E+00 0. -1.
</event>
<event>
 8    1  0.7224924E-009  0.1344019E+03  0.7561462E-02  0.1221066E+00
          2   -1    0    0  501    0  0.00000000000E+00  0.00000000000E+00  0.80836901152E+03  0.80836901152E+03  0.00000000000E+00 0. -1.
         -2   -1    0    0    0  501 -0.00000000000E+00 -0.00000000000E+00 -0.28807644283E+02  0.28807644283E+02  0.00000000000E+00 0.  1.
         25    2    1    2    0    0  0.41922448888E+02 -0.95876578248E+02  0.48705554138E+03  0.51363481141E+03  0.12509120322E+03 0.  0.
         23    2    1    2    0    0 -0.41922448888E+02  0.95876578248E+02  0.29250582585E+03  0.32354184439E+03  0.90387260918E+02 0.  0.
          5    1    3    3  502    0 -0.37444774669E+01 -0.11350409735E+03  0.35434877584E+03  0.37212595793E+03  0.41800000000E+01 0. -1.
         -5    1    3    3    0  502  0.45666926355E+02  0.17627519102E+02  0.13270676555E+03  0.14150885348E+03  0.41800000000E+01 0. -1.
        -11    1    4    4    0    0 -0.83862476391E+01  0.39953314220E+02  0.22868182326E+03  0.23229716476E+03  0.00000000000E+00 0. -1.
         11    1    4    4    0    0 -0.33536201249E+02  0.55923264028E+02  0.63824002595E+02  0.91244679631E+02  0.00000000000E+00 0.  1.
</event>
<event>
 8    1  0.7224924E-009  0.9296747E+02  0.7561462E-02  0.1295821E+00
          1   -1    0    0  501    0  0.00000000000E+00  0.00000000000E+00  0.72229575433E+02  0.72229575433E+02  0.00000000000E+00 0. -1.
         -1   -1    0    0    0  501 -0.00000000000E+00 -0.00000000000E+00 -0.24803179732E+03  0.24803179732E+03  0.00000000000E+00 0.  1.
         25    2    1    2    0    0 -0.45307123167E+02 -0.58707205493E+02 -0.12514488918E+03  0.19185497941E+03  0.12509124050E+03 0.  0.
         23    2    1    2    0    0  0.45307123167E+02  0.58707205493E+02 -0.50657332707E+02  0.12840639334E+03  0.91775623712E+02 0.  0.
          5    1    3    3  502    0 -0.14860656527E+02 -0.10716789886E+02 -0.13300696838E+03  0.13432801174E+03  0.41800000000E+01 0. -1.
         -5    1    3    3    0  502 -0.30446466641E+02 -0.47990415607E+02  0.78620792011E+01  0.57526967679E+02  0.41800000000E+01 0. -1.
        -11    1    4    4    0    0 -0.37073723116E+01  0.60975604086E+02 -0.50625837690E+02  0.79339424910E+02  0.00000000000E+00 0. -1.
         11    1    4    4    0    0  0.49014495479E+02 -0.22683985938E+01 -0.31495016878E-01  0.49066968432E+02  0.00000000000E+00 0.  1.
</event>
<event>
 8    1  0.7224924E-009  0.8309220E+02  0.7561462E-02  0.1320498E+00
         -1   -1    0    0    0  501 -0.00000000000E+00  0.00000000000E+00  0.14191521627E+02  0.14191521627E+02  0.00000000000E+00 0.  1.
          1   -1    0    0  501    0  0.00000000000E+00 -0.00000000000E+00 -0.10380490904E+04  0.10380490904E+04  0.00000000000E+00 0. -1.
         25    2    1    2    0    0  0.18134877653E+01 -0.24736831232E+02 -0.77617274078E+03  0.78657926162E+03  0.12509041419E+03 0.  0.
         23    2    1    2    0    0 -0.18134877653E+01  0.24736831232E+02 -0.24768482804E+03  0.26566135045E+03  0.92806139489E+02 0.  0.
          5    1    3    3  502    0 -0.30369924114E+00 -0.56231492129E+02 -0.16110575263E+03  0.17068863134E+03  0.41800000000E+01 0.  1.
         -5    1    3    3    0  502  0.21171870065E+01  0.31494660897E+02 -0.61506698815E+03  0.61589063028E+03  0.41800000000E+01 0.  1.
        -11    1    4    4    0    0 -0.37113841108E+02  0.48235343212E+01 -0.19817446916E+03  0.20167752455E+03  0.00000000000E+00 0. -1.
         11    1    4    4    0    0  0.35300353343E+02  0.19913296910E+02 -0.49510358882E+02  0.63983825899E+02  0.00000000000E+00 0.  1.
</event>
<event>
 8    1  0.7224924E-009  0.1117563E+03  0.7561462E-02  0.1257352E+00
         -1   -1    0    0    0  501 -0.00000000000E+00  0.00000000000E+00  0.31601886478E+02  0.31601886478E+02  0.00000000000E+00 0.  1.
          1   -1    0    0  501    0  0.00000000000E+00 -0.00000000000E+00 -0.68130970460E+03  0.68130970460E+03  0.00000000000E+00 0. -1.
         25    2    1    2    0    0 -0.20544015887E+02 -0.69792747297E+02 -0.50615027186E+03  0.52642927982E+03  0.12508638931E+03 0.  0.
         23    2    1    2    0    0  0.20544015887E+02  0.69792747297E+02 -0.14355754627E+03  0.18648231126E+03  0.94200844784E+02 0.  0.
          5    1    3    3  502    0  0.89855013255E+01  0.13108326392E+02 -0.44124048020E+01  0.17014969028E+02  0.41800000000E+01 0.  1.
         -5    1    3    3    0  502 -0.29529517212E+02 -0.82901073689E+02 -0.50173786706E+03  0.50941431080E+03  0.41800000000E+01 0.  1.
        -11    1    4    4    0    0 -0.11178365274E+02  0.83626058953E+02 -0.10416881848E+03  0.13405005158E+03  0.00000000000E+00 0. -1.
         11    1    4    4    0    0  0.31722381160E+02 -0.13833311656E+02 -0.39388727791E+02  0.52432259677E+02  0.00000000000E+00 0.  1.
</event>
<event>
 8    1  0.7224924E-009  0.1081585E+03  0.7561462E-02  0.1264018E+00
         -1   -1    0    0    0  501 -0.00000000000E+00  0.00000000000E+00  0.57871843405E+02  0.57871843405E+02  0.00000000000E+00 0.  1.
          1   -1    0    0  501    0  0.00000000000E+00 -0.00000000000E+00 -0.23827972257E+03  0.23827972257E+03  0.00000000000E+00 0. -1.
         25    2    1    2    0    0 -0.49253933467E+01  0.13997398096E+02 -0.15147836952E+03  0.19701204604E+03  0.12509141938E+03 0.  0.
         23    2    1    2    0    0  0.49253933467E+01 -0.13997398096E+02 -0.28929509644E+02  0.99139519928E+02  0.93656506609E+02 0.  0.
          5    1    3    3  502    0  0.37132809502E+02 -0.38880780214E+02 -0.93251633399E+02  0.10772140058E+03  0.41800000000E+01 0.  1.
         -5    1    3    3    0  502 -0.42058202848E+02  0.52878178309E+02 -0.58226736121E+02  0.89290645464E+02  0.41800000000E+01 0.  1.
        -11    1    4    4    0    0  0.14115506244E+02  0.38705356245E+02 -0.10040528342E+02  0.42404767750E+02  0.00000000000E+00 0.  1.
         11    1    4    4    0    0 -0.91901128972E+01 -0.52702754340E+02 -0.18888981302E+02  0.56734752178E+02  0.00000000000E+00 0. -1.
</event>
<event>
 8    1  0.7224924E-009  0.9866322E+02  0.7561462E-02  0.1283132E+00
          2   -1    0    0  501    0  0.00000000000E+00  0.00000000000E+00  0.12666260726E+04  0.12666260726E+04  0.00000000000E+00 0. -1.
         -2   -1    0    0    0  501 -0.00000000000E+00 -0.00000000000E+00 -0.14944301270E+02  0.14944301270E+02  0.00000000000E+00 0.  1.
         25    2    1    2    0    0  0.24943869734E+02 -0.89510794246E+01  0.10086982944E+04  0.10167702146E+04  0.12508837541E+03 0.  0.
         23    2    1    2    0    0 -0.24943869734E+02  0.89510794246E+01  0.24298347695E+03  0.26480015932E+03  0.10186184684E+03 0.  0.
          5    1    3    3  502    0  0.39997019356E+02  0.29958758689E+02  0.17567245791E+03  0.18268982908E+03  0.41800000000E+01 0. -1.
         -5    1    3    3    0  502 -0.15053149623E+02 -0.38909838114E+02  0.83302583649E+03  0.83408038550E+03  0.41800000000E+01 0. -1.
        -11    1    4    4    0    0 -0.54169946640E+02 -0.25668280509E+02  0.13742910671E+03  0.14993332890E+03  0.00000000000E+00 0.  1.
         11    1    4    4    0    0  0.29226076906E+02  0.34619359933E+02  0.10555437024E+03  0.11486683042E+03  0.00000000000E+00 0. -1.
</event>
<event>
 8    1  0.7224924E-009  0.1413756E+03  0.7561462E-02  0.1211490E+00
          3   -1    0    0  501    0  0.00000000000E+00  0.00000000000E+00  0.55321061878E+02  0.55321061878E+02  0.00000000000E+00 0. -1.
         -3   -1    0    0    0  501 -0.00000000000E+00 -0.00000000000E+00 -0.40548844135E+03  0.40548844135E+03  0.00000000000E+00 0.  1.
         25    2    1    2    0    0 -0.88069236650E+02  0.32344961472E+02 -0.12337188903E+03  0.19917200055E+03  0.12508587380E+03 0.  0.
         23    2    1    2    0    0  0.88069236650E+02 -0.32344961472E+02 -0.22679549045E+03  0.26163750268E+03  0.90639954459E+02 0.  0.
          5    1    3    3  502    0  0.22092544459E+02  0.36869801753E+02 -0.52747366152E+02  0.68170520299E+02  0.41800000000E+01 0.  1.
         -5    1    3    3    0  502 -0.11016178111E+03 -0.45248402811E+01 -0.70624522874E+02  0.13100148025E+03  0.41800000000E+01 0.  1.
        -11    1    4    4    0    0 -0.15362421472E+02  0.90442186039E+01 -0.20375724813E+02  0.27073456471E+02  0.00000000000E+00 0.  1.
         11    1    4    4    0    0  0.10343165812E+03 -0.41389180076E+02 -0.20641976563E+03  0.23456404621E+03  0.00000000000E+00 0. -1.
</event>
<event>
 8    1  0.7224924E-009  0.7222723E+02  0.7561462E-02  0.1352679E+00
         -2   -1    0    0    0  501 -0.00000000000E+00  0.00000000000E+00  0.32700678520E+02  0.32700678520E+02  0.00000000000E+00 0.  1.
          2   -1    0    0  501    0  0.00000000000E+00 -0.00000000000E+00 -0.58215457610E+03  0.58215457610E+03  0.00000000000E+00 0. -1.
         25    2    1    2    0    0  0.21433499628E+02  0.33147460600E+02 -0.46347555241E+03  0.48167854228E+03  0.12508589594E+03 0.  0.
         23    2    1    2    0    0 -0.21433499628E+02 -0.33147460600E+02 -0.85978345167E+02  0.13317671233E+03  0.93731594566E+02 0.  0.
          5    1    3    3  502    0 -0.27933520437E+01  0.11210918099E+02  0.40930867119E+01  0.12950415403E+02  0.41800000000E+01 0. -1.
         -5    1    3    3    0  502  0.24226851672E+02  0.21936542501E+02 -0.46756863912E+03  0.46872812688E+03  0.41800000000E+01 0. -1.
        -11    1    4    4    0    0 -0.16855466603E+02 -0.64943470391E+02 -0.43671585738E+02  0.80056033512E+02  0.00000000000E+00 0.  1.
         11    1    4    4    0    0 -0.45780330253E+01  0.31796009791E+02 -0.42306759430E+02  0.53120678822E+02  0.00000000000E+00 0. -1.
</event>
<event>
 8    1  0.7224924E-009  0.1089854E+03  0.7561462E-02  0.1262460E+00
         -2   -1    0    0    0  501 -0.00000000000E+00  0.00000000000E+00  0.25885038528E+02  0.25885038528E+02  0.00000000000E+00 0.  1.
          2   -1    0    0  501    0  0.00000000000E+00 -0.00000000000E+00 -0.58138382960E+03  0.58138382960E+03  0.00000000000E+00 0. -1.
         25    2    1    2    0    0 -0.31002064163E+02 -0.25196750737E+02 -0.40214043109E+03  0.42303607862E+03  0.12508634322E+03 0.  0.
         23    2    1    2    0    0  0.31002064163E+02  0.25196750737E+02 -0.15335835998E+03  0.18423278951E+03  0.93951742537E+02 0.  0.
          5    1    3    3  502    0 -0.74665982107E+02  0.92276665558E+01 -0.21942205115E+03  0.23199928372E+03  0.41800000000E+01 0. -1.
         -5    1    3    3    0  502  0.43663917944E+02 -0.34424417292E+02 -0.18271837994E+03  0.19103679490E+03  0.41800000000E+01 0. -1.
        -11    1    4    4    0    0 -0.18104084633E+02 -0.14914039627E+02 -0.95694993207E+02  0.98527753366E+02  0.00000000000E+00 0. -1.
         11    1    4    4    0    0  0.49106148796E+02  0.40110790364E+02 -0.57663366768E+02  0.85705036143E+02  0.00000000000E+00 0.  1.
</event>
<event>
 8    1  0.7224924E-009  0.1629674E+03  0.7561462E-02  0.1185387E+00
         -2   -1    0    0    0  501 -0.00000000000E+00  0.00000000000E+00  0.35252479638E+02  0.35252479638E+02  0.00000000000E+00 0. -1.
          2   -1    0    0  501    0  0.00000000000E+00 -0.00000000000E+00 -0.98931001458E+03  0.98931001458E+03  0.00000000000E+00 0.  1.
         25    2    1    2    0    0 -0.27064829581E+02 -0.12972289324E+03 -0.71050151071E+03  0.73349865120E+03  0.12508933036E+03 0.  0.
         23    2    1    2    0    0  0.27064829581E+02  0.12972289324E+03 -0.24355602424E+03  0.29106384302E+03  0.88532986727E+02 0.  0.
          5    1    3    3  502    0 -0.51189617247E+02 -0.19517385690E+01 -0.23217700555E+03  0.23779785639E+03  0.41800000000E+01 0. -1.
         -5    1    3    3    0  502  0.24124787666E+02 -0.12777115467E+03 -0.47832450516E+03  0.49570079482E+03  0.41800000000E+01 0. -1.
        -11    1    4    4    0    0 -0.34574164805E+01  0.10528505230E+03 -0.22358634233E+03  0.24715935840E+03  0.00000000000E+00 0.  1.
         11    1    4    4    0    0  0.30522246062E+02  0.24437840934E+02 -0.19969681910E+02  0.43904484620E+02  0.00000000000E+00 0. -1.
</event>
<event>
 8    1  0.7224924E-009  0.1035769E+03  0.7561462E-02  0.1272949E+00
          2   -1    0    0  501    0  0.00000000000E+00  0.00000000000E+00  0.74341735876E+03  0.74341735876E+03  0.00000000000E+00 0. -1.
         -2   -1    0    0    0  501 -0.00000000000E+00 -0.00000000000E+00 -0.16251016070E+02  0.16251016070E+02  0.00000000000E+00 0.  1.
         25    2    1    2    0    0  0.61290215040E+01  0.78878185009E+01  0.47216912457E+03  0.48856047433E+03  0.12509145571E+03 0.  0.
         23    2    1    2    0    0 -0.61290215040E+01 -0.78878185009E+01  0.25499721812E+03  0.27110790051E+03  0.91521199081E+02 0.  0.
          5    1    3    3  502    0  0.20943626988E+02 -0.54182490061E+02  0.28121388987E+03  0.28718130510E+03  0.41800000000E+01 0.  1.
         -5    1    3    3    0  502 -0.14814605484E+02  0.62070308562E+02  0.19095523470E+03  0.20137916923E+03  0.41800000000E+01 0.  1.
        -11    1    4    4    0    0 -0.45148470073E+01  0.38391613359E+02  0.16974250016E+03  0.17408852972E+03  0.00000000000E+00 0. -1.
         11    1    4    4    0    0 -0.16141744967E+01 -0.46279431860E+02  0.85254717961E+02  0.97019370783E+02  0.00000000000E+00 0.  1.
</event>
<event>
 8    1  0.7224924E-009  0.1410012E+03  0.7561462E-02  0.1211988E+00
         -2   -1    0    0    0  501 -0.00000000000E+00  0.00000000000E+00  0.39238371017E+02  0.39238371017E+02  0.00000000000E+00 0.  1.
          2   -1    0    0  501    0  0.00000000000E+00 -0.00000000000E+00 -0.73830203952E+03  0.73830203952E+03  0.00000000000E+00 0. -1.
         25    2    1    2    0    0  0.10933957741E+03  0.33219928017E+02 -0.22543663097E+03  0.28200787232E+03  0.12509220065E+03 0.  0.
         23    2    1    2    0    0 -0.10933957741E+03 -0.33219928017E+02 -0.47362703753E+03  0.49553253821E+03  0.90394794885E+02 0.  0.
          5    1    3    3  502    0  0.12871135130E+03  0.29759298306E+02 -0.22607853108E+03  0.26188012984E+03  0.41800000000E+01 0.  1.
         -5    1    3    3    0  502 -0.19371773891E+02  0.34606297109E+01  0.64190011254E+00  0.20127742483E+02  0.41800000000E+01 0.  1.
        -11    1    4    4    0    0 -0.78080845474E+02  0.74292797347E+01 -0.38698420927E+03  0.39485261916E+03  0.00000000000E+00 0. -1.
         11    1    4    4    0    0 -0.31258731932E+02 -0.40649207751E+02 -0.86642828258E+02  0.10067991906E+03  0.00000000000E+00 0.  1.
</event>
<event>
 8    1  0.7224924E-009  0.8714976E+02  0.7561462E-02  0.1309905E+00
         -2   -1    0    0    0  501 -0.00000000000E+00  0.00000000000E+00  0.38336762596E+02  0.38336762596E+02  0.00000000000E+00 0. -1.
          2   -1    0    0  501    0  0.00000000000E+00 -0.00000000000E+00 -0.43496691801E+03  0.43496691801E+03  0.00000000000E+00 0.  1.
         25    2    1    2    0    0  0.32831330080E+02 -0.27371460679E+02 -0.33173935717E+03  0.35710627450E+03  0.12508715800E+03 0.  0.
         23    2    1    2    0    0 -0.32831330080E+02  0.27371460679E+02 -0.64890798241E+02  0.11619740611E+03  0.86394029856E+02 0.  0.
          5    1    3    3  502    0  0.59734561338E+02 -0.36880864611E+02 -0.31702232316E+03  0.32472918221E+03  0.41800000000E+01 0. -1.
         -5    1    3    3    0  502 -0.26903231259E+02  0.95094039323E+01 -0.14717034008E+02  0.32377092292E+02  0.41800000000E+01 0. -1.
        -11    1    4    4    0    0  0.32503422017E+01  0.37513141146E+02 -0.68885902612E+02  0.78505210412E+02  0.00000000000E+00 0.  1.
         11    1    4    4    0    0 -0.36081672281E+02 -0.10141680467E+02  0.39951043711E+01  0.37692195694E+02  0.00000000000E+00 0. -1.
</event>
<event>
 8    1  0.7224924E-009  0.1622194E+03  0.7561462E-02  0.1186214E+00
         -1   -1    0    0    0  501 -0.00000000000E+00  0.00000000000E+00  0.24324186254E+03  0.24324186254E+03  0.00000000000E+00 0.  1.
          1   -1    0    0  501    0  0.00000000000E+00 -0.00000000000E+00 -0.17335499146E+03  0.17335499146E+03  0.00000000000E+00 0. -1.
         25    2    1    2    0    0  0.11413666174E+03 -0.43809964594E+02 -0.84584293308E+02  0.19428915353E+03  0.12508909606E+03 0.  0.
         23    2    1    2    0    0 -0.11413666174E+03  0.43809964594E+02  0.15447116440E+03  0.22230770047E+03  0.10301884540E+03 0.  0.
          5    1    3    3  502    0 -0.22199199101E+02 -0.16435877088E+02  0.56053786480E+01  0.28492721284E+02  0.41800000000E+01 0. -1.
         -5    1    3    3    0  502  0.13633586084E+03 -0.27374087506E+02 -0.90189671956E+02  0.16579643225E+03  0.41800000000E+01 0. -1.
        -11    1    4    4    0    0  0.80155834200E+01  0.33894228262E+02  0.51851314074E+02  0.62463005517E+02  0.00000000000E+00 0. -1.
         11    1    4    4    0    0 -0.12215224516E+03  0.99157363325E+01  0.10261985032E+03  0.15984469495E+03  0.00000000000E+00 0.  1.
</event>
<event>
 8    1  0.7224924E-009  0.2328565E+03  0.7561462E-02  0.1124645E+00
         -2   -1    0    0    0  501 -0.00000000000E+00  0.00000000000E+00  0.44371849441E+02  0.44371849441E+02  0.00000000000E+00 0.  1.
          2   -1    0    0  501    0  0.00000000000E+00 -0.00000000000E+00 -0.14631024801E+04  0.14631024801E+04  0.00000000000E+00 0. -1.
         25    2    1    2    0    0 -0.21567530855E+03 -0.18666427832E+02 -0.96079369140E+03  0.99279415909E+03  0.12510575780E+03 0.  0.
         23    2    1    2    0    0  0.21567530855E+03  0.18666427832E+02 -0.45793693924E+03  0.51468017044E+03  0.91242332688E+02 0.  0.
          5    1    3    3  502    0 -0.61155470456E+02 -0.62055589332E+02 -0.27719215019E+03  0.29059223710E+03  0.41800000000E+01 0.  1.
         -5    1    3    3    0  502 -0.15451983809E+03  0.43389161500E+02 -0.68360154121E+03  0.70220192199E+03  0.41800000000E+01 0.  1.
        -11    1    4    4    0    0  0.85873419301E+02 -0.48986561368E+01 -0.93231000794E+02  0.12684739053E+03  0.00000000000E+00 0.  1.
         11    1    4    4    0    0  0.12980188925E+03  0.23565083969E+02 -0.36470593845E+03  0.38783277991E+03  0.00000000000E+00 0. -1.
</event>
<event>
 8    1  0.7224924E-009  0.1352412E+03  0.7561462E-02  0.1219880E+00
         -2   -1    0    0    0  501 -0.00000000000E+00  0.00000000000E+00  0.19496981626E+02  0.19496981626E+02  0.00000000000E+00 0.  1.
          2   -1    0    0  501    0  0.00000000000E+00 -0.00000000000E+00 -0.15184224197E+04  0.15184224197E+04  0.00000000000E+00 0. -1.
         25    2    1    2    0    0 -0.75146819320E+02 -0.49050540976E+02 -0.12127217143E+04  0.12224541293E+04  0.12508853580E+03 0.  0.
         23    2    1    2    0    0  0.75146819320E+02  0.49050540976E+02 -0.28620372377E+03  0.31546527206E+03  0.97738254300E+02 0.  0.
          5    1    3    3  502    0 -0.94819764339E+02 -0.73652186884E+02 -0.10309039869E+04  0.10378805013E+04  0.41800000000E+01 0. -1.
         -5    1    3    3    0  502  0.19672945019E+02  0.24601645909E+02 -0.18181772740E+03  0.18457362797E+03  0.41800000000E+01 0. -1.
        -11    1    4    4    0    0 -0.16339930855E+02  0.54585314586E+01 -0.72813765216E+01  0.18703137439E+02  0.00000000000E+00 0.  1.
         11    1    4    4    0    0  0.91486750175E+02  0.43592009517E+02 -0.27892234725E+03  0.29676213462E+03  0.00000000000E+00 0. -1.
</event>
<event>
 8    1  0.7224924E-009  0.1206791E+03  0.7561462E-02  0.1241981E+00
          4   -1    0    0  501    0  0.00000000000E+00  0.00000000000E+00  0.33110674249E+03  0.33110674249E+03  0.00000000000E+00 0. -1.
         -4   -1    0    0    0  501 -0.00000000000E+00 -0.00000000000E+00 -0.57396696348E+02  0.57396696348E+02  0.00000000000E+00 0.  1.
         25    2    1    2    0    0  0.81905511978E+02 -0.11615331154E+02  0.14867150732E+03  0.21117351945E+03  0.12509040498E+03 0.  0.
         23    2    1    2    0    0 -0.81905511978E+02  0.11615331154E+02  0.12503853883E+03  0.17732991939E+03  0.94698655268E+02 0.  0.
          5    1    3    3  502    0  0.54001219160E+02  0.33749051656E+02  0.12679461711E+02  0.65064362809E+02  0.41800000000E+01 0. -1.
         -5    1    3    3    0  502  0.27904292818E+02 -0.45364382810E+02  0.13599204561E+03  0.14610915664E+03  0.41800000000E+01 0. -1.
        -11    1    4    4    0    0 -0.64285692824E+02 -0.35766791523E+02  0.87781891699E+02  0.11453197889E+03  0.00000000000E+00 0.  1.
         11    1    4    4    0    0 -0.17619819154E+02  0.47382122677E+02  0.37256647127E+02  0.62797940505E+02  0.00000000000E+00 0. -1.
</event>
<event>
 8    1  0.7224924E-009  0.1091478E+03  0.7561462E-02  0.1262156E+00
          2   -1    0    0  501    0  0.00000000000E+00  0.00000000000E+00  0.70538941845E+03  0.70538941845E+03  0.00000000000E+00 0. -1.
         -2   -1    0    0    0  501 -0.00000000000E+00 -0.00000000000E+00 -0.24810197936E+02  0.24810197936E+02  0.00000000000E+00 0.  1.
         25    2    1    2    0    0 -0.40160470952E+02  0.40781162919E+02  0.50426379381E+03  0.52269050519E+03  0.12508966301E+03 0.  0.
         23    2    1    2    0    0  0.40160470952E+02 -0.40781162919E+02  0.17631542670E+03  0.20750911119E+03  0.93257358202E+02 0.  0.
          5    1    3    3  502    0 -0.26750331636E+01  0.74317097531E+02  0.18448299112E+03  0.19895133375E+03  0.41800000000E+01 0. -1.
         -5    1    3    3    0  502 -0.37485437788E+02 -0.33535934612E+02  0.31978080269E+03  0.32373917144E+03  0.41800000000E+01 0. -1.
        -11    1    4    4    0    0  0.60019027027E+02 -0.42297434945E+02  0.17215959477E+03  0.18716378570E+03  0.00000000000E+00 0. -1.
         11    1    4    4    0    0 -0.19858556075E+02  0.15162720263E+01  0.41558319351E+01  0.20345325490E+02  0.00000000000E+00 0.  1.
</event>
<event>
 8    1  0.7224924E-009  0.9411998E+02  0.7561462E-02  0.1293171E+00
          1   -1    0    0  501    0  0.00000000000E+00  0.00000000000E+00  0.30096274295E+03  0.30096274295E+03  0.00000000000E+00 0. -1.
         -1   -1    0    0    0  501 -0.00000000000E+00 -0.00000000000E+00 -0.59966700770E+02  0.59966700770E+02  0.00000000000E+00 0.  1.
         25    2    1    2    0    0  0.39526448577E+02  0.20060972782E+02  0.44465291178E+02  0.13996365516E+03  0.12509148604E+03 0.  0.
         23    2    1    2    0    0 -0.39526448577E+02 -0.20060972782E+02  0.19653075100E+03  0.22096578856E+03  0.90756602287E+02 0.  0.
          5    1    3    3  502    0 -0.30397966704E+02  0.60260646612E+00 -0.24868816170E+02  0.39501011785E+02  0.41800000000E+01 0.  1.
         -5    1    3    3    0  502  0.69924415281E+02  0.19458366316E+02  0.69334107348E+02  0.10046264337E+03  0.41800000000E+01 0.  1.
        -11    1    4    4    0    0 -0.35097215610E+02  0.22739188263E+02  0.37345410466E+02  0.56067503149E+02  0.00000000000E+00 0.  1.
         11    1    4    4    0    0 -0.44292329669E+01 -0.42800161046E+02  0.15918534054E+03  0.16489828541E+03  0.00000000000E+00 0. -1.
</event>
<event>
 8    1  0.7224924E-009  0.1080747E+03  0.7561462E-02  0.1264177E+00
          2   -1    0    0  501    0  0.00000000000E+00  0.00000000000E+00  0.17964949509E+04  0.17964949509E+04  0.00000000000E+00 0. -1.
         -2   -1    0    0    0  501 -0.00000000000E+00 -0.00000000000E+00 -0.10013279844E+02  0.10013279844E+02  0.00000000000E+00 0.  1.
         25    2    1    2    0    0  0.40449672237E+02 -0.12145529206E+02  0.14326767927E+04  0.14387474329E+04  0.12509074053E+03 0.  0.
         23    2    1    2    0    0 -0.40449672237E+02  0.12145529206E+02  0.35380487839E+03  0.36776079792E+03  0.91029789888E+02 0.  0.
          5    1    3    3  502    0  0.21407060758E+02  0.54621128881E+02  0.82728966798E+03  0.82937771680E+03  0.41800000000E+01 0. -1.
         -5    1    3    3    0  502  0.19042611479E+02 -0.66766658087E+02  0.60538712472E+03  0.60936971606E+03  0.41800000000E+01 0. -1.
        -11    1    4    4    0    0 -0.56625728518E+02 -0.12794320084E+02  0.30606808336E+03  0.31152502212E+03  0.00000000000E+00 0. -1.
         11    1    4    4    0    0  0.16176056281E+02  0.24939849289E+02  0.47736795035E+02  0.56235775798E+02  0.00000000000E+00 0.  1.
</event>
<event>
 8    1  0.7224924E-009  0.1230038E+03  0.7561462E-02  0.1238222E+00
         -1   -1    0    0    0  501 -0.00000000000E+00  0.00000000000E+00  0.35648098673E+02  0.35648098673E+02  0.00000000000E+00 0.  1.
          1   -1    0    0  501    0  0.00000000000E+00 -0.00000000000E+00 -0.25166318048E+04  0.25166318048E+04  0.00000000000E+00 0. -1.
         25    2    1    2    0    0  0.73639580287E+02 -0.12126966393E+02 -0.24107161331E+04  0.24151127145E+04  0.12508916020E+03 0.  0.
         23    2    1    2    0    0 -0.73639580287E+02  0.12126966393E+02 -0.70267573010E+02  0.13716718901E+03  0.91145240276E+02 0.  0.
          5    1    3    3  502    0  0.26599028315E+02  0.56351947975E+02 -0.10548437793E+04  0.10566910246E+04  0.41800000000E+01 0. -1.
         -5    1    3    3    0  502  0.47040551972E+02 -0.68478914369E+02 -0.13558723539E+04  0.13584216899E+04  0.41800000000E+01 0. -1.
        -11    1    4    4    0    0  0.31694449718E+01  0.22624949713E+02  0.10563139955E+02  0.25169697190E+02  0.00000000000E+00 0.  1.
         11    1    4    4    0    0 -0.76809025258E+02 -0.10497983319E+02 -0.80830712966E+02  0.11199749182E+03  0.00000000000E+00 0. -1.
</event>
<event>
 8    1  0.7224924E-009  0.9017466E+02  0.7561462E-02  0.1302429E+00
          2   -1    0    0  501    0  0.00000000000E+00  0.00000000000E+00  0.23304326119E+03  0.23304326119E+03  0.00000000000E+00 0. -1.
         -2   -1    0    0    0  501 -0.00000000000E+00 -0.00000000000E+00 -0.85180934217E+02  0.85180934217E+02  0.00000000000E+00 0.  1.
         25    2    1    2    0    0  0.17606002371E+02 -0.64716328837E+02  0.13611332915E+02  0.14258434297E+03  0.12508737722E+03 0.  0.
         23    2    1    2    0    0 -0.17606002371E+02  0.64716328837E+02  0.13425099406E+03  0.17563985244E+03  0.91257075457E+02 0.  0.
          5    1    3    3  502    0  0.24346559787E+02 -0.24120161629E+02  0.66806047424E+02  0.75200116641E+02  0.41800000000E+01 0. -1.
         -5    1    3    3    0  502 -0.67405574158E+01 -0.40596167208E+02 -0.53194714509E+02  0.67384226329E+02  0.41800000000E+01 0. -1.
        -11    1    4    4    0    0  0.15919629903E+02 -0.12525478878E+02  0.60165890763E+02  0.63484302380E+02  0.00000000000E+00 0.  1.
         11    1    4    4    0    0 -0.33525632275E+02  0.77241807715E+02  0.74085103297E+02  0.11215555006E+03  0.00000000000E+00 0. -1.
</event>
<event>
 8    1  0.7224924E-009  0.8214671E+02  0.7561462E-02  0.1323067E+00
         -1   -1    0    0    0  501 -0.00000000000E+00  0.00000000000E+00  0.36156494814E+03  0.36156494814E+03  0.00000000000E+00 0.  1.
          1   -1    0    0  501    0  0.00000000000E+00 -0.00000000000E+00 -0.36074851651E+02  0.36074851651E+02  0.00000000000E+00 0. -1.
         25    2    1    2    0    0  0.30241248315E+02  0.61653695314E+01  0.18417625536E+03  0.22476803440E+03  0.12508889386E+03 0.  0.
         23    2    1    2    0    0 -0.30241248315E+02 -0.61653695314E+01  0.14131384114E+03  0.17287176540E+03  0.94670484812E+02 0.  0.
          5    1    3    3  502    0  0.17365968666E+02  0.33824751354E+02  0.18966902807E+03  0.19348773419E+03  0.41800000000E+01 0. -1.
         -5    1    3    3    0  502  0.12875279649E+02 -0.27659381822E+02 -0.54927727172E+01  0.31280300205E+02  0.41800000000E+01 0. -1.
        -11    1    4    4    0    0 -0.56366779360E+02 -0.26361189448E+02  0.11457360483E+03  0.13038112229E+03  0.00000000000E+00 0.  1.
         11    1    4    4    0    0  0.26125531045E+02  0.20195819917E+02  0.26740236303E+02  0.42490643111E+02  0.00000000000E+00 0. -1.
</event>
<event>
 8    1  0.7224924E-009  0.1055124E+03  0.7561462E-02  0.1269113E+00
          2   -1    0    0  501    0  0.00000000000E+00  0.00000000000E+00  0.79325892327E+03  0.79325892327E+03  0.00000000000E+00 0.  1.
         -2   -1    0    0    0  501 -0.00000000000E+00 -0.00000000000E+00 -0.23117578297E+02  0.23117578297E+02  0.00000000000E+00 0. -1.
         25    2    1    2    0    0 -0.75837151282E+02  0.10663793870E+02  0.52208181473E+03  0.54229358277E+03  0.12509164089E+03 0.  0.
         23    2    1    2    0    0  0.75837151282E+02 -0.10663793870E+02  0.24805953024E+03  0.27408291880E+03  0.87880178771E+02 0.  0.
          5    1    3    3  502    0 -0.30538153805E+02 -0.29729869330E+02  0.42875822122E+03  0.43089155090E+03  0.41800000000E+01 0.  1.
         -5    1    3    3    0  502 -0.45298997477E+02  0.40393663200E+02  0.93323593507E+02  0.11140203187E+03  0.41800000000E+01 0.  1.
        -11    1    4    4    0    0  0.14888277480E+02 -0.37815354806E+02  0.46450506531E+02  0.61719619429E+02  0.00000000000E+00 0. -1.
         11    1    4    4    0    0  0.60948873802E+02  0.27151560936E+02  0.20160902371E+03  0.21236329937E+03  0.00000000000E+00 0.  1.
</event>
<event>
 8    1  0.7224924E-009  0.1271201E+03  0.7561462E-02  0.1231793E+00
         -1   -1    0    0    0  501 -0.00000000000E+00  0.00000000000E+00  0.17342977312E+02  0.17342977312E+02  0.00000000000E+00 0.  1.
          1   -1    0    0  501    0  0.00000000000E+00 -0.00000000000E+00 -0.11080923823E+04  0.11080923823E+04  0.00000000000E+00 0. -1.
         25    2    1    2    0    0  0.32825395448E+02  0.60993115508E+02 -0.80653808207E+03  0.81911487093E+03  0.12509127561E+03 0.  0.
         23    2    1    2    0    0 -0.32825395448E+02 -0.60993115508E+02 -0.28421132287E+03  0.30632048863E+03  0.90876283929E+02 0.  0.
          5    1    3    3  502    0 -0.16994099346E+02 -0.31312138705E+02 -0.14946494896E+03  0.15370911753E+03  0.41800000000E+01 0. -1.
         -5    1    3    3    0  502  0.49819494794E+02  0.92305254213E+02 -0.65707313310E+03  0.66540575340E+03  0.41800000000E+01 0. -1.
        -11    1    4    4    0    0 -0.43500737816E+02  0.74411464261E+01 -0.12948371637E+03  0.13679809083E+03  0.00000000000E+00 0. -1.
         11    1    4    4    0    0  0.10675342368E+02 -0.68434261934E+02 -0.15472760650E+03  0.16952239780E+03  0.00000000000E+00 0.  1.
</event>
<event>
 8    1  0.7224924E-009  0.8470441E+02  0.7561462E-02  0.1316207E+00
          2   -1    0    0  501    0  0.00000000000E+00  0.00000000000E+00  0.15655311769E+04  0.15655311769E+04  0.00000000000E+00 0. -1.
         -2   -1    0    0    0  501 -0.00000000000E+00 -0.00000000000E+00 -0.19909441127E+02  0.19909441127E+02  0.00000000000E+00 0.  1.
         25    2    1    2    0    0  0.20869308921E+02 -0.43687083250E+02  0.13958559015E+04  0.14022857465E+04  0.12509007837E+03 0.  0.
         23    2    1    2    0    0 -0.20869308921E+02  0.43687083250E+02  0.14976583427E+03  0.18315487155E+03  0.93657955139E+02 0.  0.
          5    1    3    3  502    0 -0.70867830221E+01 -0.33034562069E+02  0.13227068872E+04  0.13231449228E+04  0.41800000000E+01 0. -1.
         -5    1    3    3    0  502  0.27956091943E+02 -0.10652521181E+02  0.73149014291E+02  0.79140823701E+02  0.41800000000E+01 0. -1.
        -11    1    4    4    0    0 -0.52250866609E+02  0.50913934370E+02  0.10984081710E+03  0.13186124099E+03  0.00000000000E+00 0.  1.
         11    1    4    4    0    0  0.31381557689E+02 -0.72268511199E+01  0.39925017166E+02  0.51293630558E+02  0.00000000000E+00 0. -1.
</event>
<event>
 8    1  0.7224924E-009  0.6903498E+02  0.7561462E-02  0.1363406E+00
         -1   -1    0    0    0  501 -0.00000000000E+00  0.00000000000E+00  0.12851712863E+03  0.12851712863E+03  0.00000000000E+00 0.  1.
          1   -1    0    0  501    0  0.00000000000E+00 -0.00000000000E+00 -0.10354180224E+03  0.10354180224E+03  0.00000000000E+00 0. -1.
         25    2    1    2    0    0  0.32743804509E+01  0.19113203235E+02 -0.20742755136E+02  0.12827251996E+03  0.12509013303E+03 0.  0.
         23    2    1    2    0    0 -0.32743804509E+01 -0.19113203235E+02  0.45718081523E+02  0.10378641091E+03  0.91134186812E+02 0.  0.
          5    1    3    3  502    0  0.14315493802E+02  0.26945395657E+02 -0.70289333379E+02  0.76740149184E+02  0.41800000000E+01 0. -1.
         -5    1    3    3    0  502 -0.11041113351E+02 -0.78321924222E+01  0.49546578243E+02  0.51532370776E+02  0.41800000000E+01 0. -1.
        -11    1    4    4    0    0  0.42989449555E+02 -0.18594420616E+02  0.20999637302E+02  0.51330595340E+02  0.00000000000E+00 0. -1.
         11    1    4    4    0    0 -0.46263830006E+02 -0.51878261847E+00  0.24718444222E+02  0.52455815569E+02  0.00000000000E+00 0.  1.
</event>
<event>
 8    1  0.7224924E-009  0.1285753E+03  0.7561462E-02  0.1229585E+00
         -2   -1    0    0    0  501 -0.00000000000E+00  0.00000000000E+00  0.12155362171E+02  0.12155362171E+02  0.00000000000E+00 0. -1.
          2   -1    0    0  501    0  0.00000000000E+00 -0.00000000000E+00 -0.16881961763E+04  0.16881961763E+04  0.00000000000E+00 0.  1.
         25    2    1    2    0    0 -0.71971230876E+02  0.14993252965E+02 -0.12591999076E+04  0.12675317017E+04  0.12509017419E+03 0.  0.
         23    2    1    2    0    0  0.71971230876E+02 -0.14993252965E+02 -0.41684090649E+03  0.43281983679E+03  0.90399192920E+02 0.  0.
          5    1    3    3  502    0  0.26171056246E+02 -0.23370765348E+02 -0.20024716578E+03  0.20334088782E+03  0.41800000000E+01 0. -1.
         -5    1    3    3    0  502 -0.98142287122E+02  0.38364018313E+02 -0.10589527419E+04  0.10641908139E+04  0.41800000000E+01 0. -1.
        -11    1    4    4    0    0  0.84869866401E+02  0.12693913484E+02 -0.29714241041E+03  0.30928569596E+03  0.00000000000E+00 0. -1.
         11    1    4    4    0    0 -0.12898635525E+02 -0.27687166449E+02 -0.11969849608E+03  0.12353414082E+03  0.00000000000E+00 0.  1.
</event>
<event>
 8    1  0.7224924E-009  0.2068103E+03  0.7561462E-02  0.1144117E+00
          2   -1    0    0  501    0  0.00000000000E+00  0.00000000000E+00  0.49970679068E+03  0.49970679068E+03  0.00000000000E+00 0. -1.
         -2   -1    0    0    0  501 -0.00000000000E+00 -0.00000000000E+00 -0.25657656752E+03  0.25657656752E+03  0.00000000000E+00 0.  1.
         25    2    1    2    0    0  0.13157216864E+03 -0.14835895941E+03  0.41612612867E+03  0.47762917727E+03  0.12508820739E+03 0.  0.
         23    2    1    2    0    0 -0.13157216864E+03  0.14835895941E+03 -0.17299590550E+03  0.27865418093E+03  0.91645800946E+02 0.  0.
          5    1    3    3  502    0 -0.22318101390E+01 -0.21372684907E+02 -0.57905391590E+00  0.21899322822E+02  0.41800000000E+01 0. -1.
         -5    1    3    3    0  502  0.13380397878E+03 -0.12698627450E+03  0.41670518258E+03  0.45572985445E+03  0.41800000000E+01 0. -1.
        -11    1    4    4    0    0 -0.27990408110E+02  0.75640148241E+02 -0.11238398507E+03  0.13832951627E+03  0.00000000000E+00 0.  1.
         11    1    4    4    0    0 -0.10358176053E+03  0.72718811171E+02 -0.60611920427E+02  0.14032466465E+03  0.00000000000E+00 0. -1.
</event>
<event>
 8    1  0.7224924E-009  0.9437870E+02  0.7561462E-02  0.1292582E+00
         -1   -1    0    0    0  501 -0.00000000000E+00  0.00000000000E+00  0.11446711860E+03  0.11446711860E+03  0.00000000000E+00 0.  1.
          1   -1    0    0  501    0  0.00000000000E+00 -0.00000000000E+00 -0.11320993140E+03  0.11320993140E+03  0.00000000000E+00 0. -1.
         25    2    1    2    0    0  0.79888316410E+01  0.32852628669E+02 -0.32243991680E+01  0.12963465982E+03  0.12510648119E+03 0.  0.
         23    2    1    2    0    0 -0.79888316410E+01 -0.32852628669E+02  0.44815863649E+01  0.98042390181E+02  0.91919035105E+02 0.  0.
          5    1    3    3  502    0 -0.25146138676E+02  0.66497007530E+02 -0.27541356049E+02  0.76355608791E+02  0.41800000000E+01 0. -1.
         -5    1    3    3    0  502  0.33134970317E+02 -0.33644378861E+02  0.24316956882E+02  0.53279051032E+02  0.41800000000E+01 0. -1.
        -11    1    4    4    0    0 -0.23060250824E+02 -0.45140673513E+02 -0.29675742066E+02  0.58737596481E+02  0.00000000000E+00 0. -1.
         11    1    4    4    0    0  0.15071419183E+02  0.12288044844E+02  0.34157328431E+02  0.39304793700E+02  0.00000000000E+00 0.  1.
</event>
<event>
 8    1  0.7224924E-009  0.4151499E+03  0.7561462E-02  0.1038656E+00
          1   -1    0    0  501    0  0.00000000000E+00  0.00000000000E+00  0.42138357433E+03  0.42138357433E+03  0.00000000000E+00 0. -1.
         -1   -1    0    0    0  501 -0.00000000000E+00 -0.00000000000E+00 -0.53026176944E+03  0.53026176944E+03  0.00000000000E+00 0.  1.
         25    2    1    2    0    0  0.30983759768E+03  0.26195374476E+03  0.16292918183E+03  0.45476649477E+03  0.12509014807E+03 0.  0.
         23    2    1    2    0    0 -0.30983759768E+03 -0.26195374476E+03 -0.27180737695E+03  0.49687884900E+03  0.91598248317E+02 0.  0.
          5    1    3    3  502    0 -0.10672034447E+02  0.19084847924E+02  0.58093790636E+01  0.23007499312E+02  0.41800000000E+01 0.  1.
         -5    1    3    3    0  502  0.32050963213E+03  0.24286889683E+03  0.15711980277E+03  0.43175899546E+03  0.41800000000E+01 0.  1.
        -11    1    4    4    0    0 -0.15131395385E+03 -0.12072877285E+03 -0.75672309304E+02  0.20784043788E+03  0.00000000000E+00 0.  1.
         11    1    4    4    0    0 -0.15852364383E+03 -0.14122497191E+03 -0.19613506764E+03  0.28903841112E+03  0.00000000000E+00 0. -1.
</event>
<event>
 8    1  0.7224924E-009  0.1581343E+03  0.7561462E-02  0.1190819E+00
         -1   -1    0    0    0  501 -0.00000000000E+00  0.00000000000E+00  0.25929065837E+02  0.25929065837E+02  0.00000000000E+00 0.  1.
          1   -1    0    0  501    0  0.00000000000E+00 -0.00000000000E+00 -0.11652840326E+04  0.11652840326E+04  0.00000000000E+00 0. -1.
         25    2    1    2    0    0 -0.46093076303E+02 -0.10778441002E+03 -0.83415737020E+03  0.85159071043E+03  0.12508464775E+03 0.  0.
         23    2    1    2    0    0  0.46093076303E+02  0.10778441002E+03 -0.30519759661E+03  0.33962238806E+03  0.91955112783E+02 0.  0.
          5    1    3    3  502    0 -0.83635152900E+02 -0.10047515861E+03 -0.69562615001E+03  0.70781587244E+03  0.41800000000E+01 0.  1.
         -5    1    3    3    0  502  0.37542076597E+02 -0.73092514037E+01 -0.13853122019E+03  0.14377483799E+03  0.41800000000E+01 0.  1.
        -11    1    4    4    0    0 -0.17876341589E+02  0.70980056203E+02 -0.17965782963E+03  0.19399656625E+03  0.00000000000E+00 0.  1.
         11    1    4    4    0    0  0.63969417891E+02  0.36804353812E+02 -0.12553976698E+03  0.14562582181E+03  0.00000000000E+00 0. -1.
</event>
<event>
 8    1  0.7224924E-009  0.9865229E+02  0.7561462E-02  0.1283156E+00
         -2   -1    0    0    0  501 -0.00000000000E+00  0.00000000000E+00  0.43647860560E+02  0.43647860560E+02  0.00000000000E+00 0.  1.
          2   -1    0    0  501    0  0.00000000000E+00 -0.00000000000E+00 -0.75003792079E+03  0.75003792079E+03  0.00000000000E+00 0. -1.
         25    2    1    2    0    0 -0.29387948546E+02 -0.15635067996E+02 -0.67921865856E+03  0.69144443728E+03  0.12509722957E+03 0.  0.
         23    2    1    2    0    0  0.29387948546E+02  0.15635067996E+02 -0.27171401672E+02  0.10224134407E+03  0.92773382480E+02 0.  0.
          5    1    3    3  502    0 -0.61100315981E+02 -0.51104160233E+02 -0.36477540133E+03  0.37339449597E+03  0.41800000000E+01 0. -1.
         -5    1    3    3    0  502  0.31712367435E+02  0.35469092237E+02 -0.31444325723E+03  0.31804994131E+03  0.41800000000E+01 0. -1.
        -11    1    4    4    0    0  0.37719153758E+01 -0.23063356593E+02 -0.46442380920E+02  0.51990773302E+02  0.00000000000E+00 0. -1.
         11    1    4    4    0    0  0.25616033170E+02  0.38698424589E+02  0.19270979248E+02  0.50250570765E+02  0.00000000000E+00 0.  1.
</event>
<event>
 8    1  0.7224924E-009  0.1903523E+03  0.7561462E-02  0.1158144E+00
         -1   -1    0    0    0  501 -0.00000000000E+00  0.00000000000E+00  0.12079761143E+03  0.12079761143E+03  0.00000000000E+00 0.  1.
          1   -1    0    0  501    0  0.00000000000E+00 -0.00000000000E+00 -0.41547603388E+03  0.41547603388E+03  0.00000000000E+00 0. -1.
         25    2    1    2    0    0  0.19910560564E+02  0.17786551385E+03 -0.24634051789E+03  0.32918613612E+03  0.12508912830E+03 0.  0.
         23    2    1    2    0    0 -0.19910560564E+02 -0.17786551385E+03 -0.48337904562E+02  0.20708750919E+03  0.92282782827E+02 0.  0.
          5    1    3    3  502    0  0.97015530916E+00  0.86655172577E+02 -0.27030502472E+02  0.90874532184E+02  0.41800000000E+01 0. -1.
         -5    1    3    3    0  502  0.18940405255E+02  0.91210341273E+02 -0.21931001542E+03  0.23831160393E+03  0.41800000000E+01 0. -1.
        -11    1    4    4    0    0  0.19763180872E+02 -0.15211962817E+03 -0.44053227583E+02  0.15959840680E+03  0.00000000000E+00 0. -1.
         11    1    4    4    0    0 -0.39673741436E+02 -0.25745885680E+02 -0.42846769794E+01  0.47489102390E+02  0.00000000000E+00 0.  1.
</event>
<event>
 8    1  0.7224924E-009  0.9115333E+02  0.7561462E-02  0.1300083E+00
         -2   -1    0    0    0  501 -0.00000000000E+00  0.00000000000E+00  0.10048979909E+03  0.10048979909E+03  0.00000000000E+00 0.  1.
          2   -1    0    0  501    0  0.00000000000E+00 -0.00000000000E+00 -0.19632175977E+03  0.19632175977E+03  0.00000000000E+00 0. -1.
         25    2    1    2    0    0  0.29343304737E+02  0.64843572388E+02 -0.10879296915E+03  0.18041773987E+03  0.12509569261E+03 0.  0.
         23    2    1    2    0    0 -0.29343304737E+02 -0.64843572388E+02  0.12961008473E+02  0.11639381900E+03  0.91180123641E+02 0.  0.
          5    1    3    3  502    0  0.27408905173E+02  0.61796892189E+02 -0.13638552059E+03  0.15227799117E+03  0.41800000000E+01 0. -1.
         -5    1    3    3    0  502  0.19343995632E+01  0.30466801989E+01  0.27592551440E+02  0.28139748700E+02  0.41800000000E+01 0. -1.
        -11    1    4    4    0    0  0.12235085684E+02 -0.66328731555E+02 -0.11065859986E+02  0.68349478481E+02  0.00000000000E+00 0. -1.
         11    1    4    4    0    0 -0.41578390420E+02  0.14851591666E+01  0.24026868459E+02  0.48044340516E+02  0.00000000000E+00 0.  1.
</event>
<event>
 8    1  0.7224924E-009  0.1931288E+03  0.7561462E-02  0.1155669E+00
          1   -1    0    0  501    0  0.00000000000E+00  0.00000000000E+00  0.10145618954E+03  0.10145618954E+03  0.00000000000E+00 0. -1.
         -1   -1    0    0    0  501 -0.00000000000E+00 -0.00000000000E+00 -0.47454227576E+03  0.47454227576E+03  0.00000000000E+00 0.  1.
         25    2    1    2    0    0 -0.15871140179E+03 -0.10696698510E+03 -0.18553029087E+03  0.29444898685E+03  0.12508985598E+03 0.  0.
         23    2    1    2    0    0  0.15871140179E+03  0.10696698510E+03 -0.18755579536E+03  0.28154947845E+03  0.86381059771E+02 0.  0.
          5    1    3    3  502    0 -0.15757310857E+03 -0.10071200328E+03 -0.10689051660E+03  0.21544198080E+03  0.41800000000E+01 0. -1.
         -5    1    3    3    0  502 -0.11382932150E+01 -0.62549818170E+01 -0.78639774264E+02  0.79007006052E+02  0.41800000000E+01 0. -1.
        -11    1    4    4    0    0  0.10761066569E+03  0.77408439707E+02 -0.17770301117E+03  0.22169908003E+03  0.00000000000E+00 0.  1.
         11    1    4    4    0    0  0.51100736092E+02  0.29558545392E+02 -0.98527841885E+01  0.59850398420E+02  0.00000000000E+00 0. -1.
</event>
<event>
 8    1  0.7224924E-009  0.1217088E+03  0.7561462E-02  0.1240304E+00
          1   -1    0    0  501    0  0.00000000000E+00  0.00000000000E+00  0.35837127234E+03  0.35837127234E+03  0.00000000000E+00 0. -1.
         -1   -1    0    0    0  501 -0.00000000000E+00 -0.00000000000E+00 -0.59047934792E+02  0.59047934792E+02  0.00000000000E+00 0.  1.
         25    2    1    2    0    0 -0.59877267293E+02 -0.36438340311E+01  0.27199738408E+03  0.30533393651E+03  0.12509065183E+03 0.  0.
         23    2    1    2    0    0  0.59877267293E+02  0.36438340311E+01  0.27325953467E+02  0.11208527062E+03  0.90652277920E+02 0.  0.
          5    1    3    3  502    0 -0.17303005619E+02  0.57733991692E+02  0.15613123906E+03  0.16741279524E+03  0.41800000000E+01 0. -1.
         -5    1    3    3    0  502 -0.42574261674E+02 -0.61377825723E+02  0.11586614502E+03  0.13792114127E+03  0.41800000000E+01 0. -1.
        -11    1    4    4    0    0  0.43282043348E+02 -0.41577320642E+02  0.20568982757E+02  0.63443612127E+02  0.00000000000E+00 0. -1.
         11    1    4    4    0    0  0.16595223945E+02  0.45221154673E+02  0.67569707101E+01  0.48641658493E+02  0.00000000000E+00 0.  1.
</event>
<event>
 8    1  0.7224924E-009  0.1219684E+03  0.7561462E-02  0.1239885E+00
          1   -1    0    0  501    0  0.00000000000E+00  0.00000000000E+00  0.12348283139E+04  0.12348283139E+04  0.00000000000E+00 0. -1.
         -1   -1    0    0    0  501 -0.00000000000E+00 -0.00000000000E+00 -0.12419318106E+02  0.12419318106E+02  0.00000000000E+00 0.  1.
         25    2    1    2    0    0 -0.47459801121E+02  0.35859436497E+02  0.71197004072E+03  0.72531863484E+03  0.12508977278E+03 0.  0.
         23    2    1    2    0    0  0.47459801121E+02 -0.35859436497E+02  0.51043895504E+03  0.52192899714E+03  0.91233871554E+02 0.  0.
          5    1    3    3  502    0  0.18499334569E+02 -0.34160960347E+02  0.28237758317E+03  0.28506800674E+03  0.41800000000E+01 0. -1.
         -5    1    3    3    0  502 -0.65959135690E+02  0.70020396844E+02  0.42959245755E+03  0.44025062810E+03  0.41800000000E+01 0. -1.
        -11    1    4    4    0    0 -0.27508960455E+02 -0.90166023079E+01  0.11874159512E+03  0.12221950922E+03  0.00000000000E+00 0.  1.
         11    1    4    4    0    0  0.74968761576E+02 -0.26842834189E+02  0.39169735992E+03  0.39970948791E+03  0.00000000000E+00 0. -1.
</event>
<event>
 8    1  0.7224924E-009  0.8488185E+02  0.7561462E-02  0.1315742E+00
          3   -1    0    0  501    0  0.00000000000E+00  0.00000000000E+00  0.10225689080E+03  0.10225689080E+03  0.00000000000E+00 0. -1.
         -3   -1    0    0    0  501 -0.00000000000E+00 -0.00000000000E+00 -0.13199532714E+03  0.13199532714E+03  0.00000000000E+00 0.  1.
         25    2    1    2    0    0 -0.23482040455E+01  0.88963354360E+00  0.33677002493E+02  0.12956763834E+03  0.12508927571E+03 0.  0.
         23    2    1    2    0    0  0.23482040455E+01 -0.88963354360E+00 -0.63415438834E+02  0.10468457960E+03  0.83252854689E+02 0.  0.
          5    1    3    3  502    0 -0.24207226020E+01 -0.61814192752E+02  0.12481375244E+02  0.63246434298E+02  0.41800000000E+01 0. -1.
         -5    1    3    3    0  502  0.72518556446E-01  0.62703826296E+02  0.21195627249E+02  0.66321204042E+02  0.41800000000E+01 0. -1.
        -11    1    4    4    0    0 -0.19762989089E+02  0.76820113132E+01 -0.75250598156E+02  0.78180826028E+02  0.00000000000E+00 0.  1.
         11    1    4    4    0    0  0.22111193135E+02 -0.85716448568E+01  0.11835159322E+02  0.26503753575E+02  0.00000000000E+00 0. -1.
</event>
<event>
 8    1  0.7224924E-009  0.8036652E+02  0.7561462E-02  0.1328015E+00
         -1   -1    0    0    0  501 -0.00000000000E+00  0.00000000000E+00  0.18754038890E+03  0.18754038890E+03  0.00000000000E+00 0.  1.
          1   -1    0    0  501    0  0.00000000000E+00 -0.00000000000E+00 -0.60500082682E+02  0.60500082682E+02  0.00000000000E+00 0. -1.
         25    2    1    2    0    0 -0.36742745469E+00 -0.26835025262E+02  0.81974209610E+02  0.15194507205E+03  0.12508908943E+03 0.  0.
         23    2    1    2    0    0  0.36742745469E+00  0.26835025262E+02  0.45066096608E+02  0.96095399533E+02  0.80517818923E+02 0.  0.
          5    1    3    3  502    0 -0.61194647770E+02 -0.16708962628E+02  0.56654987203E+02  0.85154179713E+02  0.41800000000E+01 0.  1.
         -5    1    3    3    0  502  0.60827220315E+02 -0.10126062634E+02  0.25319222407E+02  0.66790892336E+02  0.41800000000E+01 0.  1.
        -11    1    4    4    0    0  0.11417411601E+02  0.17470637995E+02  0.66795994782E+02  0.69980607304E+02  0.00000000000E+00 0.  1.
         11    1    4    4    0    0 -0.11049984147E+02  0.93643872672E+01 -0.21729898174E+02  0.26114792229E+02  0.00000000000E+00 0. -1.
</event>
<event>
 8    1  0.7224924E-009  0.2000789E+03  0.7561462E-02  0.1149672E+00
          4   -1    0    0  501    0  0.00000000000E+00  0.00000000000E+00  0.10335352483E+04  0.10335352483E+04  0.00000000000E+00 0. -1.
         -4   -1    0    0    0  501 -0.00000000000E+00 -0.00000000000E+00 -0.49576690301E+02  0.49576690301E+02  0.00000000000E+00 0.  1.
         25    2    1    2    0    0  0.14193489710E+03  0.13307619683E+03  0.41628695392E+03  0.47623220303E+03  0.12508994371E+03 0.  0.
         23    2    1    2    0    0 -0.14193489710E+03 -0.13307619683E+03  0.56767160412E+03  0.60687973562E+03  0.90538247136E+02 0.  0.
          5    1    3    3  502    0  0.11570813470E+03  0.85926292703E+02  0.16471960398E+03  0.21891030252E+03  0.41800000000E+01 0.  1.
         -5    1    3    3    0  502  0.26226762403E+02  0.47149904128E+02  0.25156734995E+03  0.25732190051E+03  0.41800000000E+01 0.  1.
        -11    1    4    4    0    0 -0.53200274716E+02 -0.86737426843E+02  0.18289785757E+03  0.20929710163E+03  0.00000000000E+00 0. -1.
         11    1    4    4    0    0 -0.88734622389E+02 -0.46338769989E+02  0.38477374655E+03  0.39758263399E+03  0.00000000000E+00 0.  1.
</event>
<event>
 8    1  0.7224924E-009  0.1179821E+03  0.7561462E-02  0.1246464E+00
          2   -1    0    0  501    0  0.00000000000E+00  0.00000000000E+00  0.31507283677E+03  0.31507283677E+03  0.00000000000E+00 0. -1.
         -2   -1    0    0    0  501 -0.00000000000E+00 -0.00000000000E+00 -0.72796289864E+02  0.72796289864E+02  0.00000000000E+00 0.  1.
         25    2    1    2    0    0 -0.63335427581E+02 -0.32153562317E+00  0.23746028566E+02  0.14221195615E+03  0.12509551082E+03 0.  0.
         23    2    1    2    0    0  0.63335427581E+02  0.32153562317E+00  0.21853051834E+03  0.24565717049E+03  0.92630330847E+02 0.  0.
          5    1    3    3  502    0 -0.51649415276E+02 -0.50583976176E+02 -0.19232719343E+02  0.74925100183E+02  0.41800000000E+01 0.  1.
         -5    1    3    3    0  502 -0.11686012306E+02  0.50262440553E+02  0.42978747909E+02  0.67286855966E+02  0.41800000000E+01 0.  1.
        -11    1    4    4    0    0  0.42489157141E+02 -0.45001126060E+02  0.11015283949E+03  0.12634903193E+03  0.00000000000E+00 0.  1.
         11    1    4    4    0    0  0.20846270441E+02  0.45322661683E+02  0.10837767885E+03  0.11930813856E+03  0.00000000000E+00 0. -1.
</event>
<event>
 8    1  0.7224924E-009  0.7931555E+02  0.7561462E-02  0.1331005E+00
         -1   -1    0    0    0  501 -0.00000000000E+00  0.00000000000E+00  0.46369100155E+03  0.46369100155E+03  0.00000000000E+00 0.  1.
          1   -1    0    0  501    0  0.00000000000E+00 -0.00000000000E+00 -0.40840613427E+02  0.40840613427E+02  0.00000000000E+00 0. -1.
         25    2    1    2    0    0 -0.29961254220E+02  0.69079009572E+02  0.15823460241E+03  0.21530142435E+03  0.12508767970E+03 0.  0.
         23    2    1    2    0    0  0.29961254220E+02 -0.69079009572E+02  0.26461578572E+03  0.28923019062E+03  0.89235658784E+02 0.  0.
          5    1    3    3  502    0 -0.13244758195E+02  0.22420337313E+02  0.16319827675E+03  0.16531559237E+03  0.41800000000E+01 0. -1.
         -5    1    3    3    0  502 -0.16716496025E+02  0.46658672259E+02 -0.49636743467E+01  0.49985831986E+02  0.41800000000E+01 0. -1.
        -11    1    4    4    0    0  0.18319652903E+02 -0.68451134058E+02  0.26790402595E+03  0.27711682475E+03  0.00000000000E+00 0.  1.
         11    1    4    4    0    0  0.11641601318E+02 -0.62787551424E+00 -0.32882402380E+01  0.12113365872E+02  0.00000000000E+00 0. -1.
</event>
<event>
 8    1  0.7224924E-009  0.9289181E+02  0.7561462E-02  0.1295996E+00
         -1   -1    0    0    0  501 -0.00000000000E+00  0.00000000000E+00  0.31480191156E+03  0.31480191156E+03  0.00000000000E+00 0.  1.
          1   -1    0    0  501    0  0.00000000000E+00 -0.00000000000E+00 -0.62733723803E+02  0.62733723803E+02  0.00000000000E+00 0. -1.
         25    2    1    2    0    0  0.33896236045E+02  0.79861077683E+02  0.10410859164E+03  0.18442483489E+03  0.12508866585E+03 0.  0.
         23    2    1    2    0    0 -0.33896236045E+02 -0.79861077683E+02  0.14795959612E+03  0.19311080048E+03  0.88729885776E+02 0.  0.
          5    1    3    3  502    0  0.45641104387E+01  0.58806304896E+02  0.12795202951E+03  0.14095462694E+03  0.41800000000E+01 0. -1.
         -5    1    3    3    0  502  0.29332125606E+02  0.21054772787E+02 -0.23843437872E+02  0.43470207950E+02  0.41800000000E+01 0. -1.
        -11    1    4    4    0    0 -0.30571490314E+02 -0.40196441198E+02  0.12640593955E+02  0.52059144447E+02  0.00000000000E+00 0. -1.
         11    1    4    4    0    0 -0.33247457308E+01 -0.39664636486E+02  0.13531900216E+03  0.14105165603E+03  0.00000000000E+00 0.  1.
</event>
<event>
 8    1  0.7224924E-009  0.1114396E+03  0.7561462E-02  0.1257927E+00
          2   -1    0    0  501    0  0.00000000000E+00  0.00000000000E+00  0.65537443826E+03  0.65537443826E+03  0.00000000000E+00 0. -1.
         -2   -1    0    0    0  501 -0.00000000000E+00 -0.00000000000E+00 -0.21901143543E+02  0.21901143543E+02  0.00000000000E+00 0.  1.
         25    2    1    2    0    0 -0.21258526233E+02  0.32054992131E+02  0.44686874981E+03  0.46563849087E+03  0.12509227461E+03 0.  0.
         23    2    1    2    0    0  0.21258526233E+02 -0.32054992131E+02  0.18660454490E+03  0.21163709092E+03  0.92138779123E+02 0.  0.
          5    1    3    3  502    0  0.30837470986E+02  0.62500661636E+02  0.26091425306E+03  0.27009443195E+03  0.41800000000E+01 0.  1.
         -5    1    3    3    0  502 -0.52095997220E+02 -0.30445669506E+02  0.18595449675E+03  0.19554405892E+03  0.41800000000E+01 0.  1.
        -11    1    4    4    0    0  0.15641458569E+01  0.28682064599E+02  0.99973682838E+02  0.10401848221E+03  0.00000000000E+00 0. -1.
         11    1    4    4    0    0  0.19694380377E+02 -0.60737056730E+02  0.86630862066E+02  0.10761860871E+03  0.00000000000E+00 0.  1.
</event>
<event>
 8    1  0.7224924E-009  0.1213330E+03  0.7561462E-02  0.1240914E+00
          1   -1    0    0  501    0  0.00000000000E+00  0.00000000000E+00  0.31431563874E+03  0.31431563874E+03  0.00000000000E+00 0. -1.
         -1   -1    0    0    0  501 -0.00000000000E+00 -0.00000000000E+00 -0.70800499768E+02  0.70800499768E+02  0.00000000000E+00 0.  1.
         25    2    1    2    0    0 -0.91832582468E+02  0.18286686554E+02  0.87465628255E+02  0.17906667656E+03  0.12508801870E+03 0.  0.
         23    2    1    2    0    0  0.91832582468E+02 -0.18286686554E+02  0.15604951071E+03  0.20604946194E+03  0.96629730752E+02 0.  0.
          5    1    3    3  502    0 -0.75726341027E+02  0.42460347711E+02  0.11566577874E+00  0.86918614989E+02  0.41800000000E+01 0.  1.
         -5    1    3    3    0  502 -0.16106241441E+02 -0.24173661156E+02  0.87349962476E+02  0.92148061573E+02  0.41800000000E+01 0.  1.
        -11    1    4    4    0    0  0.78261126247E+02  0.24105057266E+02  0.64456575106E+02  0.10421375985E+03  0.00000000000E+00 0.  1.
         11    1    4    4    0    0  0.13571456221E+02 -0.42391743820E+02  0.91592935607E+02  0.10183570210E+03  0.00000000000E+00 0. -1.
</event>
<event>
 8    1  0.7224924E-009  0.1318870E+03  0.7561462E-02  0.1224682E+00
         -2   -1    0    0    0  501 -0.00000000000E+00  0.00000000000E+00  0.61027034024E+02  0.61027034024E+02  0.00000000000E+00 0. -1.
          2   -1    0    0  501    0  0.00000000000E+00 -0.00000000000E+00 -0.32327454169E+03  0.32327454169E+03  0.00000000000E+00 0.  1.
         25    2    1    2    0    0 -0.52466528963E+02  0.58882725724E+02 -0.19861957024E+03  0.24762038983E+03  0.12508481813E+03 0.  0.
         23    2    1    2    0    0  0.52466528963E+02 -0.58882725724E+02 -0.63627937424E+02  0.13668118588E+03  0.91724152235E+02 0.  0.
          5    1    3    3  502    0 -0.92357371446E+02  0.52464591437E+02 -0.15570090879E+03  0.18852761817E+03  0.41800000000E+01 0.  1.
         -5    1    3    3    0  502  0.39890842483E+02  0.64181342869E+01 -0.42918661452E+02  0.59092771661E+02  0.41800000000E+01 0.  1.
        -11    1    4    4    0    0  0.70987165118E+02 -0.66080448547E+02 -0.65020331988E+02  0.11676235208E+03  0.00000000000E+00 0.  1.
         11    1    4    4    0    0 -0.18520636154E+02  0.71977228223E+01  0.13923945645E+01  0.19918833802E+02  0.00000000000E+00 0. -1.
</event>
<event>
 8    1  0.7224924E-009  0.7158446E+02  0.7561462E-02  0.1354786E+00
          2   -1    0    0  501    0  0.00000000000E+00  0.00000000000E+00  0.24616411718E+03  0.24616411718E+03  0.00000000000E+00 0. -1.
         -2   -1    0    0    0  501 -0.00000000000E+00 -0.00000000000E+00 -0.55013441831E+02  0.55013441831E+02  0.00000000000E+00 0.  1.
         25    2    1    2    0    0 -0.35260282914E+02 -0.10029498740E+02  0.13876737190E+03  0.19038792231E+03  0.12508916444E+03 0.  0.
         23    2    1    2    0    0  0.35260282914E+02  0.10029498740E+02  0.52383303449E+02  0.11078963670E+03  0.90479029196E+02 0.  0.
          5    1    3    3  502    0 -0.14013153142E+01 -0.42665345539E+02 -0.95646093752E+00  0.42903177179E+02  0.41800000000E+01 0.  1.
         -5    1    3    3    0  502 -0.33858967599E+02  0.32635846798E+02  0.13972383283E+03  0.14748474513E+03  0.41800000000E+01 0.  1.
        -11    1    4    4    0    0  0.17978683462E+02  0.24593320960E+02 -0.19007170843E+02  0.35907339616E+02  0.00000000000E+00 0.  1.
         11    1    4    4    0    0  0.17281599451E+02 -0.14563822220E+02  0.71390474292E+02  0.74882297086E+02  0.00000000000E+00 0. -1.
</event>
<event>
 8    1  0.7224924E-009  0.1196246E+03  0.7561462E-02  0.1243718E+00
          2   -1    0    0  501    0  0.00000000000E+00  0.00000000000E+00  0.10224968643E+03  0.10224968643E+03  0.00000000000E+00 0. -1.
         -2   -1    0    0    0  501 -0.00000000000E+00 -0.00000000000E+00 -0.17976057387E+03  0.17976057387E+03  0.00000000000E+00 0.  1.
         25    2    1    2    0    0 -0.67501430714E+02 -0.39812030840E+02 -0.66562333019E+02  0.16192413385E+03  0.12508972779E+03 0.  0.
         23    2    1    2    0    0  0.67501430714E+02  0.39812030840E+02 -0.10948554424E+02  0.12008612645E+03  0.90329208866E+02 0.  0.
          5    1    3    3  502    0 -0.68073440986E+01  0.43577236409E+02 -0.22509503349E+02  0.49693717991E+02  0.41800000000E+01 0. -1.
         -5    1    3    3    0  502 -0.60694086615E+02 -0.83389267249E+02 -0.44052829670E+02  0.11223041586E+03  0.41800000000E+01 0. -1.
        -11    1    4    4    0    0  0.63168018404E+02  0.12909867267E+02 -0.43393529653E+02  0.77716546743E+02  0.00000000000E+00 0.  1.
         11    1    4    4    0    0  0.43334123094E+01  0.26902163572E+02  0.32444975229E+02  0.42369579709E+02  0.00000000000E+00 0. -1.
</event>
<event>
 8    1  0.7224924E-009  0.3303100E+03  0.7561462E-02  0.1071000E+00
          1   -1    0    0  501    0  0.00000000000E+00  0.00000000000E+00  0.13842146576E+03  0.13842146576E+03  0.00000000000E+00 0. -1.
         -1   -1    0    0    0  501 -0.00000000000E+00 -0.00000000000E+00 -0.85455380509E+03  0.85455380509E+03  0.00000000000E+00 0.  1.
         25    2    1    2    0    0  0.27961863232E+03 -0.14764330519E+03 -0.24801791039E+03  0.42088574033E+03  0.12508715934E+03 0.  0.
         23    2    1    2    0    0 -0.27961863232E+03  0.14764330519E+03 -0.46811442893E+03  0.57208953051E+03  0.90389088089E+02 0.  0.
          5    1    3    3  502    0  0.28191793112E+03 -0.11146052828E+03 -0.22724860597E+03  0.37889387772E+03  0.41800000000E+01 0. -1.
         -5    1    3    3    0  502 -0.22992988073E+01 -0.36182776908E+02 -0.20769304423E+02  0.41991862617E+02  0.41800000000E+01 0. -1.
        -11    1    4    4    0    0 -0.19251762820E+03  0.12936557597E+03 -0.27712236854E+03  0.36137971243E+03  0.00000000000E+00 0. -1.
         11    1    4    4    0    0 -0.87101004119E+02  0.18277729222E+02 -0.19099206039E+03  0.21070981808E+03  0.00000000000E+00 0.  1.
</event>
<event>
 8    1  0.7224924E-009  0.7227330E+02  0.7561462E-02  0.1352529E+00
          1   -1    0    0  501    0  0.00000000000E+00  0.00000000000E+00  0.69905739414E+02  0.69905739414E+02  0.00000000000E+00 0. -1.
         -1   -1    0    0    0  501 -0.00000000000E+00 -0.00000000000E+00 -0.24546643667E+03  0.24546643667E+03  0.00000000000E+00 0.  1.
         25    2    1    2    0    0 -0.31975842109E+02  0.63454197356E+02 -0.63158376932E+02  0.15711557350E+03  0.12508970070E+03 0.  0.
         23    2    1    2    0    0  0.31975842109E+02 -0.63454197356E+02 -0.11240232033E+03  0.15825660258E+03  0.85801987189E+02 0.  0.
          5    1    3    3  502    0 -0.14648568791E+02  0.29690045274E+02  0.37060587842E+02  0.49870220846E+02  0.41800000000E+01 0. -1.
         -5    1    3    3    0  502 -0.17327273317E+02  0.33764152082E+02 -0.10021896477E+03  0.10724535266E+03  0.41800000000E+01 0. -1.
        -11    1    4    4    0    0  0.25948378171E+02 -0.33146297668E+02 -0.42868874864E+00  0.42097258259E+02  0.00000000000E+00 0. -1.
         11    1    4    4    0    0  0.60274639373E+01 -0.30307899688E+02 -0.11197363158E+03  0.11615934433E+03  0.00000000000E+00 0.  1.
</event>
<event>
 8    1  0.7224924E-009  0.1407592E+03  0.7561462E-02  0.1212311E+00
         -1   -1    0    0    0  501 -0.00000000000E+00  0.00000000000E+00  0.44575217250E+02  0.44575217250E+02  0.00000000000E+00 0.  1.
          1   -1    0    0  501    0  0.00000000000E+00 -0.00000000000E+00 -0.62983423844E+03  0.62983423844E+03  0.00000000000E+00 0. -1.
         25    2    1    2    0    0  0.12640334435E+03  0.83251036255E+01 -0.29041851380E+03  0.34064197213E+03  0.12508767809E+03 0.  0.
         23    2    1    2    0    0 -0.12640334435E+03 -0.83251036255E+01 -0.29484050740E+03  0.33376748356E+03  0.91775244315E+02 0.  0.
          5    1    3    3  502    0  0.10037681554E+03  0.44390937367E+02 -0.27007743527E+03  0.29155677639E+03  0.41800000000E+01 0. -1.
         -5    1    3    3    0  502  0.26026528804E+02 -0.36065833742E+02 -0.20341078529E+02  0.49085195740E+02  0.41800000000E+01 0. -1.
        -11    1    4    4    0    0 -0.21457324212E+02  0.20472036070E+01 -0.10021282271E+01  0.21578045925E+02  0.00000000000E+00 0.  1.
         11    1    4    4    0    0 -0.10494602014E+03 -0.10372307232E+02 -0.29383837917E+03  0.31218943764E+03  0.00000000000E+00 0. -1.
</event>
<event>
 8    1  0.7224924E-009  0.1904130E+03  0.7561462E-02  0.1158089E+00
         -1   -1    0    0    0  501 -0.00000000000E+00  0.00000000000E+00  0.14543771145E+03  0.14543771145E+03  0.00000000000E+00 0.  1.
          1   -1    0    0  501    0  0.00000000000E+00 -0.00000000000E+00 -0.48227996533E+03  0.48227996533E+03  0.00000000000E+00 0. -1.
         25    2    1    2    0    0  0.14466472930E+03 -0.75050137686E+02  0.38179855159E+02  0.20897290478E+03  0.12510622096E+03 0.  0.
         23    2    1    2    0    0 -0.14466472930E+03  0.75050137686E+02 -0.37502210905E+03  0.41874477200E+03  0.90250732592E+02 0.  0.
          5    1    3    3  502    0  0.13566961327E+03 -0.16878071688E+02 -0.33371614094E+01  0.13682003623E+03  0.41800000000E+01 0. -1.
         -5    1    3    3    0  502  0.89951160314E+01 -0.58172065998E+02  0.41517016569E+02  0.72152868547E+02  0.41800000000E+01 0. -1.
        -11    1    4    4    0    0 -0.13846234315E+02  0.49945727749E+02 -0.84294329942E+02  0.98953665852E+02  0.00000000000E+00 0.  1.
         11    1    4    4    0    0 -0.13081849498E+03  0.25104409936E+02 -0.29072777910E+03  0.31979110615E+03  0.00000000000E+00 0. -1.
</event>
<event>
 8    1  0.7224924E-009  0.1181391E+03  0.7561462E-02  0.1246199E+00
          1   -1    0    0  501    0  0.00000000000E+00  0.00000000000E+00  0.25968092407E+03  0.25968092407E+03  0.00000000000E+00 0. -1.
         -1   -1    0    0    0  501 -0.00000000000E+00 -0.00000000000E+00 -0.60759444674E+02  0.60759444674E+02  0.00000000000E+00 0.  1.
         25    2    1    2    0    0  0.22206186450E+02 -0.38864894680E+02  0.15546301456E+03  0.20449819957E+03  0.12508864847E+03 0.  0.
         23    2    1    2    0    0 -0.22206186450E+02  0.38864894680E+02  0.43458464838E+02  0.11594216917E+03  0.97725910954E+02 0.  0.
          5    1    3    3  502    0  0.48368658045E+02  0.31149090770E+02  0.74677698424E+02  0.94361135955E+02  0.41800000000E+01 0.  1.
         -5    1    3    3    0  502 -0.26162471595E+02 -0.70013985451E+02  0.80785316137E+02  0.11013706362E+03  0.41800000000E+01 0.  1.
        -11    1    4    4    0    0 -0.58236176703E+02  0.13809346904E+02  0.39859763598E+02  0.71909325494E+02  0.00000000000E+00 0. -1.
         11    1    4    4    0    0  0.36029990253E+02  0.25055547776E+02  0.35987012397E+01  0.44032843681E+02  0.00000000000E+00 0.  1.
</event>
<event>
 8    1  0.7224924E-009  0.1009255E+03  0.7561462E-02  0.1278362E+00
          2   -1    0    0  501    0  0.00000000000E+00  0.00000000000E+00  0.13559038370E+03  0.13559038370E+03  0.00000000000E+00 0.  1.
         -2   -1    0    0    0  501 -0.00000000000E+00 -0.00000000000E+00 -0.10856776094E+03  0.10856776094E+03  0.00000000000E+00 0. -1.
         25    2    1    2    0    0  0.93341786861E+01  0.25137757467E+02  0.50190697166E+02  0.13742360295E+03  0.12508839604E+03 0.  0.
         23    2    1    2    0    0 -0.93341786861E+01 -0.25137757467E+02 -0.23168074401E+02  0.10673454169E+03  0.10068003266E+03 0.  0.
          5    1    3    3  502    0 -0.48978179922E+02  0.32830266227E+02  0.51564882056E+02  0.78441685031E+02  0.41800000000E+01 0. -1.
         -5    1    3    3    0  502  0.58312358608E+02 -0.76925087602E+01 -0.13741848900E+01  0.58981917921E+02  0.41800000000E+01 0. -1.
        -11    1    4    4    0    0 -0.35165600264E+02 -0.40565370521E+02  0.17212075329E+02  0.56377515594E+02  0.00000000000E+00 0.  1.
         11    1    4    4    0    0  0.25831421578E+02  0.15427613054E+02 -0.40380149729E+02  0.50357026098E+02  0.00000000000E+00 0. -1.
</event>
<event>
 8    1  0.7224924E-009  0.2115758E+03  0.7561462E-02  0.1140324E+00
          2   -1    0    0  501    0  0.00000000000E+00  0.00000000000E+00  0.54364882896E+03  0.54364882896E+03  0.00000000000E+00 0. -1.
         -2   -1    0    0    0  501 -0.00000000000E+00 -0.00000000000E+00 -0.86342884824E+02  0.86342884824E+02  0.00000000000E+00 0.  1.
         25    2    1    2    0    0 -0.16219910165E+03 -0.90777649054E+02  0.26784782309E+03  0.34919818693E+03  0.12509111589E+03 0.  0.
         23    2    1    2    0    0  0.16219910165E+03  0.90777649054E+02  0.18945812104E+03  0.28079352686E+03  0.91659669173E+02 0.  0.
          5    1    3    3  502    0 -0.17754463319E+03 -0.71783925374E+02  0.26052286288E+03  0.32336459794E+03  0.41800000000E+01 0. -1.
         -5    1    3    3    0  502  0.15345531545E+02 -0.18993723680E+02  0.73249602082E+01  0.25833588982E+02  0.41800000000E+01 0. -1.
        -11    1    4    4    0    0  0.36222722100E+02 -0.17941453021E+02  0.30168267919E+02  0.50439128879E+02  0.00000000000E+00 0.  1.
         11    1    4    4    0    0  0.12597637955E+03  0.10871910207E+03  0.15928985312E+03  0.23035439798E+03  0.00000000000E+00 0. -1.
</event>
<event>
 8    1  0.7224924E-009  0.1347657E+03  0.7561462E-02  0.1220551E+00
          1   -1    0    0  501    0  0.00000000000E+00  0.00000000000E+00  0.30780129782E+03  0.30780129782E+03  0.00000000000E+00 0. -1.
         -1   -1    0    0    0  501 -0.00000000000E+00 -0.00000000000E+00 -0.63990108399E+02  0.63990108399E+02  0.00000000000E+00 0.  1.
         25    2    1    2    0    0  0.79068665725E+02 -0.22340897685E+02  0.88504844138E+02  0.17387320356E+03  0.12509122221E+03 0.  0.
         23    2    1    2    0    0 -0.79068665725E+02  0.22340897685E+02  0.15530634528E+03  0.19791820265E+03  0.91107543311E+02 0.  0.
          5    1    3    3  502    0 -0.18199012770E+02  0.31272848127E+02  0.99083249023E+01  0.37747084631E+02  0.41800000000E+01 0. -1.
         -5    1    3    3    0  502  0.97267678495E+02 -0.53613745811E+02  0.78596519236E+02  0.13612611893E+03  0.41800000000E+01 0. -1.
        -11    1    4    4    0    0 -0.14893259864E+02  0.49934443920E+02  0.77081671568E+02  0.93042151580E+02  0.00000000000E+00 0. -1.
         11    1    4    4    0    0 -0.64175405860E+02 -0.27593546235E+02  0.78224673712E+02  0.10487605107E+03  0.00000000000E+00 0.  1.
</event>
<event>
 8    1  0.7224924E-009  0.9423917E+02  0.7561462E-02  0.1292899E+00
          2   -1    0    0  501    0  0.00000000000E+00  0.00000000000E+00  0.66049337094E+03  0.66049337094E+03  0.00000000000E+00 0. -1.
         -2   -1    0    0    0  501 -0.00000000000E+00 -0.00000000000E+00 -0.25734737124E+02  0.25734737124E+02  0.00000000000E+00 0.  1.
         25    2    1    2    0    0 -0.25659183354E+02  0.44562318430E+02  0.21700697030E+03  0.25570453423E+03  0.12509432341E+03 0.  0.
         23    2    1    2    0    0  0.25659183354E+02 -0.44562318430E+02  0.41775166351E+03  0.43052357383E+03  0.90498073733E+02 0.  0.
          5    1    3    3  502    0 -0.51021074019E+02  0.31739436147E+02  0.31472871433E+02  0.67959957601E+02  0.41800000000E+01 0.  1.
         -5    1    3    3    0  502  0.25361890665E+02  0.12822882283E+02  0.18553409887E+03  0.18774457662E+03  0.41800000000E+01 0.  1.
        -11    1    4    4    0    0  0.48863267565E+02  0.46532053814E+00  0.26849452051E+03  0.27290500725E+03  0.00000000000E+00 0. -1.
         11    1    4    4    0    0 -0.23204084211E+02 -0.45027638968E+02  0.14925714300E+03  0.15761856659E+03  0.00000000000E+00 0.  1.
</event>
<event>
 8    1  0.7224924E-009  0.8562926E+02  0.7561462E-02  0.1313795E+00
          2   -1    0    0  501    0  0.00000000000E+00  0.00000000000E+00  0.45956850675E+03  0.45956850675E+03  0.00000000000E+00 0. -1.
         -2   -1    0    0    0  501 -0.00000000000E+00 -0.00000000000E+00 -0.27178077398E+02  0.27178077398E+02  0.00000000000E+00 0.  1.
         25    2    1    2    0    0  0.19449734182E+02  0.17328676690E+02  0.21855697016E+03  0.25316570715E+03  0.12508857211E+03 0.  0.
         23    2    1    2    0    0 -0.19449734182E+02 -0.17328676690E+02  0.21383345919E+03  0.23358087700E+03  0.90314465268E+02 0.  0.
          5    1    3    3  502    0 -0.26360108578E+02  0.33204252481E+02  0.19406758033E+03  0.19868838879E+03  0.41800000000E+01 0. -1.
         -5    1    3    3    0  502  0.45809842760E+02 -0.15875575792E+02  0.24489389837E+02  0.54477318354E+02  0.41800000000E+01 0. -1.
        -11    1    4    4    0    0 -0.40879912475E+02  0.12965801953E+02  0.17372070585E+03  0.17893619786E+03  0.00000000000E+00 0. -1.
         11    1    4    4    0    0  0.21430178293E+02 -0.30294478643E+02  0.40112753340E+02  0.54644679141E+02  0.00000000000E+00 0.  1.
</event>
<event>
 8    1  0.7224924E-009  0.1193104E+03  0.7561462E-02  0.1244239E+00
         -2   -1    0    0    0  501 -0.00000000000E+00  0.00000000000E+00  0.43967614371E+02  0.43967614371E+02  0.00000000000E+00 0.  1.
          2   -1    0    0  501    0  0.00000000000E+00 -0.00000000000E+00 -0.41313780686E+03  0.41313780686E+03  0.00000000000E+00 0. -1.
         25    2    1    2    0    0 -0.11516784992E+02 -0.79443230718E+02 -0.19631301676E+03  0.24623263589E+03  0.12509135535E+03 0.  0.
         23    2    1    2    0    0  0.11516784992E+02  0.79443230718E+02 -0.17285717573E+03  0.21087278535E+03  0.90243366260E+02 0.  0.
          5    1    3    3  502    0 -0.51874089175E+02 -0.55364214754E+02 -0.46308898022E+02  0.88983727945E+02  0.41800000000E+01 0. -1.
         -5    1    3    3    0  502  0.40357304183E+02 -0.24079015965E+02 -0.15000411874E+03  0.15724890794E+03  0.41800000000E+01 0. -1.
        -11    1    4    4    0    0 -0.28315608799E+02  0.20200447197E+01 -0.19229910781E+02  0.34287661789E+02  0.00000000000E+00 0.  1.
         11    1    4    4    0    0  0.39832393791E+02  0.77423185999E+02 -0.15362726495E+03  0.17658512356E+03  0.00000000000E+00 0. -1.
</event>
<event>
 8    1  0.7224924E-009  0.9771258E+02  0.7561462E-02  0.1285181E+00
         -1   -1    0    0    0  501 -0.00000000000E+00  0.00000000000E+00  0.68287036462E+02  0.68287036462E+02  0.00000000000E+00 0. -1.
          1   -1    0    0  501    0  0.00000000000E+00 -0.00000000000E+00 -0.18705102094E+03  0.18705102094E+03  0.00000000000E+00 0.  1.
         25    2    1    2    0    0 -0.21830127402E+02  0.15829575486E+02 -0.40503500138E+02  0.13421967656E+03  0.12508900084E+03 0.  0.
         23    2    1    2    0    0  0.21830127402E+02 -0.15829575486E+02 -0.78260484341E+02  0.12111838084E+03  0.88418487015E+02 0.  0.
          5    1    3    3  502    0 -0.25165956111E+02 -0.43582702369E+02 -0.53070353279E+02  0.73257846610E+02  0.41800000000E+01 0.  1.
         -5    1    3    3    0  502  0.33358287087E+01  0.59412277855E+02  0.12566853141E+02  0.60961829951E+02  0.41800000000E+01 0.  1.
        -11    1    4    4    0    0  0.64279566669E+01 -0.48621060217E+02 -0.67288040479E+02  0.83264677475E+02  0.00000000000E+00 0.  1.
         11    1    4    4    0    0  0.15402170736E+02  0.32791484732E+02 -0.10972443862E+02  0.37853703367E+02  0.00000000000E+00 0. -1.
</event>
<event>
 8    1  0.7224924E-009  0.1607968E+03  0.7561462E-02  0.1187800E+00
          1   -1    0    0  501    0  0.00000000000E+00  0.00000000000E+00  0.16000367420E+04  0.16000367420E+04  0.00000000000E+00 0. -1.
         -1   -1    0    0    0  501 -0.00000000000E+00 -0.00000000000E+00 -0.25689160192E+02  0.25689160192E+02  0.00000000000E+00 0.  1.
         25    2    1    2    0    0 -0.81931670640E+02  0.85890981982E+02  0.13142328099E+04  0.13254979584E+04  0.12508756722E+03 0.  0.
         23    2    1    2    0    0  0.81931670640E+02 -0.85890981982E+02  0.26011477186E+03  0.30022794382E+03  0.91580916510E+02 0.  0.
          5    1    3    3  502    0  0.25172097918E+02  0.54878514983E+02  0.50276037723E+03  0.50638992410E+03  0.41800000000E+01 0. -1.
         -5    1    3    3    0  502 -0.10710376856E+03  0.31012466998E+02  0.81147243270E+03  0.81910803426E+03  0.41800000000E+01 0. -1.
        -11    1    4    4    0    0 -0.76025328950E+01 -0.53869187649E+02  0.83898685602E+02  0.99993386432E+02  0.00000000000E+00 0.  1.
         11    1    4    4    0    0  0.89534203535E+02 -0.32021794333E+02  0.17621608626E+03  0.20023455738E+03  0.00000000000E+00 0. -1.
</event>
<event>
 8    1  0.7224924E-009  0.1878183E+03  0.7561462E-02  0.1160444E+00
          1   -1    0    0  501    0  0.00000000000E+00  0.00000000000E+00  0.18106081566E+04  0.18106081566E+04  0.00000000000E+00 0. -1.
         -1   -1    0    0    0  501 -0.00000000000E+00 -0.00000000000E+00 -0.24131314007E+02  0.24131314007E+02  0.00000000000E+00 0.  1.
         25    2    1    2    0    0 -0.63356126141E+02 -0.16472004200E+03  0.10181387211E+04  0.10408654232E+04  0.12509069875E+03 0.  0.
         23    2    1    2    0    0  0.63356126141E+02  0.16472004200E+03  0.76833812154E+03  0.79387404743E+03  0.93519213045E+02 0.  0.
          5    1    3    3  502    0 -0.85279525354E+02 -0.14281111927E+03  0.63449066789E+03  0.65594473340E+03  0.41800000000E+01 0. -1.
         -5    1    3    3    0  502  0.21923399213E+02 -0.21908922729E+02  0.38364805319E+03  0.38492068981E+03  0.41800000000E+01 0. -1.
        -11    1    4    4    0    0  0.54192476428E+02  0.11152122244E+03  0.67288756791E+03  0.68421596488E+03  0.00000000000E+00 0.  1.
         11    1    4    4    0    0  0.91636497126E+01  0.53198819557E+02  0.95450553638E+02  0.10965808255E+03  0.00000000000E+00 0. -1.
</event>
<event>
 8    1  0.7224924E-009  0.1748683E+03  0.7561462E-02  0.1172864E+00
          1   -1    0    0  501    0  0.00000000000E+00  0.00000000000E+00  0.92621743452E+03  0.92621743452E+03  0.00000000000E+00 0. -1.
         -1   -1    0    0    0  501 -0.00000000000E+00 -0.00000000000E+00 -0.37543967702E+02  0.37543967702E+02  0.00000000000E+00 0.  1.
         25    2    1    2    0    0  0.14916372392E+03  0.67628891197E+01  0.49937951328E+03  0.53602451057E+03  0.12508726733E+03 0.  0.
         23    2    1    2    0    0 -0.14916372392E+03 -0.67628891197E+01  0.38929395354E+03  0.42773689165E+03  0.95464721310E+02 0.  0.
          5    1    3    3  502    0 -0.38927984404E+01 -0.29649843194E+02  0.14740034616E+03  0.15046129579E+03  0.41800000000E+01 0.  1.
         -5    1    3    3    0  502  0.15305652236E+03  0.36412732314E+02  0.35197916712E+03  0.38556321478E+03  0.41800000000E+01 0.  1.
        -11    1    4    4    0    0 -0.52088036944E+02 -0.32921195253E+02  0.23972731281E+03  0.24752000565E+03  0.00000000000E+00 0. -1.
         11    1    4    4    0    0 -0.97075686973E+02  0.26158306133E+02  0.14956664073E+03  0.18021688600E+03  0.00000000000E+00 0.  1.
</event>
<event>
 8    1  0.7224924E-009  0.1538134E+03  0.7561462E-02  0.1195864E+00
          2   -1    0    0  501    0  0.00000000000E+00  0.00000000000E+00  0.64717740465E+03  0.64717740465E+03  0.00000000000E+00 0. -1.
         -2   -1    0    0    0  501 -0.00000000000E+00 -0.00000000000E+00 -0.38344703513E+02  0.38344703513E+02  0.00000000000E+00 0.  1.
         25    2    1    2    0    0  0.34837120695E+02  0.10695041078E+03  0.28994967851E+03  0.33521630778E+03  0.12508853501E+03 0.  0.
         23    2    1    2    0    0 -0.34837120695E+02 -0.10695041078E+03  0.31888302262E+03  0.35030580038E+03  0.91519158204E+02 0.  0.
          5    1    3    3  502    0  0.30684135471E+02  0.13282967708E+03  0.20508293307E+03  0.24629600305E+03  0.41800000000E+01 0. -1.
         -5    1    3    3    0  502  0.41529852244E+01 -0.25879266308E+02  0.84866745441E+02  0.88920304727E+02  0.41800000000E+01 0. -1.
        -11    1    4    4    0    0  0.18777469113E+02 -0.84511865950E+02  0.17932325897E+03  0.19912729607E+03  0.00000000000E+00 0. -1.
         11    1    4    4    0    0 -0.53614589808E+02 -0.22438544827E+02  0.13955976365E+03  0.15117850430E+03  0.00000000000E+00 0.  1.
</event>
<event>
 8    1  0.7224924E-009  0.8306430E+02  0.7561462E-02  0.1320574E+00
         -2   -1    0    0    0  501 -0.00000000000E+00  0.00000000000E+00  0.16923207709E+03  0.16923207709E+03  0.00000000000E+00 0.  1.
          2   -1    0    0  501    0  0.00000000000E+00 -0.00000000000E+00 -0.94635503996E+02  0.94635503996E+02  0.00000000000E+00 0. -1.
         25    2    1    2    0    0 -0.42742445011E+02  0.35538153350E+02  0.78321528392E+02  0.15770877561E+03  0.12509164299E+03 0.  0.
         23    2    1    2    0    0  0.42742445011E+02 -0.35538153350E+02 -0.37249552940E+01  0.10615880548E+03  0.90365589354E+02 0.  0.
          5    1    3    3  502    0 -0.34474669771E+02  0.93345747105E+01  0.10990466759E+03  0.11563799332E+03  0.41800000000E+01 0.  1.
         -5    1    3    3    0  502 -0.82677752399E+01  0.26203578639E+02 -0.31583139200E+02  0.42070782292E+02  0.41800000000E+01 0.  1.
        -11    1    4    4    0    0  0.67501904059E+02 -0.38052767643E+02 -0.14849371537E+02  0.78898821359E+02  0.00000000000E+00 0. -1.
         11    1    4    4    0    0 -0.24759459047E+02  0.25146142930E+01  0.11124416243E+02  0.27259984118E+02  0.00000000000E+00 0.  1.
</event>
<event>
 8    1  0.7224924E-009  0.1530812E+03  0.7561462E-02  0.1196737E+00
          2   -1    0    0  501    0  0.00000000000E+00  0.00000000000E+00  0.69402764687E+03  0.69402764687E+03  0.00000000000E+00 0. -1.
         -2   -1    0    0    0  501 -0.00000000000E+00 -0.00000000000E+00 -0.36977821269E+02  0.36977821269E+02  0.00000000000E+00 0.  1.
         25    2    1    2    0    0 -0.87244348480E+02  0.63995216470E+02  0.44236230771E+03  0.47226905353E+03  0.12508670420E+03 0.  0.
         23    2    1    2    0    0  0.87244348480E+02 -0.63995216470E+02  0.21468751789E+03  0.25873641461E+03  0.95639102013E+02 0.  0.
          5    1    3    3  502    0 -0.28450328766E+02 -0.37669718825E+02  0.11134856858E+03  0.12101406963E+03  0.41800000000E+01 0. -1.
         -5    1    3    3    0  502 -0.58794019714E+02  0.10166493529E+03  0.33101373913E+03  0.35125498390E+03  0.41800000000E+01 0. -1.
        -11    1    4    4    0    0  0.62552233935E+02 -0.87237164052E+02  0.13759032294E+03  0.17451132264E+03  0.00000000000E+00 0.  1.
         11    1    4    4    0    0  0.24692114545E+02  0.23241947582E+02  0.77097194956E+02  0.84225091975E+02  0.00000000000E+00 0. -1.
</event>
<event>
 8    1  0.7224924E-009  0.1424037E+03  0.7561462E-02  0.1210131E+00
         -1   -1    0    0    0  501 -0.00000000000E+00  0.00000000000E+00  0.18708563775E+03  0.18708563775E+03  0.00000000000E+00 0.  1.
          1   -1    0    0  501    0  0.00000000000E+00 -0.00000000000E+00 -0.14546900810E+03  0.14546900810E+03  0.00000000000E+00 0. -1.
         25    2    1    2    0    0  0.31960910788E+02 -0.11642285328E+03  0.51093946496E+02  0.18120271630E+03  0.12509217579E+03 0.  0.
         23    2    1    2    0    0 -0.31960910788E+02  0.11642285328E+03 -0.94773168459E+01  0.15135192955E+03  0.90784395468E+02 0.  0.
          5    1    3    3  502    0  0.46204106178E+02 -0.62133259207E+02 -0.29446702095E+02  0.82945415736E+02  0.41800000000E+01 0. -1.
         -5    1    3    3    0  502 -0.14243195390E+02 -0.54289594074E+02  0.80540648591E+02  0.98257300569E+02  0.41800000000E+01 0. -1.
        -11    1    4    4    0    0  0.15281657404E+02  0.99704829186E+02 -0.85364003614E+01  0.10122969993E+03  0.00000000000E+00 0.  1.
         11    1    4    4    0    0 -0.47242568192E+02  0.16718024095E+02 -0.94091648448E+00  0.50122229627E+02  0.00000000000E+00 0. -1.
</event>
<event>
 8    1  0.7224924E-009  0.1527013E+03  0.7561462E-02  0.1197192E+00
         -1   -1    0    0    0  501 -0.00000000000E+00  0.00000000000E+00  0.91213520244E+02  0.91213520244E+02  0.00000000000E+00 0.  1.
          1   -1    0    0  501    0  0.00000000000E+00 -0.00000000000E+00 -0.28386530316E+03  0.28386530316E+03  0.00000000000E+00 0. -1.
         25    2    1    2    0    0 -0.46995961120E+02 -0.10792914760E+03 -0.10781052071E+03  0.20279925189E+03  0.12508839646E+03 0.  0.
         23    2    1    2    0    0  0.46995961120E+02  0.10792914760E+03 -0.84841262203E+02  0.17227957151E+03  0.92870284412E+02 0.  0.
          5    1    3    3  502    0  0.17067339897E+02 -0.93717978841E+02 -0.27971721924E+02  0.99369227010E+02  0.41800000000E+01 0. -1.
         -5    1    3    3    0  502 -0.64063301017E+02 -0.14211168755E+02 -0.79838798788E+02  0.10343002488E+03  0.41800000000E+01 0. -1.
        -11    1    4    4    0    0  0.56001338605E+02  0.11810512000E+03 -0.59692952411E+02  0.14369487765E+03  0.00000000000E+00 0.  1.
         11    1    4    4    0    0 -0.90053774849E+01 -0.10175972402E+02 -0.25148309792E+02  0.28584693865E+02  0.00000000000E+00 0. -1.
</event>
<event>
 8    1  0.7224924E-009  0.1942717E+03  0.7561462E-02  0.1154664E+00
         -2   -1    0    0    0  501 -0.00000000000E+00  0.00000000000E+00  0.81547657387E+02  0.81547657387E+02  0.00000000000E+00 0.  1.
          2   -1    0    0  501    0  0.00000000000E+00 -0.00000000000E+00 -0.50328908101E+03  0.50328908101E+03  0.00000000000E+00 0. -1.
         25    2    1    2    0    0  0.16793809703E+03  0.28281502777E+01 -0.17679749154E+03  0.27407387962E+03  0.12509170878E+03 0.  0.
         23    2    1    2    0    0 -0.16793809703E+03 -0.28281502777E+01 -0.24494393209E+03  0.31076285879E+03  0.91459399002E+02 0.  0.
          5    1    3    3  502    0  0.16121624774E+03  0.42220123654E+02 -0.15811644016E+03  0.22976400594E+03  0.41800000000E+01 0. -1.
         -5    1    3    3    0  502  0.67218492889E+01 -0.39391973377E+02 -0.18681051374E+02  0.44309873672E+02  0.41800000000E+01 0. -1.
        -11    1    4    4    0    0 -0.72951632556E+02 -0.35604037899E+02 -0.62390870569E+02  0.10238265936E+03  0.00000000000E+00 0.  1.
         11    1    4    4    0    0 -0.94986464474E+02  0.32775887621E+02 -0.18255306152E+03  0.20838019943E+03  0.00000000000E+00 0. -1.
</event>
<event>
 8    1  0.7224924E-009  0.1197352E+03  0.7561462E-02  0.1243535E+00
          2   -1    0    0  501    0  0.00000000000E+00  0.00000000000E+00  0.75030670613E+03  0.75030670613E+03  0.00000000000E+00 0. -1.
         -2   -1    0    0    0  501 -0.00000000000E+00 -0.00000000000E+00 -0.21938032614E+02  0.21938032614E+02  0.00000000000E+00 0.  1.
         25    2    1    2    0    0  0.65241137361E+02  0.13377193704E+02  0.35816388283E+03  0.38518333876E+03  0.12509789039E+03 0.  0.
         23    2    1    2    0    0 -0.65241137361E+02 -0.13377193704E+02  0.37020479068E+03  0.38706139998E+03  0.91266560111E+02 0.  0.
          5    1    3    3  502    0  0.46250135766E+02 -0.46623906151E+02  0.10212592714E+03  0.12149090944E+03  0.41800000000E+01 0.  1.
         -5    1    3    3    0  502  0.18991001595E+02  0.60001099856E+02  0.25603795569E+03  0.26369242932E+03  0.41800000000E+01 0.  1.
        -11    1    4    4    0    0 -0.95796489139E+01  0.35343825522E+02  0.87827168893E+02  0.95155489971E+02  0.00000000000E+00 0.  1.
         11    1    4    4    0    0 -0.55661488447E+02 -0.48721019227E+02  0.28237762179E+03  0.29190591001E+03  0.00000000000E+00 0. -1.
</event>
<event>
 8    1  0.7224924E-009  0.1509084E+03  0.7561462E-02  0.1199361E+00
         -4   -1    0    0    0  501 -0.00000000000E+00  0.00000000000E+00  0.18076904660E+03  0.18076904660E+03  0.00000000000E+00 0.  1.
          4   -1    0    0  501    0  0.00000000000E+00 -0.00000000000E+00 -0.14433760702E+03  0.14433760702E+03  0.00000000000E+00 0. -1.
         25    2    1    2    0    0  0.89804400325E+02 -0.54527406352E+02 -0.31536289462E+02  0.16637366525E+03  0.12509032966E+03 0.  0.
         23    2    1    2    0    0 -0.89804400325E+02  0.54527406352E+02  0.67967729033E+02  0.15873298837E+03  0.97665147554E+02 0.  0.
          5    1    3    3  502    0 -0.31292606564E+02 -0.10079768770E+02 -0.14559439254E+02  0.36197771138E+02  0.41800000000E+01 0.  1.
         -5    1    3    3    0  502  0.12109700689E+03 -0.44447637582E+02 -0.16976850208E+02  0.13017589411E+03  0.41800000000E+01 0.  1.
        -11    1    4    4    0    0 -0.45515743465E+02  0.77380890821E+02  0.60697178125E+02  0.10836804234E+03  0.00000000000E+00 0.  1.
         11    1    4    4    0    0 -0.44288656859E+02 -0.22853484469E+02  0.72705509078E+01  0.50364946037E+02  0.00000000000E+00 0. -1.
</event>
<event>
 8    1  0.7224924E-009  0.1062004E+03  0.7561462E-02  0.1267773E+00
          1   -1    0    0  501    0  0.00000000000E+00  0.00000000000E+00  0.17574669565E+03  0.17574669565E+03  0.00000000000E+00 0. -1.
         -1   -1    0    0    0  501 -0.00000000000E+00 -0.00000000000E+00 -0.70358678513E+02  0.70358678513E+02  0.00000000000E+00 0.  1.
         25    2    1    2    0    0  0.14491960106E+02 -0.16385017448E+02  0.54327084767E+02  0.13810771707E+03  0.12507527201E+03 0.  0.
         23    2    1    2    0    0 -0.14491960106E+02  0.16385017448E+02  0.51060932368E+02  0.10799765709E+03  0.92616356109E+02 0.  0.
          5    1    3    3  502    0 -0.33349266899E+02  0.38216543637E+02  0.70630722945E+01  0.51381292320E+02  0.41800000000E+01 0. -1.
         -5    1    3    3    0  502  0.47841227005E+02 -0.54601561085E+02  0.47264012472E+02  0.86726424746E+02  0.41800000000E+01 0. -1.
        -11    1    4    4    0    0  0.36290139728E+02  0.39154939136E+01  0.24188249884E+01  0.36580815305E+02  0.00000000000E+00 0.  1.
         11    1    4    4    0    0 -0.50782099834E+02  0.12469523534E+02  0.48642107380E+02  0.71416841789E+02  0.00000000000E+00 0. -1.
</event>
<event>
 8    1  0.7224924E-009  0.1252868E+03  0.7561462E-02  0.1234622E+00
          1   -1    0    0  501    0  0.00000000000E+00  0.00000000000E+00  0.43330002896E+03  0.43330002896E+03  0.00000000000E+00 0. -1.
         -1   -1    0    0    0  501 -0.00000000000E+00 -0.00000000000E+00 -0.54950459039E+02  0.54950459039E+02  0.00000000000E+00 0.  1.
         25    2    1    2    0    0  0.47290516761E+02 -0.96890563268E+02  0.23608152413E+03  0.28810786913E+03  0.12508990365E+03 0.  0.
         23    2    1    2    0    0 -0.47290516761E+02  0.96890563268E+02  0.14226804580E+03  0.20014261887E+03  0.90513517260E+02 0.  0.
          5    1    3    3  502    0  0.27077971709E+02 -0.11298646456E+03  0.11248387410E+03  0.16176913197E+03  0.41800000000E+01 0.  1.
         -5    1    3    3    0  502  0.20212545052E+02  0.16095901294E+02  0.12359765002E+03  0.12633873716E+03  0.41800000000E+01 0.  1.
        -11    1    4    4    0    0 -0.29793489404E+02  0.69747635771E+02  0.14896531488E+03  0.16716174725E+03  0.00000000000E+00 0. -1.
         11    1    4    4    0    0 -0.17497027357E+02  0.27142927497E+02 -0.66972690838E+01  0.32980871618E+02  0.00000000000E+00 0.  1.
</event>
<event>
 8    1  0.7224924E-009  0.1034372E+03  0.7561462E-02  0.1273230E+00
          1   -1    0    0  501    0  0.00000000000E+00  0.00000000000E+00  0.12544885735E+02  0.12544885735E+02  0.00000000000E+00 0. -1.
         -1   -1    0    0    0  501 -0.00000000000E+00 -0.00000000000E+00 -0.14819216449E+04  0.14819216449E+04  0.00000000000E+00 0.  1.
         25    2    1    2    0    0  0.48343424035E+02 -0.67282952056E+02 -0.90117872450E+03  0.91358332847E+03  0.12508925727E+03 0.  0.
         23    2    1    2    0    0 -0.48343424035E+02  0.67282952056E+02 -0.56819803470E+03  0.58088320220E+03  0.87819164624E+02 0.  0.
          5    1    3    3  502    0  0.47181438576E+02 -0.52339623352E+02 -0.89340454529E+03  0.89618897464E+03  0.41800000000E+01 0. -1.
         -5    1    3    3    0  502  0.11619854596E+01 -0.14943328704E+02 -0.77741792155E+01  0.17394353838E+02  0.41800000000E+01 0. -1.
        -11    1    4    4    0    0  0.16309447718E+02  0.51711044446E+02 -0.25864157244E+03  0.26426405960E+03  0.00000000000E+00 0.  1.
         11    1    4    4    0    0 -0.64652871753E+02  0.15571907610E+02 -0.30955646226E+03  0.31661914260E+03  0.00000000000E+00 0. -1.
</event>
<event>
 8    1  0.7224924E-009  0.1505955E+03  0.7561462E-02  0.1199743E+00
          2   -1    0    0  501    0  0.00000000000E+00  0.00000000000E+00  0.60896224684E+03  0.60896224684E+03  0.00000000000E+00 0. -1.
         -2   -1    0    0    0  501 -0.00000000000E+00 -0.00000000000E+00 -0.49282794264E+02  0.49282794264E+02  0.00000000000E+00 0.  1.
         25    2    1    2    0    0 -0.91966473996E+02  0.72428233833E+02  0.16948794714E+03  0.24099161919E+03  0.12508842831E+03 0.  0.
         23    2    1    2    0    0  0.91966473996E+02 -0.72428233833E+02  0.39019150544E+03  0.41725342192E+03  0.90262538140E+02 0.  0.
          5    1    3    3  502    0  0.19086998445E+01  0.76398707222E+02  0.65049004610E+02  0.10044526371E+03  0.41800000000E+01 0.  1.
         -5    1    3    3    0  502 -0.93875173841E+02 -0.39704733890E+01  0.10443894253E+03  0.14054635548E+03  0.41800000000E+01 0.  1.
        -11    1    4    4    0    0 -0.32989067010E+01 -0.23078966648E+02  0.16753314310E+02  0.28708797037E+02  0.00000000000E+00 0.  1.
         11    1    4    4    0    0  0.95265380697E+02 -0.49349267184E+02  0.37343819113E+03  0.38854462488E+03  0.00000000000E+00 0. -1.
</event>
<event>
 8    1  0.7224924E-009  0.3082612E+03  0.7561462E-02  0.1081182E+00
          1   -1    0    0  501    0  0.00000000000E+00  0.00000000000E+00  0.36498837491E+03  0.36498837491E+03  0.00000000000E+00 0. -1.
         -1   -1    0    0    0  501 -0.00000000000E+00 -0.00000000000E+00 -0.28783625734E+03  0.28783625734E+03  0.00000000000E+00 0.  1.
         25    2    1    2    0    0 -0.28668659736E+03  0.77773024335E+02  0.10992549538E+03  0.34054218712E+03  0.12509004060E+03 0.  0.
         23    2    1    2    0    0  0.28668659736E+03 -0.77773024335E+02 -0.32773377811E+02  0.31228244513E+03  0.90600125976E+02 0.  0.
          5    1    3    3  502    0 -0.28327850497E+03  0.96291391465E+02  0.11505558797E+03  0.32058384889E+03  0.41800000000E+01 0. -1.
         -5    1    3    3    0  502 -0.34080923878E+01 -0.18518367130E+02 -0.51300925905E+01  0.19958338229E+02  0.41800000000E+01 0. -1.
        -11    1    4    4    0    0  0.11502250593E+03 -0.43394157961E+02 -0.57061099136E+02  0.13553301756E+03  0.00000000000E+00 0.  1.
         11    1    4    4    0    0  0.17166409143E+03 -0.34378866374E+02  0.24287721324E+02  0.17674942757E+03  0.00000000000E+00 0. -1.
</event>
<event>
 8    1  0.7224924E-009  0.1106749E+03  0.7561462E-02  0.1259325E+00
         -1   -1    0    0    0  501 -0.00000000000E+00  0.00000000000E+00  0.18379433577E+03  0.18379433577E+03  0.00000000000E+00 0.  1.
          1   -1    0    0  501    0  0.00000000000E+00 -0.00000000000E+00 -0.17759674122E+03  0.17759674122E+03  0.00000000000E+00 0. -1.
         25    2    1    2    0    0 -0.78369590230E+02  0.14993545336E+02 -0.11252732562E+03  0.18621119353E+03  0.12508241487E+03 0.  0.
         23    2    1    2    0    0  0.78369590230E+02 -0.14993545336E+02  0.11872492016E+03  0.17517988346E+03  0.10112262767E+03 0.  0.
          5    1    3    3  502    0 -0.80722018789E+02 -0.21081756135E+02 -0.18739870318E+02  0.85610395973E+02  0.41800000000E+01 0. -1.
         -5    1    3    3    0  502  0.23524285597E+01  0.36075301471E+02 -0.93787455304E+02  0.10060079756E+03  0.41800000000E+01 0. -1.
        -11    1    4    4    0    0  0.30796577524E+02  0.24689700599E+02  0.10437391837E+03  0.11158819534E+03  0.00000000000E+00 0.  1.
         11    1    4    4    0    0  0.47573012705E+02 -0.39683245935E+02  0.14351001792E+02  0.63591688122E+02  0.00000000000E+00 0. -1.
</event>
<event>
 8    1  0.7224924E-009  0.1672306E+03  0.7561462E-02  0.1180767E+00
          2   -1    0    0  501    0  0.00000000000E+00  0.00000000000E+00  0.60319857918E+03  0.60319857918E+03  0.00000000000E+00 0. -1.
         -2   -1    0    0    0  501 -0.00000000000E+00 -0.00000000000E+00 -0.78014396914E+02  0.78014396914E+02  0.00000000000E+00 0.  1.
         25    2    1    2    0    0  0.22474929800E+02  0.16214652951E+03  0.42450979465E+03  0.47186009459E+03  0.12508702418E+03 0.  0.
         23    2    1    2    0    0 -0.22474929800E+02 -0.16214652951E+03  0.10067438762E+03  0.20935288150E+03  0.83046235119E+02 0.  0.
          5    1    3    3  502    0  0.36099298439E+02  0.87586006529E+02  0.96930291907E+02  0.13560022779E+03  0.41800000000E+01 0. -1.
         -5    1    3    3    0  502 -0.13624368639E+02  0.74560522981E+02  0.32757950274E+03  0.33625986680E+03  0.41800000000E+01 0. -1.
        -11    1    4    4    0    0 -0.18159117604E+02 -0.12140520440E+03  0.27973230011E+02  0.12590265607E+03  0.00000000000E+00 0.  1.
         11    1    4    4    0    0 -0.43158121955E+01 -0.40741325106E+02  0.72701157606E+02  0.83450225425E+02  0.00000000000E+00 0. -1.
</event>
<event>
 8    1  0.7224924E-009  0.9558027E+02  0.7561462E-02  0.1289874E+00
         -2   -1    0    0    0  501 -0.00000000000E+00  0.00000000000E+00  0.23268240204E+02  0.23268240204E+02  0.00000000000E+00 0.  1.
          2   -1    0    0  501    0  0.00000000000E+00 -0.00000000000E+00 -0.83991452316E+03  0.83991452316E+03  0.00000000000E+00 0. -1.
         25    2    1    2    0    0 -0.96436641741E+01 -0.32749376775E+02 -0.69932467856E+03  0.71124360178E+03  0.12508770163E+03 0.  0.
         23    2    1    2    0    0  0.96436641741E+01  0.32749376775E+02 -0.11732160440E+03  0.15193916158E+03  0.90308515800E+02 0.  0.
          5    1    3    3  502    0  0.46108053769E+02 -0.10764611376E+02 -0.12411657242E+03  0.13290682988E+03  0.41800000000E+01 0.  1.
         -5    1    3    3    0  502 -0.55751717943E+02 -0.21984765399E+02 -0.57520810614E+03  0.57833677190E+03  0.41800000000E+01 0.  1.
        -11    1    4    4    0    0  0.34805668612E+02 -0.79514367458E+01 -0.14511261394E+02  0.38538767769E+02  0.00000000000E+00 0.  1.
         11    1    4    4    0    0 -0.25162004438E+02  0.40700813521E+02 -0.10281034300E+03  0.11340039381E+03  0.00000000000E+00 0. -1.
</event>
<event>
 8    1  0.7224924E-009  0.1258531E+03  0.7561462E-02  0.1233742E+00
          1   -1    0    0  501    0  0.00000000000E+00  0.00000000000E+00  0.47286935435E+03  0.47286935435E+03  0.00000000000E+00 0. -1.
         -1   -1    0    0    0  501 -0.00000000000E+00 -0.00000000000E+00 -0.46171626230E+02  0.46171626230E+02  0.00000000000E+00 0.  1.
         25    2    1    2    0    0 -0.84684288081E+01  0.67501889046E+02  0.10268841905E+03  0.17555857257E+03  0.12509069383E+03 0.  0.
         23    2    1    2    0    0  0.84684288081E+01 -0.67501889046E+02  0.32400930907E+03  0.34348240801E+03  0.91487228299E+02 0.  0.
          5    1    3    3  502    0 -0.57195493299E+02 -0.18990819717E+01  0.38007820339E+02  0.68825851051E+02  0.41800000000E+01 0.  1.
         -5    1    3    3    0  502  0.48727064490E+02  0.69400971017E+02  0.64680598716E+02  0.10673272152E+03  0.41800000000E+01 0.  1.
        -11    1    4    4    0    0 -0.38507439027E+02 -0.23827487384E+02  0.88738169832E+02  0.99624468885E+02  0.00000000000E+00 0.  1.
         11    1    4    4    0    0  0.46975867835E+02 -0.43674401662E+02  0.23527113924E+03  0.24385793913E+03  0.00000000000E+00 0. -1.
</event>
<event>
 8    1  0.7224924E-009  0.1669791E+03  0.7561462E-02  0.1181035E+00
          1   -1    0    0  501    0  0.00000000000E+00  0.00000000000E+00  0.10455710969E+04  0.10455710969E+04  0.00000000000E+00 0.  1.
         -1   -1    0    0    0  501 -0.00000000000E+00 -0.00000000000E+00 -0.54745446896E+02  0.54745446896E+02  0.00000000000E+00 0. -1.
         25    2    1    2    0    0  0.12673212519E+03  0.95299849352E+02  0.83525612942E+03  0.85932744951E+03  0.12509105043E+03 0.  0.
         23    2    1    2    0    0 -0.12673212519E+03 -0.95299849352E+02  0.15556952060E+03  0.24098909431E+03  0.93438616182E+02 0.  0.
          5    1    3    3  502    0  0.97756871242E+02  0.94007871286E+02  0.38669531733E+03  0.40981047642E+03  0.41800000000E+01 0. -1.
         -5    1    3    3    0  502  0.28975253946E+02  0.12919780659E+01  0.44856081209E+03  0.44951697309E+03  0.41800000000E+01 0. -1.
        -11    1    4    4    0    0 -0.70196783903E+00 -0.24305258795E+02  0.67240902121E+02  0.71502288649E+02  0.00000000000E+00 0.  1.
         11    1    4    4    0    0 -0.12603015735E+03 -0.70994590557E+02  0.88328618478E+02  0.16948680566E+03  0.00000000000E+00 0. -1.
</event>
<event>
 8    1  0.7224924E-009  0.9663201E+02  0.7561462E-02  0.1287542E+00
          2   -1    0    0  501    0  0.00000000000E+00  0.00000000000E+00  0.90589750028E+03  0.90589750028E+03  0.00000000000E+00 0. -1.
         -2   -1    0    0    0  501 -0.00000000000E+00 -0.00000000000E+00 -0.17200972097E+02  0.17200972097E+02  0.00000000000E+00 0.  1.
         25    2    1    2    0    0  0.45143910885E+01  0.46035468957E+02  0.65747200229E+03  0.67086263588E+03  0.12509036050E+03 0.  0.
         23    2    1    2    0    0 -0.45143910885E+01 -0.46035468957E+02  0.23122452589E+03  0.25223583650E+03  0.89546031248E+02 0.  0.
          5    1    3    3  502    0 -0.52587609981E+02  0.20952092152E+02  0.16610649630E+03  0.17553713966E+03  0.41800000000E+01 0.  1.
         -5    1    3    3    0  502  0.57102001069E+02  0.25083376805E+02  0.49136550600E+03  0.49532549622E+03  0.41800000000E+01 0.  1.
        -11    1    4    4    0    0 -0.11857304754E+00 -0.59668989784E+02  0.23027450912E+03  0.23787970059E+03  0.00000000000E+00 0. -1.
         11    1    4    4    0    0 -0.43958180410E+01  0.13633520827E+02  0.95001676782E+00  0.14356135909E+02  0.00000000000E+00 0.  1.
</event>
<event>
 8    1  0.7224924E-009  0.1746249E+03  0.7561462E-02  0.1173109E+00
         -2   -1    0    0    0  501 -0.00000000000E+00  0.00000000000E+00  0.46560087923E+02  0.46560087923E+02  0.00000000000E+00 0. -1.
          2   -1    0    0  501    0  0.00000000000E+00 -0.00000000000E+00 -0.76938536209E+03  0.76938536209E+03  0.00000000000E+00 0.  1.
         25    2    1    2    0    0  0.11044974714E+03 -0.10191023733E+03 -0.32721826563E+03  0.38118586159E+03  0.12508407014E+03 0.  0.
         23    2    1    2    0    0 -0.11044974714E+03  0.10191023733E+03 -0.39560700854E+03  0.43475958842E+03  0.99630072782E+02 0.  0.
          5    1    3    3  502    0  0.55844011326E+02  0.20024443262E+02 -0.74820144341E+02  0.95577499068E+02  0.41800000000E+01 0.  1.
         -5    1    3    3    0  502  0.54605735812E+02 -0.12193468059E+03 -0.25239812128E+03  0.28560836252E+03  0.41800000000E+01 0.  1.
        -11    1    4    4    0    0 -0.53919515663E+02  0.22024771689E+02 -0.54051852471E+02  0.79460729249E+02  0.00000000000E+00 0. -1.
         11    1    4    4    0    0 -0.56530231475E+02  0.79885465642E+02 -0.34155515607E+03  0.35529885917E+03  0.00000000000E+00 0.  1.
</event>
<event>
 8    1  0.7224924E-009  0.1117513E+03  0.7561462E-02  0.1257361E+00
          2   -1    0    0  501    0  0.00000000000E+00  0.00000000000E+00  0.26118072686E+03  0.26118072686E+03  0.00000000000E+00 0. -1.
         -2   -1    0    0    0  501 -0.00000000000E+00 -0.00000000000E+00 -0.51409454751E+02  0.51409454751E+02  0.00000000000E+00 0.  1.
         25    2    1    2    0    0  0.36611840422E+02  0.74453949824E+01  0.14635782266E+03  0.19613104338E+03  0.12510360969E+03 0.  0.
         23    2    1    2    0    0 -0.36611840422E+02 -0.74453949824E+01  0.63413449448E+02  0.11645913823E+03  0.90253002945E+02 0.  0.
          5    1    3    3  502    0 -0.25941182475E+02 -0.40267427373E+02  0.78981658785E+02  0.92466131529E+02  0.41800000000E+01 0. -1.
         -5    1    3    3    0  502  0.62553022898E+02  0.47712822356E+02  0.67376163877E+02  0.10366491185E+03  0.41800000000E+01 0. -1.
        -11    1    4    4    0    0  0.29198640099E+02  0.51014656931E+01  0.27554923505E+02  0.40470474981E+02  0.00000000000E+00 0. -1.
         11    1    4    4    0    0 -0.65810480522E+02 -0.12546860675E+02  0.35858525943E+02  0.75988663247E+02  0.00000000000E+00 0.  1.
</event>
<event>
 8    1  0.7224924E-009  0.1348308E+03  0.7561462E-02  0.1220459E+00
         -2   -1    0    0    0  501 -0.00000000000E+00  0.00000000000E+00  0.23105955635E+02  0.23105955635E+02  0.00000000000E+00 0.  1.
          2   -1    0    0  501    0  0.00000000000E+00 -0.00000000000E+00 -0.81121915028E+03  0.81121915028E+03  0.00000000000E+00 0. -1.
         25    2    1    2    0    0  0.77514746334E+02  0.26657802775E+02 -0.48559009240E+03  0.50809874497E+03  0.12508965766E+03 0.  0.
         23    2    1    2    0    0 -0.77514746334E+02 -0.26657802775E+02 -0.30252310225E+03  0.32622636095E+03  0.90466772005E+02 0.  0.
          5    1    3    3  502    0 -0.32231239374E+02  0.18654826524E+02 -0.16227838090E+03  0.16654909381E+03  0.41800000000E+01 0. -1.
         -5    1    3    3    0  502  0.10974598571E+03  0.80029762508E+01 -0.32331171150E+03  0.34154965115E+03  0.41800000000E+01 0. -1.
        -11    1    4    4    0    0 -0.77759595012E+02 -0.54035882086E+02 -0.23632037772E+03  0.25458545146E+03  0.00000000000E+00 0.  1.
         11    1    4    4    0    0  0.24484867802E+00  0.27378079311E+02 -0.66202724535E+02  0.71640909497E+02  0.00000000000E+00 0. -1.
</event>
<event>
 8    1  0.7224924E-009  0.1655272E+03  0.7561462E-02  0.1182594E+00
          2   -1    0    0  501    0  0.00000000000E+00  0.00000000000E+00  0.20771409939E+03  0.20771409939E+03  0.00000000000E+00 0. -1.
         -2   -1    0    0    0  501 -0.00000000000E+00 -0.00000000000E+00 -0.16883092929E+03  0.16883092929E+03  0.00000000000E+00 0.  1.
         25    2    1    2    0    0 -0.75014708953E+02  0.12116840979E+03 -0.33704405735E+02  0.19259370661E+03  0.12508940310E+03 0.  0.
         23    2    1    2    0    0  0.75014708953E+02 -0.12116840979E+03  0.72587575836E+02  0.18395132207E+03  0.90885326854E+02 0.  0.
          5    1    3    3  502    0 -0.84289758952E+01  0.88467680425E+02  0.30853903008E+02  0.94164822759E+02  0.41800000000E+01 0.  1.
         -5    1    3    3    0  502 -0.66585733057E+02  0.32700729363E+02 -0.64558308743E+02  0.98428883847E+02  0.41800000000E+01 0.  1.
        -11    1    4    4    0    0  0.84865240283E+02 -0.12953803634E+03  0.72576987555E+02  0.17102523495E+03  0.00000000000E+00 0.  1.
         11    1    4    4    0    0 -0.98505313300E+01  0.83696265556E+01  0.10588280638E-01  0.12926087122E+02  0.00000000000E+00 0. -1.
</event>
<event>
 8    1  0.7224924E-009  0.9572215E+02  0.7561462E-02  0.1289558E+00
          2   -1    0    0  501    0  0.00000000000E+00  0.00000000000E+00  0.18134835131E+03  0.18134835131E+03  0.00000000000E+00 0. -1.
         -2   -1    0    0    0  501 -0.00000000000E+00 -0.00000000000E+00 -0.91900624384E+02  0.91900624384E+02  0.00000000000E+00 0.  1.
         25    2    1    2    0    0  0.32158490802E+02 -0.57184151238E+02  0.73173630163E+02  0.15908235323E+03  0.12509444142E+03 0.  0.
         23    2    1    2    0    0 -0.32158490802E+02  0.57184151238E+02  0.16274096761E+02  0.11416662246E+03  0.92005302973E+02 0.  0.
          5    1    3    3  502    0  0.19272705923E+02  0.45264389763E+01  0.91170801992E+02  0.93389043143E+02  0.41800000000E+01 0.  1.
         -5    1    3    3    0  502  0.12885784880E+02 -0.61710590214E+02 -0.17997171829E+02  0.65693310088E+02  0.41800000000E+01 0.  1.
        -11    1    4    4    0    0 -0.42408134246E+02  0.75755948409E+02 -0.97882420372E+00  0.86823796660E+02  0.00000000000E+00 0.  1.
         11    1    4    4    0    0  0.10249643444E+02 -0.18571797172E+02  0.17252920965E+02  0.27342825800E+02  0.00000000000E+00 0. -1.
</event>
<event>
 8    1  0.7224924E-009  0.2595185E+03  0.7561462E-02  0.1107433E+00
         -1   -1    0    0    0  501 -0.00000000000E+00  0.00000000000E+00  0.95017230886E+02  0.95017230886E+02  0.00000000000E+00 0.  1.
          1   -1    0    0  501    0  0.00000000000E+00 -0.00000000000E+00 -0.95275555329E+03  0.95275555329E+03  0.00000000000E+00 0. -1.
         25    2    1    2    0    0 -0.25049592956E+03  0.44336222688E+02 -0.63772006107E+03  0.69788734421E+03  0.12508380211E+03 0.  0.
         23    2    1    2    0    0  0.25049592956E+03 -0.44336222688E+02 -0.22001826134E+03  0.34988543997E+03  0.96425486328E+02 0.  0.
          5    1    3    3  502    0 -0.11737860965E+02 -0.13939762442E+02 -0.15563771797E+03  0.15675670962E+03  0.41800000000E+01 0.  1.
         -5    1    3    3    0  502 -0.23875806859E+03  0.58275985129E+02 -0.48208234310E+03  0.54113063459E+03  0.41800000000E+01 0.  1.
        -11    1    4    4    0    0  0.17351267854E+03 -0.34771364306E+02 -0.20509694389E+03  0.27088826808E+03  0.00000000000E+00 0. -1.
         11    1    4    4    0    0  0.76983251015E+02 -0.95648583820E+01 -0.14921317455E+02  0.78997171895E+02  0.00000000000E+00 0.  1.
</event>
<event>
 8    1  0.7224924E-009  0.8722811E+02  0.7561462E-02  0.1309707E+00
         -1   -1    0    0    0  501 -0.00000000000E+00  0.00000000000E+00  0.25167569268E+03  0.25167569268E+03  0.00000000000E+00 0.  1.
          1   -1    0    0  501    0  0.00000000000E+00 -0.00000000000E+00 -0.53143623264E+02  0.53143623264E+02  0.00000000000E+00 0. -1.
         25    2    1    2    0    0 -0.13332160211E+02 -0.36366669678E+01  0.16427636147E+03  0.20694139737E+03  0.12508815757E+03 0.  0.
         23    2    1    2    0    0  0.13332160211E+02  0.36366669678E+01  0.34255707948E+02  0.97877918576E+02  0.90640286712E+02 0.  0.
          5    1    3    3  502    0 -0.11359602947E+02  0.42121054624E+02  0.86624394357E+01  0.44673639641E+02  0.41800000000E+01 0.  1.
         -5    1    3    3    0  502 -0.19725572635E+01 -0.45757721592E+02  0.15561392203E+03  0.16226775772E+03  0.41800000000E+01 0.  1.
        -11    1    4    4    0    0 -0.28066885667E+02  0.25413318121E+02  0.34317570175E+02  0.51100708720E+02  0.00000000000E+00 0.  1.
         11    1    4    4    0    0  0.41399045878E+02 -0.21776651153E+02 -0.61862226786E-01  0.46777209856E+02  0.00000000000E+00 0. -1.
</event>
<event>
 8    1  0.7224924E-009  0.9617114E+02  0.7561462E-02  0.1288560E+00
         -2   -1    0    0    0  501 -0.00000000000E+00  0.00000000000E+00  0.11492877246E+03  0.11492877246E+03  0.00000000000E+00 0.  1.
          2   -1    0    0  501    0  0.00000000000E+00 -0.00000000000E+00 -0.11295540065E+03  0.11295540065E+03  0.00000000000E+00 0. -1.
         25    2    1    2    0    0  0.24876668530E+02  0.24712094361E+02  0.13215292437E+02  0.13058259682E+03  0.12509050480E+03 0.  0.
         23    2    1    2    0    0 -0.24876668530E+02 -0.24712094361E+02 -0.11241920625E+02  0.97301576295E+02  0.90064863988E+02 0.  0.
          5    1    3    3  502    0  0.45066378038E+02  0.64597581362E+02 -0.10887148884E+02  0.79623039116E+02  0.41800000000E+01 0. -1.
         -5    1    3    3    0  502 -0.20189709507E+02 -0.39885487001E+02  0.24102441321E+02  0.50959557699E+02  0.41800000000E+01 0. -1.
        -11    1    4    4    0    0 -0.43847412956E+02 -0.11135269343E+02  0.26869517677E+02  0.52617115337E+02  0.00000000000E+00 0.  1.
         11    1    4    4    0    0  0.18970744425E+02 -0.13576825019E+02 -0.38111438302E+02  0.44684460958E+02  0.00000000000E+00 0. -1.
</event>
<event>
 8    1  0.7224924E-009  0.1048281E+03  0.7561462E-02  0.1270459E+00
         -4   -1    0    0    0  501 -0.00000000000E+00  0.00000000000E+00  0.24351013510E+03  0.24351013510E+03  0.00000000000E+00 0.  1.
          4   -1    0    0  501    0  0.00000000000E+00 -0.00000000000E+00 -0.92297400896E+02  0.92297400896E+02  0.00000000000E+00 0. -1.
         25    2    1    2    0    0  0.42752485272E+02  0.56064254757E+02 -0.24823963944E+01  0.14361178697E+03  0.12508879808E+03 0.  0.
         23    2    1    2    0    0 -0.42752485272E+02 -0.56064254757E+02  0.15369513060E+03  0.19219574903E+03  0.91356647906E+02 0.  0.
          5    1    3    3  502    0  0.18751437553E+02  0.92947331193E+02 -0.18307593971E+02  0.96661591044E+02  0.41800000000E+01 0. -1.
         -5    1    3    3    0  502  0.24001047718E+02 -0.36883076436E+02  0.15825197576E+02  0.46950195924E+02  0.41800000000E+01 0. -1.
        -11    1    4    4    0    0 -0.21465769234E+02 -0.26285794262E+02 -0.27109107176E+00  0.33938116023E+02  0.00000000000E+00 0. -1.
         11    1    4    4    0    0 -0.21286716038E+02 -0.29778460495E+02  0.15396622167E+03  0.15825763301E+03  0.00000000000E+00 0.  1.
</event>
<event>
 8    1  0.7224924E-009  0.2251089E+03  0.7561462E-02  0.1130130E+00
         -2   -1    0    0    0  501 -0.00000000000E+00  0.00000000000E+00  0.94911670346E+02  0.94911670346E+02  0.00000000000E+00 0.  1.
          2   -1    0    0  501    0  0.00000000000E+00 -0.00000000000E+00 -0.55142099198E+03  0.55142099198E+03  0.00000000000E+00 0. -1.
         25    2    1    2    0    0 -0.13261311570E+03 -0.15069809640E+03 -0.22516970007E+03  0.32656657788E+03  0.12509269061E+03 0.  0.
         23    2    1    2    0    0  0.13261311570E+03  0.15069809640E+03 -0.23133962156E+03  0.31976608445E+03  0.91848644747E+02 0.  0.
          5    1    3    3  502    0 -0.14903957910E+03 -0.10886869352E+03 -0.14573320052E+03  0.23520379823E+03  0.41800000000E+01 0.  1.
         -5    1    3    3    0  502  0.16426463400E+02 -0.41829402880E+02 -0.79436499550E+02  0.91362779652E+02  0.41800000000E+01 0.  1.
        -11    1    4    4    0    0  0.15514295459E+02 -0.12279917133E+02 -0.16357805382E+02  0.25672310479E+02  0.00000000000E+00 0.  1.
         11    1    4    4    0    0  0.11709882024E+03  0.16297801353E+03 -0.21498181618E+03  0.29409377397E+03  0.00000000000E+00 0. -1.
</event>
<event>
 8    1  0.7224924E-009  0.7456944E+02  0.7561462E-02  0.1345210E+00
         -1   -1    0    0    0  501 -0.00000000000E+00  0.00000000000E+00  0.43683736874E+02  0.43683736874E+02  0.00000000000E+00 0.  1.
          1   -1    0    0  501    0  0.00000000000E+00 -0.00000000000E+00 -0.41967812455E+03  0.41967812455E+03  0.00000000000E+00 0. -1.
         25    2    1    2    0    0 -0.10015557827E+02 -0.83312580226E+01 -0.34667240592E+03  0.36878069849E+03  0.12509086815E+03 0.  0.
         23    2    1    2    0    0  0.10015557827E+02  0.83312580226E+01 -0.29321981756E+02  0.94581162931E+02  0.88972448030E+02 0.  0.
          5    1    3    3  502    0  0.32467104105E+02 -0.65102118367E+01 -0.31193310141E+03  0.31371360803E+03  0.41800000000E+01 0. -1.
         -5    1    3    3    0  502 -0.42482661933E+02 -0.18210461859E+01 -0.34739304505E+02  0.55067090459E+02  0.41800000000E+01 0. -1.
        -11    1    4    4    0    0  0.57466955940E+01 -0.31983642195E+02  0.13880487215E+02  0.35336182641E+02  0.00000000000E+00 0.  1.
         11    1    4    4    0    0  0.42688622334E+01  0.40314900218E+02 -0.43202468971E+02  0.59244980290E+02  0.00000000000E+00 0. -1.
</event>
<event>
 8    1  0.7224924E-009  0.1985028E+03  0.7561462E-02  0.1151008E+00
          1   -1    0    0  501    0  0.00000000000E+00  0.00000000000E+00  0.23238576938E+03  0.23238576938E+03  0.00000000000E+00 0. -1.
         -1   -1    0    0    0  501 -0.00000000000E+00 -0.00000000000E+00 -0.17944328116E+03  0.17944328116E+03  0.00000000000E+00 0.  1.
         25    2    1    2    0    0  0.16125741012E+03  0.57522641474E+02  0.51548312352E+02  0.21821611197E+03  0.12509291112E+03 0.  0.
         23    2    1    2    0    0 -0.16125741012E+03 -0.57522641474E+02  0.13941758636E+01  0.19361293858E+03  0.90394798836E+02 0.  0.
          5    1    3    3  502    0  0.16721399510E+03  0.17098477227E+02  0.55232396115E+02  0.17697730945E+03  0.41800000000E+01 0.  1.
         -5    1    3    3    0  502 -0.59565849748E+01  0.40424164247E+02 -0.36840837631E+01  0.41238802514E+02  0.41800000000E+01 0.  1.
        -11    1    4    4    0    0 -0.86480318456E+02 -0.70900985427E+02 -0.22316120392E+02  0.11403422488E+03  0.00000000000E+00 0. -1.
         11    1    4    4    0    0 -0.74777091667E+02  0.13378343953E+02  0.23710296256E+02  0.79578713697E+02  0.00000000000E+00 0.  1.
</event>
<event>
 8    1  0.7224924E-009  0.1500767E+03  0.7561462E-02  0.1200379E+00
         -1   -1    0    0    0  501 -0.00000000000E+00  0.00000000000E+00  0.28440945823E+02  0.28440945823E+02  0.00000000000E+00 0.  1.
          1   -1    0    0  501    0  0.00000000000E+00 -0.00000000000E+00 -0.83507173620E+03  0.83507173620E+03  0.00000000000E+00 0. -1.
         25    2    1    2    0    0  0.10229352074E+03  0.18894816440E+02 -0.34149536354E+03  0.37827087350E+03  0.12509513157E+03 0.  0.
         23    2    1    2    0    0 -0.10229352074E+03 -0.18894816440E+02 -0.46513542684E+03  0.48524180853E+03  0.91036635312E+02 0.  0.
          5    1    3    3  502    0 -0.23612436299E+02 -0.18757226917E+02 -0.50811885496E+02  0.59234287514E+02  0.41800000000E+01 0.  1.
         -5    1    3    3    0  502  0.12590595704E+03  0.37652043358E+02 -0.29068347804E+03  0.31903658598E+03  0.41800000000E+01 0.  1.
        -11    1    4    4    0    0  0.52027516512E+01 -0.29734293574E+02 -0.10354762414E+03  0.10785781059E+03  0.00000000000E+00 0.  1.
         11    1    4    4    0    0 -0.10749627239E+03  0.10839477134E+02 -0.36158780269E+03  0.37738399794E+03  0.00000000000E+00 0. -1.
</event>
<event>
 8    1  0.7224924E-009  0.2418434E+03  0.7561462E-02  0.1118571E+00
         -1   -1    0    0    0  501 -0.00000000000E+00  0.00000000000E+00  0.12997597019E+03  0.12997597019E+03  0.00000000000E+00 0.  1.
          1   -1    0    0  501    0  0.00000000000E+00 -0.00000000000E+00 -0.76529768564E+03  0.76529768564E+03  0.00000000000E+00 0. -1.
         25    2    1    2    0    0 -0.21721134295E+03  0.93718922930E+02 -0.71237002538E+02  0.27691899042E+03  0.12508162415E+03 0.  0.
         23    2    1    2    0    0  0.21721134295E+03 -0.93718922930E+02 -0.56408471291E+03  0.61835466542E+03  0.90592079596E+02 0.  0.
          5    1    3    3  502    0 -0.13756674100E+03  0.84482048492E+02 -0.10192573910E+03  0.19096636730E+03  0.41800000000E+01 0. -1.
         -5    1    3    3    0  502 -0.79644601951E+02  0.92368744382E+01  0.30688736562E+02  0.85952623120E+02  0.41800000000E+01 0. -1.
        -11    1    4    4    0    0  0.10504933233E+03 -0.17999154088E+02 -0.34263354183E+03  0.35882736206E+03  0.00000000000E+00 0.  1.
         11    1    4    4    0    0  0.11216201062E+03 -0.75719768842E+02 -0.22145117108E+03  0.25952730336E+03  0.00000000000E+00 0. -1.
</event>
<event>
 8    1  0.7224924E-009  0.1015506E+03  0.7561462E-02  0.1277069E+00
          1   -1    0    0  501    0  0.00000000000E+00  0.00000000000E+00  0.67431629869E+03  0.67431629869E+03  0.00000000000E+00 0. -1.
         -1   -1    0    0    0  501 -0.00000000000E+00 -0.00000000000E+00 -0.34738572674E+02  0.34738572674E+02  0.00000000000E+00 0.  1.
         25    2    1    2    0    0  0.27450406653E+02  0.80161623245E+01  0.58901026124E+03  0.60282622149E+03  0.12509429160E+03 0.  0.
         23    2    1    2    0    0 -0.27450406653E+02 -0.80161623245E+01  0.50567464780E+02  0.10622864987E+03  0.88936347328E+02 0.  0.
          5    1    3    3  502    0  0.65899956361E+02 -0.31277975350E+02  0.32267746108E+03  0.33084638774E+03  0.41800000000E+01 0.  1.
         -5    1    3    3    0  502 -0.38449549708E+02  0.39294137675E+02  0.26633280015E+03  0.27197983375E+03  0.41800000000E+01 0.  1.
        -11    1    4    4    0    0  0.11284476602E+02 -0.28807237843E+02  0.53891757594E+02  0.62141112807E+02  0.00000000000E+00 0. -1.
         11    1    4    4    0    0 -0.38734883255E+02  0.20791075519E+02 -0.33242928134E+01  0.44087537068E+02  0.00000000000E+00 0.  1.
</event>
<event>
 8    1  0.7224924E-009  0.8905692E+02  0.7561462E-02  0.1305152E+00
          1   -1    0    0  501    0  0.00000000000E+00  0.00000000000E+00  0.93319672588E+02  0.93319672588E+02  0.00000000000E+00 0. -1.
         -1   -1    0    0    0  501 -0.00000000000E+00 -0.00000000000E+00 -0.13032388273E+03  0.13032388273E+03  0.00000000000E+00 0.  1.
         25    2    1    2    0    0  0.13639354078E+02 -0.71970521637E+01 -0.14865157256E+02  0.12691146948E+03  0.12509084158E+03 0.  0.
         23    2    1    2    0    0 -0.13639354078E+02  0.71970521637E+01 -0.22139052884E+02  0.96732085836E+02  0.92893106461E+02 0.  0.
          5    1    3    3  502    0  0.46527250774E+02 -0.52150991703E+02 -0.11513816176E+02  0.70954572532E+02  0.41800000000E+01 0. -1.
         -5    1    3    3    0  502 -0.32887896696E+02  0.44953939539E+02 -0.33513410803E+01  0.55956896950E+02  0.41800000000E+01 0. -1.
        -11    1    4    4    0    0 -0.32558065756E+02  0.19793223121E+01 -0.51771545533E+02  0.61190181316E+02  0.00000000000E+00 0.  1.
         11    1    4    4    0    0  0.18918711678E+02  0.52177298516E+01  0.29632492649E+02  0.35541904520E+02  0.00000000000E+00 0. -1.
</event>
<event>
 8    1  0.7224924E-009  0.1783497E+03  0.7561462E-02  0.1169410E+00
         -1   -1    0    0    0  501 -0.00000000000E+00  0.00000000000E+00  0.21191851913E+03  0.21191851913E+03  0.00000000000E+00 0.  1.
          1   -1    0    0  501    0  0.00000000000E+00 -0.00000000000E+00 -0.19920110670E+03  0.19920110670E+03  0.00000000000E+00 0. -1.
         25    2    1    2    0    0  0.15987441630E+03 -0.39304512755E+02 -0.49182595607E+02  0.21253618435E+03  0.12509207904E+03 0.  0.
         23    2    1    2    0    0 -0.15987441630E+03  0.39304512755E+02  0.61900008035E+02  0.19858344147E+03  0.92190555493E+02 0.  0.
          5    1    3    3  502    0  0.13891468367E+03  0.89654501868E+01 -0.69903002950E+02  0.15582544996E+03  0.41800000000E+01 0.  1.
         -5    1    3    3    0  502  0.20959732633E+02 -0.48269962941E+02  0.20720407343E+02  0.56710734388E+02  0.41800000000E+01 0.  1.
        -11    1    4    4    0    0 -0.37162164209E+02  0.98514271822E+01  0.61330887006E+02  0.72384768889E+02  0.00000000000E+00 0.  1.
         11    1    4    4    0    0 -0.12271225209E+03  0.29453085572E+02  0.56912102900E+00  0.12619867258E+03  0.00000000000E+00 0. -1.
</event>
<event>
 8    1  0.7224924E-009  0.1724853E+03  0.7561462E-02  0.1175281E+00
          2   -1    0    0  501    0  0.00000000000E+00  0.00000000000E+00  0.99531392088E+02  0.99531392088E+02  0.00000000000E+00 0. -1.
         -2   -1    0    0    0  501 -0.00000000000E+00 -0.00000000000E+00 -0.30639964624E+03  0.30639964624E+03  0.00000000000E+00 0.  1.
         25    2    1    2    0    0 -0.27929994372E+02  0.13159479769E+03 -0.83971515975E+02  0.20198238845E+03  0.12509354255E+03 0.  0.
         23    2    1    2    0    0  0.27929994372E+02 -0.13159479769E+03 -0.12289673817E+03  0.20394864987E+03  0.91619693111E+02 0.  0.
          5    1    3    3  502    0 -0.52340093117E+02  0.14498510488E+03 -0.79461636021E+02  0.17346985324E+03  0.41800000000E+01 0.  1.
         -5    1    3    3    0  502  0.24410098745E+02 -0.13390307187E+02 -0.45098799542E+01  0.28512535217E+02  0.41800000000E+01 0.  1.
        -11    1    4    4    0    0 -0.32618127547E+02 -0.29828468404E+02 -0.29624122268E+02  0.53209664462E+02  0.00000000000E+00 0.  1.
         11    1    4    4    0    0  0.60548121919E+02 -0.10176632929E+03 -0.93272615905E+02  0.15073898541E+03  0.00000000000E+00 0. -1.
</event>
<event>
 8    1  0.7224924E-009  0.1019929E+03  0.7561462E-02  0.1276160E+00
          3   -1    0    0  501    0  0.00000000000E+00  0.00000000000E+00  0.39544887451E+02  0.39544887451E+02  0.00000000000E+00 0.  1.
         -3   -1    0    0    0  501 -0.00000000000E+00 -0.00000000000E+00 -0.30168079582E+03  0.30168079582E+03  0.00000000000E+00 0. -1.
         25    2    1    2    0    0  0.24821735307E+01 -0.79841679547E+01 -0.11088457010E+03  0.16737032032E+03  0.12509008000E+03 0.  0.
         23    2    1    2    0    0 -0.24821735307E+01  0.79841679547E+01 -0.15125133828E+03  0.17385536295E+03  0.85315952639E+02 0.  0.
          5    1    3    3  502    0 -0.38896659054E+02 -0.47429233038E+02 -0.83902263677E+02  0.10401703938E+03  0.41800000000E+01 0. -1.
         -5    1    3    3    0  502  0.41378832584E+02  0.39445065083E+02 -0.26982306418E+02  0.63353280934E+02  0.41800000000E+01 0. -1.
        -11    1    4    4    0    0 -0.34925392746E+02  0.29946666468E+02 -0.91325306342E+02  0.10225897256E+03  0.00000000000E+00 0.  1.
         11    1    4    4    0    0  0.32443219215E+02 -0.21962498513E+02 -0.59926031933E+02  0.71596390392E+02  0.00000000000E+00 0. -1.
</event>
<event>
 8    1  0.7224924E-009  0.1028047E+03  0.7561462E-02  0.1274506E+00
          2   -1    0    0  501    0  0.00000000000E+00  0.00000000000E+00  0.33373794023E+03  0.33373794023E+03  0.00000000000E+00 0. -1.
         -2   -1    0    0    0  501 -0.00000000000E+00 -0.00000000000E+00 -0.75793857554E+02  0.75793857554E+02  0.00000000000E+00 0.  1.
         25    2    1    2    0    0  0.32028236958E+01 -0.93445952818E+02  0.22881319856E+03  0.27702853026E+03  0.12508765954E+03 0.  0.
         23    2    1    2    0    0 -0.32028236958E+01  0.93445952818E+02  0.29130884119E+02  0.13250326752E+03  0.89253029732E+02 0.  0.
          5    1    3    3  502    0  0.18389935284E+02 -0.46365059215E+01 -0.99326958392E+01  0.21813247203E+02  0.41800000000E+01 0.  1.
         -5    1    3    3    0  502 -0.15187111588E+02 -0.88809446897E+02  0.23874589439E+03  0.25521528306E+03  0.41800000000E+01 0.  1.
        -11    1    4    4    0    0  0.62795960668E+01  0.87607263906E+01 -0.27937326116E+02  0.29944579546E+02  0.00000000000E+00 0.  1.
         11    1    4    4    0    0 -0.94824197626E+01  0.84685226428E+02  0.57068210235E+02  0.10255868798E+03  0.00000000000E+00 0. -1.
</event>
<event>
 8    1  0.7224924E-009  0.2288316E+03  0.7561462E-02  0.1127465E+00
         -2   -1    0    0    0  501 -0.00000000000E+00  0.00000000000E+00  0.33445883201E+03  0.33445883201E+03  0.00000000000E+00 0.  1.
          2   -1    0    0  501    0  0.00000000000E+00 -0.00000000000E+00 -0.20155340961E+03  0.20155340961E+03  0.00000000000E+00 0. -1.
         25    2    1    2    0    0 -0.15360252849E+03 -0.16072611416E+03  0.14678823517E+03  0.29431395336E+03  0.12508915471E+03 0.  0.
         23    2    1    2    0    0  0.15360252849E+03  0.16072611416E+03 -0.13882812768E+02  0.24169828826E+03  0.93801436709E+02 0.  0.
          5    1    3    3  502    0 -0.17873289781E+02 -0.69070710362E+02  0.10186507971E+03  0.12443546272E+03  0.41800000000E+01 0. -1.
         -5    1    3    3    0  502 -0.13572923871E+03 -0.91655403799E+02  0.44923155454E+02  0.16987849064E+03  0.41800000000E+01 0. -1.
        -11    1    4    4    0    0  0.23790509534E+02  0.27229810040E+02  0.33787430705E+02  0.49487790134E+02  0.00000000000E+00 0.  1.
         11    1    4    4    0    0  0.12981201895E+03  0.13349630412E+03 -0.47670243473E+02  0.19221049813E+03  0.00000000000E+00 0. -1.
</event>
<event>
 8    1  0.7224924E-009  0.1131581E+03  0.7561462E-02  0.1254831E+00
         -1   -1    0    0    0  501 -0.00000000000E+00  0.00000000000E+00  0.24301785967E+03  0.24301785967E+03  0.00000000000E+00 0.  1.
          1   -1    0    0  501    0  0.00000000000E+00 -0.00000000000E+00 -0.55489683667E+02  0.55489683667E+02  0.00000000000E+00 0. -1.
         25    2    1    2    0    0 -0.27643044617E+00  0.38878159360E+02  0.84651929954E+02  0.15596505137E+03  0.12509020870E+03 0.  0.
         23    2    1    2    0    0  0.27643044617E+00 -0.38878159360E+02  0.10287624605E+03  0.14254249197E+03  0.90682149993E+02 0.  0.
          5    1    3    3  502    0 -0.37428963544E+02 -0.31525817496E+02  0.18879803971E+02  0.52618664737E+02  0.41800000000E+01 0. -1.
         -5    1    3    3    0  502  0.37152533098E+02  0.70403976855E+02  0.65772125984E+02  0.10334638663E+03  0.41800000000E+01 0. -1.
        -11    1    4    4    0    0  0.20519008338E+02  0.23914735011E+02  0.43979407172E+02  0.54102980593E+02  0.00000000000E+00 0.  1.
         11    1    4    4    0    0 -0.20242577892E+02 -0.62792894371E+02  0.58896838877E+02  0.88439511378E+02  0.00000000000E+00 0. -1.
</event>
<event>
 8    1  0.7224924E-009  0.1253777E+03  0.7561462E-02  0.1234480E+00
          1   -1    0    0  501    0  0.00000000000E+00  0.00000000000E+00  0.10481510430E+03  0.10481510430E+03  0.00000000000E+00 0. -1.
         -1   -1    0    0    0  501 -0.00000000000E+00 -0.00000000000E+00 -0.16854449313E+03  0.16854449313E+03  0.00000000000E+00 0.  1.
         25    2    1    2    0    0 -0.66630906109E+02  0.34403730921E+02 -0.39136462513E+02  0.15100517038E+03  0.12509038505E+03 0.  0.
         23    2    1    2    0    0  0.66630906109E+02 -0.34403730921E+02 -0.24592926311E+02  0.12235442705E+03  0.93501333920E+02 0.  0.
          5    1    3    3  502    0 -0.31740424657E+01 -0.39100391822E+02  0.11923356154E+02  0.41213517299E+02  0.41800000000E+01 0. -1.
         -5    1    3    3    0  502 -0.63456863643E+02  0.73504122742E+02 -0.51059818668E+02  0.10979165308E+03  0.41800000000E+01 0. -1.
        -11    1    4    4    0    0  0.30196099041E+02  0.28430762059E+02 -0.27329582018E+02  0.49669091816E+02  0.00000000000E+00 0. -1.
         11    1    4    4    0    0  0.36434807068E+02 -0.62834492980E+02  0.27366557063E+01  0.72685335237E+02  0.00000000000E+00 0.  1.
</event>
<event>
 8    1  0.7224924E-009  0.1898495E+03  0.7561462E-02  0.1158597E+00
          1   -1    0    0  501    0  0.00000000000E+00  0.00000000000E+00  0.16663232360E+03  0.16663232360E+03  0.00000000000E+00 0. -1.
         -1   -1    0    0    0  501 -0.00000000000E+00 -0.00000000000E+00 -0.28040475313E+03  0.28040475313E+03  0.00000000000E+00 0.  1.
         25    2    1    2    0    0 -0.64374433743E+02  0.17474539758E+03 -0.51616424401E+02  0.23020236900E+03  0.12509537853E+03 0.  0.
         23    2    1    2    0    0  0.64374433743E+02 -0.17474539758E+03 -0.62156005129E+02  0.21683470773E+03  0.92053787572E+02 0.  0.
          5    1    3    3  502    0  0.24299526092E+01  0.46962848304E+02 -0.70366425118E+02  0.84736768727E+02  0.41800000000E+01 0.  1.
         -5    1    3    3    0  502 -0.66804386352E+02  0.12778254927E+03  0.18750000717E+02  0.14546560027E+03  0.41800000000E+01 0.  1.
        -11    1    4    4    0    0  0.61003515754E+02 -0.13264239667E+03 -0.54145289939E+01  0.14609843070E+03  0.00000000000E+00 0. -1.
         11    1    4    4    0    0  0.33709179892E+01 -0.42103000910E+02 -0.56741476136E+02  0.70736277028E+02  0.00000000000E+00 0.  1.
</event>
<event>
 8    1  0.7224924E-009  0.1224590E+03  0.7561462E-02  0.1239095E+00
          1   -1    0    0  501    0  0.00000000000E+00  0.00000000000E+00  0.39119948398E+02  0.39119948398E+02  0.00000000000E+00 0. -1.
         -1   -1    0    0    0  501 -0.00000000000E+00 -0.00000000000E+00 -0.47188538801E+03  0.47188538801E+03  0.00000000000E+00 0.  1.
         25    2    1    2    0    0  0.49283289193E+02 -0.69882753495E+02 -0.22343344994E+03  0.26996703832E+03  0.12508898193E+03 0.  0.
         23    2    1    2    0    0 -0.49283289193E+02  0.69882753495E+02 -0.20933198967E+03  0.24103829809E+03  0.83469380097E+02 0.  0.
          5    1    3    3  502    0 -0.16142851063E+02  0.24187401257E+02 -0.17311813605E+02  0.34099755282E+02  0.41800000000E+01 0. -1.
         -5    1    3    3    0  502  0.65426140256E+02 -0.94070154752E+02 -0.20612163633E+03  0.23586728304E+03  0.41800000000E+01 0. -1.
        -11    1    4    4    0    0 -0.47586380473E+02  0.21080865215E+02 -0.42463024757E+02  0.67171236078E+02  0.00000000000E+00 0. -1.
         11    1    4    4    0    0 -0.16969087199E+01  0.48801888280E+02 -0.16686896492E+03  0.17386706201E+03  0.00000000000E+00 0.  1.
</event>
<event>
 8    1  0.7224924E-009  0.1173675E+03  0.7561462E-02  0.1247504E+00
         -1   -1    0    0    0  501 -0.00000000000E+00  0.00000000000E+00  0.76509031309E+03  0.76509031309E+03  0.00000000000E+00 0.  1.
          1   -1    0    0  501    0  0.00000000000E+00 -0.00000000000E+00 -0.20374588469E+02  0.20374588469E+02  0.00000000000E+00 0. -1.
         25    2    1    2    0    0  0.35936508541E+02  0.38670159470E+02  0.37950342962E+03  0.40306148263E+03  0.12509553070E+03 0.  0.
         23    2    1    2    0    0 -0.35936508541E+02 -0.38670159470E+02  0.36521229499E+03  0.38240341893E+03  0.10032716738E+03 0.  0.
          5    1    3    3  502    0  0.46411171558E+02 -0.30032176675E+02  0.24954451233E+03  0.25562837189E+03  0.41800000000E+01 0. -1.
         -5    1    3    3    0  502 -0.10474663016E+02  0.68702336145E+02  0.12995891729E+03  0.14743311073E+03  0.41800000000E+01 0. -1.
        -11    1    4    4    0    0 -0.49189542332E+02 -0.64219110814E+02  0.22082022543E+03  0.23517074058E+03  0.00000000000E+00 0. -1.
         11    1    4    4    0    0  0.13253033791E+02  0.25548951344E+02  0.14439206957E+03  0.14723267835E+03  0.00000000000E+00 0.  1.
</event>
<event>
 8    1  0.7224924E-009  0.1058095E+03  0.7561462E-02  0.1268533E+00
         -2   -1    0    0    0  501 -0.00000000000E+00  0.00000000000E+00  0.47494358278E+02  0.47494358278E+02  0.00000000000E+00 0.  1.
          2   -1    0    0  501    0  0.00000000000E+00 -0.00000000000E+00 -0.33213664829E+03  0.33213664829E+03  0.00000000000E+00 0. -1.
         25    2    1    2    0    0 -0.57915760853E+02  0.26217817198E+02 -0.11815478948E+03  0.18343202837E+03  0.12508055589E+03 0.  0.
         23    2    1    2    0    0  0.57915760853E+02 -0.26217817198E+02 -0.16648750053E+03  0.19619897819E+03  0.82063036248E+02 0.  0.
          5    1    3    3  502    0 -0.94436977206E+02  0.24324429320E+01 -0.65898514989E+02  0.11525773779E+03  0.41800000000E+01 0. -1.
         -5    1    3    3    0  502  0.36521216353E+02  0.23785374266E+02 -0.52256274491E+02  0.68174290583E+02  0.41800000000E+01 0. -1.
        -11    1    4    4    0    0  0.24315015360E+02  0.77256596099E+01 -0.13852319136E+03  0.14085304516E+03  0.00000000000E+00 0. -1.
         11    1    4    4    0    0  0.33600745492E+02 -0.33943476807E+02 -0.27964309171E+02  0.55345933029E+02  0.00000000000E+00 0.  1.
</event>
<event>
 8    1  0.7224924E-009  0.1269034E+03  0.7561462E-02  0.1232124E+00
          2   -1    0    0  501    0  0.00000000000E+00  0.00000000000E+00  0.41870703907E+03  0.41870703907E+03  0.00000000000E+00 0. -1.
         -2   -1    0    0    0  501 -0.00000000000E+00 -0.00000000000E+00 -0.40190577059E+02  0.40190577059E+02  0.00000000000E+00 0.  1.
         25    2    1    2    0    0 -0.88659767721E+01 -0.68616494776E+02  0.23943240365E+03  0.27885957085E+03  0.12509178805E+03 0.  0.
         23    2    1    2    0    0  0.88659767721E+01  0.68616494776E+02  0.13908405836E+03  0.18003804528E+03  0.91008205992E+02 0.  0.
          5    1    3    3  502    0  0.35094576110E+02  0.20651398375E+02  0.48110437685E+02  0.63167999347E+02  0.41800000000E+01 0. -1.
         -5    1    3    3    0  502 -0.43960552883E+02 -0.89267893150E+02  0.19132196597E+03  0.21569157151E+03  0.41800000000E+01 0. -1.
        -11    1    4    4    0    0  0.48804920376E+02  0.47491704704E+02  0.71479682491E+02  0.98725514826E+02  0.00000000000E+00 0. -1.
         11    1    4    4    0    0 -0.39938943604E+02  0.21124790072E+02  0.67604375867E+02  0.81312530450E+02  0.00000000000E+00 0.  1.
</event>
<event>
 8    1  0.7224924E-009  0.2104831E+03  0.7561462E-02  0.1141184E+00
          1   -1    0    0  501    0  0.00000000000E+00  0.00000000000E+00  0.58711929778E+03  0.58711929778E+03  0.00000000000E+00 0. -1.
         -1   -1    0    0    0  501 -0.00000000000E+00 -0.00000000000E+00 -0.13060352369E+03  0.13060352369E+03  0.00000000000E+00 0.  1.
         25    2    1    2    0    0  0.13504149383E+03  0.14883208608E+03  0.31496285343E+02  0.23880224819E+03  0.12508917956E+03 0.  0.
         23    2    1    2    0    0 -0.13504149383E+03 -0.14883208608E+03  0.42501948875E+03  0.47892057328E+03  0.91302545376E+02 0.  0.
          5    1    3    3  502    0  0.11401133469E+03  0.85189829173E+02 -0.32488219302E+02  0.14604399414E+03  0.41800000000E+01 0. -1.
         -5    1    3    3    0  502  0.21030159142E+02  0.63642256911E+02  0.63984504645E+02  0.92758254042E+02  0.41800000000E+01 0. -1.
        -11    1    4    4    0    0 -0.13843449391E+03 -0.12243156823E+03  0.31039359391E+03  0.36124476626E+03  0.00000000000E+00 0. -1.
         11    1    4    4    0    0  0.33930000831E+01 -0.26400517853E+02  0.11462589483E+03  0.11767580702E+03  0.00000000000E+00 0.  1.
</event>
<event>
 8    1  0.7224924E-009  0.1013064E+03  0.7561462E-02  0.1277572E+00
         -2   -1    0    0    0  501 -0.00000000000E+00  0.00000000000E+00  0.23816914283E+02  0.23816914283E+02  0.00000000000E+00 0. -1.
          2   -1    0    0  501    0  0.00000000000E+00 -0.00000000000E+00 -0.57823255066E+03  0.57823255066E+03  0.00000000000E+00 0.  1.
         25    2    1    2    0    0 -0.43662195999E+02  0.15955830069E+02 -0.27971398278E+03  0.30991844993E+03  0.12509419480E+03 0.  0.
         23    2    1    2    0    0  0.43662195999E+02 -0.15955830069E+02 -0.27470165360E+03  0.29213101502E+03  0.87855310426E+02 0.  0.
          5    1    3    3  502    0 -0.49973438681E+02  0.51851175657E+02 -0.25662973496E+03  0.26657490928E+03  0.41800000000E+01 0.  1.
         -5    1    3    3    0  502  0.63112426817E+01 -0.35895345588E+02 -0.23084247818E+02  0.43343540653E+02  0.41800000000E+01 0.  1.
        -11    1    4    4    0    0  0.67260435664E+02 -0.19263797155E+02 -0.15468920884E+03  0.16977576805E+03  0.00000000000E+00 0. -1.
         11    1    4    4    0    0 -0.23598239665E+02  0.33079670855E+01 -0.12001244477E+03  0.12235524697E+03  0.00000000000E+00 0.  1.
</event>
<event>
 8    1  0.7224924E-009  0.1381779E+03  0.7561462E-02  0.1215802E+00
          1   -1    0    0  501    0  0.00000000000E+00  0.00000000000E+00  0.54556177086E+03  0.54556177086E+03  0.00000000000E+00 0. -1.
         -1   -1    0    0    0  501 -0.00000000000E+00 -0.00000000000E+00 -0.36731550745E+02  0.36731550745E+02  0.00000000000E+00 0.  1.
         25    2    1    2    0    0 -0.10427355464E+02  0.87558698939E+02  0.23125520350E+03  0.27731169276E+03  0.12509016865E+03 0.  0.
         23    2    1    2    0    0  0.10427355464E+02 -0.87558698939E+02  0.27757501661E+03  0.30498162884E+03  0.90502202081E+02 0.  0.
          5    1    3    3  502    0 -0.61441793256E+02  0.16898009814E+02  0.11988888868E+03  0.13583613188E+03  0.41800000000E+01 0. -1.
         -5    1    3    3    0  502  0.51014437791E+02  0.70660689125E+02  0.11136631482E+03  0.14147556088E+03  0.41800000000E+01 0. -1.
        -11    1    4    4    0    0  0.49879094626E+02 -0.53230202618E+02  0.18118911191E+03  0.19532248418E+03  0.00000000000E+00 0. -1.
         11    1    4    4    0    0 -0.39451739162E+02 -0.34328496321E+02  0.96385904700E+02  0.10965914466E+03  0.00000000000E+00 0.  1.
</event>
<event>
 8    1  0.7224924E-009  0.2269177E+03  0.7561462E-02  0.1128828E+00
          1   -1    0    0  501    0  0.00000000000E+00  0.00000000000E+00  0.35190538529E+03  0.35190538529E+03  0.00000000000E+00 0. -1.
         -1   -1    0    0    0  501 -0.00000000000E+00 -0.00000000000E+00 -0.21798104791E+03  0.21798104791E+03  0.00000000000E+00 0.  1.
         25    2    1    2    0    0 -0.53574960806E+02  0.19937854611E+03  0.22166363805E+03  0.32772606501E+03  0.12509006426E+03 0.  0.
         23    2    1    2    0    0  0.53574960806E+02 -0.19937854611E+03 -0.87739300662E+02  0.24216036819E+03  0.91221587179E+02 0.  0.
          5    1    3    3  502    0 -0.93772313670E+02  0.14171668981E+03  0.14283225455E+03  0.22202565690E+03  0.41800000000E+01 0. -1.
         -5    1    3    3    0  502  0.40197352864E+02  0.57661856306E+02  0.78831383501E+02  0.10570040811E+03  0.41800000000E+01 0. -1.
        -11    1    4    4    0    0 -0.74601216591E+01 -0.69872247195E+02  0.67951983328E+01  0.70597160450E+02  0.00000000000E+00 0. -1.
         11    1    4    4    0    0  0.61035082465E+02 -0.12950629892E+03 -0.94534498995E+02  0.17156320774E+03  0.00000000000E+00 0.  1.
</event>
<event>
 8    1  0.7224924E-009  0.1118653E+03  0.7561462E-02  0.1257154E+00
          2   -1    0    0  501    0  0.00000000000E+00  0.00000000000E+00  0.20450735198E+03  0.20450735198E+03  0.00000000000E+00 0. -1.
         -2   -1    0    0    0  501 -0.00000000000E+00 -0.00000000000E+00 -0.11471173554E+03  0.11471173554E+03  0.00000000000E+00 0.  1.
         25    2    1    2    0    0  0.52156101595E+00  0.69604505477E+02  0.13414708077E+03  0.19618257768E+03  0.12508838995E+03 0.  0.
         23    2    1    2    0    0 -0.52156101595E+00 -0.69604505477E+02 -0.44351464323E+02  0.12303650984E+03  0.91246211745E+02 0.  0.
          5    1    3    3  502    0 -0.33050813020E+02 -0.19074412754E+02  0.95604669914E+01  0.39560894736E+02  0.41800000000E+01 0.  1.
         -5    1    3    3    0  502  0.33572374036E+02  0.88678918231E+02  0.12458661378E+03  0.15662168295E+03  0.41800000000E+01 0.  1.
        -11    1    4    4    0    0  0.18025204255E+02  0.37952503386E+00 -0.47255888624E+02  0.50578365309E+02  0.00000000000E+00 0.  1.
         11    1    4    4    0    0 -0.18546765271E+02 -0.69984030511E+02  0.29044243005E+01  0.72458144532E+02  0.00000000000E+00 0. -1.
</event>
<event>
 8    1  0.7224924E-009  0.1236437E+03  0.7561462E-02  0.1237204E+00
         -2   -1    0    0    0  501 -0.00000000000E+00  0.00000000000E+00  0.39532846562E+02  0.39532846562E+02  0.00000000000E+00 0.  1.
          2   -1    0    0  501    0  0.00000000000E+00 -0.00000000000E+00 -0.74120252385E+03  0.74120252385E+03  0.00000000000E+00 0. -1.
         25    2    1    2    0    0  0.10307193060E+03  0.46637001612E+02 -0.21146932936E+03  0.27048992202E+03  0.12508672135E+03 0.  0.
         23    2    1    2    0    0 -0.10307193060E+03 -0.46637001612E+02 -0.49020034793E+03  0.51024544839E+03  0.85177483535E+02 0.  0.
          5    1    3    3  502    0  0.27481507468E+02  0.30382412412E+02  0.41502267838E+01  0.41388658097E+02  0.41800000000E+01 0. -1.
         -5    1    3    3    0  502  0.75590423128E+02  0.16254589200E+02 -0.21561955614E+03  0.22910126392E+03  0.41800000000E+01 0. -1.
        -11    1    4    4    0    0 -0.67057501758E+02  0.32633377589E+01 -0.14745850358E+03  0.16202273975E+03  0.00000000000E+00 0. -1.
         11    1    4    4    0    0 -0.36014428837E+02 -0.49900339371E+02 -0.34274184434E+03  0.34822270865E+03  0.00000000000E+00 0.  1.
</event>
<event>
 8    1  0.7224924E-009  0.9311672E+02  0.7561462E-02  0.1295475E+00
         -2   -1    0    0    0  501 -0.00000000000E+00  0.00000000000E+00  0.36985314577E+02  0.36985314577E+02  0.00000000000E+00 0.  1.
          2   -1    0    0  501    0  0.00000000000E+00 -0.00000000000E+00 -0.33074625189E+03  0.33074625189E+03  0.00000000000E+00 0. -1.
         25    2    1    2    0    0  0.33845928310E+01  0.96650618908E+01 -0.13453729140E+03  0.18399168874E+03  0.12509112623E+03 0.  0.
         23    2    1    2    0    0 -0.33845928310E+01 -0.96650618908E+01 -0.15922364592E+03  0.18373987772E+03  0.91122469000E+02 0.  0.
          5    1    3    3  502    0 -0.47161923938E+02 -0.28713681372E+02 -0.33856024890E+02  0.64903200143E+02  0.41800000000E+01 0. -1.
         -5    1    3    3    0  502  0.50546516769E+02  0.38378743263E+02 -0.10068126651E+03  0.11908848860E+03  0.41800000000E+01 0. -1.
        -11    1    4    4    0    0  0.31545171731E+02 -0.28989560141E+01 -0.13951622401E+03  0.14306739170E+03  0.00000000000E+00 0. -1.
         11    1    4    4    0    0 -0.34929764562E+02 -0.67661058768E+01 -0.19707421904E+02  0.40672486022E+02  0.00000000000E+00 0.  1.
</event>
<event>
 8    1  0.7224924E-009  0.1018476E+03  0.7561462E-02  0.1276458E+00
          2   -1    0    0  501    0  0.00000000000E+00  0.00000000000E+00  0.64214952824E+02  0.64214952824E+02  0.00000000000E+00 0. -1.
         -2   -1    0    0    0  501 -0.00000000000E+00 -0.00000000000E+00 -0.24235221219E+03  0.24235221219E+03  0.00000000000E+00 0.  1.
         25    2    1    2    0    0 -0.15995771370E+02 -0.60653707320E+02 -0.10049636511E+03  0.17228289309E+03  0.12508852440E+03 0.  0.
         23    2    1    2    0    0  0.15995771370E+02  0.60653707320E+02 -0.77640894255E+02  0.13428427193E+03  0.89829952201E+02 0.  0.
          5    1    3    3  502    0 -0.68519257654E+02 -0.27793732521E+02 -0.74239107038E+02  0.10486323307E+03  0.41800000000E+01 0.  1.
         -5    1    3    3    0  502  0.52523486283E+02 -0.32859974799E+02 -0.26257258075E+02  0.67419660016E+02  0.41800000000E+01 0.  1.
        -11    1    4    4    0    0 -0.25539492589E+01  0.38757936710E+02 -0.93677152591E+02  0.10141059724E+03  0.00000000000E+00 0.  1.
         11    1    4    4    0    0  0.18549720629E+02  0.21895770610E+02  0.16036258335E+02  0.32873674687E+02  0.00000000000E+00 0. -1.
</event>
<event>
 8    1  0.7224924E-009  0.1251665E+03  0.7561462E-02  0.1234809E+00
         -3   -1    0    0    0  501 -0.00000000000E+00  0.00000000000E+00  0.12420740272E+03  0.12420740272E+03  0.00000000000E+00 0.  1.
          3   -1    0    0  501    0  0.00000000000E+00 -0.00000000000E+00 -0.15672347090E+03  0.15672347090E+03  0.00000000000E+00 0. -1.
         25    2    1    2    0    0 -0.55360780085E+02 -0.40823352549E+02 -0.71232962111E+02  0.15953876871E+03  0.12508845568E+03 0.  0.
         23    2    1    2    0    0  0.55360780085E+02  0.40823352549E+02  0.38716893937E+02  0.12139210492E+03  0.92226260764E+02 0.  0.
          5    1    3    3  502    0 -0.26883623137E+02 -0.82978001651E+02 -0.63366188754E+02  0.10789265141E+03  0.41800000000E+01 0. -1.
         -5    1    3    3    0  502 -0.28477156948E+02  0.42154649102E+02 -0.78667733575E+01  0.51646117296E+02  0.41800000000E+01 0. -1.
        -11    1    4    4    0    0  0.79731769860E+02  0.28650573851E+02  0.16672172583E+02  0.86347969551E+02  0.00000000000E+00 0. -1.
         11    1    4    4    0    0 -0.24370989775E+02  0.12172778699E+02  0.22044721354E+02  0.35044135364E+02  0.00000000000E+00 0.  1.
</event>
<event>
 8    1  0.7224924E-009  0.1042399E+03  0.7561462E-02  0.1271624E+00
         -1   -1    0    0    0  501 -0.00000000000E+00  0.00000000000E+00  0.42064502645E+02  0.42064502645E+02  0.00000000000E+00 0.  1.
          1   -1    0    0  501    0  0.00000000000E+00 -0.00000000000E+00 -0.53143749632E+03  0.53143749632E+03  0.00000000000E+00 0. -1.
         25    2    1    2    0    0  0.55363531975E+02 -0.26340068032E+02 -0.42407359833E+03  0.44636806428E+03  0.12508841732E+03 0.  0.
         23    2    1    2    0    0 -0.55363531975E+02  0.26340068032E+02 -0.65299395338E+02  0.12713393468E+03  0.90222538533E+02 0.  0.
          5    1    3    3  502    0  0.61236217269E+02 -0.60139795217E+02 -0.38378462534E+03  0.39328714741E+03  0.41800000000E+01 0. -1.
         -5    1    3    3    0  502 -0.58726852936E+01  0.33799727185E+02 -0.40288972998E+02  0.53080916868E+02  0.41800000000E+01 0. -1.
        -11    1    4    4    0    0 -0.16337903386E+02 -0.21019177446E+02 -0.59876271577E+02  0.65527862819E+02  0.00000000000E+00 0. -1.
         11    1    4    4    0    0 -0.39025628590E+02  0.47359245478E+02 -0.54231237601E+01  0.61606071863E+02  0.00000000000E+00 0.  1.
</event>
<event>
 8    1  0.7224924E-009  0.1441273E+03  0.7561462E-02  0.1207881E+00
          1   -1    0    0  501    0  0.00000000000E+00  0.00000000000E+00  0.10485118541E+04  0.10485118541E+04  0.00000000000E+00 0.  1.
         -1   -1    0    0    0  501 -0.00000000000E+00 -0.00000000000E+00 -0.30841345303E+02  0.30841345303E+02  0.00000000000E+00 0. -1.
         25    2    1    2    0    0 -0.60677681827E+02 -0.95025385841E+02  0.80417652780E+03  0.82161979830E+03  0.12509036765E+03 0.  0.
         23    2    1    2    0    0  0.60677681827E+02  0.95025385841E+02  0.21349398103E+03  0.25773340113E+03  0.90195460506E+02 0.  0.
          5    1    3    3  502    0 -0.88557315573E+02 -0.75222030004E+02  0.41675802053E+03  0.43267247661E+03  0.41800000000E+01 0.  1.
         -5    1    3    3    0  502  0.27879633746E+02 -0.19803355837E+02  0.38741850726E+03  0.38894732169E+03  0.41800000000E+01 0.  1.
        -11    1    4    4    0    0 -0.65120792473E+01  0.62586375511E+02  0.59425401282E+02  0.86549638320E+02  0.00000000000E+00 0.  1.
         11    1    4    4    0    0  0.67189761074E+02  0.32439010330E+02  0.15406857975E+03  0.17118376281E+03  0.00000000000E+00 0. -1.
</event>
<event>
 8    1  0.7224924E-009  0.1034088E+03  0.7561462E-02  0.1273287E+00
          1   -1    0    0  501    0  0.00000000000E+00  0.00000000000E+00  0.26960410810E+02  0.26960410810E+02  0.00000000000E+00 0. -1.
         -1   -1    0    0    0  501 -0.00000000000E+00 -0.00000000000E+00 -0.52181832966E+03  0.52181832966E+03  0.00000000000E+00 0.  1.
         25    2    1    2    0    0  0.35621910527E+02  0.31869176987E+02 -0.27453146093E+03  0.30544797229E+03  0.12508547390E+03 0.  0.
         23    2    1    2    0    0 -0.35621910527E+02 -0.31869176987E+02 -0.22032645791E+03  0.24333076818E+03  0.91550804119E+02 0.  0.
          5    1    3    3  502    0  0.66031634192E+02  0.12109279656E+02 -0.67751011670E+02  0.95469803342E+02  0.41800000000E+01 0.  1.
         -5    1    3    3    0  502 -0.30409723665E+02  0.19759897331E+02 -0.20678044926E+03  0.20997816894E+03  0.41800000000E+01 0.  1.
        -11    1    4    4    0    0 -0.56872282629E+02  0.84266231567E+01 -0.13089296188E+03  0.14296304411E+03  0.00000000000E+00 0.  1.
         11    1    4    4    0    0  0.21250372102E+02 -0.40295800143E+02 -0.89433496029E+02  0.10036772407E+03  0.00000000000E+00 0. -1.
</event>
<event>
 8    1  0.7224924E-009  0.9632807E+02  0.7561462E-02  0.1288213E+00
          2   -1    0    0  501    0  0.00000000000E+00  0.00000000000E+00  0.38289666880E+02  0.38289666880E+02  0.00000000000E+00 0. -1.
         -2   -1    0    0    0  501 -0.00000000000E+00 -0.00000000000E+00 -0.31145615189E+03  0.31145615189E+03  0.00000000000E+00 0.  1.
         25    2    1    2    0    0 -0.81677011785E+01  0.12858524060E+02 -0.14338232994E+03  0.19088768829E+03  0.12509022352E+03 0.  0.
         23    2    1    2    0    0  0.81677011785E+01 -0.12858524060E+02 -0.12978415507E+03  0.15885813048E+03  0.90332307220E+02 0.  0.
          5    1    3    3  502    0  0.32607131413E+02 -0.30731935090E+02 -0.11726109381E+03  0.12559981439E+03  0.41800000000E+01 0.  1.
         -5    1    3    3    0  502 -0.40774832591E+02  0.43590459150E+02 -0.26121236129E+02  0.65287873902E+02  0.41800000000E+01 0.  1.
        -11    1    4    4    0    0 -0.15157838503E+02 -0.45353678822E+02 -0.47680204866E+02  0.67528647156E+02  0.00000000000E+00 0.  1.
         11    1    4    4    0    0  0.23325539681E+02  0.32495154761E+02 -0.82103950202E+02  0.91329483319E+02  0.00000000000E+00 0. -1.
</event>
<event>
 8    1  0.7224924E-009  0.1597113E+03  0.7561462E-02  0.1189023E+00
         -2   -1    0    0    0  501 -0.00000000000E+00  0.00000000000E+00  0.18734719782E+02  0.18734719782E+02  0.00000000000E+00 0. -1.
          2   -1    0    0  501    0  0.00000000000E+00 -0.00000000000E+00 -0.18665474356E+04  0.18665474356E+04  0.00000000000E+00 0.  1.
         25    2    1    2    0    0  0.31211048824E+01  0.13895186786E+03 -0.13004989168E+04  0.13138731080E+04  0.12509096003E+03 0.  0.
         23    2    1    2    0    0 -0.31211048824E+01 -0.13895186786E+03 -0.54731379896E+03  0.57140904739E+03  0.87398753016E+02 0.  0.
          5    1    3    3  502    0 -0.87830573472E+01  0.15632153502E+03 -0.12362567823E+04  0.12461387838E+04  0.41800000000E+01 0. -1.
         -5    1    3    3    0  502  0.11904162230E+02 -0.17369667162E+02 -0.64242134518E+02  0.67734324113E+02  0.41800000000E+01 0. -1.
        -11    1    4    4    0    0  0.51863563154E+01 -0.12489194791E+03 -0.53856822442E+03  0.55288392028E+03  0.00000000000E+00 0.  1.
         11    1    4    4    0    0 -0.83074611978E+01 -0.14059919945E+02 -0.87455745350E+01  0.18525127107E+02  0.00000000000E+00 0. -1.
</event>
<event>
 8    1  0.7224924E-009  0.9183491E+02  0.7561462E-02  0.1298468E+00
          1   -1    0    0  501    0  0.00000000000E+00  0.00000000000E+00  0.51367622171E+02  0.51367622171E+02  0.00000000000E+00 0. -1.
         -1   -1    0    0    0  501 -0.00000000000E+00 -0.00000000000E+00 -0.36135950131E+03  0.36135950131E+03  0.00000000000E+00 0.  1.
         25    2    1    2    0    0  0.12819383030E+02 -0.30844329029E+02 -0.56095374567E+02  0.14109909632E+03  0.12508618917E+03 0.  0.
         23    2    1    2    0    0 -0.12819383030E+02  0.30844329029E+02 -0.25389650458E+03  0.27162802716E+03  0.90568432074E+02 0.  0.
          5    1    3    3  502    0  0.63845836736E+02 -0.23392142939E+02 -0.57790040557E+02  0.89334452522E+02  0.41800000000E+01 0.  1.
         -5    1    3    3    0  502 -0.51026453706E+02 -0.74521860894E+01  0.16946659895E+01  0.51764643803E+02  0.41800000000E+01 0.  1.
        -11    1    4    4    0    0  0.10254917375E+01  0.44411960829E+02 -0.24713821886E+03  0.25109913007E+03  0.00000000000E+00 0.  1.
         11    1    4    4    0    0 -0.13844874768E+02 -0.13567631801E+02 -0.67582857120E+01  0.20528897091E+02  0.00000000000E+00 0. -1.
</event>
<event>
 8    1  0.7224924E-009  0.1290567E+03  0.7561462E-02  0.1228862E+00
         -2   -1    0    0    0  501 -0.00000000000E+00  0.00000000000E+00  0.68348513734E+02  0.68348513734E+02  0.00000000000E+00 0. -1.
          2   -1    0    0  501    0  0.00000000000E+00 -0.00000000000E+00 -0.25951970334E+03  0.25951970334E+03  0.00000000000E+00 0.  1.
         25    2    1    2    0    0 -0.15234416668E+02  0.73261357856E+02 -0.13352607698E+03  0.19767685860E+03  0.12509042004E+03 0.  0.
         23    2    1    2    0    0  0.15234416668E+02 -0.73261357856E+02 -0.57645112625E+02  0.13019135847E+03  0.89596410675E+02 0.  0.
          5    1    3    3  502    0  0.49904771521E+02  0.52286492168E+01 -0.58509321400E+02  0.77192215177E+02  0.41800000000E+01 0.  1.
         -5    1    3    3    0  502 -0.65139188189E+02  0.68032708639E+02 -0.75016755581E+02  0.12048464342E+03  0.41800000000E+01 0.  1.
        -11    1    4    4    0    0  0.50674737991E+02 -0.36758323437E+02 -0.46822631141E+02  0.78175841533E+02  0.00000000000E+00 0.  1.
         11    1    4    4    0    0 -0.35440321323E+02 -0.36503034419E+02 -0.10822481483E+02  0.52015516942E+02  0.00000000000E+00 0. -1.
</event>
<event>
 8    1  0.7224924E-009  0.1145534E+03  0.7561462E-02  0.1252363E+00
         -1   -1    0    0    0  501 -0.00000000000E+00  0.00000000000E+00  0.30917651683E+02  0.30917651683E+02  0.00000000000E+00 0.  1.
          1   -1    0    0  501    0  0.00000000000E+00 -0.00000000000E+00 -0.71463375067E+03  0.71463375067E+03  0.00000000000E+00 0. -1.
         25    2    1    2    0    0  0.16357691346E+02  0.89269570619E+02 -0.47270403483E+03  0.49732967116E+03  0.12510422443E+03 0.  0.
         23    2    1    2    0    0 -0.16357691346E+02 -0.89269570619E+02 -0.21101206415E+03  0.24822173119E+03  0.94081381317E+02 0.  0.
          5    1    3    3  502    0 -0.24719258887E+02  0.14136732886E+02 -0.32708252424E+03  0.32834637053E+03  0.41800000000E+01 0.  1.
         -5    1    3    3    0  502  0.41076950233E+02  0.75132837733E+02 -0.14562151058E+03  0.16898330063E+03  0.41800000000E+01 0.  1.
        -11    1    4    4    0    0  0.26875032935E+02 -0.22496300372E+02 -0.17871499578E+02  0.39341344955E+02  0.00000000000E+00 0.  1.
         11    1    4    4    0    0 -0.43232724280E+02 -0.66773270247E+02 -0.19314056458E+03  0.20888038623E+03  0.00000000000E+00 0. -1.
</event>
<event>
 8    1  0.7224924E-009  0.1029653E+03  0.7561462E-02  0.1274181E+00
         -1   -1    0    0    0  501 -0.00000000000E+00  0.00000000000E+00  0.19466971118E+02  0.19466971118E+02  0.00000000000E+00 0.  1.
          1   -1    0    0  501    0  0.00000000000E+00 -0.00000000000E+00 -0.72005709202E+03  0.72005709202E+03  0.00000000000E+00 0. -1.
         25    2    1    2    0    0  0.20019990651E+02  0.93583262571E+01 -0.53180953842E+03  0.54676835688E+03  0.12508346268E+03 0.  0.
         23    2    1    2    0    0 -0.20019990651E+02 -0.93583262571E+01 -0.16878058249E+03  0.19275570626E+03  0.90440582571E+02 0.  0.
          5    1    3    3  502    0  0.47353455431E+02 -0.41536280106E+02 -0.19351966976E+03  0.20355575966E+03  0.41800000000E+01 0. -1.
         -5    1    3    3    0  502 -0.27333464781E+02  0.50894606363E+02 -0.33828986866E+03  0.34321259722E+03  0.41800000000E+01 0. -1.
        -11    1    4    4    0    0  0.23065807248E+02 -0.29395581444E+02 -0.36642193142E+02  0.52333373584E+02  0.00000000000E+00 0.  1.
         11    1    4    4    0    0 -0.43085797899E+02  0.20037255187E+02 -0.13213838934E+03  0.14042233268E+03  0.00000000000E+00 0. -1.
</event>
<event>
 8    1  0.7224924E-009  0.1311024E+03  0.7561462E-02  0.1225829E+00
         -1   -1    0    0    0  501 -0.00000000000E+00  0.00000000000E+00  0.47584957445E+02  0.47584957445E+02  0.00000000000E+00 0.  1.
          1   -1    0    0  501    0  0.00000000000E+00 -0.00000000000E+00 -0.58806717418E+03  0.58806717418E+03  0.00000000000E+00 0. -1.
         25    2    1    2    0    0  0.83569648332E+02 -0.17913407352E+02 -0.46529083852E+03  0.48933429982E+03  0.12509083214E+03 0.  0.
         23    2    1    2    0    0 -0.83569648332E+02  0.17913407352E+02 -0.75191378215E+02  0.14631783180E+03  0.91925993390E+02 0.  0.
          5    1    3    3  502    0  0.36749843233E+02 -0.67448057961E+02 -0.31500510001E+03  0.32426143300E+03  0.41800000000E+01 0. -1.
         -5    1    3    3    0  502  0.46819805099E+02  0.49534650609E+02 -0.15028573852E+03  0.16507286683E+03  0.41800000000E+01 0. -1.
        -11    1    4    4    0    0 -0.15612469151E+02  0.42067361220E+02 -0.55859496298E+02  0.71649810884E+02  0.00000000000E+00 0. -1.
         11    1    4    4    0    0 -0.67957179182E+02 -0.24153953867E+02 -0.19331881917E+02  0.74668020921E+02  0.00000000000E+00 0.  1.
</event>
<event>
 8    1  0.7224924E-009  0.2072118E+03  0.7561462E-02  0.1143793E+00
         -1   -1    0    0    0  501 -0.00000000000E+00  0.00000000000E+00  0.44216374858E+02  0.44216374858E+02  0.00000000000E+00 0.  1.
          1   -1    0    0  501    0  0.00000000000E+00 -0.00000000000E+00 -0.11580032665E+04  0.11580032665E+04  0.00000000000E+00 0. -1.
         25    2    1    2    0    0  0.16851257194E+03 -0.10398123838E+03 -0.59651810233E+03  0.64085078339E+03  0.12508914954E+03 0.  0.
         23    2    1    2    0    0 -0.16851257194E+03  0.10398123838E+03 -0.51726878932E+03  0.56136885797E+03  0.91429806179E+02 0.  0.
          5    1    3    3  502    0  0.14150905088E+03 -0.78966409905E+02 -0.57626254426E+03  0.59862884802E+03  0.41800000000E+01 0.  1.
         -5    1    3    3    0  502  0.27003521062E+02 -0.25014828479E+02 -0.20255558073E+02  0.42221935371E+02  0.41800000000E+01 0.  1.
        -11    1    4    4    0    0 -0.10721257426E+03  0.16533951307E+02 -0.30566177957E+03  0.32434091804E+03  0.00000000000E+00 0.  1.
         11    1    4    4    0    0 -0.61299997679E+02  0.87447287077E+02 -0.21160700975E+03  0.23702793993E+03  0.00000000000E+00 0. -1.
</event>
<event>
 8    1  0.7224924E-009  0.1009030E+03  0.7561462E-02  0.1278408E+00
          3   -1    0    0  501    0  0.00000000000E+00  0.00000000000E+00  0.16159820663E+03  0.16159820663E+03  0.00000000000E+00 0. -1.
         -3   -1    0    0    0  501 -0.00000000000E+00 -0.00000000000E+00 -0.11509945378E+03  0.11509945378E+03  0.00000000000E+00 0.  1.
         25    2    1    2    0    0  0.46710240548E+02 -0.19923732599E+02 -0.39641738151E+02  0.14071358441E+03  0.12510013485E+03 0.  0.
         23    2    1    2    0    0 -0.46710240548E+02  0.19923732599E+02  0.86140490997E+02  0.13598407600E+03  0.92155754269E+02 0.  0.
          5    1    3    3  502    0 -0.12213069225E+02 -0.59381469942E+02 -0.31466650351E+01  0.60849748834E+02  0.41800000000E+01 0.  1.
         -5    1    3    3    0  502  0.58923309773E+02  0.39457737343E+02 -0.36495073116E+02  0.79863835574E+02  0.41800000000E+01 0.  1.
        -11    1    4    4    0    0  0.20559408346E+01  0.21119373953E+02 -0.13426011340E+02  0.25110010541E+02  0.00000000000E+00 0.  1.
         11    1    4    4    0    0 -0.48766181382E+02 -0.11956413546E+01  0.99566502336E+02  0.11087406546E+03  0.00000000000E+00 0. -1.
</event>
<event>
 8    1  0.7224924E-009  0.5907482E+02  0.7561462E-02  0.1401756E+00
         -1   -1    0    0    0  501 -0.00000000000E+00  0.00000000000E+00  0.80479107093E+02  0.80479107093E+02  0.00000000000E+00 0.  1.
          1   -1    0    0  501    0  0.00000000000E+00 -0.00000000000E+00 -0.18604600946E+03  0.18604600946E+03  0.00000000000E+00 0. -1.
         25    2    1    2    0    0 -0.18554146623E+02  0.55127524197E+02 -0.59001496457E+02  0.15003917876E+03  0.12508908144E+03 0.  0.
         23    2    1    2    0    0  0.18554146623E+02 -0.55127524197E+02 -0.46565405913E+02  0.11648593780E+03  0.89539580054E+02 0.  0.
          5    1    3    3  502    0 -0.69817684637E+01  0.15624776514E+02  0.39473036484E+02  0.43225822621E+02  0.41800000000E+01 0. -1.
         -5    1    3    3    0  502 -0.11572378159E+02  0.39502747683E+02 -0.98474532942E+02  0.10681335613E+03  0.41800000000E+01 0. -1.
        -11    1    4    4    0    0  0.12598305093E+02 -0.20799712247E+02  0.26238805964E+02  0.35774575598E+02  0.00000000000E+00 0.  1.
         11    1    4    4    0    0  0.59558415295E+01 -0.34327811950E+02 -0.72804211876E+02  0.80711362202E+02  0.00000000000E+00 0. -1.
</event>
<event>
 8    1  0.7224924E-009  0.1077637E+03  0.7561462E-02  0.1264768E+00
         -1   -1    0    0    0  501 -0.00000000000E+00  0.00000000000E+00  0.75974089712E+02  0.75974089712E+02  0.00000000000E+00 0.  1.
          1   -1    0    0  501    0  0.00000000000E+00 -0.00000000000E+00 -0.30929758706E+03  0.30929758706E+03  0.00000000000E+00 0. -1.
         25    2    1    2    0    0 -0.88052222016E+02  0.46039383784E+01 -0.46989725168E+02  0.16009191925E+03  0.12508796220E+03 0.  0.
         23    2    1    2    0    0  0.88052222016E+02 -0.46039383784E+01 -0.18633377218E+03  0.22517975752E+03  0.90615994674E+02 0.  0.
          5    1    3    3  502    0  0.52569699605E+01 -0.68397676593E+01  0.34378570230E+02  0.35690007647E+02  0.41800000000E+01 0.  1.
         -5    1    3    3    0  502 -0.93309191977E+02  0.11443706038E+02 -0.81368295398E+02  0.12440191161E+03  0.41800000000E+01 0.  1.
        -11    1    4    4    0    0  0.83166976187E+02 -0.28143025298E+02 -0.18007277580E+03  0.20033716676E+03  0.00000000000E+00 0. -1.
         11    1    4    4    0    0  0.48852458293E+01  0.23539086919E+02 -0.62609963748E+01  0.24842590755E+02  0.00000000000E+00 0.  1.
</event>
<event>
 8    1  0.7224924E-009  0.2656296E+03  0.7561462E-02  0.1103807E+00
          2   -1    0    0  501    0  0.00000000000E+00  0.00000000000E+00  0.79664365531E+03  0.79664365531E+03  0.00000000000E+00 0. -1.
         -2   -1    0    0    0  501 -0.00000000000E+00 -0.00000000000E+00 -0.12121961435E+03  0.12121961435E+03  0.00000000000E+00 0.  1.
         25    2    1    2    0    0  0.26228914501E+03 -0.10466982542E+02  0.52932268379E+03  0.60393346000E+03  0.12509183513E+03 0.  0.
         23    2    1    2    0    0 -0.26228914501E+03  0.10466982542E+02  0.14610135717E+03  0.31392980966E+03  0.91110732172E+02 0.  0.
          5    1    3    3  502    0  0.59382885611E+02 -0.19809551439E+02  0.25479596020E+03  0.26240655321E+03  0.41800000000E+01 0.  1.
         -5    1    3    3    0  502  0.20290625940E+03  0.93425688968E+01  0.27452672359E+03  0.34152690679E+03  0.41800000000E+01 0.  1.
        -11    1    4    4    0    0 -0.11352209926E+03 -0.14717165180E+02  0.11006537918E+03  0.15880254931E+03  0.00000000000E+00 0. -1.
         11    1    4    4    0    0 -0.14876704574E+03  0.25184147723E+02  0.36035977983E+02  0.15512726036E+03  0.00000000000E+00 0.  1.
</event>
<event>
 8    1  0.7224924E-009  0.1089671E+03  0.7561462E-02  0.1262495E+00
         -1   -1    0    0    0  501 -0.00000000000E+00  0.00000000000E+00  0.24013418382E+02  0.24013418382E+02  0.00000000000E+00 0.  1.
          1   -1    0    0  501    0  0.00000000000E+00 -0.00000000000E+00 -0.77345510491E+03  0.77345510491E+03  0.00000000000E+00 0. -1.
         25    2    1    2    0    0  0.48823901716E+02 -0.65253684354E+02 -0.45699427438E+03  0.48076432738E+03  0.12509498377E+03 0.  0.
         23    2    1    2    0    0 -0.48823901716E+02  0.65253684354E+02 -0.29244741215E+03  0.31670419591E+03  0.90190033460E+02 0.  0.
          5    1    3    3  502    0 -0.49188823315E+01 -0.47931383409E+02 -0.48957864814E+02  0.68818295867E+02  0.41800000000E+01 0.  1.
         -5    1    3    3    0  502  0.53742784048E+02 -0.17322300945E+02 -0.40803640957E+03  0.41194603152E+03  0.41800000000E+01 0.  1.
        -11    1    4    4    0    0 -0.18820852350E+02  0.78082948875E+02 -0.14569417102E+03  0.16636695242E+03  0.00000000000E+00 0.  1.
         11    1    4    4    0    0 -0.30003049366E+02 -0.12829264521E+02 -0.14675324112E+03  0.15033724349E+03  0.00000000000E+00 0. -1.
</event>
<event>
 8    1  0.7224924E-009  0.1353165E+03  0.7561462E-02  0.1219774E+00
         -1   -1    0    0    0  501 -0.00000000000E+00  0.00000000000E+00  0.45973713508E+02  0.45973713508E+02  0.00000000000E+00 0.  1.
          1   -1    0    0  501    0  0.00000000000E+00 -0.00000000000E+00 -0.67014472879E+03  0.67014472879E+03  0.00000000000E+00 0. -1.
         25    2    1    2    0    0  0.11707169700E+03  0.21089766358E+01 -0.47867050015E+03  0.50841247582E+03  0.12509023879E+03 0.  0.
         23    2    1    2    0    0 -0.11707169700E+03 -0.21089766358E+01 -0.14550051514E+03  0.20770596647E+03  0.90890805824E+02 0.  0.
          5    1    3    3  502    0  0.12138006120E+03  0.72277855371E-02 -0.48467825140E+03  0.49966348585E+03  0.41800000000E+01 0.  1.
         -5    1    3    3    0  502 -0.43083642039E+01  0.21017488503E+01  0.60077512574E+01  0.87489899711E+01  0.41800000000E+01 0.  1.
        -11    1    4    4    0    0 -0.75896836613E+02 -0.40930685748E+02 -0.59535117895E+02  0.10478588219E+03  0.00000000000E+00 0. -1.
         11    1    4    4    0    0 -0.41174860387E+02  0.38821709112E+02 -0.85965397240E+02  0.10292008428E+03  0.00000000000E+00 0.  1.
</event>
<event>
 8    1  0.7224924E-009  0.7299646E+02  0.7561462E-02  0.1350190E+00
         -1   -1    0    0    0  501 -0.00000000000E+00  0.00000000000E+00  0.14578364407E+02  0.14578364407E+02  0.00000000000E+00 0.  1.
          1   -1    0    0  501    0  0.00000000000E+00 -0.00000000000E+00 -0.89191870546E+03  0.89191870546E+03  0.00000000000E+00 0. -1.
         25    2    1    2    0    0 -0.79930662233E+01 -0.37665829806E+02 -0.50581824896E+03  0.52247736072E+03  0.12509151706E+03 0.  0.
         23    2    1    2    0    0  0.79930662233E+01  0.37665829806E+02 -0.37152209209E+03  0.38401970914E+03  0.89218093778E+02 0.  0.
          5    1    3    3  502    0 -0.27568736062E+02 -0.13833646158E+02 -0.48271218021E+03  0.48371471581E+03  0.41800000000E+01 0. -1.
         -5    1    3    3    0  502  0.19575669839E+02 -0.23832183648E+02 -0.23106068757E+02  0.38762644911E+02  0.41800000000E+01 0. -1.
        -11    1    4    4    0    0  0.24812420087E+02 -0.14633112187E+02 -0.48901365831E+02  0.56754979896E+02  0.00000000000E+00 0.  1.
         11    1    4    4    0    0 -0.16819353863E+02  0.52298941993E+02 -0.32262072626E+03  0.32726472924E+03  0.00000000000E+00 0. -1.
</event>
<event>
 8    1  0.7224924E-009  0.1419813E+03  0.7561462E-02  0.1210688E+00
         -1   -1    0    0    0  501 -0.00000000000E+00  0.00000000000E+00  0.33165467873E+02  0.33165467873E+02  0.00000000000E+00 0.  1.
          1   -1    0    0  501    0  0.00000000000E+00 -0.00000000000E+00 -0.65723542225E+03  0.65723542225E+03  0.00000000000E+00 0. -1.
         25    2    1    2    0    0  0.88439298809E+02  0.38518730669E+02 -0.29597116285E+03  0.33548678361E+03  0.12508897054E+03 0.  0.
         23    2    1    2    0    0 -0.88439298809E+02 -0.38518730669E+02 -0.32809879153E+03  0.35491410652E+03  0.94921039892E+02 0.  0.
          5    1    3    3  502    0  0.10679907811E+03  0.58785157243E+02 -0.18859823121E+03  0.22460744202E+03  0.41800000000E+01 0. -1.
         -5    1    3    3    0  502 -0.18359779297E+02 -0.20266426574E+02 -0.10737293163E+03  0.11087934158E+03  0.41800000000E+01 0. -1.
        -11    1    4    4    0    0 -0.34244961497E+02 -0.65400331016E+02 -0.20167354983E+03  0.21476066071E+03  0.00000000000E+00 0.  1.
         11    1    4    4    0    0 -0.54194337312E+02  0.26881600347E+02 -0.12642524170E+03  0.14015344581E+03  0.00000000000E+00 0. -1.
</event>
<event>
 8    1  0.7224924E-009  0.1920405E+03  0.7561462E-02  0.1156634E+00
         -4   -1    0    0    0  501 -0.00000000000E+00  0.00000000000E+00  0.48581997885E+03  0.48581997885E+03  0.00000000000E+00 0.  1.
          4   -1    0    0  501    0  0.00000000000E+00 -0.00000000000E+00 -0.11531109401E+03  0.11531109401E+03  0.00000000000E+00 0. -1.
         25    2    1    2    0    0  0.63390392016E+02  0.17667791737E+03  0.31072123730E+03  0.38396374757E+03  0.12508814433E+03 0.  0.
         23    2    1    2    0    0 -0.63390392016E+02 -0.17667791737E+03  0.59787647542E+02  0.21716732529E+03  0.91398337451E+02 0.  0.
          5    1    3    3  502    0 -0.78163271100E+01  0.45272532778E+01  0.10858623656E+03  0.10904143323E+03  0.41800000000E+01 0. -1.
         -5    1    3    3    0  502  0.71206719126E+02  0.17215066409E+03  0.20213500074E+03  0.27492231434E+03  0.41800000000E+01 0. -1.
        -11    1    4    4    0    0 -0.20046552249E+02 -0.48625195177E+02 -0.24323820203E+02  0.57947580557E+02  0.00000000000E+00 0. -1.
         11    1    4    4    0    0 -0.43343839767E+02 -0.12805272219E+03  0.84111467745E+02  0.15921974473E+03  0.00000000000E+00 0.  1.
</event>
<event>
 8    1  0.7224924E-009  0.1143267E+03  0.7561462E-02  0.1252761E+00
          1   -1    0    0  501    0  0.00000000000E+00  0.00000000000E+00  0.12813650781E+03  0.12813650781E+03  0.00000000000E+00 0. -1.
         -1   -1    0    0    0  501 -0.00000000000E+00 -0.00000000000E+00 -0.12960509870E+03  0.12960509870E+03  0.00000000000E+00 0.  1.
         25    2    1    2    0    0  0.28737732501E+02 -0.29470504241E+02  0.47323815585E+02  0.13993054739E+03  0.12508655676E+03 0.  0.
         23    2    1    2    0    0 -0.28737732501E+02  0.29470504241E+02 -0.48792406479E+02  0.11781105913E+03  0.99017063343E+02 0.  0.
          5    1    3    3  502    0  0.67965367528E+02 -0.52194973344E+02  0.35812792775E+02  0.92971151182E+02  0.41800000000E+01 0.  1.
         -5    1    3    3    0  502 -0.39227635027E+02  0.22724469103E+02  0.11511022809E+02  0.46959396206E+02  0.41800000000E+01 0.  1.
        -11    1    4    4    0    0 -0.54519719345E+02 -0.44755419330E+01 -0.51456238139E+02  0.75101096640E+02  0.00000000000E+00 0.  1.
         11    1    4    4    0    0  0.25781986845E+02  0.33946046174E+02  0.26638316603E+01  0.42709962487E+02  0.00000000000E+00 0. -1.
</event>
<event>
 8    1  0.7224924E-009  0.9316136E+02  0.7561462E-02  0.1295372E+00
         -2   -1    0    0    0  501 -0.00000000000E+00  0.00000000000E+00  0.90863783600E+03  0.90863783600E+03  0.00000000000E+00 0.  1.
          2   -1    0    0  501    0  0.00000000000E+00 -0.00000000000E+00 -0.13034124624E+02  0.13034124624E+02  0.00000000000E+00 0. -1.
         25    2    1    2    0    0 -0.79475600441E+01  0.62515236959E+01  0.59256792138E+03  0.60571173976E+03  0.12509086688E+03 0.  0.
         23    2    1    2    0    0  0.79475600441E+01 -0.62515236959E+01  0.30303578999E+03  0.31596022086E+03  0.88870275627E+02 0.  0.
          5    1    3    3  502    0  0.46919386212E+02  0.18125976516E+02  0.44360795734E+03  0.44647001248E+03  0.41800000000E+01 0. -1.
         -5    1    3    3    0  502 -0.54866946257E+02 -0.11874452820E+02  0.14895996404E+03  0.15924172728E+03  0.41800000000E+01 0. -1.
        -11    1    4    4    0    0  0.37378270396E+02  0.17940057056E+02  0.84442115387E+02  0.94071523831E+02  0.00000000000E+00 0. -1.
         11    1    4    4    0    0 -0.29430710352E+02 -0.24191580752E+02  0.21859367461E+03  0.22188869703E+03  0.00000000000E+00 0.  1.
</event>
<event>
 8    1  0.7224924E-009  0.1205236E+03  0.7561462E-02  0.1242236E+00
          2   -1    0    0  501    0  0.00000000000E+00  0.00000000000E+00  0.26283161171E+03  0.26283161171E+03  0.00000000000E+00 0. -1.
         -2   -1    0    0    0  501 -0.00000000000E+00 -0.00000000000E+00 -0.62172135025E+02  0.62172135025E+02  0.00000000000E+00 0.  1.
         25    2    1    2    0    0 -0.32924574945E+02  0.57085314651E+02  0.12412470881E+03  0.18814142009E+03  0.12508992698E+03 0.  0.
         23    2    1    2    0    0  0.32924574945E+02 -0.57085314651E+02  0.76534767877E+02  0.13686232664E+03  0.92363223072E+02 0.  0.
          5    1    3    3  502    0  0.35362636040E+02  0.63026530809E+02  0.57325520844E+02  0.92339305572E+02  0.41800000000E+01 0.  1.
         -5    1    3    3    0  502 -0.68287210986E+02 -0.59412161577E+01  0.66799187963E+02  0.95802114518E+02  0.41800000000E+01 0.  1.
        -11    1    4    4    0    0  0.18892088338E+02 -0.74934751035E+02  0.82848323378E+02  0.11329595139E+03  0.00000000000E+00 0. -1.
         11    1    4    4    0    0  0.14032486608E+02  0.17849436384E+02 -0.63135555014E+01  0.23566375255E+02  0.00000000000E+00 0.  1.
</event>
<event>
 8    1  0.7224924E-009  0.1065171E+03  0.7561462E-02  0.1267159E+00
          2   -1    0    0  501    0  0.00000000000E+00  0.00000000000E+00  0.60279254912E+03  0.60279254912E+03  0.00000000000E+00 0. -1.
         -2   -1    0    0    0  501 -0.00000000000E+00 -0.00000000000E+00 -0.25313296983E+02  0.25313296983E+02  0.00000000000E+00 0.  1.
         25    2    1    2    0    0  0.34782502589E+02  0.37868755553E+02  0.39663974669E+03  0.41906308563E+03  0.12508763307E+03 0.  0.
         23    2    1    2    0    0 -0.34782502589E+02 -0.37868755553E+02  0.18083950544E+03  0.20904276047E+03  0.91389735983E+02 0.  0.
          5    1    3    3  502    0 -0.37361147128E+02  0.26421223453E+02  0.26036996632E+03  0.26439350999E+03  0.41800000000E+01 0.  1.
         -5    1    3    3    0  502  0.72143649717E+02  0.11447532101E+02  0.13626978037E+03  0.15466957564E+03  0.41800000000E+01 0.  1.
        -11    1    4    4    0    0 -0.25970456095E+02 -0.62541463287E+02  0.79796240164E+02  0.10465820161E+03  0.00000000000E+00 0.  1.
         11    1    4    4    0    0 -0.88120464937E+01  0.24672707734E+02  0.10104326528E+03  0.10438455886E+03  0.00000000000E+00 0. -1.
</event>
<event>
 8    1  0.7224924E-009  0.9799579E+02  0.7561462E-02  0.1284568E+00
          2   -1    0    0  501    0  0.00000000000E+00  0.00000000000E+00  0.11379439203E+03  0.11379439203E+03  0.00000000000E+00 0. -1.
         -2   -1    0    0    0  501 -0.00000000000E+00 -0.00000000000E+00 -0.15066116925E+03  0.15066116925E+03  0.00000000000E+00 0.  1.
         25    2    1    2    0    0 -0.16976530426E+02  0.50405211360E+02 -0.78313188947E+02  0.15686832475E+03  0.12508328357E+03 0.  0.
         23    2    1    2    0    0  0.16976530426E+02 -0.50405211360E+02  0.41446411720E+02  0.10758723653E+03  0.83835079190E+02 0.  0.
          5    1    3    3  502    0 -0.42125990104E+02  0.18152747644E+01  0.17987451432E+02  0.46031674679E+02  0.41800000000E+01 0. -1.
         -5    1    3    3    0  502  0.25149459678E+02  0.48589936595E+02 -0.96300640379E+02  0.11083665007E+03  0.41800000000E+01 0. -1.
        -11    1    4    4    0    0 -0.30204835532E+02 -0.40524656935E+02  0.26788067455E+02  0.57202976035E+02  0.00000000000E+00 0. -1.
         11    1    4    4    0    0  0.47181365958E+02 -0.98805544247E+01  0.14658344265E+02  0.50384260498E+02  0.00000000000E+00 0.  1.
</event>
<event>
 8    1  0.7224924E-009  0.1182707E+03  0.7561462E-02  0.1245977E+00
          2   -1    0    0  501    0  0.00000000000E+00  0.00000000000E+00  0.38383121429E+02  0.38383121429E+02  0.00000000000E+00 0. -1.
         -2   -1    0    0    0  501 -0.00000000000E+00 -0.00000000000E+00 -0.51379842938E+03  0.51379842938E+03  0.00000000000E+00 0.  1.
         25    2    1    2    0    0  0.72312998326E+02  0.42081159400E+02 -0.31899199753E+03  0.35270863920E+03  0.12508995153E+03 0.  0.
         23    2    1    2    0    0 -0.72312998326E+02 -0.42081159400E+02 -0.15642331042E+03  0.19947291161E+03  0.91220593727E+02 0.  0.
          5    1    3    3  502    0  0.30058309567E+02 -0.40141409416E+02 -0.17023517730E+03  0.17751710541E+03  0.41800000000E+01 0. -1.
         -5    1    3    3    0  502  0.42254688760E+02  0.82222568816E+02 -0.14875682023E+03  0.17519153378E+03  0.41800000000E+01 0. -1.
        -11    1    4    4    0    0 -0.42693480778E+02 -0.58514390802E+00 -0.13929160551E+03  0.14568880211E+03  0.00000000000E+00 0.  1.
         11    1    4    4    0    0 -0.29619517549E+02 -0.41496015492E+02 -0.17131704908E+02  0.53784109499E+02  0.00000000000E+00 0. -1.
</event>
<event>
 8    1  0.7224924E-009  0.2167326E+03  0.7561462E-02  0.1136343E+00
          1   -1    0    0  501    0  0.00000000000E+00  0.00000000000E+00  0.84858945583E+03  0.84858945583E+03  0.00000000000E+00 0. -1.
         -1   -1    0    0    0  501 -0.00000000000E+00 -0.00000000000E+00 -0.69595076465E+02  0.69595076465E+02  0.00000000000E+00 0.  1.
         25    2    1    2    0    0  0.15814482055E+03 -0.11733572063E+03  0.56856687235E+03  0.61456757824E+03  0.12509022456E+03 0.  0.
         23    2    1    2    0    0 -0.15814482055E+03  0.11733572063E+03  0.21042750701E+03  0.30361695405E+03  0.95530432214E+02 0.  0.
          5    1    3    3  502    0  0.42304157118E+02 -0.93282075229E+02  0.36456534888E+03  0.37870378038E+03  0.41800000000E+01 0. -1.
         -5    1    3    3    0  502  0.11584066343E+03 -0.24053645401E+02  0.20400152347E+03  0.23586379786E+03  0.41800000000E+01 0. -1.
        -11    1    4    4    0    0  0.61025658473E+01  0.21623302523E+02  0.50201121892E+02  0.54999646918E+02  0.00000000000E+00 0. -1.
         11    1    4    4    0    0 -0.16424738640E+03  0.95712418107E+02  0.16022638511E+03  0.24861730713E+03  0.00000000000E+00 0.  1.
</event>
<event>
 8    1  0.7224924E-009  0.1162413E+03  0.7561462E-02  0.1249430E+00
         -1   -1    0    0    0  501 -0.00000000000E+00  0.00000000000E+00  0.40209095672E+03  0.40209095672E+03  0.00000000000E+00 0.  1.
          1   -1    0    0  501    0  0.00000000000E+00 -0.00000000000E+00 -0.41253393279E+02  0.41253393279E+02  0.00000000000E+00 0. -1.
         25    2    1    2    0    0 -0.11386327159E+02 -0.66536492021E+02  0.22406786314E+03  0.26535018390E+03  0.12509020579E+03 0.  0.
         23    2    1    2    0    0  0.11386327159E+02  0.66536492021E+02  0.13676970030E+03  0.17799416610E+03  0.91756302395E+02 0.  0.
          5    1    3    3  502    0 -0.51759657615E+01  0.37292766122E+02  0.54306702057E+02  0.66213528186E+02  0.41800000000E+01 0. -1.
         -5    1    3    3    0  502 -0.62103613973E+01 -0.10382925814E+03  0.16976116108E+03  0.19913665571E+03  0.41800000000E+01 0. -1.
        -11    1    4    4    0    0 -0.22064935707E+02  0.46601971159E+02  0.12811745179E+03  0.13810389769E+03  0.00000000000E+00 0.  1.
         11    1    4    4    0    0  0.33451262866E+02  0.19934520862E+02  0.86522485018E+01  0.39890268405E+02  0.00000000000E+00 0. -1.
</event>
<event>
 8    1  0.7224924E-009  0.4276975E+03  0.7561462E-02  0.1034590E+00
          1   -1    0    0  501    0  0.00000000000E+00  0.00000000000E+00  0.38133834459E+03  0.38133834459E+03  0.00000000000E+00 0. -1.
         -1   -1    0    0    0  501 -0.00000000000E+00 -0.00000000000E+00 -0.60615926700E+03  0.60615926700E+03  0.00000000000E+00 0.  1.
         25    2    1    2    0    0 -0.17003040810E+03  0.38456393006E+03 -0.32467198748E+03  0.54576729329E+03  0.12510109105E+03 0.  0.
         23    2    1    2    0    0  0.17003040810E+03 -0.38456393006E+03  0.99851065063E+02  0.44173031831E+03  0.91409424732E+02 0.  0.
          5    1    3    3  502    0 -0.99710035702E+02  0.30446901396E+03 -0.29381509521E+03  0.43472779328E+03  0.41800000000E+01 0. -1.
         -5    1    3    3    0  502 -0.70320372401E+02  0.80094916101E+02 -0.30856892272E+02  0.11103950000E+03  0.41800000000E+01 0. -1.
        -11    1    4    4    0    0  0.64844829553E+02 -0.64681250315E+02  0.38985945358E+02  0.99541046797E+02  0.00000000000E+00 0. -1.
         11    1    4    4    0    0  0.10518557855E+03 -0.31988267975E+03  0.60865119705E+02  0.34218927151E+03  0.00000000000E+00 0.  1.
</event>
<event>
 8    1  0.7224924E-009  0.6666180E+02  0.7561462E-02  0.1371827E+00
          2   -1    0    0  501    0  0.00000000000E+00  0.00000000000E+00  0.87148126141E+02  0.87148126141E+02  0.00000000000E+00 0. -1.
         -2   -1    0    0    0  501 -0.00000000000E+00 -0.00000000000E+00 -0.13740839297E+03  0.13740839297E+03  0.00000000000E+00 0.  1.
         25    2    1    2    0    0  0.13953209854E+01  0.75049754712E+01 -0.10634928475E+02  0.12578595577E+03  0.12510289121E+03 0.  0.
         23    2    1    2    0    0 -0.13953209854E+01 -0.75049754712E+01 -0.39625338356E+02  0.98770563340E+02  0.90150902187E+02 0.  0.
          5    1    3    3  502    0 -0.19320520652E+02 -0.25143450472E+02 -0.56944578163E+02  0.65311813649E+02  0.41800000000E+01 0.  1.
         -5    1    3    3    0  502  0.20715841637E+02  0.32648425943E+02  0.46309649688E+02  0.60474142123E+02  0.41800000000E+01 0.  1.
        -11    1    4    4    0    0  0.12466533856E+02  0.24544989918E+02  0.16919040564E+02  0.32312922029E+02  0.00000000000E+00 0. -1.
         11    1    4    4    0    0 -0.13861854841E+02 -0.32049965389E+02 -0.56544378920E+02  0.66457641310E+02  0.00000000000E+00 0.  1.
</event>
<event>
 8    1  0.7224924E-009  0.1376843E+03  0.7561462E-02  0.1216479E+00
          1   -1    0    0  501    0  0.00000000000E+00  0.00000000000E+00  0.11249348756E+03  0.11249348756E+03  0.00000000000E+00 0. -1.
         -1   -1    0    0    0  501 -0.00000000000E+00 -0.00000000000E+00 -0.22289929463E+03  0.22289929463E+03  0.00000000000E+00 0.  1.
         25    2    1    2    0    0 -0.10972520441E+03 -0.33110885057E+02 -0.66351878277E+02  0.18216912769E+03  0.12508824141E+03 0.  0.
         23    2    1    2    0    0  0.10972520441E+03  0.33110885057E+02 -0.44053928786E+02  0.15322365451E+03  0.91655815231E+02 0.  0.
          5    1    3    3  502    0 -0.12089497458E+03 -0.98927153075E+01 -0.86629536459E+02  0.14911609464E+03  0.41800000000E+01 0.  1.
         -5    1    3    3    0  502  0.11169770164E+02 -0.23218169750E+02  0.20277658182E+02  0.33053033044E+02  0.41800000000E+01 0.  1.
        -11    1    4    4    0    0  0.11185532188E+03  0.18796759336E+02 -0.62715928533E+02  0.12960794299E+03  0.00000000000E+00 0.  1.
         11    1    4    4    0    0 -0.21301174711E+01  0.14314125721E+02  0.18661999747E+02  0.23615711511E+02  0.00000000000E+00 0. -1.
</event>
<event>
 8    1  0.7224924E-009  0.1130339E+03  0.7561462E-02  0.1255052E+00
         -3   -1    0    0    0  501 -0.00000000000E+00  0.00000000000E+00  0.22774388010E+02  0.22774388010E+02  0.00000000000E+00 0.  1.
          3   -1    0    0  501    0  0.00000000000E+00 -0.00000000000E+00 -0.77521012712E+03  0.77521012712E+03  0.00000000000E+00 0. -1.
         25    2    1    2    0    0 -0.51638837411E+02  0.58088249850E+02 -0.41274517518E+03  0.43823142301E+03  0.12508951267E+03 0.  0.
         23    2    1    2    0    0  0.51638837411E+02 -0.58088249850E+02 -0.33969056393E+03  0.35975309212E+03  0.89396833094E+02 0.  0.
          5    1    3    3  502    0  0.19027213528E+02 -0.78696378200E+01 -0.23432464773E+03  0.23526469984E+03  0.41800000000E+01 0. -1.
         -5    1    3    3    0  502 -0.70666050940E+02  0.65957887670E+02 -0.17842052745E+03  0.20296672318E+03  0.41800000000E+01 0. -1.
        -11    1    4    4    0    0  0.63746304164E+01 -0.62499190583E+02 -0.12049219442E+03  0.13588654699E+03  0.00000000000E+00 0.  1.
         11    1    4    4    0    0  0.45264206995E+02  0.44109407331E+01 -0.21919836951E+03  0.22386654513E+03  0.00000000000E+00 0. -1.
</event>
<event>
 8    1  0.7224924E-009  0.1054732E+03  0.7561462E-02  0.1269190E+00
         -2   -1    0    0    0  501 -0.00000000000E+00  0.00000000000E+00  0.38174539533E+03  0.38174539533E+03  0.00000000000E+00 0.  1.
          2   -1    0    0  501    0  0.00000000000E+00 -0.00000000000E+00 -0.48972496371E+02  0.48972496371E+02  0.00000000000E+00 0. -1.
         25    2    1    2    0    0  0.72761961797E+02 -0.35666009343E+01  0.11992162526E+03  0.18797508598E+03  0.12508562275E+03 0.  0.
         23    2    1    2    0    0 -0.72761961797E+02  0.35666009343E+01  0.21285127369E+03  0.24274280572E+03  0.91166777319E+02 0.  0.
          5    1    3    3  502    0  0.82810890377E+02 -0.33590312949E+02  0.12692097374E+03  0.15528154644E+03  0.41800000000E+01 0.  1.
         -5    1    3    3    0  502 -0.10048928580E+02  0.30023712014E+02 -0.69993484796E+01  0.32693539543E+02  0.41800000000E+01 0.  1.
        -11    1    4    4    0    0 -0.96345149123E+01 -0.19973228284E+02  0.30441465263E+01  0.22383488418E+02  0.00000000000E+00 0. -1.
         11    1    4    4    0    0 -0.63127446884E+02  0.23539829218E+02  0.20980712717E+03  0.22035931730E+03  0.00000000000E+00 0.  1.
</event>
<event>
 8    1  0.7224924E-009  0.9770768E+02  0.7561462E-02  0.1285192E+00
          2   -1    0    0  501    0  0.00000000000E+00  0.00000000000E+00  0.36290556356E+03  0.36290556356E+03  0.00000000000E+00 0. -1.
         -2   -1    0    0    0  501 -0.00000000000E+00 -0.00000000000E+00 -0.13439261344E+03  0.13439261344E+03  0.00000000000E+00 0.  1.
         25    2    1    2    0    0 -0.53082491648E+02  0.77275184982E+02  0.30736550534E+03  0.34483715840E+03  0.12509958755E+03 0.  0.
         23    2    1    2    0    0  0.53082491648E+02 -0.77275184982E+02 -0.78852555225E+02  0.15246101860E+03  0.90760297460E+02 0.  0.
          5    1    3    3  502    0 -0.76441038415E+01  0.67434320989E+00  0.21944210966E+03  0.21961602618E+03  0.41800000000E+01 0. -1.
         -5    1    3    3    0  502 -0.45438387806E+02  0.76600841772E+02  0.87923395680E+02  0.12522113222E+03  0.41800000000E+01 0. -1.
        -11    1    4    4    0    0  0.30174783161E+02 -0.64682146934E+02 -0.21286695978E+01  0.71406084510E+02  0.00000000000E+00 0. -1.
         11    1    4    4    0    0  0.22907708487E+02 -0.12593038048E+02 -0.76723885627E+02  0.81054934094E+02  0.00000000000E+00 0.  1.
</event>
<event>
 8    1  0.7224924E-009  0.1373472E+03  0.7561462E-02  0.1216944E+00
          1   -1    0    0  501    0  0.00000000000E+00  0.00000000000E+00  0.46495416288E+02  0.46495416288E+02  0.00000000000E+00 0. -1.
         -1   -1    0    0    0  501 -0.00000000000E+00 -0.00000000000E+00 -0.50253514564E+03  0.50253514564E+03  0.00000000000E+00 0.  1.
         25    2    1    2    0    0  0.64875072411E+02  0.84126620425E+02 -0.23762203400E+03  0.28878774720E+03  0.12509224040E+03 0.  0.
         23    2    1    2    0    0 -0.64875072411E+02 -0.84126620425E+02 -0.21841769535E+03  0.26024281473E+03  0.93455709769E+02 0.  0.
          5    1    3    3  502    0  0.10172183151E+02  0.10035740375E+03 -0.18645190241E+03  0.21203034243E+03  0.41800000000E+01 0.  1.
         -5    1    3    3    0  502  0.54702889260E+02 -0.16230783328E+02 -0.51170131592E+02  0.76757404776E+02  0.41800000000E+01 0.  1.
        -11    1    4    4    0    0 -0.62847302388E+02 -0.44886047972E+02 -0.20443430076E+03  0.21853586444E+03  0.00000000000E+00 0.  1.
         11    1    4    4    0    0 -0.20277700233E+01 -0.39240572453E+02 -0.13983394595E+02  0.41706950285E+02  0.00000000000E+00 0. -1.
</event>
<event>
 8    1  0.7224924E-009  0.7391556E+02  0.7561462E-02  0.1347262E+00
          2   -1    0    0  501    0  0.00000000000E+00  0.00000000000E+00  0.29700201297E+03  0.29700201297E+03  0.00000000000E+00 0. -1.
         -2   -1    0    0    0  501 -0.00000000000E+00 -0.00000000000E+00 -0.64631679787E+02  0.64631679787E+02  0.00000000000E+00 0.  1.
         25    2    1    2    0    0  0.44579069008E+02  0.35295697526E+02  0.41492292305E+02  0.14353880044E+03  0.12509475311E+03 0.  0.
         23    2    1    2    0    0 -0.44579069008E+02 -0.35295697526E+02  0.19087804087E+03  0.21809489231E+03  0.88869994408E+02 0.  0.
          5    1    3    3  502    0  0.89226375547E+01  0.14323617946E+02 -0.44634823779E+02  0.47901141800E+02  0.41800000000E+01 0. -1.
         -5    1    3    3    0  502  0.35656431453E+02  0.20972079580E+02  0.86127116084E+02  0.95637658643E+02  0.41800000000E+01 0. -1.
        -11    1    4    4    0    0 -0.16071461571E+02 -0.52951055596E+02  0.54549224642E+02  0.77702793225E+02  0.00000000000E+00 0.  1.
         11    1    4    4    0    0 -0.28507607437E+02  0.17655358070E+02  0.13632881623E+03  0.14039209908E+03  0.00000000000E+00 0. -1.
</event>
<event>
 8    1  0.7224924E-009  0.9670688E+02  0.7561462E-02  0.1287377E+00
         -1   -1    0    0    0  501 -0.00000000000E+00  0.00000000000E+00  0.18267138082E+02  0.18267138082E+02  0.00000000000E+00 0.  1.
          1   -1    0    0  501    0  0.00000000000E+00 -0.00000000000E+00 -0.80437311411E+03  0.80437311411E+03  0.00000000000E+00 0. -1.
         25    2    1    2    0    0 -0.38734358309E+02  0.89073760101E+01 -0.55550910958E+03  0.57080357341E+03  0.12508659689E+03 0.  0.
         23    2    1    2    0    0  0.38734358309E+02 -0.89073760101E+01 -0.23059686645E+03  0.25183667879E+03  0.93097293768E+02 0.  0.
          5    1    3    3  502    0  0.26961248402E+02 -0.32248480292E+02 -0.32124696082E+03  0.32401227698E+03  0.41800000000E+01 0.  1.
         -5    1    3    3    0  502 -0.65695606711E+02  0.41155856302E+02 -0.23426214876E+03  0.24679129643E+03  0.41800000000E+01 0.  1.
        -11    1    4    4    0    0  0.21747018921E+02  0.26490928157E+02 -0.19759657175E+03  0.20054702011E+03  0.00000000000E+00 0. -1.
         11    1    4    4    0    0  0.16987339389E+02 -0.35398304167E+02 -0.33000294692E+02  0.51289658677E+02  0.00000000000E+00 0.  1.
</event>
<event>
 8    1  0.7224924E-009  0.1498745E+03  0.7561462E-02  0.1200627E+00
          1   -1    0    0  501    0  0.00000000000E+00  0.00000000000E+00  0.32340252835E+03  0.32340252835E+03  0.00000000000E+00 0. -1.
         -1   -1    0    0    0  501 -0.00000000000E+00 -0.00000000000E+00 -0.71345830866E+02  0.71345830866E+02  0.00000000000E+00 0.  1.
         25    2    1    2    0    0  0.10374444834E+03 -0.11430066664E+01  0.16057648275E+03  0.22846637420E+03  0.12509140780E+03 0.  0.
         23    2    1    2    0    0 -0.10374444834E+03  0.11430066664E+01  0.91480214736E+02  0.16628198501E+03  0.92286791178E+02 0.  0.
          5    1    3    3  502    0  0.13156800666E+03  0.75564957794E+01  0.14133276874E+03  0.19328648408E+03  0.41800000000E+01 0.  1.
         -5    1    3    3    0  502 -0.27823558327E+02 -0.86995024458E+01  0.19243714004E+02  0.35179890129E+02  0.41800000000E+01 0.  1.
        -11    1    4    4    0    0 -0.85296379104E+02  0.40917810580E+02  0.56479859422E+02  0.11018037044E+03  0.00000000000E+00 0.  1.
         11    1    4    4    0    0 -0.18448069232E+02 -0.39774803914E+02  0.35000355314E+02  0.56101614565E+02  0.00000000000E+00 0. -1.
</event>
<event>
 8    1  0.7224924E-009  0.9430731E+02  0.7561462E-02  0.1292744E+00
         -2   -1    0    0    0  501 -0.00000000000E+00  0.00000000000E+00  0.46435460145E+02  0.46435460145E+02  0.00000000000E+00 0.  1.
          2   -1    0    0  501    0  0.00000000000E+00 -0.00000000000E+00 -0.36403583292E+03  0.36403583292E+03  0.00000000000E+00 0. -1.
         25    2    1    2    0    0 -0.36417238225E+01 -0.66795409767E+02 -0.21112253165E+03  0.25435299105E+03  0.12509129373E+03 0.  0.
         23    2    1    2    0    0  0.36417238225E+01  0.66795409767E+02 -0.10647784112E+03  0.15611830201E+03  0.92522995275E+02 0.  0.
          5    1    3    3  502    0  0.39344885263E+01 -0.67826111621E+02 -0.22659357755E+03  0.23659666820E+03  0.41800000000E+01 0. -1.
         -5    1    3    3    0  502 -0.75762123488E+01  0.10307018538E+01  0.15471045899E+02  0.17756322848E+02  0.41800000000E+01 0. -1.
        -11    1    4    4    0    0  0.86632513868E+01 -0.21611180062E+02 -0.36331368352E+02  0.43151632119E+02  0.00000000000E+00 0.  1.
         11    1    4    4    0    0 -0.50215275644E+01  0.88406589829E+02 -0.70146472768E+02  0.11296666989E+03  0.00000000000E+00 0. -1.
</event>
<event>
 8    1  0.7224924E-009  0.2091505E+03  0.7561462E-02  0.1142240E+00
         -2   -1    0    0    0  501 -0.00000000000E+00  0.00000000000E+00  0.83850483582E+02  0.83850483582E+02  0.00000000000E+00 0.  1.
          2   -1    0    0  501    0  0.00000000000E+00 -0.00000000000E+00 -0.59224674387E+03  0.59224674387E+03  0.00000000000E+00 0. -1.
         25    2    1    2    0    0  0.28458925251E+02 -0.18957304002E+03 -0.31617979762E+03  0.39033904105E+03  0.12508818737E+03 0.  0.
         23    2    1    2    0    0 -0.28458925251E+02  0.18957304002E+03 -0.19221646267E+03  0.28575818640E+03  0.89234100223E+02 0.  0.
          5    1    3    3  502    0 -0.25109609989E+02 -0.11362684602E+03 -0.25115446138E+03  0.27683494816E+03  0.41800000000E+01 0. -1.
         -5    1    3    3    0  502  0.53568535240E+02 -0.75946194003E+02 -0.65025336233E+02  0.11350409289E+03  0.41800000000E+01 0. -1.
        -11    1    4    4    0    0 -0.39911824046E+02  0.19283166544E+03 -0.16829551061E+03  0.25903741773E+03  0.00000000000E+00 0.  1.
         11    1    4    4    0    0  0.11452898795E+02 -0.32586254184E+01 -0.23920952067E+02  0.26720768668E+02  0.00000000000E+00 0. -1.
</event>
<event>
 8    1  0.7224924E-009  0.1008882E+03  0.7561462E-02  0.1278439E+00
          1   -1    0    0  501    0  0.00000000000E+00  0.00000000000E+00  0.67986023059E+03  0.67986023059E+03  0.00000000000E+00 0. -1.
         -1   -1    0    0    0  501 -0.00000000000E+00 -0.00000000000E+00 -0.18378523346E+02  0.18378523346E+02  0.00000000000E+00 0.  1.
         25    2    1    2    0    0  0.21302700975E+02  0.15994396137E+02  0.43808335462E+03  0.45637107972E+03  0.12509161054E+03 0.  0.
         23    2    1    2    0    0 -0.21302700975E+02 -0.15994396137E+02  0.22339835262E+03  0.24186767422E+03  0.88789200365E+02 0.  0.
          5    1    3    3  502    0  0.48708282020E+02 -0.29637781812E+02  0.10997774224E+03  0.12394946969E+03  0.41800000000E+01 0.  1.
         -5    1    3    3    0  502 -0.27405581045E+02  0.45632177949E+02  0.32810561238E+03  0.33242161002E+03  0.41800000000E+01 0.  1.
        -11    1    4    4    0    0 -0.52958027652E+02 -0.24624284993E+02  0.16276916879E+03  0.17292978463E+03  0.00000000000E+00 0.  1.
         11    1    4    4    0    0  0.31655326677E+02  0.86298888557E+01  0.60629183833E+02  0.68937889589E+02  0.00000000000E+00 0. -1.
</event>
<event>
 8    1  0.7224924E-009  0.1032765E+03  0.7561462E-02  0.1273553E+00
         -1   -1    0    0    0  501 -0.00000000000E+00  0.00000000000E+00  0.11005040479E+03  0.11005040479E+03  0.00000000000E+00 0.  1.
          1   -1    0    0  501    0  0.00000000000E+00 -0.00000000000E+00 -0.16505928829E+03  0.16505928829E+03  0.00000000000E+00 0. -1.
         25    2    1    2    0    0 -0.21471938885E+02 -0.47903690140E+02  0.32338008479E+02  0.13945963319E+03  0.12508970704E+03 0.  0.
         23    2    1    2    0    0  0.21471938885E+02  0.47903690140E+02 -0.87346891978E+02  0.13565005989E+03  0.89530171012E+02 0.  0.
          5    1    3    3  502    0 -0.31883892904E+02 -0.74236349707E+02 -0.16767353171E+02  0.82621031081E+02  0.41800000000E+01 0. -1.
         -5    1    3    3    0  502  0.10411954019E+02  0.26332659567E+02  0.49105361650E+02  0.56838602104E+02  0.41800000000E+01 0. -1.
        -11    1    4    4    0    0  0.38213846027E+02 -0.76797725659E+01 -0.12506388598E+02  0.40935152261E+02  0.00000000000E+00 0.  1.
         11    1    4    4    0    0 -0.16741907142E+02  0.55583462706E+02 -0.74840503380E+02  0.94714907630E+02  0.00000000000E+00 0. -1.
</event>
<event>
 8    1  0.7224924E-009  0.1370493E+03  0.7561462E-02  0.1217355E+00
          3   -1    0    0  501    0  0.00000000000E+00  0.00000000000E+00  0.81863607711E+02  0.81863607711E+02  0.00000000000E+00 0. -1.
         -3   -1    0    0    0  501 -0.00000000000E+00 -0.00000000000E+00 -0.42332442600E+03  0.42332442600E+03  0.00000000000E+00 0.  1.
         25    2    1    2    0    0 -0.44298728365E+02  0.12408264255E+03 -0.27841743108E+03  0.33244997208E+03  0.12509132059E+03 0.  0.
         23    2    1    2    0    0  0.44298728365E+02 -0.12408264255E+03 -0.63043387204E+02  0.17273806163E+03  0.92223043486E+02 0.  0.
          5    1    3    3  502    0 -0.36220459975E+02  0.35248251937E+02 -0.21993261188E+03  0.22570375972E+03  0.41800000000E+01 0.  1.
         -5    1    3    3    0  502 -0.80782683897E+01  0.88834390609E+02 -0.58484819207E+02  0.10674621236E+03  0.41800000000E+01 0.  1.
        -11    1    4    4    0    0  0.34862996904E+01 -0.44618379869E+02 -0.70055931180E+02  0.83131146997E+02  0.00000000000E+00 0.  1.
         11    1    4    4    0    0  0.40812428674E+02 -0.79464262677E+02  0.70125439753E+01  0.89606914634E+02  0.00000000000E+00 0. -1.
</event>
<event>
 8    1  0.7224924E-009  0.9376583E+02  0.7561462E-02  0.1293980E+00
          2   -1    0    0  501    0  0.00000000000E+00  0.00000000000E+00  0.87184275829E+03  0.87184275829E+03  0.00000000000E+00 0. -1.
         -2   -1    0    0    0  501 -0.00000000000E+00 -0.00000000000E+00 -0.23147445199E+02  0.23147445199E+02  0.00000000000E+00 0.  1.
         25    2    1    2    0    0  0.36175419645E+02  0.10004160165E+02  0.71622503688E+03  0.72803402797E+03  0.12508596328E+03 0.  0.
         23    2    1    2    0    0 -0.36175419645E+02 -0.10004160165E+02  0.13247027621E+03  0.16695617552E+03  0.94431172077E+02 0.  0.
          5    1    3    3  502    0 -0.29562664629E+02  0.19207494824E+02  0.51247286818E+03  0.51370107263E+03  0.41800000000E+01 0.  1.
         -5    1    3    3    0  502  0.65738084274E+02 -0.92033346588E+01  0.20375216870E+03  0.21433295534E+03  0.41800000000E+01 0.  1.
        -11    1    4    4    0    0 -0.22469441853E+02 -0.43702556025E+02  0.11796673349E+03  0.12779256407E+03  0.00000000000E+00 0. -1.
         11    1    4    4    0    0 -0.13705977792E+02  0.33698395860E+02  0.14503542712E+02  0.39163611452E+02  0.00000000000E+00 0.  1.
</event>
<event>
 8    1  0.7224924E-009  0.2371053E+03  0.7561462E-02  0.1121736E+00
          1   -1    0    0  501    0  0.00000000000E+00  0.00000000000E+00  0.31586453838E+03  0.31586453838E+03  0.00000000000E+00 0. -1.
         -1   -1    0    0    0  501 -0.00000000000E+00 -0.00000000000E+00 -0.20381006830E+03  0.20381006830E+03  0.00000000000E+00 0.  1.
         25    2    1    2    0    0 -0.12697848711E+03 -0.19042148513E+03  0.46767766413E+02  0.26499147142E+03  0.12509747306E+03 0.  0.
         23    2    1    2    0    0  0.12697848711E+03  0.19042148513E+03  0.65286703665E+02  0.25468313526E+03  0.90649145207E+02 0.  0.
          5    1    3    3  502    0 -0.11416012828E+03 -0.15512249508E+03  0.85600136879E+02  0.21080886889E+03  0.41800000000E+01 0.  1.
         -5    1    3    3    0  502 -0.12818358829E+02 -0.35298990043E+02 -0.38832370465E+02  0.54182602531E+02  0.41800000000E+01 0.  1.
        -11    1    4    4    0    0  0.55458909183E+02  0.15366179157E+03  0.26848651323E+02  0.16555508713E+03  0.00000000000E+00 0.  1.
         11    1    4    4    0    0  0.71519577923E+02  0.36759693558E+02  0.38438052342E+02  0.89128048137E+02  0.00000000000E+00 0. -1.
</event>
<event>
 8    1  0.7224924E-009  0.2459966E+03  0.7561462E-02  0.1115861E+00
         -1   -1    0    0    0  501 -0.00000000000E+00  0.00000000000E+00  0.72096178280E+02  0.72096178280E+02  0.00000000000E+00 0.  1.
          1   -1    0    0  501    0  0.00000000000E+00 -0.00000000000E+00 -0.91321850736E+03  0.91321850736E+03  0.00000000000E+00 0. -1.
         25    2    1    2    0    0  0.14398027563E+03 -0.17889055701E+03 -0.49834271770E+03  0.56278000218E+03  0.12507483922E+03 0.  0.
         23    2    1    2    0    0 -0.14398027563E+03  0.17889055701E+03 -0.34277961138E+03  0.42253468346E+03  0.91134766120E+02 0.  0.
          5    1    3    3  502    0 -0.13752899023E+02 -0.46682870474E+02 -0.52505348592E+02  0.71712737070E+02  0.41800000000E+01 0. -1.
         -5    1    3    3    0  502  0.15773317465E+03 -0.13220768653E+03 -0.44583736911E+03  0.49106726511E+03  0.41800000000E+01 0. -1.
        -11    1    4    4    0    0 -0.26071184399E+02  0.77559907157E+02 -0.66184015902E+02  0.10524053314E+03  0.00000000000E+00 0.  1.
         11    1    4    4    0    0 -0.11790909123E+03  0.10133064985E+03 -0.27659559548E+03  0.31729415033E+03  0.00000000000E+00 0. -1.
</event>
<event>
 8    1  0.7224924E-009  0.9024758E+02  0.7561462E-02  0.1302253E+00
          1   -1    0    0  501    0  0.00000000000E+00  0.00000000000E+00  0.17944078735E+03  0.17944078735E+03  0.00000000000E+00 0. -1.
         -1   -1    0    0    0  501 -0.00000000000E+00 -0.00000000000E+00 -0.72701011346E+02  0.72701011346E+02  0.00000000000E+00 0.  1.
         25    2    1    2    0    0 -0.37514741139E+02  0.32458999972E+00  0.35529432262E+02  0.13534000864E+03  0.12508843360E+03 0.  0.
         23    2    1    2    0    0  0.37514741139E+02 -0.32458999972E+00  0.71210343737E+02  0.11680179005E+03  0.84642093210E+02 0.  0.
          5    1    3    3  502    0 -0.83907058019E+02  0.39816919949E-01  0.23101841190E+02  0.87129578428E+02  0.41800000000E+01 0.  1.
         -5    1    3    3    0  502  0.46392316880E+02  0.28477307977E+00  0.12427591073E+02  0.48210430210E+02  0.41800000000E+01 0.  1.
        -11    1    4    4    0    0  0.72672590626E+01  0.14499039793E+02 -0.16323326207E+02  0.23010566870E+02  0.00000000000E+00 0.  1.
         11    1    4    4    0    0  0.30247482076E+02 -0.14823629793E+02  0.87533669945E+02  0.93791223183E+02  0.00000000000E+00 0. -1.
</event>
<event>
 8    1  0.7224924E-009  0.9964388E+02  0.7561462E-02  0.1281047E+00
          2   -1    0    0  501    0  0.00000000000E+00  0.00000000000E+00  0.72189805088E+02  0.72189805088E+02  0.00000000000E+00 0.  1.
         -2   -1    0    0    0  501 -0.00000000000E+00 -0.00000000000E+00 -0.20420814544E+03  0.20420814544E+03  0.00000000000E+00 0. -1.
         25    2    1    2    0    0  0.12412337678E+02 -0.43149054810E+02 -0.11005250871E+03  0.17254934240E+03  0.12508322761E+03 0.  0.
         23    2    1    2    0    0 -0.12412337678E+02  0.43149054810E+02 -0.21965831642E+02  0.10384860813E+03  0.91028174721E+02 0.  0.
          5    1    3    3  502    0 -0.54084143922E+02 -0.27937968403E+02 -0.71819306638E+02  0.94239640854E+02  0.41800000000E+01 0. -1.
         -5    1    3    3    0  502  0.66496481601E+02 -0.15211086407E+02 -0.38233202070E+02  0.78309701541E+02  0.41800000000E+01 0. -1.
        -11    1    4    4    0    0  0.18396051892E+02  0.19714441973E+01 -0.44127848719E+02  0.47849434166E+02  0.00000000000E+00 0. -1.
         11    1    4    4    0    0 -0.30808389570E+02  0.41177610613E+02  0.22162017077E+02  0.55999173964E+02  0.00000000000E+00 0.  1.
</event>
<event>
 8    1  0.7224924E-009  0.1494060E+03  0.7561462E-02  0.1201205E+00
         -2   -1    0    0    0  501 -0.00000000000E+00  0.00000000000E+00  0.21691881070E+03  0.21691881070E+03  0.00000000000E+00 0.  1.
          2   -1    0    0  501    0  0.00000000000E+00 -0.00000000000E+00 -0.10626071903E+03  0.10626071903E+03  0.00000000000E+00 0. -1.
         25    2    1    2    0    0  0.64850003488E+01 -0.10554239919E+03  0.49172175359E+02  0.17101587846E+03  0.12508906667E+03 0.  0.
         23    2    1    2    0    0 -0.64850003488E+01  0.10554239919E+03  0.61485916316E+02  0.15216365127E+03  0.90509698966E+02 0.  0.
          5    1    3    3  502    0  0.28912403780E+02  0.20503636147E+02  0.99412354716E+01  0.37048977722E+02  0.41800000000E+01 0. -1.
         -5    1    3    3    0  502 -0.22427403431E+02 -0.12604603534E+03  0.39230939887E+02  0.13396690074E+03  0.41800000000E+01 0. -1.
        -11    1    4    4    0    0  0.37224598382E+02  0.30243366262E+02  0.46455194409E+01  0.48186230174E+02  0.00000000000E+00 0.  1.
         11    1    4    4    0    0 -0.43709598731E+02  0.75299032929E+02  0.56840396875E+02  0.10397742110E+03  0.00000000000E+00 0. -1.
</event>
<event>
 8    1  0.7224924E-009  0.1088237E+03  0.7561462E-02  0.1262764E+00
         -4   -1    0    0    0  501 -0.00000000000E+00  0.00000000000E+00  0.20724179290E+02  0.20724179290E+02  0.00000000000E+00 0.  1.
          4   -1    0    0  501    0  0.00000000000E+00 -0.00000000000E+00 -0.58242804554E+03  0.58242804554E+03  0.00000000000E+00 0. -1.
         25    2    1    2    0    0 -0.22498692460E+02 -0.90166506089E+01 -0.32869957941E+03  0.35253294634E+03  0.12509425886E+03 0.  0.
         23    2    1    2    0    0  0.22498692460E+02  0.90166506089E+01 -0.23300428683E+03  0.25061927848E+03  0.89059159631E+02 0.  0.
          5    1    3    3  502    0 -0.31956947269E+02 -0.63869075660E+02 -0.19008004822E+03  0.20309702715E+03  0.41800000000E+01 0. -1.
         -5    1    3    3    0  502  0.94582548093E+01  0.54852425051E+02 -0.13861953119E+03  0.14943591919E+03  0.41800000000E+01 0. -1.
        -11    1    4    4    0    0  0.44049968136E+02  0.35193001172E+02 -0.16947848302E+03  0.17861103894E+03  0.00000000000E+00 0. -1.
         11    1    4    4    0    0 -0.21551275676E+02 -0.26176350563E+02 -0.63525803812E+02  0.72008239542E+02  0.00000000000E+00 0.  1.
</event>
<event>
 8    1  0.7224924E-009  0.1176176E+03  0.7561462E-02  0.1247080E+00
         -2   -1    0    0    0  501 -0.00000000000E+00  0.00000000000E+00  0.65428871365E+03  0.65428871365E+03  0.00000000000E+00 0.  1.
          2   -1    0    0  501    0  0.00000000000E+00 -0.00000000000E+00 -0.33203290360E+02  0.33203290360E+02  0.00000000000E+00 0. -1.
         25    2    1    2    0    0  0.49447395433E+01 -0.73684927640E+02  0.17920306699E+03  0.23068467254E+03  0.12509100653E+03 0.  0.
         23    2    1    2    0    0 -0.49447395433E+01  0.73684927640E+02  0.44188235630E+03  0.45680733147E+03  0.89213240441E+02 0.  0.
          5    1    3    3  502    0  0.34022916642E+02  0.15124434453E+02  0.10437465042E+03  0.11089566008E+03  0.41800000000E+01 0.  1.
         -5    1    3    3    0  502 -0.29078177099E+02 -0.88809362093E+02  0.74828416575E+02  0.11978901246E+03  0.41800000000E+01 0.  1.
        -11    1    4    4    0    0  0.31630915806E+02  0.54274635708E+02  0.35557134747E+03  0.36107787811E+03  0.00000000000E+00 0. -1.
         11    1    4    4    0    0 -0.36575655349E+02  0.19410291932E+02  0.86311008827E+02  0.95729453366E+02  0.00000000000E+00 0.  1.
</event>
<event>
 8    1  0.7224924E-009  0.7053315E+02  0.7561462E-02  0.1358289E+00
          1   -1    0    0  501    0  0.00000000000E+00  0.00000000000E+00  0.25806398101E+02  0.25806398101E+02  0.00000000000E+00 0. -1.
         -1   -1    0    0    0  501 -0.00000000000E+00 -0.00000000000E+00 -0.45818409427E+03  0.45818409427E+03  0.00000000000E+00 0.  1.
         25    2    1    2    0    0  0.19774655797E+02 -0.14349634384E+02 -0.27800237052E+03  0.30582572254E+03  0.12508839089E+03 0.  0.
         23    2    1    2    0    0 -0.19774655797E+02  0.14349634384E+02 -0.15437532564E+03  0.17816476982E+03  0.85521897897E+02 0.  0.
          5    1    3    3  502    0 -0.98703163684E+01 -0.30131505108E+02 -0.70258025057E+01  0.32743931440E+02  0.41800000000E+01 0.  1.
         -5    1    3    3    0  502  0.29644972166E+02  0.15781870724E+02 -0.27097656802E+03  0.27308179110E+03  0.41800000000E+01 0.  1.
        -11    1    4    4    0    0  0.17167929717E+02  0.30439707159E+02 -0.12068037861E+03  0.12563863802E+03  0.00000000000E+00 0.  1.
         11    1    4    4    0    0 -0.36942585514E+02 -0.16090072775E+02 -0.33694947031E+02  0.52526131799E+02  0.00000000000E+00 0. -1.
</event>
<event>
 8    1  0.7224924E-009  0.1095409E+03  0.7561462E-02  0.1261422E+00
         -2   -1    0    0    0  501 -0.00000000000E+00  0.00000000000E+00  0.40359274320E+02  0.40359274320E+02  0.00000000000E+00 0.  1.
          2   -1    0    0  501    0  0.00000000000E+00 -0.00000000000E+00 -0.44195626895E+03  0.44195626895E+03  0.00000000000E+00 0. -1.
         25    2    1    2    0    0 -0.26611633332E+02  0.58986075988E+02 -0.15355008196E+03  0.20836162133E+03  0.12509756746E+03 0.  0.
         23    2    1    2    0    0  0.26611633332E+02 -0.58986075988E+02 -0.24804691267E+03  0.27395392194E+03  0.96622690249E+02 0.  0.
          5    1    3    3  502    0 -0.68072520935E+02  0.89715178327E+00 -0.88265972616E+02  0.11154831827E+03  0.41800000000E+01 0. -1.
         -5    1    3    3    0  502  0.41460887603E+02  0.58088924204E+02 -0.65284109340E+02  0.96813303055E+02  0.41800000000E+01 0. -1.
        -11    1    4    4    0    0  0.25897966923E+02 -0.62460837961E+01 -0.74772391248E+01  0.27669972144E+02  0.00000000000E+00 0.  1.
         11    1    4    4    0    0  0.71366640880E+00 -0.52739992192E+02 -0.24056967355E+03  0.24628394980E+03  0.00000000000E+00 0. -1.
</event>
<event>
 8    1  0.7224924E-009  0.1373000E+03  0.7561462E-02  0.1217009E+00
         -1   -1    0    0    0  501 -0.00000000000E+00  0.00000000000E+00  0.20262824984E+02  0.20262824984E+02  0.00000000000E+00 0.  1.
          1   -1    0    0  501    0  0.00000000000E+00 -0.00000000000E+00 -0.10785566808E+04  0.10785566808E+04  0.00000000000E+00 0. -1.
         25    2    1    2    0    0  0.35177413295E+02  0.95030483726E+02 -0.56714326164E+03  0.58954779414E+03  0.12508748583E+03 0.  0.
         23    2    1    2    0    0 -0.35177413295E+02 -0.95030483726E+02 -0.49115059422E+03  0.50927171169E+03  0.88659612444E+02 0.  0.
          5    1    3    3  502    0  0.32611415378E+02 -0.11918647654E+02 -0.47472256121E+02  0.58963090795E+02  0.41800000000E+01 0. -1.
         -5    1    3    3    0  502  0.25659979171E+01  0.10694913138E+03 -0.51967100552E+03  0.53058470334E+03  0.41800000000E+01 0. -1.
        -11    1    4    4    0    0  0.27556122151E+02 -0.16738626504E+02 -0.84880340316E+02  0.90797542133E+02  0.00000000000E+00 0.  1.
         11    1    4    4    0    0 -0.62733535446E+02 -0.78291857222E+02 -0.40627025390E+03  0.41847416955E+03  0.00000000000E+00 0. -1.
</event>
<event>
 8    1  0.7224924E-009  0.6235784E+02  0.7561462E-02  0.1388195E+00
          2   -1    0    0  501    0  0.00000000000E+00  0.00000000000E+00  0.99181920380E+03  0.99181920380E+03  0.00000000000E+00 0. -1.
         -2   -1    0    0    0  501 -0.00000000000E+00 -0.00000000000E+00 -0.12283434805E+02  0.12283434805E+02  0.00000000000E+00 0.  1.
         25    2    1    2    0    0  0.18137239638E+02  0.20588820536E+01  0.61644474216E+03  0.62927307650E+03  0.12508911309E+03 0.  0.
         23    2    1    2    0    0 -0.18137239638E+02 -0.20588820536E+01  0.36309102684E+03  0.37482956211E+03  0.91262853359E+02 0.  0.
          5    1    3    3  502    0  0.27697721520E+02 -0.68229033007E+01  0.26468808061E+02  0.39138037598E+02  0.41800000000E+01 0.  1.
         -5    1    3    3    0  502 -0.95604818821E+01  0.88817853543E+01  0.58997593410E+03  0.59013503890E+03  0.41800000000E+01 0.  1.
        -11    1    4    4    0    0  0.30725339519E+02  0.91346244840E+01  0.64127474458E+02  0.71692543779E+02  0.00000000000E+00 0.  1.
         11    1    4    4    0    0 -0.48862579157E+02 -0.11193506538E+02  0.29896355238E+03  0.30313701833E+03  0.00000000000E+00 0. -1.
</event>
<event>
 8    1  0.7224924E-009  0.1457745E+03  0.7561462E-02  0.1205764E+00
         -1   -1    0    0    0  501 -0.00000000000E+00  0.00000000000E+00  0.31489030701E+02  0.31489030701E+02  0.00000000000E+00 0. -1.
          1   -1    0    0  501    0  0.00000000000E+00 -0.00000000000E+00 -0.76841325019E+03  0.76841325019E+03  0.00000000000E+00 0.  1.
         25    2    1    2    0    0  0.17335841560E+02  0.11013975308E+03 -0.37642168209E+03  0.41203471873E+03  0.12509208641E+03 0.  0.
         23    2    1    2    0    0 -0.17335841560E+02 -0.11013975308E+03 -0.36050253740E+03  0.38786756216E+03  0.89709919694E+02 0.  0.
          5    1    3    3  502    0  0.65967305929E+02  0.60036647622E+02 -0.27256203978E+03  0.28681635665E+03  0.41800000000E+01 0. -1.
         -5    1    3    3    0  502 -0.48631464369E+02  0.50103105462E+02 -0.10385964231E+03  0.12521836209E+03  0.41800000000E+01 0. -1.
        -11    1    4    4    0    0 -0.26343395843E+02 -0.50408737519E+01 -0.15038910796E+03  0.15276213112E+03  0.00000000000E+00 0.  1.
         11    1    4    4    0    0  0.90075542827E+01 -0.10509887933E+03 -0.21011342944E+03  0.23510543104E+03  0.00000000000E+00 0. -1.
</event>
<event>
 8    1  0.7224924E-009  0.9758624E+02  0.7561462E-02  0.1285455E+00
          2   -1    0    0  501    0  0.00000000000E+00  0.00000000000E+00  0.72338736480E+03  0.72338736480E+03  0.00000000000E+00 0. -1.
         -2   -1    0    0    0  501 -0.00000000000E+00 -0.00000000000E+00 -0.24406064652E+02  0.24406064652E+02  0.00000000000E+00 0.  1.
         25    2    1    2    0    0 -0.52438521350E+02  0.33015405404E+02  0.51452545397E+03  0.53312618156E+03  0.12508903697E+03 0.  0.
         23    2    1    2    0    0  0.52438521350E+02 -0.33015405404E+02  0.18445584618E+03  0.21466724789E+03  0.90654578548E+02 0.  0.
          5    1    3    3  502    0  0.37712952984E+02  0.79302551388E+01  0.83772464816E+02  0.92306305476E+02  0.41800000000E+01 0. -1.
         -5    1    3    3    0  502 -0.90151474334E+02  0.25085150265E+02  0.43075298915E+03  0.44081987609E+03  0.41800000000E+01 0. -1.
        -11    1    4    4    0    0  0.24627613564E+02 -0.97777270975E+01 -0.19008534055E+00  0.26498291067E+02  0.00000000000E+00 0.  1.
         11    1    4    4    0    0  0.27810907786E+02 -0.23237678306E+02  0.18464593152E+03  0.18816895682E+03  0.00000000000E+00 0. -1.
</event>
<event>
 8    1  0.7224924E-009  0.1162348E+03  0.7561462E-02  0.1249441E+00
          3   -1    0    0  501    0  0.00000000000E+00  0.00000000000E+00  0.58261607100E+02  0.58261607100E+02  0.00000000000E+00 0. -1.
         -3   -1    0    0    0  501 -0.00000000000E+00 -0.00000000000E+00 -0.37090153273E+03  0.37090153273E+03  0.00000000000E+00 0.  1.
         25    2    1    2    0    0 -0.94320459123E+02 -0.30618226698E+02 -0.19228786486E+03  0.24991173876E+03  0.12508968536E+03 0.  0.
         23    2    1    2    0    0  0.94320459123E+02  0.30618226698E+02 -0.12035206077E+03  0.17925140107E+03  0.88389034605E+02 0.  0.
          5    1    3    3  502    0 -0.95773616335E+01 -0.60758253379E+01 -0.15260397600E+03  0.15308196301E+03  0.41800000000E+01 0. -1.
         -5    1    3    3    0  502 -0.84743097490E+02 -0.24542401360E+02 -0.39683888863E+02  0.96829775751E+02  0.41800000000E+01 0. -1.
        -11    1    4    4    0    0 -0.69658960982E+00 -0.22963396440E+02 -0.28794341997E+02  0.36836353568E+02  0.00000000000E+00 0. -1.
         11    1    4    4    0    0  0.95017048733E+02  0.53581623137E+02 -0.91557718775E+02  0.14241504750E+03  0.00000000000E+00 0.  1.
</event>
<event>
 8    1  0.7224924E-009  0.4529946E+02  0.7561462E-02  0.1472481E+00
         -2   -1    0    0    0  501 -0.00000000000E+00  0.00000000000E+00  0.35372379513E+02  0.35372379513E+02  0.00000000000E+00 0.  1.
          2   -1    0    0  501    0  0.00000000000E+00 -0.00000000000E+00 -0.35696284522E+03  0.35696284522E+03  0.00000000000E+00 0. -1.
         25    2    1    2    0    0 -0.13481181752E+02  0.61575374351E+01 -0.22623397415E+03  0.25893102351E+03  0.12507520278E+03 0.  0.
         23    2    1    2    0    0  0.13481181752E+02 -0.61575374351E+01 -0.95356491554E+02  0.13340420122E+03  0.92109515752E+02 0.  0.
          5    1    3    3  502    0  0.57492442669E+01  0.11013899155E+02  0.13222019369E+02  0.18618646042E+02  0.41800000000E+01 0.  1.
         -5    1    3    3    0  502 -0.19230426019E+02 -0.48563617202E+01 -0.23945599352E+03  0.24031237747E+03  0.41800000000E+01 0.  1.
        -11    1    4    4    0    0  0.43463651882E+01 -0.30714073579E+02 -0.10180142329E+03  0.10642262443E+03  0.00000000000E+00 0. -1.
         11    1    4    4    0    0  0.91348165636E+01  0.24556536143E+02  0.64449317352E+01  0.26981576790E+02  0.00000000000E+00 0.  1.
</event>
<event>
 8    1  0.7224924E-009  0.1275006E+03  0.7561462E-02  0.1231212E+00
          1   -1    0    0  501    0  0.00000000000E+00  0.00000000000E+00  0.10832588622E+03  0.10832588622E+03  0.00000000000E+00 0. -1.
         -1   -1    0    0    0  501 -0.00000000000E+00 -0.00000000000E+00 -0.18009511940E+03  0.18009511940E+03  0.00000000000E+00 0.  1.
         25    2    1    2    0    0  0.79940003491E+02  0.30683613385E+02 -0.19117359857E+02  0.15279008369E+03  0.12508975952E+03 0.  0.
         23    2    1    2    0    0 -0.79940003491E+02 -0.30683613385E+02 -0.52651873322E+02  0.13563092193E+03  0.91058436897E+02 0.  0.
          5    1    3    3  502    0  0.88314794565E+02 -0.16552545934E+02  0.18318041002E+02  0.91796038815E+02  0.41800000000E+01 0.  1.
         -5    1    3    3    0  502 -0.83747910743E+01  0.47236159319E+02 -0.37435400859E+02  0.60994044875E+02  0.41800000000E+01 0.  1.
        -11    1    4    4    0    0 -0.11211969139E+02 -0.45270110304E+02 -0.45252166628E+02  0.64983457306E+02  0.00000000000E+00 0.  1.
         11    1    4    4    0    0 -0.68728034352E+02  0.14586496919E+02 -0.73997066936E+01  0.70647464621E+02  0.00000000000E+00 0. -1.
</event>
<event>
 8    1  0.7224924E-009  0.1010460E+03  0.7561462E-02  0.1278112E+00
         -2   -1    0    0    0  501 -0.00000000000E+00  0.00000000000E+00  0.42866574694E+02  0.42866574694E+02  0.00000000000E+00 0.  1.
          2   -1    0    0  501    0  0.00000000000E+00 -0.00000000000E+00 -0.57580849724E+03  0.57580849724E+03  0.00000000000E+00 0. -1.
         25    2    1    2    0    0 -0.37481729048E+02  0.66997412570E+02 -0.12243556628E+03  0.19112883733E+03  0.12508489623E+03 0.  0.
         23    2    1    2    0    0  0.37481729048E+02 -0.66997412570E+02 -0.41050635626E+03  0.42754623460E+03  0.91579369337E+02 0.  0.
          5    1    3    3  502    0 -0.35968825571E+02  0.25054283367E+02  0.15660379798E+02  0.46735355176E+02  0.41800000000E+01 0.  1.
         -5    1    3    3    0  502 -0.15129034769E+01  0.41943129204E+02 -0.13809594608E+03  0.14439348215E+03  0.41800000000E+01 0.  1.
        -11    1    4    4    0    0  0.63773580557E+02 -0.29961141210E+02 -0.29801798727E+03  0.30623432253E+03  0.00000000000E+00 0.  1.
         11    1    4    4    0    0 -0.26291851509E+02 -0.37036271361E+02 -0.11248836899E+03  0.12131191207E+03  0.00000000000E+00 0. -1.
</event>
<event>
 8    1  0.7224924E-009  0.1146538E+03  0.7561462E-02  0.1252187E+00
         -2   -1    0    0    0  501 -0.00000000000E+00  0.00000000000E+00  0.66909822038E+02  0.66909822038E+02  0.00000000000E+00 0.  1.
          2   -1    0    0  501    0  0.00000000000E+00 -0.00000000000E+00 -0.26502386308E+03  0.26502386308E+03  0.00000000000E+00 0. -1.
         25    2    1    2    0    0 -0.43493212804E+02  0.57740616427E+02 -0.69483409939E+02  0.16030978297E+03  0.12508254840E+03 0.  0.
         23    2    1    2    0    0  0.43493212804E+02 -0.57740616427E+02 -0.12863063111E+03  0.17162390215E+03  0.87654356340E+02 0.  0.
          5    1    3    3  502    0 -0.60504959742E+02  0.15593760918E+01 -0.80128889055E+02  0.10050568675E+03  0.41800000000E+01 0.  1.
         -5    1    3    3    0  502  0.17011746939E+02  0.56181240336E+02  0.10645479117E+02  0.59804096224E+02  0.41800000000E+01 0.  1.
        -11    1    4    4    0    0  0.34256374694E+02 -0.79273813804E+02 -0.80346958768E+02  0.11795537523E+03  0.00000000000E+00 0.  1.
         11    1    4    4    0    0  0.92368381102E+01  0.21533197376E+02 -0.48283672338E+02  0.53668526922E+02  0.00000000000E+00 0. -1.
</event>
<event>
 8    1  0.7224924E-009  0.1115698E+03  0.7561462E-02  0.1257690E+00
          3   -1    0    0  501    0  0.00000000000E+00  0.00000000000E+00  0.33021724193E+03  0.33021724193E+03  0.00000000000E+00 0. -1.
         -3   -1    0    0    0  501 -0.00000000000E+00 -0.00000000000E+00 -0.50486784237E+02  0.50486784237E+02  0.00000000000E+00 0.  1.
         25    2    1    2    0    0  0.48118530298E+02 -0.23147438498E+02  0.91098595677E+02  0.16369981169E+03  0.12508987708E+03 0.  0.
         23    2    1    2    0    0 -0.48118530298E+02  0.23147438498E+02  0.18863186202E+03  0.21700421448E+03  0.93046509146E+02 0.  0.
          5    1    3    3  502    0 -0.35708017796E+02 -0.31222882558E+02  0.52772480846E+02  0.71079800680E+02  0.41800000000E+01 0. -1.
         -5    1    3    3    0  502  0.83826548094E+02  0.80754440599E+01  0.38326114832E+02  0.92620011014E+02  0.41800000000E+01 0. -1.
        -11    1    4    4    0    0  0.88649497338E+00  0.39524827935E+02  0.28483046147E+02  0.48726602738E+02  0.00000000000E+00 0.  1.
         11    1    4    4    0    0 -0.49005025271E+02 -0.16377389437E+02  0.16014881587E+03  0.16827761174E+03  0.00000000000E+00 0. -1.
</event>
<event>
 8    1  0.7224924E-009  0.9753614E+02  0.7561462E-02  0.1285564E+00
         -2   -1    0    0    0  501 -0.00000000000E+00  0.00000000000E+00  0.17547098772E+02  0.17547098772E+02  0.00000000000E+00 0.  1.
          2   -1    0    0  501    0  0.00000000000E+00 -0.00000000000E+00 -0.89308269317E+03  0.89308269317E+03  0.00000000000E+00 0. -1.
         25    2    1    2    0    0  0.12584886631E+02 -0.85003231617E+01 -0.71004286744E+03  0.72113750022E+03  0.12509110978E+03 0.  0.
         23    2    1    2    0    0 -0.12584886631E+02  0.85003231617E+01 -0.16549272696E+03  0.18949229173E+03  0.91043127600E+02 0.  0.
          5    1    3    3  502    0 -0.39782957075E+02  0.19078637464E+02 -0.11664471014E+03  0.12478036258E+03  0.41800000000E+01 0.  1.
         -5    1    3    3    0  502  0.52367843706E+02 -0.27578960626E+02 -0.59339815730E+03  0.59635713764E+03  0.41800000000E+01 0.  1.
        -11    1    4    4    0    0 -0.37974169338E+02  0.37160533852E+02 -0.83036134786E+02  0.98579625143E+02  0.00000000000E+00 0.  1.
         11    1    4    4    0    0  0.25389282707E+02 -0.28660210690E+02 -0.82456592172E+02  0.90912666586E+02  0.00000000000E+00 0. -1.
</event>
<event>
 8    1  0.7224924E-009  0.2107191E+03  0.7561462E-02  0.1140998E+00
         -1   -1    0    0    0  501 -0.00000000000E+00  0.00000000000E+00  0.18852706483E+03  0.18852706483E+03  0.00000000000E+00 0.  1.
          1   -1    0    0  501    0  0.00000000000E+00 -0.00000000000E+00 -0.27754865781E+03  0.27754865781E+03  0.00000000000E+00 0. -1.
         25    2    1    2    0    0 -0.19446130407E+03  0.46064421121E+02 -0.21735604125E+02  0.23676400845E+03  0.12509048539E+03 0.  0.
         23    2    1    2    0    0  0.19446130407E+03 -0.46064421121E+02 -0.67285988856E+02  0.22931171420E+03  0.90107315454E+02 0.  0.
          5    1    3    3  502    0 -0.18501728101E+03  0.27473522187E+02  0.21753847301E+02  0.18835310183E+03  0.41800000000E+01 0.  1.
         -5    1    3    3    0  502 -0.94440230582E+01  0.18590898933E+02 -0.43489451425E+02  0.48410906622E+02  0.41800000000E+01 0.  1.
        -11    1    4    4    0    0  0.11328966148E+02  0.16096883873E+02  0.87053417449E+01  0.21522967251E+02  0.00000000000E+00 0.  1.
         11    1    4    4    0    0  0.18313233792E+03 -0.62161304993E+02 -0.75991330601E+02  0.20778874695E+03  0.00000000000E+00 0. -1.
</event>
<event>
 8    1  0.7224924E-009  0.1476557E+03  0.7561462E-02  0.1203384E+00
         -2   -1    0    0    0  501 -0.00000000000E+00  0.00000000000E+00  0.77440671730E+02  0.77440671730E+02  0.00000000000E+00 0.  1.
          2   -1    0    0  501    0  0.00000000000E+00 -0.00000000000E+00 -0.58616155634E+03  0.58616155634E+03  0.00000000000E+00 0. -1.
         25    2    1    2    0    0 -0.85828394215E+02 -0.11859596438E+03 -0.43950544549E+03  0.47983787447E+03  0.12509129919E+03 0.  0.
         23    2    1    2    0    0  0.85828394215E+02  0.11859596438E+03 -0.69215439120E+02  0.18376435361E+03  0.86873728030E+02 0.  0.
          5    1    3    3  502    0 -0.53293603031E+02 -0.72323255515E+02 -0.95475733193E+02  0.13116382672E+03  0.41800000000E+01 0.  1.
         -5    1    3    3    0  502 -0.32534791184E+02 -0.46272708869E+02 -0.34402971230E+03  0.34867404774E+03  0.41800000000E+01 0.  1.
        -11    1    4    4    0    0  0.23048360703E+02  0.53328201751E+02  0.15103663546E+02  0.60027032956E+02  0.00000000000E+00 0.  1.
         11    1    4    4    0    0  0.62780033513E+02  0.65267762634E+02 -0.84319102666E+02  0.12373732065E+03  0.00000000000E+00 0. -1.
</event>
<event>
 8    1  0.7224924E-009  0.1010528E+03  0.7561462E-02  0.1278097E+00
         -2   -1    0    0    0  501 -0.00000000000E+00  0.00000000000E+00  0.33111506757E+02  0.33111506757E+02  0.00000000000E+00 0.  1.
          2   -1    0    0  501    0  0.00000000000E+00 -0.00000000000E+00 -0.49283366874E+03  0.49283366874E+03  0.00000000000E+00 0. -1.
         25    2    1    2    0    0 -0.63382818696E+02  0.12561774352E+02 -0.29509187301E+03  0.32695838449E+03  0.12508953510E+03 0.  0.
         23    2    1    2    0    0  0.63382818696E+02 -0.12561774352E+02 -0.16463028897E+03  0.19898679100E+03  0.91199951025E+02 0.  0.
          5    1    3    3  502    0  0.15876048005E+02 -0.13126635615E+02 -0.76095612713E+00  0.21033518893E+02  0.41800000000E+01 0.  1.
         -5    1    3    3    0  502 -0.79258866701E+02  0.25688409967E+02 -0.29433091689E+03  0.30592486560E+03  0.41800000000E+01 0.  1.
        -11    1    4    4    0    0  0.13223108126E+02  0.29418888913E+02 -0.14772249666E+02  0.35475921039E+02  0.00000000000E+00 0.  1.
         11    1    4    4    0    0  0.50159710571E+02 -0.41980663265E+02 -0.14985803930E+03  0.16351086996E+03  0.00000000000E+00 0. -1.
</event>
<event>
 8    1  0.7224924E-009  0.6429473E+02  0.7561462E-02  0.1380644E+00
         -2   -1    0    0    0  501 -0.00000000000E+00  0.00000000000E+00  0.27406462843E+02  0.27406462843E+02  0.00000000000E+00 0.  1.
          2   -1    0    0  501    0  0.00000000000E+00 -0.00000000000E+00 -0.48643380131E+03  0.48643380131E+03  0.00000000000E+00 0. -1.
         25    2    1    2    0    0 -0.20976776782E+02 -0.30332998223E+02 -0.23768700399E+03  0.27111089423E+03  0.12508352873E+03 0.  0.
         23    2    1    2    0    0  0.20976776782E+02  0.30332998223E+02 -0.22134033448E+03  0.24272936992E+03  0.92552079450E+02 0.  0.
          5    1    3    3  502    0 -0.11763276899E+02 -0.22508941928E+02 -0.25119407976E+03  0.25250933697E+03  0.41800000000E+01 0.  1.
         -5    1    3    3    0  502 -0.92134998825E+01 -0.78240562948E+01  0.13507075766E+02  0.18601557266E+02  0.41800000000E+01 0.  1.
        -11    1    4    4    0    0  0.92297666199E+01  0.58666731748E+02 -0.89809062548E+02  0.10766913077E+03  0.00000000000E+00 0.  1.
         11    1    4    4    0    0  0.11747010162E+02 -0.28333733525E+02 -0.13153127193E+03  0.13506023915E+03  0.00000000000E+00 0. -1.
</event>
<event>
 8    1  0.7224924E-009  0.1166290E+03  0.7561462E-02  0.1248764E+00
         -3   -1    0    0    0  501 -0.00000000000E+00  0.00000000000E+00  0.14931303153E+03  0.14931303153E+03  0.00000000000E+00 0. -1.
          3   -1    0    0  501    0  0.00000000000E+00 -0.00000000000E+00 -0.16734057335E+03  0.16734057335E+03  0.00000000000E+00 0.  1.
         25    2    1    2    0    0 -0.52977650810E+02 -0.84536460434E+02  0.50590306668E+02  0.16780732153E+03  0.12508746300E+03 0.  0.
         23    2    1    2    0    0  0.52977650810E+02  0.84536460434E+02 -0.68617848492E+02  0.14884628336E+03  0.86566519567E+02 0.  0.
          5    1    3    3  502    0 -0.44402291416E+02  0.30792485241E+01  0.64607360615E+02  0.78566078558E+02  0.41800000000E+01 0.  1.
         -5    1    3    3    0  502 -0.85753593939E+01 -0.87615708958E+02 -0.14017053947E+02  0.89241242967E+02  0.41800000000E+01 0.  1.
        -11    1    4    4    0    0  0.43377735786E+02  0.59721699353E+02 -0.88784757791E+02  0.11546013404E+03  0.00000000000E+00 0.  1.
         11    1    4    4    0    0  0.95999150238E+01  0.24814761081E+02  0.20166909299E+02  0.33386149323E+02  0.00000000000E+00 0. -1.
</event>
<event>
 8    1  0.7224924E-009  0.1148924E+03  0.7561462E-02  0.1251769E+00
         -1   -1    0    0    0  501 -0.00000000000E+00  0.00000000000E+00  0.26700317182E+03  0.26700317182E+03  0.00000000000E+00 0.  1.
          1   -1    0    0  501    0  0.00000000000E+00 -0.00000000000E+00 -0.82742859945E+02  0.82742859945E+02  0.00000000000E+00 0. -1.
         25    2    1    2    0    0 -0.51282320131E+01  0.67587623874E+02  0.18838682269E+03  0.23607481106E+03  0.12508931124E+03 0.  0.
         23    2    1    2    0    0  0.51282320131E+01 -0.67587623874E+02 -0.41265108102E+01  0.11367122071E+03  0.91157735066E+02 0.  0.
          5    1    3    3  502    0  0.31581575363E+02  0.72669716215E+02  0.52449194109E+02  0.95114004856E+02  0.41800000000E+01 0.  1.
         -5    1    3    3    0  502 -0.36709807376E+02 -0.50820923406E+01  0.13593762858E+03  0.14096080620E+03  0.41800000000E+01 0.  1.
        -11    1    4    4    0    0  0.46157316233E+02 -0.51278034331E+02 -0.74559214595E+01  0.69393986854E+02  0.00000000000E+00 0.  1.
         11    1    4    4    0    0 -0.41029084219E+02 -0.16309589543E+02  0.33294106493E+01  0.44277233859E+02  0.00000000000E+00 0. -1.
</event>
<event>
 8    1  0.7224924E-009  0.8961112E+02  0.7561462E-02  0.1303796E+00
          1   -1    0    0  501    0  0.00000000000E+00  0.00000000000E+00  0.62702705771E+03  0.62702705771E+03  0.00000000000E+00 0. -1.
         -1   -1    0    0    0  501 -0.00000000000E+00 -0.00000000000E+00 -0.20868133907E+02  0.20868133907E+02  0.00000000000E+00 0.  1.
         25    2    1    2    0    0  0.86828092673E+01  0.37100709634E+02  0.39648179084E+03  0.41748885958E+03  0.12508910252E+03 0.  0.
         23    2    1    2    0    0 -0.86828092673E+01 -0.37100709634E+02  0.20967713296E+03  0.23040633204E+03  0.87582669094E+02 0.  0.
          5    1    3    3  502    0  0.44204248841E+02  0.18323510221E+02  0.52558682460E+02  0.71201503807E+02  0.41800000000E+01 0.  1.
         -5    1    3    3    0  502 -0.35521439574E+02  0.18777199414E+02  0.34392310838E+03  0.34628735577E+03  0.41800000000E+01 0.  1.
        -11    1    4    4    0    0 -0.36936823479E+02 -0.47950061388E+02  0.10249063542E+03  0.11902885223E+03  0.00000000000E+00 0.  1.
         11    1    4    4    0    0  0.28254014211E+02  0.10849351754E+02  0.10718649754E+03  0.11137747981E+03  0.00000000000E+00 0. -1.
</event>
<event>
 8    1  0.7224924E-009  0.1236171E+03  0.7561462E-02  0.1237246E+00
         -2   -1    0    0    0  501 -0.00000000000E+00  0.00000000000E+00  0.15478260185E+02  0.15478260185E+02  0.00000000000E+00 0. -1.
          2   -1    0    0  501    0  0.00000000000E+00 -0.00000000000E+00 -0.13556167799E+04  0.13556167799E+04  0.00000000000E+00 0.  1.
         25    2    1    2    0    0 -0.62076379989E+02  0.91052808449E+01 -0.10784995077E+04  0.10875420666E+04  0.12510066136E+03 0.  0.
         23    2    1    2    0    0  0.62076379989E+02 -0.91052808449E+01 -0.26163901202E+03  0.28355297347E+03  0.89503815896E+02 0.  0.
          5    1    3    3  502    0  0.30278362040E+02 -0.24966682545E+02 -0.39702963987E+03  0.39898636792E+03  0.41800000000E+01 0. -1.
         -5    1    3    3    0  502 -0.92354742029E+02  0.34071963390E+02 -0.68146986784E+03  0.68855569872E+03  0.41800000000E+01 0. -1.
        -11    1    4    4    0    0 -0.84946790083E+01 -0.33508702068E+02 -0.78344490453E+02  0.85632072672E+02  0.00000000000E+00 0. -1.
         11    1    4    4    0    0  0.70571058997E+02  0.24403421224E+02 -0.18329452157E+03  0.19792090080E+03  0.00000000000E+00 0.  1.
</event>
<event>
 8    1  0.7224924E-009  0.1655436E+03  0.7561462E-02  0.1182576E+00
         -2   -1    0    0    0  501 -0.00000000000E+00  0.00000000000E+00  0.16665236471E+02  0.16665236471E+02  0.00000000000E+00 0.  1.
          2   -1    0    0  501    0  0.00000000000E+00 -0.00000000000E+00 -0.17030733166E+04  0.17030733166E+04  0.00000000000E+00 0. -1.
         25    2    1    2    0    0  0.12726390696E+03  0.14660504852E+02 -0.87696492529E+03  0.89505628104E+03  0.12508890287E+03 0.  0.
         23    2    1    2    0    0 -0.12726390696E+03 -0.14660504852E+02 -0.80944315488E+03  0.82468227208E+03  0.92149858776E+02 0.  0.
          5    1    3    3  502    0  0.48312647683E+02 -0.51110681515E+02 -0.25105862232E+03  0.26075720112E+03  0.41800000000E+01 0.  1.
         -5    1    3    3    0  502  0.78951259278E+02  0.65771186367E+02 -0.62590630297E+03  0.63429907992E+03  0.41800000000E+01 0.  1.
        -11    1    4    4    0    0 -0.23177928773E+01 -0.31613761774E+02 -0.16737062502E+03  0.17034590754E+03  0.00000000000E+00 0.  1.
         11    1    4    4    0    0 -0.12494611408E+03  0.16953256922E+02 -0.64207252987E+03  0.65433636453E+03  0.00000000000E+00 0. -1.
</event>
<event>
 8    1  0.7224924E-009  0.1314489E+03  0.7561462E-02  0.1225322E+00
         -1   -1    0    0    0  501 -0.00000000000E+00  0.00000000000E+00  0.18998055006E+03  0.18998055006E+03  0.00000000000E+00 0.  1.
          1   -1    0    0  501    0  0.00000000000E+00 -0.00000000000E+00 -0.13678694970E+03  0.13678694970E+03  0.00000000000E+00 0. -1.
         25    2    1    2    0    0  0.53375446573E+01 -0.11360283858E+03 -0.68055211748E+01  0.16919630961E+03  0.12508789610E+03 0.  0.
         23    2    1    2    0    0 -0.53375446573E+01  0.11360283858E+03  0.59999121540E+02  0.15757119015E+03  0.91075194556E+02 0.  0.
          5    1    3    3  502    0  0.16325337888E+02 -0.59172409358E+02 -0.64412520559E+02  0.89074889230E+02  0.41800000000E+01 0.  1.
         -5    1    3    3    0  502 -0.10987793230E+02 -0.54430429222E+02  0.57606999385E+02  0.80121420378E+02  0.41800000000E+01 0.  1.
        -11    1    4    4    0    0  0.14079687641E+02  0.12321775770E+03  0.51850594161E+02  0.13442223600E+03  0.00000000000E+00 0.  1.
         11    1    4    4    0    0 -0.19417232298E+02 -0.96149191188E+01  0.81485273790E+01  0.23148954150E+02  0.00000000000E+00 0. -1.
</event>
<event>
 8    1  0.7224924E-009  0.7839822E+02  0.7561462E-02  0.1333660E+00
         -2   -1    0    0    0  501 -0.00000000000E+00  0.00000000000E+00  0.84380745565E+02  0.84380745565E+02  0.00000000000E+00 0.  1.
          2   -1    0    0  501    0  0.00000000000E+00 -0.00000000000E+00 -0.19362417335E+03  0.19362417335E+03  0.00000000000E+00 0. -1.
         25    2    1    2    0    0  0.53833070930E+02 -0.30417318544E+02 -0.24783991397E+02  0.14171568104E+03  0.12508347305E+03 0.  0.
         23    2    1    2    0    0 -0.53833070930E+02  0.30417318544E+02 -0.84459436389E+02  0.13628923787E+03  0.87281997981E+02 0.  0.
          5    1    3    3  502    0  0.40913564598E+02  0.14593916734E+02 -0.66046799637E+02  0.79161570955E+02  0.41800000000E+01 0.  1.
         -5    1    3    3    0  502  0.12919506333E+02 -0.45011235278E+02  0.41262808241E+02  0.62554110089E+02  0.41800000000E+01 0.  1.
        -11    1    4    4    0    0 -0.18470207626E+02 -0.14663892349E+01  0.16407555173E+02  0.24748873386E+02  0.00000000000E+00 0.  1.
         11    1    4    4    0    0 -0.35362863304E+02  0.31883707779E+02 -0.10086699156E+03  0.11154036449E+03  0.00000000000E+00 0. -1.
</event>
<event>
 8    1  0.7224924E-009  0.1144112E+03  0.7561462E-02  0.1252612E+00
          2   -1    0    0  501    0  0.00000000000E+00  0.00000000000E+00  0.71016736951E+03  0.71016736951E+03  0.00000000000E+00 0.  1.
         -2   -1    0    0    0  501 -0.00000000000E+00 -0.00000000000E+00 -0.20665861219E+02  0.20665861219E+02  0.00000000000E+00 0. -1.
         25    2    1    2    0    0  0.12678945663E+02  0.34124924928E+02  0.49799469545E+03  0.51475399403E+03  0.12509073311E+03 0.  0.
         23    2    1    2    0    0 -0.12678945663E+02 -0.34124924928E+02  0.19150681285E+03  0.21607923670E+03  0.93220764871E+02 0.  0.
          5    1    3    3  502    0  0.37090191134E+02  0.73702230158E+02  0.34740315457E+03  0.35709120014E+03  0.41800000000E+01 0.  1.
         -5    1    3    3    0  502 -0.24411245471E+02 -0.39577305230E+02  0.15059154088E+03  0.15766279389E+03  0.41800000000E+01 0.  1.
        -11    1    4    4    0    0  0.19604204675E+02  0.25231505218E+02  0.72502514662E+02  0.79231107079E+02  0.00000000000E+00 0.  1.
         11    1    4    4    0    0 -0.32283150338E+02 -0.59356430146E+02  0.11900429818E+03  0.13684812962E+03  0.00000000000E+00 0. -1.
</event>
<event>
 8    1  0.7224924E-009  0.7857783E+02  0.7561462E-02  0.1333136E+00
          2   -1    0    0  501    0  0.00000000000E+00  0.00000000000E+00  0.36425933334E+02  0.36425933334E+02  0.00000000000E+00 0. -1.
         -2   -1    0    0    0  501 -0.00000000000E+00 -0.00000000000E+00 -0.42620084279E+03  0.42620084279E+03  0.00000000000E+00 0.  1.
         25    2    1    2    0    0  0.48436784154E+02 -0.23077026964E+02 -0.16230976508E+03  0.21182924305E+03  0.12509395324E+03 0.  0.
         23    2    1    2    0    0 -0.48436784154E+02  0.23077026964E+02 -0.22746514438E+03  0.25079753308E+03  0.90996370568E+02 0.  0.
          5    1    3    3  502    0  0.57416136628E+02 -0.16702316337E+02 -0.12090957375E+02  0.61149356223E+02  0.41800000000E+01 0.  1.
         -5    1    3    3    0  502 -0.89793524732E+01 -0.63747106269E+01 -0.15021880770E+03  0.15067988682E+03  0.41800000000E+01 0.  1.
        -11    1    4    4    0    0 -0.51038111999E+02 -0.10207502441E+02 -0.20257417960E+03  0.20915396296E+03  0.00000000000E+00 0.  1.
         11    1    4    4    0    0  0.26013278451E+01  0.33284529405E+02 -0.24890964788E+02  0.41643570120E+02  0.00000000000E+00 0. -1.
</event>
<event>
 8    1  0.7224924E-009  0.1501107E+03  0.7561462E-02  0.1200337E+00
         -2   -1    0    0    0  501 -0.00000000000E+00  0.00000000000E+00  0.26584163747E+03  0.26584163747E+03  0.00000000000E+00 0.  1.
          2   -1    0    0  501    0  0.00000000000E+00 -0.00000000000E+00 -0.10309831791E+03  0.10309831791E+03  0.00000000000E+00 0. -1.
         25    2    1    2    0    0  0.10429149063E+03  0.52675217689E+02  0.13188157227E+03  0.21608302452E+03  0.12509089018E+03 0.  0.
         23    2    1    2    0    0 -0.10429149063E+03 -0.52675217689E+02  0.30861747299E+02  0.15285693086E+03  0.93602351949E+02 0.  0.
          5    1    3    3  502    0  0.58994898114E+02  0.92922541129E+02  0.78982807675E+02  0.13553875077E+03  0.41800000000E+01 0. -1.
         -5    1    3    3    0  502  0.45296592512E+02 -0.40247323439E+02  0.52898764591E+02  0.80544273741E+02  0.41800000000E+01 0. -1.
        -11    1    4    4    0    0 -0.23212270292E+02  0.11525832206E+02  0.41462190456E+02  0.48895475635E+02  0.00000000000E+00 0.  1.
         11    1    4    4    0    0 -0.81079220334E+02 -0.64201049896E+02 -0.10600443157E+02  0.10396145523E+03  0.00000000000E+00 0. -1.
</event>
<event>
 8    1  0.7224924E-009  0.1305967E+03  0.7561462E-02  0.1226573E+00
          1   -1    0    0  501    0  0.00000000000E+00  0.00000000000E+00  0.56452031086E+03  0.56452031086E+03  0.00000000000E+00 0. -1.
         -1   -1    0    0    0  501 -0.00000000000E+00 -0.00000000000E+00 -0.33680089332E+02  0.33680089332E+02  0.00000000000E+00 0.  1.
         25    2    1    2    0    0  0.81664867055E+02 -0.66673629801E+01  0.23876481604E+03  0.28172791256E+03  0.12509346544E+03 0.  0.
         23    2    1    2    0    0 -0.81664867055E+02  0.66673629801E+01  0.29207540549E+03  0.31647248764E+03  0.90184193175E+02 0.  0.
          5    1    3    3  502    0 -0.83701942683E+01 -0.42027247876E+02  0.12571907504E+03  0.13288757634E+03  0.41800000000E+01 0.  1.
         -5    1    3    3    0  502  0.90035061323E+02  0.35359884896E+02  0.11304574100E+03  0.14884033621E+03  0.41800000000E+01 0.  1.
        -11    1    4    4    0    0 -0.10255303551E+00 -0.31335840457E+02  0.88977962879E+02  0.94334634639E+02  0.00000000000E+00 0. -1.
         11    1    4    4    0    0 -0.81562314019E+02  0.38003203437E+02  0.20309744261E+03  0.22213785300E+03  0.00000000000E+00 0.  1.
</event>
<event>
 8    1  0.7224924E-009  0.1027383E+03  0.7561462E-02  0.1274641E+00
         -1   -1    0    0    0  501 -0.00000000000E+00  0.00000000000E+00  0.47247843921E+02  0.47247843921E+02  0.00000000000E+00 0.  1.
          1   -1    0    0  501    0  0.00000000000E+00 -0.00000000000E+00 -0.30446984571E+03  0.30446984571E+03  0.00000000000E+00 0. -1.
         25    2    1    2    0    0  0.39432373894E+02  0.23896707493E+02 -0.12541115884E+03  0.18303370897E+03  0.12508962834E+03 0.  0.
         23    2    1    2    0    0 -0.39432373894E+02 -0.23896707493E+02 -0.13181084295E+03  0.16868398066E+03  0.94626752415E+02 0.  0.
          5    1    3    3  502    0  0.82345142513E+02 -0.21039754178E+01 -0.85369453214E+02  0.11870368634E+03  0.41800000000E+01 0.  1.
         -5    1    3    3    0  502 -0.42912768618E+02  0.26000682910E+02 -0.40041705622E+02  0.64330022629E+02  0.41800000000E+01 0.  1.
        -11    1    4    4    0    0 -0.19198551889E+01 -0.33797962094E+02 -0.28027065346E+01  0.33968268275E+02  0.00000000000E+00 0.  1.
         11    1    4    4    0    0 -0.37512518705E+02  0.99012546019E+01 -0.12900813642E+03  0.13471571239E+03  0.00000000000E+00 0. -1.
</event>
<event>
 8    1  0.7224924E-009  0.1103660E+03  0.7561462E-02  0.1259894E+00
         -2   -1    0    0    0  501 -0.00000000000E+00  0.00000000000E+00  0.78176384059E+01  0.78176384059E+01  0.00000000000E+00 0.  1.
          2   -1    0    0  501    0  0.00000000000E+00 -0.00000000000E+00 -0.21301539328E+04  0.21301539328E+04  0.00000000000E+00 0. -1.
         25    2    1    2    0    0  0.22918970600E+02  0.11733825059E+02 -0.17122485501E+04  0.17170058773E+04  0.12510445000E+03 0.  0.
         23    2    1    2    0    0 -0.22918970600E+02 -0.11733825059E+02 -0.41008774427E+03  0.42096569391E+03  0.91527021055E+02 0.  0.
          5    1    3    3  502    0  0.69793278336E+02  0.28942841114E+02 -0.87857924953E+03  0.88183204742E+03  0.41800000000E+01 0. -1.
         -5    1    3    3    0  502 -0.46874307736E+02 -0.17209016055E+02 -0.83366930059E+03  0.83517382987E+03  0.41800000000E+01 0. -1.
        -11    1    4    4    0    0 -0.26409035970E+02 -0.49989815789E+02 -0.23335417108E+03  0.24010536858E+03  0.00000000000E+00 0. -1.
         11    1    4    4    0    0  0.34900653703E+01  0.38255990730E+02 -0.17673357320E+03  0.18086032533E+03  0.00000000000E+00 0.  1.
</event>
<event>
 8    1  0.7224924E-009  0.8762103E+02  0.7561462E-02  0.1308717E+00
          2   -1    0    0  501    0  0.00000000000E+00  0.00000000000E+00  0.11627539899E+03  0.11627539899E+03  0.00000000000E+00 0. -1.
         -2   -1    0    0    0  501 -0.00000000000E+00 -0.00000000000E+00 -0.11741006276E+03  0.11741006276E+03  0.00000000000E+00 0.  1.
         25    2    1    2    0    0 -0.19292983557E+02 -0.12317902706E+01 -0.38087286438E+02  0.13218026123E+03  0.12508894255E+03 0.  0.
         23    2    1    2    0    0  0.19292983557E+02  0.12317902706E+01  0.36952622667E+02  0.10150520051E+03  0.92542276215E+02 0.  0.
          5    1    3    3  502    0  0.49766072417E+02 -0.21110931004E+02 -0.21373424520E+02  0.58280606100E+02  0.41800000000E+01 0. -1.
         -5    1    3    3    0  502 -0.69059055974E+02  0.19879140733E+02 -0.16713861917E+02  0.73899655131E+02  0.41800000000E+01 0. -1.
        -11    1    4    4    0    0  0.23316944002E+02 -0.17957630911E+02  0.62628694268E+02  0.69199058745E+02  0.00000000000E+00 0. -1.
         11    1    4    4    0    0 -0.40239604447E+01  0.19189421182E+02 -0.25676071601E+02  0.32306141766E+02  0.00000000000E+00 0.  1.
</event>
<event>
 8    1  0.7224924E-009  0.1034456E+03  0.7561462E-02  0.1273213E+00
          1   -1    0    0  501    0  0.00000000000E+00  0.00000000000E+00  0.82820267556E+02  0.82820267556E+02  0.00000000000E+00 0. -1.
         -1   -1    0    0    0  501 -0.00000000000E+00 -0.00000000000E+00 -0.16308626639E+03  0.16308626639E+03  0.00000000000E+00 0.  1.
         25    2    1    2    0    0 -0.87515906797E+01  0.23273501082E+02 -0.86365221629E+01  0.12783233497E+03  0.12509304599E+03 0.  0.
         23    2    1    2    0    0  0.87515906797E+01 -0.23273501082E+02 -0.71629476676E+02  0.11807419898E+03  0.90512365701E+02 0.  0.
          5    1    3    3  502    0  0.29073796282E+02  0.63054160171E+02 -0.18327283067E+02  0.71933819930E+02  0.41800000000E+01 0. -1.
         -5    1    3    3    0  502 -0.37825386962E+02 -0.39780659089E+02  0.96907609046E+01  0.55898515036E+02  0.41800000000E+01 0. -1.
        -11    1    4    4    0    0  0.15668143573E+02  0.27169874578E+02 -0.14852470811E+01  0.31399024929E+02  0.00000000000E+00 0. -1.
         11    1    4    4    0    0 -0.69165528932E+01 -0.50443375660E+02 -0.70144229595E+02  0.86675174054E+02  0.00000000000E+00 0.  1.
</event>
<event>
 8    1  0.7224924E-009  0.1449678E+03  0.7561462E-02  0.1206797E+00
         -1   -1    0    0    0  501 -0.00000000000E+00  0.00000000000E+00  0.36493591619E+03  0.36493591619E+03  0.00000000000E+00 0.  1.
          1   -1    0    0  501    0  0.00000000000E+00 -0.00000000000E+00 -0.86665241538E+02  0.86665241538E+02  0.00000000000E+00 0. -1.
         25    2    1    2    0    0 -0.12893404176E+03  0.31190433925E+02  0.21053837472E+03  0.27851543655E+03  0.12509041081E+03 0.  0.
         23    2    1    2    0    0  0.12893404176E+03 -0.31190433925E+02  0.67732299932E+02  0.17308572117E+03  0.88171265870E+02 0.  0.
          5    1    3    3  502    0 -0.60542150897E+02 -0.23147984099E+02  0.17027303537E+03  0.18224039118E+03  0.41800000000E+01 0.  1.
         -5    1    3    3    0  502 -0.68391890865E+02  0.54338418023E+02  0.40265339345E+02  0.96275045375E+02  0.41800000000E+01 0.  1.
        -11    1    4    4    0    0  0.89354947149E+02 -0.38481447654E+02  0.85097137932E+02  0.12925421184E+03  0.00000000000E+00 0.  1.
         11    1    4    4    0    0  0.39579094613E+02  0.72910137296E+01 -0.17364837999E+02  0.43831509332E+02  0.00000000000E+00 0. -1.
</event>
<event>
 8    1  0.7224924E-009  0.1971545E+03  0.7561462E-02  0.1152162E+00
          1   -1    0    0  501    0  0.00000000000E+00  0.00000000000E+00  0.64955941364E+03  0.64955941364E+03  0.00000000000E+00 0. -1.
         -1   -1    0    0    0  501 -0.00000000000E+00 -0.00000000000E+00 -0.77494753095E+02  0.77494753095E+02  0.00000000000E+00 0.  1.
         25    2    1    2    0    0 -0.17436349063E+03  0.44294592384E+02  0.16930755440E+03  0.27690552370E+03  0.12508790229E+03 0.  0.
         23    2    1    2    0    0  0.17436349063E+03 -0.44294592384E+02  0.40275710615E+03  0.45014864304E+03  0.89754534695E+02 0.  0.
          5    1    3    3  502    0 -0.55534888128E+02 -0.39894935690E+02  0.82805111650E+02  0.10747040806E+03  0.41800000000E+01 0.  1.
         -5    1    3    3    0  502 -0.11882860250E+03  0.84189528074E+02  0.86502442747E+02  0.16943511564E+03  0.41800000000E+01 0.  1.
        -11    1    4    4    0    0  0.10094048233E+03 -0.21201697597E+02  0.32402152632E+03  0.34004182459E+03  0.00000000000E+00 0. -1.
         11    1    4    4    0    0  0.73423008301E+02 -0.23092894787E+02  0.78735579829E+02  0.11010681845E+03  0.00000000000E+00 0.  1.
</event>
<event>
 8    1  0.7224924E-009  0.9574111E+02  0.7561462E-02  0.1289516E+00
          1   -1    0    0  501    0  0.00000000000E+00  0.00000000000E+00  0.24171626121E+03  0.24171626121E+03  0.00000000000E+00 0.  1.
         -1   -1    0    0    0  501 -0.00000000000E+00 -0.00000000000E+00 -0.81181317661E+02  0.81181317661E+02  0.00000000000E+00 0. -1.
         25    2    1    2    0    0 -0.23390193026E+02 -0.10306530507E+02  0.18387419601E+03  0.22385322233E+03  0.12508884637E+03 0.  0.
         23    2    1    2    0    0  0.23390193026E+02  0.10306530507E+02 -0.23339252460E+02  0.99044356546E+02  0.92799451277E+02 0.  0.
          5    1    3    3  502    0 -0.45309869361E+02  0.47321740244E+02  0.88040942273E+02  0.10982263554E+03  0.41800000000E+01 0. -1.
         -5    1    3    3    0  502  0.21919676335E+02 -0.57628270751E+02  0.95833253738E+02  0.11403058678E+03  0.41800000000E+01 0. -1.
        -11    1    4    4    0    0  0.31268573406E+02  0.29685863304E+02 -0.49436933828E+02  0.65597138576E+02  0.00000000000E+00 0. -1.
         11    1    4    4    0    0 -0.78783803808E+01 -0.19379332798E+02  0.26097681368E+02  0.33447217970E+02  0.00000000000E+00 0.  1.
</event>
<event>
 8    1  0.7224924E-009  0.1232275E+03  0.7561462E-02  0.1237866E+00
         -1   -1    0    0    0  501 -0.00000000000E+00  0.00000000000E+00  0.40911057214E+03  0.40911057214E+03  0.00000000000E+00 0.  1.
          1   -1    0    0  501    0  0.00000000000E+00 -0.00000000000E+00 -0.40922945027E+02  0.40922945027E+02  0.00000000000E+00 0. -1.
         25    2    1    2    0    0 -0.55632661586E+02 -0.37323161638E+02  0.16597936621E+03  0.21836791396E+03  0.12508950560E+03 0.  0.
         23    2    1    2    0    0  0.55632661586E+02  0.37323161638E+02  0.20220826091E+03  0.23166560321E+03  0.91064589719E+02 0.  0.
          5    1    3    3  502    0 -0.37223420395E+02 -0.79417178146E+02  0.71534047204E+02  0.11325750977E+03  0.41800000000E+01 0.  1.
         -5    1    3    3    0  502 -0.18409241191E+02  0.42094016508E+02  0.94445319002E+02  0.10511040419E+03  0.41800000000E+01 0.  1.
        -11    1    4    4    0    0  0.59681745597E+02 -0.13779173051E+02  0.98754034845E+02  0.11620729653E+03  0.00000000000E+00 0.  1.
         11    1    4    4    0    0 -0.40490840111E+01  0.51102334688E+02  0.10345422606E+03  0.11545830669E+03  0.00000000000E+00 0. -1.
</event>
<event>
 8    1  0.7224924E-009  0.2802553E+03  0.7561462E-02  0.1095550E+00
          1   -1    0    0  501    0  0.00000000000E+00  0.00000000000E+00  0.41934589534E+03  0.41934589534E+03  0.00000000000E+00 0. -1.
         -1   -1    0    0    0  501 -0.00000000000E+00 -0.00000000000E+00 -0.29956747895E+03  0.29956747895E+03  0.00000000000E+00 0.  1.
         25    2    1    2    0    0  0.25970510980E+03  0.22873209875E+02  0.27721776013E+03  0.40058433044E+03  0.12509273152E+03 0.  0.
         23    2    1    2    0    0 -0.25970510980E+03 -0.22873209875E+02 -0.15743934374E+03  0.31832904385E+03  0.92608344172E+02 0.  0.
          5    1    3    3  502    0  0.74537187068E+02 -0.49521073390E+02  0.99452451377E+02  0.13385212531E+03  0.41800000000E+01 0.  1.
         -5    1    3    3    0  502  0.18516792274E+03  0.72394283265E+02  0.17776530875E+03  0.26673220513E+03  0.41800000000E+01 0.  1.
        -11    1    4    4    0    0 -0.22641144396E+03  0.81483949108E+01 -0.10750727174E+03  0.25077151308E+03  0.00000000000E+00 0. -1.
         11    1    4    4    0    0 -0.33293665844E+02 -0.31021604786E+02 -0.49932072002E+02  0.67557530767E+02  0.00000000000E+00 0.  1.
</event>
<event>
 8    1  0.7224924E-009  0.1484017E+03  0.7561462E-02  0.1202451E+00
          3   -1    0    0  501    0  0.00000000000E+00  0.00000000000E+00  0.12030624007E+03  0.12030624007E+03  0.00000000000E+00 0. -1.
         -3   -1    0    0    0  501 -0.00000000000E+00 -0.00000000000E+00 -0.20691478506E+03  0.20691478506E+03  0.00000000000E+00 0.  1.
         25    2    1    2    0    0 -0.95279972685E+02 -0.59158534076E+02 -0.68166385064E+02  0.18130717043E+03  0.12509048184E+03 0.  0.
         23    2    1    2    0    0  0.95279972685E+02  0.59158534076E+02 -0.18442159928E+02  0.14591385470E+03  0.91502646850E+02 0.  0.
          5    1    3    3  502    0 -0.72727155582E+02  0.26137767642E+02 -0.17029853880E+02  0.79245885568E+02  0.41800000000E+01 0. -1.
         -5    1    3    3    0  502 -0.22552817103E+02 -0.85296301718E+02 -0.51136531184E+02  0.10206128486E+03  0.41800000000E+01 0. -1.
        -11    1    4    4    0    0  0.90337250863E+01  0.42236698151E+02 -0.36070479091E+02  0.56272784910E+02  0.00000000000E+00 0.  1.
         11    1    4    4    0    0  0.86246247599E+02  0.16921835925E+02  0.17628319163E+02  0.89641069787E+02  0.00000000000E+00 0. -1.
</event>
<event>
 8    1  0.7224924E-009  0.9081154E+02  0.7561462E-02  0.1300898E+00
          1   -1    0    0  501    0  0.00000000000E+00  0.00000000000E+00  0.51382621045E+03  0.51382621045E+03  0.00000000000E+00 0. -1.
         -1   -1    0    0    0  501 -0.00000000000E+00 -0.00000000000E+00 -0.29202098966E+02  0.29202098966E+02  0.00000000000E+00 0.  1.
         25    2    1    2    0    0  0.13481691743E+02 -0.51345778956E+02  0.32607986183E+03  0.35326148959E+03  0.12508980256E+03 0.  0.
         23    2    1    2    0    0 -0.13481691743E+02  0.51345778956E+02  0.15854424965E+03  0.18976681983E+03  0.89760914551E+02 0.  0.
          5    1    3    3  502    0  0.27571068425E+02 -0.38351253303E+01  0.52922302205E+01  0.28641789419E+02  0.41800000000E+01 0. -1.
         -5    1    3    3    0  502 -0.14089376682E+02 -0.47510653625E+02  0.32078763161E+03  0.32461970017E+03  0.41800000000E+01 0. -1.
        -11    1    4    4    0    0  0.19552330136E+02  0.65090225459E+02  0.11279412378E+03  0.13168730168E+03  0.00000000000E+00 0. -1.
         11    1    4    4    0    0 -0.33034021879E+02 -0.13744446504E+02  0.45750125877E+02  0.58079518153E+02  0.00000000000E+00 0.  1.
</event>
<event>
 8    1  0.7224924E-009  0.1120452E+03  0.7561462E-02  0.1256829E+00
         -1   -1    0    0    0  501 -0.00000000000E+00  0.00000000000E+00  0.21470216902E+02  0.21470216902E+02  0.00000000000E+00 0.  1.
          1   -1    0    0  501    0  0.00000000000E+00 -0.00000000000E+00 -0.65466640590E+03  0.65466640590E+03  0.00000000000E+00 0. -1.
         25    2    1    2    0    0 -0.20223904638E+02 -0.26778404511E+02 -0.46496019082E+03  0.48266054192E+03  0.12508849035E+03 0.  0.
         23    2    1    2    0    0  0.20223904638E+02  0.26778404511E+02 -0.16823599818E+03  0.19347608088E+03  0.89462581683E+02 0.  0.
          5    1    3    3  502    0 -0.56499481297E+02  0.27621807299E+02 -0.19866690170E+03  0.20842544436E+03  0.41800000000E+01 0.  1.
         -5    1    3    3    0  502  0.36275576659E+02 -0.54400211810E+02 -0.26629328912E+03  0.27423509757E+03  0.41800000000E+01 0.  1.
        -11    1    4    4    0    0 -0.21507157078E+02  0.45100615760E+02 -0.89135288402E+02  0.10218474928E+03  0.00000000000E+00 0. -1.
         11    1    4    4    0    0  0.41731061716E+02 -0.18322211249E+02 -0.79100709776E+02  0.91291331594E+02  0.00000000000E+00 0.  1.
</event>
<event>
 8    1  0.7224924E-009  0.1276512E+03  0.7561462E-02  0.1230983E+00
          2   -1    0    0  501    0  0.00000000000E+00  0.00000000000E+00  0.66837110234E+03  0.66837110234E+03  0.00000000000E+00 0. -1.
         -2   -1    0    0    0  501 -0.00000000000E+00 -0.00000000000E+00 -0.31239099973E+02  0.31239099973E+02  0.00000000000E+00 0.  1.
         25    2    1    2    0    0  0.84813773622E+02 -0.28221918128E+02  0.44302220705E+03  0.46894140796E+03  0.12509002879E+03 0.  0.
         23    2    1    2    0    0 -0.84813773622E+02  0.28221918128E+02  0.19410979532E+03  0.23066879435E+03  0.86831026661E+02 0.  0.
          5    1    3    3  502    0 -0.17491839773E+00 -0.56244451817E+02  0.10430254766E+03  0.11857471402E+03  0.41800000000E+01 0.  1.
         -5    1    3    3    0  502  0.84988692020E+02  0.28022533689E+02  0.33871965939E+03  0.35036669394E+03  0.41800000000E+01 0.  1.
        -11    1    4    4    0    0 -0.34420267112E+02  0.44590851222E+02  0.43987305034E+02  0.71470146249E+02  0.00000000000E+00 0.  1.
         11    1    4    4    0    0 -0.50393506510E+02 -0.16368933093E+02  0.15012249028E+03  0.15919864810E+03  0.00000000000E+00 0. -1.
</event>
<event>
 8    1  0.7224924E-009  0.6228186E+02  0.7561462E-02  0.1388498E+00
          2   -1    0    0  501    0  0.00000000000E+00  0.00000000000E+00  0.28700792878E+03  0.28700792878E+03  0.00000000000E+00 0. -1.
         -2   -1    0    0    0  501 -0.00000000000E+00 -0.00000000000E+00 -0.42305639745E+02  0.42305639745E+02  0.00000000000E+00 0.  1.
         25    2    1    2    0    0  0.30094809080E+01 -0.67389008027E+01  0.12356622780E+03  0.17598438593E+03  0.12508965456E+03 0.  0.
         23    2    1    2    0    0 -0.30094809080E+01  0.67389008027E+01  0.12113606123E+03  0.15332918259E+03  0.93709247913E+02 0.  0.
          5    1    3    3  502    0  0.34467542841E+02  0.10825405775E+02  0.13351014285E+03  0.13837496726E+03  0.41800000000E+01 0. -1.
         -5    1    3    3    0  502 -0.31458061933E+02 -0.17564306578E+02 -0.99439150511E+01  0.37609418670E+02  0.41800000000E+01 0. -1.
        -11    1    4    4    0    0  0.12168705252E+02  0.25224095184E+02  0.12586915287E+03  0.12894718303E+03  0.00000000000E+00 0. -1.
         11    1    4    4    0    0 -0.15178186160E+02 -0.18485194381E+02 -0.47330916406E+01  0.24381999567E+02  0.00000000000E+00 0.  1.
</event>
<event>
 8    1  0.7224924E-009  0.6355885E+02  0.7561462E-02  0.1383476E+00
          1   -1    0    0  501    0  0.00000000000E+00  0.00000000000E+00  0.33316249786E+03  0.33316249786E+03  0.00000000000E+00 0. -1.
         -1   -1    0    0    0  501 -0.00000000000E+00 -0.00000000000E+00 -0.44700735124E+02  0.44700735124E+02  0.00000000000E+00 0.  1.
         25    2    1    2    0    0  0.60500513871E+01  0.31058514283E+02  0.22348480534E+03  0.25805642609E+03  0.12508567624E+03 0.  0.
         23    2    1    2    0    0 -0.60500513871E+01 -0.31058514283E+02  0.64976957403E+02  0.11980680689E+03  0.95553291694E+02 0.  0.
          5    1    3    3  502    0  0.45773522033E+02  0.31139171714E+02  0.20789240965E+03  0.21517804192E+03  0.41800000000E+01 0.  1.
         -5    1    3    3    0  502 -0.39723470646E+02 -0.80657430480E-01  0.15592395682E+02  0.42878384169E+02  0.41800000000E+01 0.  1.
        -11    1    4    4    0    0 -0.40037917263E+01 -0.18152030631E+02  0.89827102666E+02  0.91730229138E+02  0.00000000000E+00 0. -1.
         11    1    4    4    0    0 -0.20462596608E+01 -0.12906483652E+02 -0.24850145264E+02  0.28076577756E+02  0.00000000000E+00 0.  1.
</event>
<event>
 8    1  0.7224924E-009  0.1146514E+03  0.7561462E-02  0.1252191E+00
         -1   -1    0    0    0  501 -0.00000000000E+00  0.00000000000E+00  0.16772020027E+02  0.16772020027E+02  0.00000000000E+00 0. -1.
          1   -1    0    0  501    0  0.00000000000E+00 -0.00000000000E+00 -0.15092994318E+04  0.15092994318E+04  0.00000000000E+00 0.  1.
         25    2    1    2    0    0  0.55923891608E+02  0.60370453015E+02 -0.11920692938E+04  0.12014367759E+04  0.12509617101E+03 0.  0.
         23    2    1    2    0    0 -0.55923891608E+02 -0.60370453015E+02 -0.30045811795E+03  0.32463467591E+03  0.91326441465E+02 0.  0.
          5    1    3    3  502    0  0.55017326914E+02 -0.15217031755E+02 -0.80504622391E+03  0.80707828576E+03  0.41800000000E+01 0.  1.
         -5    1    3    3    0  502  0.90656469427E+00  0.75587484770E+02 -0.38702306991E+03  0.39435849015E+03  0.41800000000E+01 0.  1.
        -11    1    4    4    0    0  0.85277587149E+01 -0.15935960323E+02 -0.46775623202E+01  0.18669683698E+02  0.00000000000E+00 0. -1.
         11    1    4    4    0    0 -0.64451650323E+02 -0.44434492692E+02 -0.29578055563E+03  0.30596499221E+03  0.00000000000E+00 0.  1.
</event>
<event>
 8    1  0.7224924E-009  0.1149158E+03  0.7561462E-02  0.1251728E+00
          1   -1    0    0  501    0  0.00000000000E+00  0.00000000000E+00  0.94161513906E+03  0.94161513906E+03  0.00000000000E+00 0. -1.
         -1   -1    0    0    0  501 -0.00000000000E+00 -0.00000000000E+00 -0.20656540750E+02  0.20656540750E+02  0.00000000000E+00 0.  1.
         25    2    1    2    0    0 -0.58827476767E+02  0.63486061519E+02  0.45966854954E+03  0.48418302674E+03  0.12508747306E+03 0.  0.
         23    2    1    2    0    0  0.58827476767E+02 -0.63486061519E+02  0.46129004876E+03  0.47808865306E+03  0.91044489509E+02 0.  0.
          5    1    3    3  502    0 -0.10511469110E+02  0.58607427157E+02  0.41097239833E+03  0.41528436774E+03  0.41800000000E+01 0. -1.
         -5    1    3    3    0  502 -0.48316007657E+02  0.48786343618E+01  0.48696151211E+02  0.68898658999E+02  0.41800000000E+01 0. -1.
        -11    1    4    4    0    0 -0.49982232338E+01 -0.57031297356E+02  0.27973316793E+03  0.28553142796E+03  0.00000000000E+00 0.  1.
         11    1    4    4    0    0  0.63825700001E+02 -0.64547641627E+01  0.18155688083E+03  0.19255722510E+03  0.00000000000E+00 0. -1.
</event>
<event>
 8    1  0.7224924E-009  0.1706256E+03  0.7561462E-02  0.1177197E+00
          2   -1    0    0  501    0  0.00000000000E+00  0.00000000000E+00  0.19224641736E+03  0.19224641736E+03  0.00000000000E+00 0. -1.
         -2   -1    0    0    0  501 -0.00000000000E+00 -0.00000000000E+00 -0.18341376004E+03  0.18341376004E+03  0.00000000000E+00 0.  1.
         25    2    1    2    0    0 -0.33268340490E+02 -0.14509111713E+03 -0.27402385838E+02  0.19635926345E+03  0.12509138597E+03 0.  0.
         23    2    1    2    0    0  0.33268340490E+02  0.14509111713E+03  0.36235043164E+02  0.17930091395E+03  0.93153768788E+02 0.  0.
          5    1    3    3  502    0 -0.17584865461E+02 -0.15033462726E+03 -0.57334118919E+02  0.16190862002E+03  0.41800000000E+01 0.  1.
         -5    1    3    3    0  502 -0.15683475028E+02  0.52435101250E+01  0.29931733081E+02  0.34450643428E+02  0.41800000000E+01 0.  1.
        -11    1    4    4    0    0  0.24639555642E+02  0.15652502025E+03  0.41897130750E+02  0.16389801473E+03  0.00000000000E+00 0.  1.
         11    1    4    4    0    0  0.86287848474E+01 -0.11433903120E+02 -0.56620875851E+01  0.15402899218E+02  0.00000000000E+00 0. -1.
</event>
<event>
 8    1  0.7224924E-009  0.1235991E+03  0.7561462E-02  0.1237275E+00
          1   -1    0    0  501    0  0.00000000000E+00  0.00000000000E+00  0.82666459188E+03  0.82666459188E+03  0.00000000000E+00 0. -1.
         -1   -1    0    0    0  501 -0.00000000000E+00 -0.00000000000E+00 -0.19692932035E+02  0.19692932035E+02  0.00000000000E+00 0.  1.
         25    2    1    2    0    0 -0.28778678620E+02 -0.58039368547E+02  0.36378124799E+03  0.39010381616E+03  0.12508960928E+03 0.  0.
         23    2    1    2    0    0  0.28778678620E+02  0.58039368547E+02  0.44319041185E+03  0.45625370775E+03  0.86907560297E+02 0.  0.
          5    1    3    3  502    0 -0.56990792657E+02 -0.83241222407E+02  0.29018584254E+03  0.30724964958E+03  0.41800000000E+01 0. -1.
         -5    1    3    3    0  502  0.28212114038E+02  0.25201853861E+02  0.73595405458E+02  0.82854166588E+02  0.41800000000E+01 0. -1.
        -11    1    4    4    0    0  0.56737790018E+02  0.56649668975E+02  0.34093944438E+03  0.35024001277E+03  0.00000000000E+00 0.  1.
         11    1    4    4    0    0 -0.27959111398E+02  0.13896995719E+01  0.10225096748E+03  0.10601369499E+03  0.00000000000E+00 0. -1.
</event>
<event>
 8    1  0.7224924E-009  0.1288335E+03  0.7561462E-02  0.1229197E+00
         -2   -1    0    0    0  501 -0.00000000000E+00  0.00000000000E+00  0.21451487437E+02  0.21451487437E+02  0.00000000000E+00 0.  1.
          2   -1    0    0  501    0  0.00000000000E+00 -0.00000000000E+00 -0.91963691418E+03  0.91963691418E+03  0.00000000000E+00 0. -1.
         25    2    1    2    0    0 -0.12681477587E+02 -0.84427891986E+02 -0.58353552166E+03  0.60286787095E+03  0.12508827268E+03 0.  0.
         23    2    1    2    0    0  0.12681477587E+02  0.84427891986E+02 -0.31464990508E+03  0.33822053067E+03  0.89998198754E+02 0.  0.
          5    1    3    3  502    0  0.25168605943E+02  0.14341624504E+02 -0.27755505870E+03  0.27909393388E+03  0.41800000000E+01 0.  1.
         -5    1    3    3    0  502 -0.37850083530E+02 -0.98769516490E+02 -0.30598046297E+03  0.32377393707E+03  0.41800000000E+01 0.  1.
        -11    1    4    4    0    0 -0.37948675687E+02  0.31751314768E+02 -0.15358513913E+03  0.16135873989E+03  0.00000000000E+00 0.  1.
         11    1    4    4    0    0  0.50630153274E+02  0.52676577218E+02 -0.16106476595E+03  0.17686179078E+03  0.00000000000E+00 0. -1.
</event>
<event>
 8    1  0.7224924E-009  0.6694184E+02  0.7561462E-02  0.1370812E+00
         -2   -1    0    0    0  501 -0.00000000000E+00  0.00000000000E+00  0.52020060836E+02  0.52020060836E+02  0.00000000000E+00 0.  1.
          2   -1    0    0  501    0  0.00000000000E+00 -0.00000000000E+00 -0.39928004335E+03  0.39928004335E+03  0.00000000000E+00 0. -1.
         25    2    1    2    0    0  0.15103875218E+02  0.19293764576E+02 -0.32994876683E+03  0.35371472985E+03  0.12509014742E+03 0.  0.
         23    2    1    2    0    0 -0.15103875218E+02 -0.19293764576E+02 -0.17311215678E+02  0.97585374330E+02  0.92859305924E+02 0.  0.
          5    1    3    3  502    0  0.27806461437E+02 -0.17202793120E+02 -0.30660990353E+03  0.30837678371E+03  0.41800000000E+01 0. -1.
         -5    1    3    3    0  502 -0.12702586219E+02  0.36496557696E+02 -0.23338863306E+02  0.45337946146E+02  0.41800000000E+01 0. -1.
        -11    1    4    4    0    0 -0.82798181657E+01  0.20273540128E+02 -0.44154842589E+02  0.49287137696E+02  0.00000000000E+00 0. -1.
         11    1    4    4    0    0 -0.68240570520E+01 -0.39567304704E+02  0.26843626911E+02  0.48298236634E+02  0.00000000000E+00 0.  1.
</event>
<event>
 8    1  0.7224924E-009  0.1007983E+03  0.7561462E-02  0.1278626E+00
          1   -1    0    0  501    0  0.00000000000E+00  0.00000000000E+00  0.19768976091E+03  0.19768976091E+03  0.00000000000E+00 0. -1.
         -1   -1    0    0    0  501 -0.00000000000E+00 -0.00000000000E+00 -0.10275197319E+03  0.10275197319E+03  0.00000000000E+00 0.  1.
         25    2    1    2    0    0  0.28492091413E+02  0.22203882435E+02  0.13963076500E+03  0.19091161249E+03  0.12508269897E+03 0.  0.
         23    2    1    2    0    0 -0.28492091413E+02 -0.22203882435E+02 -0.44692977285E+02  0.10953012161E+03  0.93244697718E+02 0.  0.
          5    1    3    3  502    0 -0.33564484466E+02  0.41582066367E+02  0.25185230962E+02  0.59223400100E+02  0.41800000000E+01 0. -1.
         -5    1    3    3    0  502  0.62056575879E+02 -0.19378183932E+02  0.11444553404E+03  0.13168821239E+03  0.41800000000E+01 0. -1.
        -11    1    4    4    0    0 -0.34166437530E+02  0.20450301348E+02 -0.52402720312E+02  0.65814932765E+02  0.00000000000E+00 0.  1.
         11    1    4    4    0    0  0.56743461177E+01 -0.42654183783E+02  0.77097430267E+01  0.43715188843E+02  0.00000000000E+00 0. -1.
</event>
<event>
 8    1  0.7224924E-009  0.1117704E+03  0.7561462E-02  0.1257326E+00
          1   -1    0    0  501    0  0.00000000000E+00  0.00000000000E+00  0.71842485845E+03  0.71842485845E+03  0.00000000000E+00 0. -1.
         -1   -1    0    0    0  501 -0.00000000000E+00 -0.00000000000E+00 -0.26072771934E+02  0.26072771934E+02  0.00000000000E+00 0.  1.
         25    2    1    2    0    0  0.65929872002E+02  0.30212094069E+02  0.49295597850E+03  0.51372476610E+03  0.12509204580E+03 0.  0.
         23    2    1    2    0    0 -0.65929872002E+02 -0.30212094069E+02  0.19939610802E+03  0.23077286428E+03  0.90762262780E+02 0.  0.
          5    1    3    3  502    0  0.71757097120E+02 -0.46946011141E+01  0.45860798457E+03  0.46423041281E+03  0.41800000000E+01 0.  1.
         -5    1    3    3    0  502 -0.58272251185E+01  0.34906695183E+02  0.34347993930E+02  0.49494353296E+02  0.41800000000E+01 0.  1.
        -11    1    4    4    0    0 -0.14383875230E+01 -0.48749267813E+02  0.92254019129E+02  0.10435211601E+03  0.00000000000E+00 0. -1.
         11    1    4    4    0    0 -0.64491484479E+02  0.18537173745E+02  0.10714208889E+03  0.12642074827E+03  0.00000000000E+00 0.  1.
</event>
<event>
 8    1  0.7224924E-009  0.8222536E+02  0.7561462E-02  0.1322852E+00
          3   -1    0    0  501    0  0.00000000000E+00  0.00000000000E+00  0.92329366050E+02  0.92329366050E+02  0.00000000000E+00 0. -1.
         -3   -1    0    0    0  501 -0.00000000000E+00 -0.00000000000E+00 -0.13278847819E+03  0.13278847819E+03  0.00000000000E+00 0.  1.
         25    2    1    2    0    0 -0.33623897884E+02  0.13801807446E+02 -0.19523083244E+02  0.13171984527E+03  0.12509160828E+03 0.  0.
         23    2    1    2    0    0  0.33623897884E+02 -0.13801807446E+02 -0.20936028896E+02  0.93397998964E+02  0.83449460795E+02 0.  0.
          5    1    3    3  502    0 -0.10911822332E+02 -0.28529179562E+02  0.42907743580E+02  0.52834920386E+02  0.41800000000E+01 0. -1.
         -5    1    3    3    0  502 -0.22712075552E+02  0.42330987008E+02 -0.62430826823E+02  0.78884924889E+02  0.41800000000E+01 0. -1.
        -11    1    4    4    0    0  0.58621521207E+02 -0.14519211775E+02  0.59885801752E+00  0.60395768810E+02  0.00000000000E+00 0.  1.
         11    1    4    4    0    0 -0.24997623324E+02  0.71740432896E+00 -0.21534886913E+02  0.33002230155E+02  0.00000000000E+00 0. -1.
</event>
<event>
 8    1  0.7224924E-009  0.1633301E+03  0.7561462E-02  0.1184988E+00
          1   -1    0    0  501    0  0.00000000000E+00  0.00000000000E+00  0.12692608170E+03  0.12692608170E+03  0.00000000000E+00 0. -1.
         -1   -1    0    0    0  501 -0.00000000000E+00 -0.00000000000E+00 -0.31960195525E+03  0.31960195525E+03  0.00000000000E+00 0.  1.
         25    2    1    2    0    0 -0.14085798541E+03  0.21008760083E+02  0.10622732635E+01  0.18954390536E+03  0.12507367261E+03 0.  0.
         23    2    1    2    0    0  0.14085798541E+03 -0.21008760083E+02 -0.19373814681E+03  0.25698413159E+03  0.90686461523E+02 0.  0.
          5    1    3    3  502    0 -0.61941559752E+02 -0.47501489220E+02 -0.24418205717E+02  0.81895478954E+02  0.41800000000E+01 0.  1.
         -5    1    3    3    0  502 -0.78916425663E+02  0.68510249304E+02  0.25480478981E+02  0.10764842641E+03  0.41800000000E+01 0.  1.
        -11    1    4    4    0    0  0.30354589406E+02  0.39583050403E+01  0.21591421076E+01  0.30687638740E+02  0.00000000000E+00 0. -1.
         11    1    4    4    0    0  0.11050339601E+03 -0.24967065124E+02 -0.19589728892E+03  0.22629649285E+03  0.00000000000E+00 0.  1.
</event>
<event>
 8    1  0.7224924E-009  0.1883140E+03  0.7561462E-02  0.1159991E+00
          1   -1    0    0  501    0  0.00000000000E+00  0.00000000000E+00  0.51251280910E+02  0.51251280910E+02  0.00000000000E+00 0. -1.
         -1   -1    0    0    0  501 -0.00000000000E+00 -0.00000000000E+00 -0.74220455955E+03  0.74220455955E+03  0.00000000000E+00 0.  1.
         25    2    1    2    0    0 -0.15242440220E+03 -0.49684171693E+02 -0.33225449315E+03  0.38954190761E+03  0.12509250284E+03 0.  0.
         23    2    1    2    0    0  0.15242440220E+03  0.49684171693E+02 -0.35869878549E+03  0.40391393285E+03  0.93701286730E+02 0.  0.
          5    1    3    3  502    0 -0.18681808187E+02 -0.53830942221E+02 -0.16911789850E+03  0.17850802865E+03  0.41800000000E+01 0.  1.
         -5    1    3    3    0  502 -0.13374259401E+03  0.41467705278E+01 -0.16313659465E+03  0.21103387896E+03  0.41800000000E+01 0.  1.
        -11    1    4    4    0    0  0.11091251403E+03 -0.11690793397E+02 -0.21005666283E+03  0.23782779909E+03  0.00000000000E+00 0.  1.
         11    1    4    4    0    0  0.41511888163E+02  0.61374965090E+02 -0.14864212266E+03  0.16608613376E+03  0.00000000000E+00 0. -1.
</event>
<event>
 8    1  0.7224924E-009  0.6983461E+02  0.7561462E-02  0.1360656E+00
          1   -1    0    0  501    0  0.00000000000E+00  0.00000000000E+00  0.17105950006E+03  0.17105950006E+03  0.00000000000E+00 0. -1.
         -1   -1    0    0    0  501 -0.00000000000E+00 -0.00000000000E+00 -0.83386071895E+02  0.83386071895E+02  0.00000000000E+00 0.  1.
         25    2    1    2    0    0  0.20729706985E+02  0.10650715210E+02 -0.24551692670E+01  0.12726923600E+03  0.12509305373E+03 0.  0.
         23    2    1    2    0    0 -0.20729706985E+02 -0.10650715210E+02  0.90128597434E+02  0.12717633596E+03  0.86645818510E+02 0.  0.
          5    1    3    3  502    0 -0.21951974433E+02 -0.14313994751E+02  0.49037326583E+02  0.55757613163E+02  0.41800000000E+01 0.  1.
         -5    1    3    3    0  502  0.42681681418E+02  0.24964709961E+02 -0.51492495850E+02  0.71511622839E+02  0.41800000000E+01 0.  1.
        -11    1    4    4    0    0 -0.36814527463E+02  0.92122209722E+01  0.93957652099E+02  0.10133220039E+03  0.00000000000E+00 0. -1.
         11    1    4    4    0    0  0.16084820477E+02 -0.19862936183E+02 -0.38290546647E+01  0.25844135567E+02  0.00000000000E+00 0.  1.
</event>
<event>
 8    1  0.7224924E-009  0.1112462E+03  0.7561462E-02  0.1258279E+00
         -4   -1    0    0    0  501 -0.00000000000E+00  0.00000000000E+00  0.14246523572E+03  0.14246523572E+03  0.00000000000E+00 0.  1.
          4   -1    0    0  501    0  0.00000000000E+00 -0.00000000000E+00 -0.11450203316E+03  0.11450203316E+03  0.00000000000E+00 0. -1.
         25    2    1    2    0    0 -0.40170211066E+02 -0.42281967374E+02 -0.12882288846E+02  0.13861656809E+03  0.12508872435E+03 0.  0.
         23    2    1    2    0    0  0.40170211066E+02  0.42281967374E+02  0.40845491408E+02  0.11835070079E+03  0.94536361192E+02 0.  0.
          5    1    3    3  502    0  0.92390354833E+01 -0.73694392890E+02  0.11091769514E+02  0.75211189799E+02  0.41800000000E+01 0.  1.
         -5    1    3    3    0  502 -0.49409246549E+02  0.31412425516E+02 -0.23974058360E+02  0.63405378286E+02  0.41800000000E+01 0.  1.
        -11    1    4    4    0    0  0.54061396391E+02  0.10987932794E+02 -0.10968117209E+02  0.56246500709E+02  0.00000000000E+00 0. -1.
         11    1    4    4    0    0 -0.13891185326E+02  0.31294034580E+02  0.51813608617E+02  0.62104200083E+02  0.00000000000E+00 0.  1.
</event>
<event>
 8    1  0.7224924E-009  0.1172536E+03  0.7561462E-02  0.1247698E+00
         -2   -1    0    0    0  501 -0.00000000000E+00  0.00000000000E+00  0.54657480462E+02  0.54657480462E+02  0.00000000000E+00 0.  1.
          2   -1    0    0  501    0  0.00000000000E+00 -0.00000000000E+00 -0.11252276650E+04  0.11252276650E+04  0.00000000000E+00 0. -1.
         25    2    1    2    0    0  0.36416290591E+02 -0.84408094755E+02 -0.10356878488E+04  0.10472574542E+04  0.12509189627E+03 0.  0.
         23    2    1    2    0    0 -0.36416290591E+02  0.84408094755E+02 -0.34882335656E+02  0.13262769120E+03  0.89008170695E+02 0.  0.
          5    1    3    3  502    0  0.61031305657E+02 -0.88784005818E+02 -0.52583772721E+03  0.53677761477E+03  0.41800000000E+01 0. -1.
         -5    1    3    3    0  502 -0.24615015066E+02  0.43759110624E+01 -0.50985012162E+03  0.51047983944E+03  0.41800000000E+01 0. -1.
        -11    1    4    4    0    0 -0.14830726537E+02  0.77156986644E+02  0.12970925682E+02  0.79632882346E+02  0.00000000000E+00 0.  1.
         11    1    4    4    0    0 -0.21585564054E+02  0.72511081109E+01 -0.47853261338E+02  0.52994808850E+02  0.00000000000E+00 0. -1.
</event>
<event>
 8    1  0.7224924E-009  0.1375624E+03  0.7561462E-02  0.1216647E+00
         -1   -1    0    0    0  501 -0.00000000000E+00  0.00000000000E+00  0.18703618914E+03  0.18703618914E+03  0.00000000000E+00 0.  1.
          1   -1    0    0  501    0  0.00000000000E+00 -0.00000000000E+00 -0.22228333286E+03  0.22228333286E+03  0.00000000000E+00 0. -1.
         25    2    1    2    0    0  0.11340736482E+03  0.30516991019E+02 -0.14536710833E+03  0.22488835006E+03  0.12510258459E+03 0.  0.
         23    2    1    2    0    0 -0.11340736482E+03 -0.30516991019E+02  0.11011996461E+03  0.18443117194E+03  0.89977405161E+02 0.  0.
          5    1    3    3  502    0  0.11494891206E+03  0.57771636829E+02 -0.74251238082E+02  0.14859856380E+03  0.41800000000E+01 0.  1.
         -5    1    3    3    0  502 -0.15415472391E+01 -0.27254645810E+02 -0.71115870251E+02  0.76289786261E+02  0.41800000000E+01 0.  1.
        -11    1    4    4    0    0 -0.23301587238E+02 -0.13998430159E+02  0.85291885651E+02  0.89518857079E+02  0.00000000000E+00 0.  1.
         11    1    4    4    0    0 -0.90105777585E+02 -0.16518560860E+02  0.24828078959E+02  0.94912314859E+02  0.00000000000E+00 0. -1.
</event>
<event>
 8    1  0.7224924E-009  0.6303021E+02  0.7561462E-02  0.1385538E+00
         -2   -1    0    0    0  501 -0.00000000000E+00  0.00000000000E+00  0.27969267125E+02  0.27969267125E+02  0.00000000000E+00 0.  1.
          2   -1    0    0  501    0  0.00000000000E+00 -0.00000000000E+00 -0.49209604300E+03  0.49209604300E+03  0.00000000000E+00 0. -1.
         25    2    1    2    0    0 -0.26608872899E+02 -0.10524168582E+02 -0.19321493359E+03  0.23194457393E+03  0.12508990595E+03 0.  0.
         23    2    1    2    0    0  0.26608872899E+02  0.10524168582E+02 -0.27091184228E+03  0.28812073620E+03  0.93816534235E+02 0.  0.
          5    1    3    3  502    0 -0.15137045564E+02  0.14233006433E+00 -0.20883909061E+03  0.20942871956E+03  0.41800000000E+01 0.  1.
         -5    1    3    3    0  502 -0.11471827335E+02 -0.10666498646E+02  0.15624157019E+02  0.22515854377E+02  0.41800000000E+01 0.  1.
        -11    1    4    4    0    0 -0.17731219569E+00 -0.38381969415E+02 -0.72639468199E+02  0.82156553945E+02  0.00000000000E+00 0.  1.
         11    1    4    4    0    0  0.26786185095E+02  0.48906137997E+02 -0.19827237408E+03  0.20596418225E+03  0.00000000000E+00 0. -1.
</event>
<event>
 8    1  0.7224924E-009  0.9920463E+02  0.7561462E-02  0.1281977E+00
         -2   -1    0    0    0  501 -0.00000000000E+00  0.00000000000E+00  0.15640313904E+03  0.15640313904E+03  0.00000000000E+00 0.  1.
          2   -1    0    0  501    0  0.00000000000E+00 -0.00000000000E+00 -0.12206858978E+03  0.12206858978E+03  0.00000000000E+00 0. -1.
         25    2    1    2    0    0  0.43300143877E+02 -0.20192972085E+01  0.93052792106E+02  0.16182110561E+03  0.12509303770E+03 0.  0.
         23    2    1    2    0    0 -0.43300143877E+02  0.20192972085E+01 -0.58718242843E+02  0.11665062322E+03  0.90997559488E+02 0.  0.
          5    1    3    3  502    0 -0.46457281638E+01 -0.45629564063E+02  0.84603203185E+02  0.96326602224E+02  0.41800000000E+01 0. -1.
         -5    1    3    3    0  502  0.47945872041E+02  0.43610266855E+02  0.84495889203E+01  0.65494503387E+02  0.41800000000E+01 0. -1.
        -11    1    4    4    0    0  0.19911408936E+02 -0.11174515057E+02  0.76226315241E+01  0.24071528907E+02  0.00000000000E+00 0.  1.
         11    1    4    4    0    0 -0.63211552813E+02  0.13193812265E+02 -0.66340874367E+02  0.92579094308E+02  0.00000000000E+00 0. -1.
</event>
<event>
 8    1  0.7224924E-009  0.1037029E+03  0.7561462E-02  0.1272696E+00
          1   -1    0    0  501    0  0.00000000000E+00  0.00000000000E+00  0.21865670802E+03  0.21865670802E+03  0.00000000000E+00 0. -1.
         -1   -1    0    0    0  501 -0.00000000000E+00 -0.00000000000E+00 -0.59262743906E+02  0.59262743906E+02  0.00000000000E+00 0.  1.
         25    2    1    2    0    0 -0.28116174855E+02 -0.52964277143E-01  0.79396446405E+02  0.15079547667E+03  0.12507980648E+03 0.  0.
         23    2    1    2    0    0  0.28116174855E+02  0.52964277143E-01  0.79997517707E+02  0.12712397525E+03  0.94712090842E+02 0.  0.
          5    1    3    3  502    0  0.38979692382E+02 -0.22223472315E+02  0.86941137269E+00  0.45072468493E+02  0.41800000000E+01 0.  1.
         -5    1    3    3    0  502 -0.67095867236E+02  0.22170508038E+02  0.78527035032E+02  0.10572300818E+03  0.41800000000E+01 0.  1.
        -11    1    4    4    0    0  0.52563772917E+02 -0.23526478884E+02  0.72056965569E+02  0.92242353173E+02  0.00000000000E+00 0. -1.
         11    1    4    4    0    0 -0.24447598062E+02  0.23579443161E+02  0.79405521379E+01  0.34881622082E+02  0.00000000000E+00 0.  1.
</event>
<event>
 8    1  0.7224924E-009  0.1398379E+03  0.7561462E-02  0.1213547E+00
         -2   -1    0    0    0  501 -0.00000000000E+00  0.00000000000E+00  0.19717977344E+02  0.19717977344E+02  0.00000000000E+00 0. -1.
          2   -1    0    0  501    0  0.00000000000E+00 -0.00000000000E+00 -0.10709022776E+04  0.10709022776E+04  0.00000000000E+00 0.  1.
         25    2    1    2    0    0  0.94338240837E+02 -0.20415915648E+01 -0.53004435876E+03  0.55272060869E+03  0.12509667155E+03 0.  0.
         23    2    1    2    0    0 -0.94338240837E+02  0.20415915648E+01 -0.52113994151E+03  0.53789964627E+03  0.94049556313E+02 0.  0.
          5    1    3    3  502    0 -0.22432187803E+02 -0.27195889038E+02 -0.15840966421E+03  0.16233888489E+03  0.41800000000E+01 0.  1.
         -5    1    3    3    0  502  0.11677042864E+03  0.25154297473E+02 -0.37163469455E+03  0.39038172380E+03  0.41800000000E+01 0.  1.
        -11    1    4    4    0    0 -0.45256654749E+02 -0.39715465879E+02 -0.34770273893E+03  0.35287770925E+03  0.00000000000E+00 0. -1.
         11    1    4    4    0    0 -0.49081586088E+02  0.41757057443E+02 -0.17343720258E+03  0.18502193702E+03  0.00000000000E+00 0.  1.
</event>
<event>
 8    1  0.7224924E-009  0.1888319E+03  0.7561462E-02  0.1159519E+00
          2   -1    0    0  501    0  0.00000000000E+00  0.00000000000E+00  0.63922567522E+03  0.63922567522E+03  0.00000000000E+00 0.  1.
         -2   -1    0    0    0  501 -0.00000000000E+00 -0.00000000000E+00 -0.75570609125E+02  0.75570609125E+02  0.00000000000E+00 0. -1.
         25    2    1    2    0    0  0.11552023136E+03 -0.12710349150E+03  0.42715707583E+03  0.47708559122E+03  0.12508905835E+03 0.  0.
         23    2    1    2    0    0 -0.11552023136E+03  0.12710349150E+03  0.13649799027E+03  0.23771069312E+03  0.91512025847E+02 0.  0.
          5    1    3    3  502    0 -0.19276409439E+02 -0.54400730148E+01  0.10750587763E+03  0.10943564538E+03  0.41800000000E+01 0.  1.
         -5    1    3    3    0  502  0.13479664080E+03 -0.12166341848E+03  0.31965119820E+03  0.36764994584E+03  0.41800000000E+01 0.  1.
        -11    1    4    4    0    0 -0.10910364514E+03  0.10094585903E+03  0.14676531186E+03  0.20888687992E+03  0.00000000000E+00 0.  1.
         11    1    4    4    0    0 -0.64165862146E+01  0.26157632467E+02 -0.10267321588E+02  0.28823813203E+02  0.00000000000E+00 0. -1.
</event>
<event>
 8    1  0.7224924E-009  0.1271512E+03  0.7561462E-02  0.1231745E+00
          2   -1    0    0  501    0  0.00000000000E+00  0.00000000000E+00  0.35714745573E+03  0.35714745573E+03  0.00000000000E+00 0. -1.
         -2   -1    0    0    0  501 -0.00000000000E+00 -0.00000000000E+00 -0.72056974057E+02  0.72056974057E+02  0.00000000000E+00 0.  1.
         25    2    1    2    0    0 -0.43978967517E+02  0.98988853410E+02  0.92717813969E+02  0.18967562675E+03  0.12508919886E+03 0.  0.
         23    2    1    2    0    0  0.43978967517E+02 -0.98988853410E+02  0.19237266770E+03  0.23952880304E+03  0.92918574697E+02 0.  0.
          5    1    3    3  502    0 -0.58824185100E+02  0.62948412396E+02 -0.29293271664E+01  0.86306666796E+02  0.41800000000E+01 0.  1.
         -5    1    3    3    0  502  0.14845217583E+02  0.36040441014E+02  0.95647141136E+02  0.10336895995E+03  0.41800000000E+01 0.  1.
        -11    1    4    4    0    0 -0.14751030300E+02 -0.50725807882E+02  0.13289177675E+03  0.14300672994E+03  0.00000000000E+00 0. -1.
         11    1    4    4    0    0  0.58729997817E+02 -0.48263045527E+02  0.59480890954E+02  0.96522073102E+02  0.00000000000E+00 0.  1.
</event>
<event>
 8    1  0.7224924E-009  0.1073774E+03  0.7561462E-02  0.1265505E+00
         -1   -1    0    0    0  501 -0.00000000000E+00  0.00000000000E+00  0.15370260008E+02  0.15370260008E+02  0.00000000000E+00 0.  1.
          1   -1    0    0  501    0  0.00000000000E+00 -0.00000000000E+00 -0.10214252350E+04  0.10214252350E+04  0.00000000000E+00 0. -1.
         25    2    1    2    0    0  0.41168868373E+02  0.40991416410E+02 -0.67027426185E+03  0.68431755163E+03  0.12509098057E+03 0.  0.
         23    2    1    2    0    0 -0.41168868373E+02 -0.40991416410E+02 -0.33578071318E+03  0.35247794342E+03  0.90093514266E+02 0.  0.
          5    1    3    3  502    0 -0.32314125982E+02  0.34296197817E+02 -0.43852346026E+03  0.44106771535E+03  0.41800000000E+01 0.  1.
         -5    1    3    3    0  502  0.73482994355E+02  0.66952185929E+01 -0.23175080159E+03  0.24324983628E+03  0.41800000000E+01 0.  1.
        -11    1    4    4    0    0  0.65312167320E+01  0.17142116522E+02 -0.17213922222E+02  0.25156074199E+02  0.00000000000E+00 0.  1.
         11    1    4    4    0    0 -0.47700085105E+02 -0.58133532932E+02 -0.31856679096E+03  0.32732186922E+03  0.00000000000E+00 0. -1.
</event>
<event>
 8    1  0.7224924E-009  0.1098508E+03  0.7561462E-02  0.1260847E+00
         -3   -1    0    0    0  501 -0.00000000000E+00  0.00000000000E+00  0.23035933101E+02  0.23035933101E+02  0.00000000000E+00 0.  1.
          3   -1    0    0  501    0  0.00000000000E+00 -0.00000000000E+00 -0.82585543303E+03  0.82585543303E+03  0.00000000000E+00 0. -1.
         25    2    1    2    0    0 -0.47225779785E+02 -0.52149081497E+02 -0.29176877307E+03  0.32515765291E+03  0.12509468946E+03 0.  0.
         23    2    1    2    0    0  0.47225779785E+02  0.52149081497E+02 -0.51105072685E+03  0.52373371321E+03  0.90412144999E+02 0.  0.
          5    1    3    3  502    0 -0.19608465251E+02 -0.69465267899E+02 -0.28163413105E+03  0.29076652408E+03  0.41800000000E+01 0.  1.
         -5    1    3    3    0  502 -0.27617314534E+02  0.17316186402E+02 -0.10134642027E+02  0.34391128835E+02  0.41800000000E+01 0.  1.
        -11    1    4    4    0    0  0.62621809105E+02  0.67998481537E+02 -0.40817980562E+03  0.41851647301E+03  0.00000000000E+00 0. -1.
         11    1    4    4    0    0 -0.15396029320E+02 -0.15849400039E+02 -0.10287092123E+03  0.10521724020E+03  0.00000000000E+00 0.  1.
</event>
<event>
 8    1  0.7224924E-009  0.1048909E+03  0.7561462E-02  0.1270335E+00
         -2   -1    0    0    0  501 -0.00000000000E+00  0.00000000000E+00  0.49053380556E+03  0.49053380556E+03  0.00000000000E+00 0.  1.
          2   -1    0    0  501    0  0.00000000000E+00 -0.00000000000E+00 -0.25428248653E+02  0.25428248653E+02  0.00000000000E+00 0. -1.
         25    2    1    2    0    0  0.25330608254E+01 -0.11844761925E+01  0.19988055341E+03  0.23581276310E+03  0.12509038422E+03 0.  0.
         23    2    1    2    0    0 -0.25330608254E+01  0.11844761925E+01  0.26522500349E+03  0.28014929112E+03  0.90174849353E+02 0.  0.
          5    1    3    3  502    0 -0.56213029379E+02  0.15305022295E+02  0.63113239921E+02  0.85993615070E+02  0.41800000000E+01 0.  1.
         -5    1    3    3    0  502  0.58746090205E+02 -0.16489498488E+02  0.13676731349E+03  0.14981914803E+03  0.41800000000E+01 0.  1.
        -11    1    4    4    0    0 -0.42099519317E+02 -0.18542020125E+02  0.13671578532E+03  0.14424764120E+03  0.00000000000E+00 0.  1.
         11    1    4    4    0    0  0.39566458491E+02  0.19726496317E+02  0.12850921817E+03  0.13590164992E+03  0.00000000000E+00 0. -1.
</event>
<event>
 8    1  0.7224924E-009  0.1179929E+03  0.7561462E-02  0.1246445E+00
         -2   -1    0    0    0  501 -0.00000000000E+00  0.00000000000E+00  0.14127548834E+03  0.14127548834E+03  0.00000000000E+00 0.  1.
          2   -1    0    0  501    0  0.00000000000E+00 -0.00000000000E+00 -0.13059496055E+03  0.13059496055E+03  0.00000000000E+00 0. -1.
         25    2    1    2    0    0 -0.61754099503E+02  0.45116781113E+02 -0.38293849446E-01  0.14661519188E+03  0.12508765038E+03 0.  0.
         23    2    1    2    0    0  0.61754099503E+02 -0.45116781113E+02  0.10718821639E+02  0.12525525702E+03  0.98614874786E+02 0.  0.
          5    1    3    3  502    0 -0.70980519749E+02  0.45801300429E+01 -0.45758130958E+02  0.84678750132E+02  0.41800000000E+01 0. -1.
         -5    1    3    3    0  502  0.92264202461E+01  0.40536651070E+02  0.45719837109E+02  0.61936441743E+02  0.41800000000E+01 0. -1.
        -11    1    4    4    0    0  0.72505066236E+02  0.40552621515E+01  0.16855592619E+02  0.74548915375E+02  0.00000000000E+00 0. -1.
         11    1    4    4    0    0 -0.10750966733E+02 -0.49172043265E+02 -0.61367709798E+01  0.50706341641E+02  0.00000000000E+00 0.  1.
</event>
<event>
 8    1  0.7224924E-009  0.9617220E+02  0.7561462E-02  0.1288558E+00
          3   -1    0    0  501    0  0.00000000000E+00  0.00000000000E+00  0.78639409478E+02  0.78639409478E+02  0.00000000000E+00 0. -1.
         -3   -1    0    0    0  501 -0.00000000000E+00 -0.00000000000E+00 -0.16367088261E+03  0.16367088261E+03  0.00000000000E+00 0.  1.
         25    2    1    2    0    0 -0.19140380539E+02  0.19190691972E+02 -0.24780338079E+02  0.13036560929E+03  0.12508593088E+03 0.  0.
         23    2    1    2    0    0  0.19140380539E+02 -0.19190691972E+02 -0.60251135050E+02  0.11194468279E+03  0.90370215811E+02 0.  0.
          5    1    3    3  502    0 -0.39112262271E+02  0.52457691316E+02 -0.51240975609E+02  0.83214712759E+02  0.41800000000E+01 0. -1.
         -5    1    3    3    0  502  0.19971881732E+02 -0.33266999344E+02  0.26460637530E+02  0.47150896532E+02  0.41800000000E+01 0. -1.
        -11    1    4    4    0    0  0.50326531201E+02  0.14596820390E+01 -0.13603213035E+02  0.52153023108E+02  0.00000000000E+00 0. -1.
         11    1    4    4    0    0 -0.31186150662E+02 -0.20650374011E+02 -0.46647922014E+02  0.59791659687E+02  0.00000000000E+00 0.  1.
</event>
<event>
 8    1  0.7224924E-009  0.1294182E+03  0.7561462E-02  0.1228322E+00
         -3   -1    0    0    0  501 -0.00000000000E+00  0.00000000000E+00  0.18698833723E+03  0.18698833723E+03  0.00000000000E+00 0.  1.
          3   -1    0    0  501    0  0.00000000000E+00 -0.00000000000E+00 -0.11596273762E+03  0.11596273762E+03  0.00000000000E+00 0. -1.
         25    2    1    2    0    0  0.79682292662E+02 -0.59125001866E+02  0.29839729275E+02  0.16242901511E+03  0.12509093452E+03 0.  0.
         23    2    1    2    0    0 -0.79682292662E+02  0.59125001866E+02  0.41185870330E+02  0.14052205974E+03  0.90582226446E+02 0.  0.
          5    1    3    3  502    0  0.16407254271E+02 -0.82560831716E+02 -0.85042800753E+01  0.84707048738E+02  0.41800000000E+01 0. -1.
         -5    1    3    3    0  502  0.63275038391E+02  0.23435829850E+02  0.38344009350E+02  0.77721966375E+02  0.41800000000E+01 0. -1.
        -11    1    4    4    0    0 -0.55027810817E+01  0.24462700254E+02 -0.24873060710E+02  0.35318174534E+02  0.00000000000E+00 0. -1.
         11    1    4    4    0    0 -0.74179511580E+02  0.34662301612E+02  0.66058931040E+02  0.10520388520E+03  0.00000000000E+00 0.  1.
</event>
<event>
 8    1  0.7224924E-009  0.1396804E+03  0.7561462E-02  0.1213760E+00
          2   -1    0    0  501    0  0.00000000000E+00  0.00000000000E+00  0.40327087305E+03  0.40327087305E+03  0.00000000000E+00 0. -1.
         -2   -1    0    0    0  501 -0.00000000000E+00 -0.00000000000E+00 -0.10978279108E+03  0.10978279108E+03  0.00000000000E+00 0.  1.
         25    2    1    2    0    0  0.11482260616E+03 -0.25271225723E+02  0.31626550201E+03  0.35985841957E+03  0.12510535014E+03 0.  0.
         23    2    1    2    0    0 -0.11482260616E+03  0.25271225723E+02 -0.22777420038E+02  0.15319524456E+03  0.95535890418E+02 0.  0.
          5    1    3    3  502    0  0.61315847759E+02  0.38228755751E+02  0.22521056410E+03  0.23655515537E+03  0.41800000000E+01 0. -1.
         -5    1    3    3    0  502  0.53506758403E+02 -0.63499981473E+02  0.91054937913E+02  0.12330326419E+03  0.41800000000E+01 0. -1.
        -11    1    4    4    0    0 -0.24539392896E+02  0.22840895122E+02 -0.48799388710E+02  0.59205309156E+02  0.00000000000E+00 0.  1.
         11    1    4    4    0    0 -0.90283213266E+02  0.24303306005E+01  0.26021968672E+02  0.93989935408E+02  0.00000000000E+00 0. -1.
</event>
<event>
 8    1  0.7224924E-009  0.1615699E+03  0.7561462E-02  0.1186936E+00
          1   -1    0    0  501    0  0.00000000000E+00  0.00000000000E+00  0.30308567888E+03  0.30308567888E+03  0.00000000000E+00 0. -1.
         -1   -1    0    0    0  501 -0.00000000000E+00 -0.00000000000E+00 -0.10343729739E+03  0.10343729739E+03  0.00000000000E+00 0.  1.
         25    2    1    2    0    0  0.98712941546E+02  0.70684872812E+02  0.27085814720E+02  0.17641547269E+03  0.12509269192E+03 0.  0.
         23    2    1    2    0    0 -0.98712941546E+02 -0.70684872812E+02  0.17256256677E+03  0.23010750359E+03  0.91820627774E+02 0.  0.
          5    1    3    3  502    0  0.48687423021E+02  0.10207667376E+03  0.51903687716E+01  0.11328956181E+03  0.41800000000E+01 0.  1.
         -5    1    3    3    0  502  0.50025518525E+02 -0.31391800953E+02  0.21895445948E+02  0.63125910877E+02  0.41800000000E+01 0.  1.
        -11    1    4    4    0    0  0.15569093667E+02  0.14213349344E+01  0.29048145481E+02  0.32988052784E+02  0.00000000000E+00 0. -1.
         11    1    4    4    0    0 -0.11428203521E+03 -0.72106207746E+02  0.14351442129E+03  0.19711945080E+03  0.00000000000E+00 0.  1.
</event>
<event>
 8    1  0.7224924E-009  0.1453012E+03  0.7561462E-02  0.1206369E+00
          1   -1    0    0  501    0  0.00000000000E+00  0.00000000000E+00  0.30785251081E+03  0.30785251081E+03  0.00000000000E+00 0. -1.
         -1   -1    0    0    0  501 -0.00000000000E+00 -0.00000000000E+00 -0.85878556198E+02  0.85878556198E+02  0.00000000000E+00 0.  1.
         25    2    1    2    0    0 -0.71485360007E+02 -0.94059503818E+02  0.10065287807E+03  0.19933859611E+03  0.12509007587E+03 0.  0.
         23    2    1    2    0    0  0.71485360007E+02  0.94059503818E+02  0.12132107655E+03  0.19439247091E+03  0.95458274530E+02 0.  0.
          5    1    3    3  502    0 -0.85049784824E+02 -0.56616576107E+02  0.13136931355E+02  0.10309681835E+03  0.41800000000E+01 0.  1.
         -5    1    3    3    0  502  0.13564424818E+02 -0.37442927711E+02  0.87515946713E+02  0.96241777754E+02  0.41800000000E+01 0.  1.
        -11    1    4    4    0    0 -0.18033293133E+02  0.39619065402E+02  0.55986428094E+02  0.70917911244E+02  0.00000000000E+00 0. -1.
         11    1    4    4    0    0  0.89518653140E+02  0.54440438416E+02  0.65334648454E+02  0.12347455966E+03  0.00000000000E+00 0.  1.
</event>
<event>
 8    1  0.7224924E-009  0.1164903E+03  0.7561462E-02  0.1249002E+00
          1   -1    0    0  501    0  0.00000000000E+00  0.00000000000E+00  0.53547681729E+03  0.53547681729E+03  0.00000000000E+00 0. -1.
         -1   -1    0    0    0  501 -0.00000000000E+00 -0.00000000000E+00 -0.28541020900E+02  0.28541020900E+02  0.00000000000E+00 0.  1.
         25    2    1    2    0    0  0.52792639815E+02 -0.26636229637E+02  0.28352326526E+03  0.31548033054E+03  0.12508335409E+03 0.  0.
         23    2    1    2    0    0 -0.52792639815E+02  0.26636229637E+02  0.22341253113E+03  0.24853750765E+03  0.91439499629E+02 0.  0.
          5    1    3    3  502    0  0.60420539207E+02  0.29501908807E+02  0.82113914470E+02  0.10621285954E+03  0.41800000000E+01 0.  1.
         -5    1    3    3    0  502 -0.76278993924E+01 -0.56138138444E+02  0.20140935079E+03  0.20926747101E+03  0.41800000000E+01 0.  1.
        -11    1    4    4    0    0 -0.32325304868E+02  0.60868852089E+02  0.13663245837E+03  0.15303062167E+03  0.00000000000E+00 0.  1.
         11    1    4    4    0    0 -0.20467334946E+02 -0.34232622452E+02  0.86780072764E+02  0.95506885975E+02  0.00000000000E+00 0. -1.
</event>
<event>
 8    1  0.7224924E-009  0.1080141E+03  0.7561462E-02  0.1264292E+00
          3   -1    0    0  501    0  0.00000000000E+00  0.00000000000E+00  0.13510806227E+03  0.13510806227E+03  0.00000000000E+00 0. -1.
         -3   -1    0    0    0  501 -0.00000000000E+00 -0.00000000000E+00 -0.98284644730E+02  0.98284644730E+02  0.00000000000E+00 0.  1.
         25    2    1    2    0    0 -0.23345195033E+02  0.29299172925E+02  0.35665282033E+02  0.13536267629E+03  0.12509037583E+03 0.  0.
         23    2    1    2    0    0  0.23345195033E+02 -0.29299172925E+02  0.11581355045E+01  0.98030030706E+02  0.90582040036E+02 0.  0.
          5    1    3    3  502    0 -0.46838254508E+02  0.63837084560E+02  0.46619834859E+02  0.91977588861E+02  0.41800000000E+01 0. -1.
         -5    1    3    3    0  502  0.23493059475E+02 -0.34537911635E+02 -0.10954552826E+02  0.43385087429E+02  0.41800000000E+01 0. -1.
        -11    1    4    4    0    0 -0.97721512773E+00  0.30338871736E+02  0.12142145916E+02  0.32693023645E+02  0.00000000000E+00 0. -1.
         11    1    4    4    0    0  0.24322410161E+02 -0.59638044660E+02 -0.10984010412E+02  0.65337007061E+02  0.00000000000E+00 0.  1.
</event>
<event>
 8    1  0.7224924E-009  0.6327139E+02  0.7561462E-02  0.1384594E+00
          1   -1    0    0  501    0  0.00000000000E+00  0.00000000000E+00  0.50585877648E+03  0.50585877648E+03  0.00000000000E+00 0.  1.
         -1   -1    0    0    0  501 -0.00000000000E+00 -0.00000000000E+00 -0.24775937728E+02  0.24775937728E+02  0.00000000000E+00 0. -1.
         25    2    1    2    0    0  0.16479805955E+02 -0.14074554064E+02  0.23424538633E+03  0.26643745435E+03  0.12509332111E+03 0.  0.
         23    2    1    2    0    0 -0.16479805955E+02  0.14074554064E+02  0.24683745241E+03  0.26419725985E+03  0.91661262932E+02 0.  0.
          5    1    3    3  502    0  0.22039834584E+02 -0.83040763911E+01 -0.70774494977E+01  0.24945434143E+02  0.41800000000E+01 0. -1.
         -5    1    3    3    0  502 -0.55600286295E+01 -0.57704776730E+01  0.24132283583E+03  0.24149202021E+03  0.41800000000E+01 0. -1.
        -11    1    4    4    0    0  0.35944825575E+02  0.19476350593E+02  0.12284790385E+03  0.12947187416E+03  0.00000000000E+00 0. -1.
         11    1    4    4    0    0 -0.52424631529E+02 -0.54017965288E+01  0.12398954857E+03  0.13472538570E+03  0.00000000000E+00 0.  1.
</event>
<event>
 8    1  0.7224924E-009  0.1520158E+03  0.7561462E-02  0.1198018E+00
          1   -1    0    0  501    0  0.00000000000E+00  0.00000000000E+00  0.85642501623E+02  0.85642501623E+02  0.00000000000E+00 0. -1.
         -1   -1    0    0    0  501 -0.00000000000E+00 -0.00000000000E+00 -0.29279846028E+03  0.29279846028E+03  0.00000000000E+00 0.  1.
         25    2    1    2    0    0  0.11167314844E+03  0.12669374058E+02 -0.14014970560E+03  0.21890271273E+03  0.12508018443E+03 0.  0.
         23    2    1    2    0    0 -0.11167314844E+03 -0.12669374058E+02 -0.67006253050E+02  0.15953824917E+03  0.91275461540E+02 0.  0.
          5    1    3    3  502    0 -0.20577475798E+02  0.22194453372E+02 -0.49707740120E+02  0.58346877367E+02  0.41800000000E+01 0.  1.
         -5    1    3    3    0  502  0.13225062424E+03 -0.95250793140E+01 -0.90441965485E+02  0.16055583536E+03  0.41800000000E+01 0.  1.
        -11    1    4    4    0    0 -0.24994452287E+02  0.34137912279E+02 -0.37672396957E+01  0.42477191466E+02  0.00000000000E+00 0.  1.
         11    1    4    4    0    0 -0.86678696154E+02 -0.46807286337E+02 -0.63239013354E+02  0.11706105771E+03  0.00000000000E+00 0. -1.
</event>
<event>
 8    1  0.7224924E-009  0.1055123E+03  0.7561462E-02  0.1269113E+00
         -4   -1    0    0    0  501 -0.00000000000E+00  0.00000000000E+00  0.62473236092E+02  0.62473236092E+02  0.00000000000E+00 0.  1.
          4   -1    0    0  501    0  0.00000000000E+00 -0.00000000000E+00 -0.28227520591E+03  0.28227520591E+03  0.00000000000E+00 0. -1.
         25    2    1    2    0    0 -0.27254344790E+02 -0.65538531843E+02 -0.14953538318E+03  0.20747932489E+03  0.12509492783E+03 0.  0.
         23    2    1    2    0    0  0.27254344790E+02  0.65538531843E+02 -0.70266586636E+02  0.13726911710E+03  0.94166442256E+02 0.  0.
          5    1    3    3  502    0  0.22083560194E+01  0.29064995756E+02 -0.17457815638E+01  0.29498660442E+02  0.41800000000E+01 0.  1.
         -5    1    3    3    0  502 -0.29462700809E+02 -0.94603527600E+02 -0.14778960161E+03  0.17798066445E+03  0.41800000000E+01 0.  1.
        -11    1    4    4    0    0  0.34264331892E+02  0.28094029041E+02 -0.85453804624E+02  0.96258358767E+02  0.00000000000E+00 0. -1.
         11    1    4    4    0    0 -0.70099871015E+01  0.37444502802E+02  0.15187217988E+02  0.41010758338E+02  0.00000000000E+00 0.  1.
</event>
<event>
 8    1  0.7224924E-009  0.1106772E+03  0.7561462E-02  0.1259321E+00
         -1   -1    0    0    0  501 -0.00000000000E+00  0.00000000000E+00  0.15316485526E+02  0.15316485526E+02  0.00000000000E+00 0.  1.
          1   -1    0    0  501    0  0.00000000000E+00 -0.00000000000E+00 -0.10046355666E+04  0.10046355666E+04  0.00000000000E+00 0. -1.
         25    2    1    2    0    0  0.40457104783E+01 -0.56281300154E+02 -0.64108418210E+03  0.65560690820E+03  0.12509011557E+03 0.  0.
         23    2    1    2    0    0 -0.40457104783E+01  0.56281300154E+02 -0.34823489900E+03  0.36434514396E+03  0.91081757358E+02 0.  0.
          5    1    3    3  502    0  0.51588624031E+02 -0.66477130086E+02 -0.32330506582E+03  0.33410212950E+03  0.41800000000E+01 0. -1.
         -5    1    3    3    0  502 -0.47542913553E+02  0.10195829932E+02 -0.31777911629E+03  0.32150477870E+03  0.41800000000E+01 0. -1.
        -11    1    4    4    0    0  0.29819422338E+02  0.42090197536E+02 -0.29620883239E+03  0.30066668432E+03  0.00000000000E+00 0. -1.
         11    1    4    4    0    0 -0.33865132817E+02  0.14191102617E+02 -0.52026066609E+02  0.63678459631E+02  0.00000000000E+00 0.  1.
</event>
<event>
 8    1  0.7224924E-009  0.1588136E+03  0.7561462E-02  0.1190043E+00
          2   -1    0    0  501    0  0.00000000000E+00  0.00000000000E+00  0.81635232458E+03  0.81635232458E+03  0.00000000000E+00 0. -1.
         -2   -1    0    0    0  501 -0.00000000000E+00 -0.00000000000E+00 -0.51512438527E+02  0.51512438527E+02  0.00000000000E+00 0.  1.
         25    2    1    2    0    0  0.84456291450E+02  0.11327827113E+03  0.60360351987E+03  0.63241517606E+03  0.12508762464E+03 0.  0.
         23    2    1    2    0    0 -0.84456291450E+02 -0.11327827113E+03  0.16123636618E+03  0.23544958704E+03  0.97337096654E+02 0.  0.
          5    1    3    3  502    0  0.33226063764E+02  0.76638819662E+02  0.52492051379E+03  0.53154162413E+03  0.41800000000E+01 0.  1.
         -5    1    3    3    0  502  0.51230227686E+02  0.36639451463E+02  0.78683006086E+02  0.10087355193E+03  0.41800000000E+01 0.  1.
        -11    1    4    4    0    0 -0.50293800038E+02  0.23010648965E+01  0.38018004142E+02  0.63088270391E+02  0.00000000000E+00 0. -1.
         11    1    4    4    0    0 -0.34162491412E+02 -0.11557933602E+03  0.12321836204E+03  0.17236131665E+03  0.00000000000E+00 0.  1.
</event>
<event>
 8    1  0.7224924E-009  0.1102887E+03  0.7561462E-02  0.1260036E+00
         -3   -1    0    0    0  501 -0.00000000000E+00  0.00000000000E+00  0.56112237394E+02  0.56112237394E+02  0.00000000000E+00 0.  1.
          3   -1    0    0  501    0  0.00000000000E+00 -0.00000000000E+00 -0.45037750721E+03  0.45037750721E+03  0.00000000000E+00 0. -1.
         25    2    1    2    0    0  0.29949849713E+02  0.89704731164E+02 -0.10503872438E+03  0.18874480655E+03  0.12509011187E+03 0.  0.
         23    2    1    2    0    0 -0.29949849713E+02 -0.89704731164E+02 -0.28922654543E+03  0.31774493805E+03  0.91465396652E+02 0.  0.
          5    1    3    3  502    0 -0.93029387227E+01  0.72703145549E+02  0.19549710921E+01  0.73441039982E+02  0.41800000000E+01 0. -1.
         -5    1    3    3    0  502  0.39252788435E+02  0.17001585615E+02 -0.10699369547E+03  0.11530376657E+03  0.41800000000E+01 0. -1.
        -11    1    4    4    0    0 -0.39794232822E+02 -0.53588106792E+02 -0.26471294558E+03  0.27299855258E+03  0.00000000000E+00 0. -1.
         11    1    4    4    0    0  0.98443831095E+01 -0.36116624372E+02 -0.24513599854E+02  0.44746385470E+02  0.00000000000E+00 0.  1.
</event>
<event>
 8    1  0.7224924E-009  0.1385796E+03  0.7561462E-02  0.1215253E+00
          2   -1    0    0  501    0  0.00000000000E+00  0.00000000000E+00  0.14173198061E+03  0.14173198061E+03  0.00000000000E+00 0. -1.
         -2   -1    0    0    0  501 -0.00000000000E+00 -0.00000000000E+00 -0.17244304154E+03  0.17244304154E+03  0.00000000000E+00 0.  1.
         25    2    1    2    0    0 -0.84124435913E+02  0.60428974178E+02  0.27173574786E+02  0.16466362849E+03  0.12508847166E+03 0.  0.
         23    2    1    2    0    0  0.84124435913E+02 -0.60428974178E+02 -0.57884635717E+02  0.14951139365E+03  0.90963971668E+02 0.  0.
          5    1    3    3  502    0 -0.99872108140E+02  0.76046706902E+02 -0.46085524120E+01  0.12568313638E+03  0.41800000000E+01 0. -1.
         -5    1    3    3    0  502  0.15747672227E+02 -0.15617732723E+02  0.31782127198E+02  0.38980492111E+02  0.41800000000E+01 0. -1.
        -11    1    4    4    0    0  0.40684967078E+02  0.13820374304E+02 -0.45533142360E+02  0.62606200534E+02  0.00000000000E+00 0.  1.
         11    1    4    4    0    0  0.43439468835E+02 -0.74249348483E+02 -0.12351493357E+02  0.86905193118E+02  0.00000000000E+00 0. -1.
</event>
<event>
 8    1  0.7224924E-009  0.9650721E+02  0.7561462E-02  0.1287817E+00
         -1   -1    0    0    0  501 -0.00000000000E+00  0.00000000000E+00  0.33083761228E+02  0.33083761228E+02  0.00000000000E+00 0.  1.
          1   -1    0    0  501    0  0.00000000000E+00 -0.00000000000E+00 -0.47308932300E+03  0.47308932300E+03  0.00000000000E+00 0. -1.
         25    2    1    2    0    0  0.43831560514E+02  0.21719284980E+01 -0.33655656411E+03  0.36172352138E+03  0.12509061558E+03 0.  0.
         23    2    1    2    0    0 -0.43831560514E+02 -0.21719284980E+01 -0.10344899766E+03  0.14444956284E+03  0.90763748919E+02 0.  0.
          5    1    3    3  502    0  0.24066529989E+02  0.60533834114E+02 -0.12088429702E+03  0.13738278132E+03  0.41800000000E+01 0.  1.
         -5    1    3    3    0  502  0.19765030525E+02 -0.58361905617E+02 -0.21567226709E+03  0.22434074006E+03  0.41800000000E+01 0.  1.
        -11    1    4    4    0    0 -0.55445729129E+01  0.20666394952E+02 -0.97086731071E+02  0.99416676263E+02  0.00000000000E+00 0. -1.
         11    1    4    4    0    0 -0.38286987601E+02 -0.22838323450E+02 -0.63622665908E+01  0.45032886580E+02  0.00000000000E+00 0.  1.
</event>
<event>
 8    1  0.7224924E-009  0.9161280E+02  0.7561462E-02  0.1298992E+00
         -1   -1    0    0    0  501 -0.00000000000E+00  0.00000000000E+00  0.14113059194E+03  0.14113059194E+03  0.00000000000E+00 0. -1.
          1   -1    0    0  501    0  0.00000000000E+00 -0.00000000000E+00 -0.10861235595E+03  0.10861235595E+03  0.00000000000E+00 0.  1.
         25    2    1    2    0    0  0.34613049073E+02 -0.71265470162E+01 -0.31133392690E+02  0.13366306496E+03  0.12509067094E+03 0.  0.
         23    2    1    2    0    0 -0.34613049073E+02  0.71265470162E+01  0.63651628682E+02  0.11607988294E+03  0.90411053252E+02 0.  0.
          5    1    3    3  502    0  0.67031708487E+02 -0.28818460248E+01  0.22347191049E+02  0.70840837989E+02  0.41800000000E+01 0. -1.
         -5    1    3    3    0  502 -0.32418659414E+02 -0.42447009913E+01 -0.53480583739E+02  0.62822226972E+02  0.41800000000E+01 0. -1.
        -11    1    4    4    0    0 -0.26231790080E+00  0.37311138262E+02 -0.47950445400E+00  0.37315141345E+02  0.00000000000E+00 0.  1.
         11    1    4    4    0    0 -0.34350731172E+02 -0.30184591245E+02  0.64131133136E+02  0.78764741592E+02  0.00000000000E+00 0. -1.
</event>
<event>
 8    1  0.7224924E-009  0.1818963E+03  0.7561462E-02  0.1165980E+00
          2   -1    0    0  501    0  0.00000000000E+00  0.00000000000E+00  0.26240938615E+03  0.26240938615E+03  0.00000000000E+00 0. -1.
         -2   -1    0    0    0  501 -0.00000000000E+00 -0.00000000000E+00 -0.13556314524E+03  0.13556314524E+03  0.00000000000E+00 0.  1.
         25    2    1    2    0    0  0.41505973993E+02 -0.14460201830E+03  0.78613378997E+02  0.21085650354E+03  0.12509161504E+03 0.  0.
         23    2    1    2    0    0 -0.41505973993E+02  0.14460201830E+03  0.48232861913E+02  0.18711602784E+03  0.10026718971E+03 0.  0.
          5    1    3    3  502    0  0.43356018247E+02 -0.16706650302E+03  0.71287766550E+02  0.18678966462E+03  0.41800000000E+01 0.  1.
         -5    1    3    3    0  502 -0.18500442547E+01  0.22464484723E+02  0.73256124472E+01  0.24066838915E+02  0.41800000000E+01 0.  1.
        -11    1    4    4    0    0 -0.56382134982E+02  0.60068984559E+02 -0.10589147326E+02  0.83062374708E+02  0.00000000000E+00 0.  1.
         11    1    4    4    0    0  0.14876160989E+02  0.84533033742E+02  0.58822009240E+02  0.10405365313E+03  0.00000000000E+00 0. -1.
</event>
<event>
 8    1  0.7224924E-009  0.7773159E+02  0.7561462E-02  0.1335615E+00
          1   -1    0    0  501    0  0.00000000000E+00  0.00000000000E+00  0.17925923389E+03  0.17925923389E+03  0.00000000000E+00 0. -1.
         -1   -1    0    0    0  501 -0.00000000000E+00 -0.00000000000E+00 -0.10295368093E+03  0.10295368093E+03  0.00000000000E+00 0.  1.
         25    2    1    2    0    0 -0.71738861151E+02 -0.19471889191E+02  0.72884236387E+02  0.16274577902E+03  0.12509379684E+03 0.  0.
         23    2    1    2    0    0  0.71738861151E+02  0.19471889191E+02  0.34213165697E+01  0.11946713580E+03  0.93461609562E+02 0.  0.
          5    1    3    3  502    0 -0.51635529485E+02 -0.19519604311E+02 -0.26419850014E+02  0.61341044436E+02  0.41800000000E+01 0.  1.
         -5    1    3    3    0  502 -0.20103331665E+02  0.47715120788E-01  0.99304086401E+02  0.10140473459E+03  0.41800000000E+01 0.  1.
        -11    1    4    4    0    0  0.31276414270E+02 -0.58758502533E+01  0.45702568915E+02  0.55690793774E+02  0.00000000000E+00 0. -1.
         11    1    4    4    0    0  0.40462446881E+02  0.25347739444E+02 -0.42281252346E+02  0.63776342028E+02  0.00000000000E+00 0.  1.
</event>
<event>
 8    1  0.7224924E-009  0.1864965E+03  0.7561462E-02  0.1161660E+00
         -1   -1    0    0    0  501 -0.00000000000E+00  0.00000000000E+00  0.25914345155E+03  0.25914345155E+03  0.00000000000E+00 0.  1.
          1   -1    0    0  501    0  0.00000000000E+00 -0.00000000000E+00 -0.20895447376E+03  0.20895447376E+03  0.00000000000E+00 0. -1.
         25    2    1    2    0    0 -0.17559539974E+03 -0.45963163930E+02  0.12347714915E+03  0.25266644206E+03  0.12508943893E+03 0.  0.
         23    2    1    2    0    0  0.17559539974E+03  0.45963163930E+02 -0.73288171361E+02  0.21543148324E+03  0.89962275774E+02 0.  0.
          5    1    3    3  502    0 -0.13817515087E+02 -0.24853283925E+01  0.77542725312E+02  0.78914176352E+02  0.41800000000E+01 0. -1.
         -5    1    3    3    0  502 -0.16177788465E+03 -0.43477835537E+02  0.45934423842E+02  0.17375226571E+03  0.41800000000E+01 0. -1.
        -11    1    4    4    0    0  0.38750677858E+02 -0.14223445168E+02  0.12423965002E+02  0.43107729391E+02  0.00000000000E+00 0.  1.
         11    1    4    4    0    0  0.13684472188E+03  0.60186609098E+02 -0.85712136362E+02  0.17232375385E+03  0.00000000000E+00 0. -1.
</event>
<event>
 8    1  0.7224924E-009  0.1352885E+03  0.7561462E-02  0.1219813E+00
          1   -1    0    0  501    0  0.00000000000E+00  0.00000000000E+00  0.61359936483E+03  0.61359936483E+03  0.00000000000E+00 0.  1.
         -1   -1    0    0    0  501 -0.00000000000E+00 -0.00000000000E+00 -0.45310724789E+02  0.45310724789E+02  0.00000000000E+00 0. -1.
         25    2    1    2    0    0 -0.42762739830E+02 -0.98703459378E+02  0.17203611408E+03  0.23835869561E+03  0.12508964151E+03 0.  0.
         23    2    1    2    0    0  0.42762739830E+02  0.98703459378E+02  0.39625252596E+03  0.42055139401E+03  0.90974644063E+02 0.  0.
          5    1    3    3  502    0 -0.34370480530E+01  0.22725450539E+02  0.73305521413E+02  0.76937840307E+02  0.41800000000E+01 0.  1.
         -5    1    3    3    0  502 -0.39325691777E+02 -0.12142890992E+03  0.98730592665E+02  0.16142085530E+03  0.41800000000E+01 0.  1.
        -11    1    4    4    0    0 -0.22532369978E+01  0.60288649063E+02  0.31084019400E+03  0.31664084463E+03  0.00000000000E+00 0.  1.
         11    1    4    4    0    0  0.45015976827E+02  0.38414810315E+02  0.85412331964E+02  0.10391054938E+03  0.00000000000E+00 0. -1.
</event>
<event>
 8    1  0.7224924E-009  0.1374701E+03  0.7561462E-02  0.1216774E+00
          1   -1    0    0  501    0  0.00000000000E+00  0.00000000000E+00  0.27701130148E+03  0.27701130148E+03  0.00000000000E+00 0. -1.
         -1   -1    0    0    0  501 -0.00000000000E+00 -0.00000000000E+00 -0.10571080807E+03  0.10571080807E+03  0.00000000000E+00 0.  1.
         25    2    1    2    0    0  0.91651480421E+02 -0.81253371815E+02  0.49399471822E+02  0.18190596591E+03  0.12508944129E+03 0.  0.
         23    2    1    2    0    0 -0.91651480421E+02  0.81253371815E+02  0.12190102159E+03  0.20081614364E+03  0.10229936552E+03 0.  0.
          5    1    3    3  502    0  0.10388810717E+03 -0.80842195182E+02  0.76191437145E+02  0.15215389193E+03  0.41800000000E+01 0.  1.
         -5    1    3    3    0  502 -0.12236626751E+02 -0.41117663221E+00 -0.26791965324E+02  0.29752073984E+02  0.41800000000E+01 0.  1.
        -11    1    4    4    0    0 -0.69103990046E+02  0.32046408559E+02  0.10410341441E+02  0.76881135208E+02  0.00000000000E+00 0.  1.
         11    1    4    4    0    0 -0.22547490375E+02  0.49206963255E+02  0.11149068015E+03  0.12393500843E+03  0.00000000000E+00 0. -1.
</event>
<event>
 8    1  0.7224924E-009  0.9188793E+02  0.7561462E-02  0.1298343E+00
         -1   -1    0    0    0  501 -0.00000000000E+00  0.00000000000E+00  0.32081520385E+02  0.32081520385E+02  0.00000000000E+00 0.  1.
          1   -1    0    0  501    0  0.00000000000E+00 -0.00000000000E+00 -0.57716825918E+03  0.57716825918E+03  0.00000000000E+00 0. -1.
         25    2    1    2    0    0 -0.68487957575E+01  0.61083009454E+02 -0.42250542149E+03  0.44490368733E+03  0.12510163775E+03 0.  0.
         23    2    1    2    0    0  0.68487957575E+01 -0.61083009454E+02 -0.12258131731E+03  0.16434609224E+03  0.90583765833E+02 0.  0.
          5    1    3    3  502    0  0.36621307440E+02  0.66782931834E+02 -0.36268564521E+03  0.37062033104E+03  0.41800000000E+01 0. -1.
         -5    1    3    3    0  502 -0.43470103197E+02 -0.56999223799E+01 -0.59819776278E+02  0.74283356286E+02  0.41800000000E+01 0. -1.
        -11    1    4    4    0    0  0.85461618110E+01 -0.14425236347E+02  0.12829636569E+02  0.21112174210E+02  0.00000000000E+00 0.  1.
         11    1    4    4    0    0 -0.16973660535E+01 -0.46657773108E+02 -0.13541095388E+03  0.14323391803E+03  0.00000000000E+00 0. -1.
</event>
<event>
 8    1  0.7224924E-009  0.9958177E+02  0.7561462E-02  0.1281178E+00
          1   -1    0    0  501    0  0.00000000000E+00  0.00000000000E+00  0.37038505893E+03  0.37038505893E+03  0.00000000000E+00 0. -1.
         -1   -1    0    0    0  501 -0.00000000000E+00 -0.00000000000E+00 -0.37763247046E+02  0.37763247046E+02  0.00000000000E+00 0.  1.
         25    2    1    2    0    0 -0.29442296097E+02  0.69687821645E+01  0.24753715365E+03  0.27899288559E+03  0.12508786933E+03 0.  0.
         23    2    1    2    0    0  0.29442296097E+02 -0.69687821645E+01  0.85084658237E+02  0.12915542038E+03  0.92338024790E+02 0.  0.
          5    1    3    3  502    0 -0.38772857130E+02 -0.53467777524E+02  0.14757707695E+03  0.16173621649E+03  0.41800000000E+01 0.  1.
         -5    1    3    3    0  502  0.93305610327E+01  0.60436559689E+02  0.99960076696E+02  0.11725666910E+03  0.41800000000E+01 0.  1.
        -11    1    4    4    0    0  0.29588607975E+02  0.25596690684E+02  0.11679578093E+01  0.39141287937E+02  0.00000000000E+00 0.  1.
         11    1    4    4    0    0 -0.14631187820E+00 -0.32565472849E+02  0.83916700428E+02  0.90014132444E+02  0.00000000000E+00 0. -1.
</event>
<event>
 8    1  0.7224924E-009  0.1023246E+03  0.7561462E-02  0.1275482E+00
         -1   -1    0    0    0  501 -0.00000000000E+00  0.00000000000E+00  0.11097914879E+03  0.11097914879E+03  0.00000000000E+00 0.  1.
          1   -1    0    0  501    0  0.00000000000E+00 -0.00000000000E+00 -0.13416392443E+03  0.13416392443E+03  0.00000000000E+00 0. -1.
         25    2    1    2    0    0 -0.20074321115E+02 -0.14769991148E+02 -0.61568481737E+02  0.14163326911E+03  0.12509266153E+03 0.  0.
         23    2    1    2    0    0  0.20074321115E+02  0.14769991148E+02  0.38383706103E+02  0.10350980411E+03  0.92843091534E+02 0.  0.
          5    1    3    3  502    0  0.15504388363E+02 -0.60360027738E+02 -0.55105342002E+02  0.83293397843E+02  0.41800000000E+01 0. -1.
         -5    1    3    3    0  502 -0.35578709478E+02  0.45590036590E+02 -0.64631397348E+01  0.58339871269E+02  0.41800000000E+01 0. -1.
        -11    1    4    4    0    0  0.45038863852E+02  0.30779956702E+02  0.47656801801E+02  0.72436701674E+02  0.00000000000E+00 0.  1.
         11    1    4    4    0    0 -0.24964542736E+02 -0.16009965554E+02 -0.92730956973E+01  0.31073102434E+02  0.00000000000E+00 0. -1.
</event>
<event>
 8    1  0.7224924E-009  0.9907398E+02  0.7561462E-02  0.1282255E+00
         -1   -1    0    0    0  501 -0.00000000000E+00  0.00000000000E+00  0.68712558011E+02  0.68712558011E+02  0.00000000000E+00 0.  1.
          1   -1    0    0  501    0  0.00000000000E+00 -0.00000000000E+00 -0.22353035967E+03  0.22353035967E+03  0.00000000000E+00 0. -1.
         25    2    1    2    0    0 -0.25292256656E+02 -0.53171432339E+02 -0.77808926054E+02  0.15863478125E+03  0.12507543877E+03 0.  0.
         23    2    1    2    0    0  0.25292256656E+02  0.53171432339E+02 -0.77008875606E+02  0.13360813643E+03  0.91944916854E+02 0.  0.
          5    1    3    3  502    0 -0.48456643297E+02  0.49737155711E+01  0.10800381618E+02  0.50069000083E+02  0.41800000000E+01 0. -1.
         -5    1    3    3    0  502  0.23164386641E+02 -0.58145147910E+02 -0.88609307672E+02  0.10856578117E+03  0.41800000000E+01 0. -1.
        -11    1    4    4    0    0 -0.21452219982E+02  0.18534432682E+02  0.90229971929E+01  0.29751259055E+02  0.00000000000E+00 0.  1.
         11    1    4    4    0    0  0.46744476638E+02  0.34636999657E+02 -0.86031872799E+02  0.10385687738E+03  0.00000000000E+00 0. -1.
</event>
<event>
 8    1  0.7224924E-009  0.1501856E+03  0.7561462E-02  0.1200245E+00
          1   -1    0    0  501    0  0.00000000000E+00  0.00000000000E+00  0.33364303559E+03  0.33364303559E+03  0.00000000000E+00 0. -1.
         -1   -1    0    0    0  501 -0.00000000000E+00 -0.00000000000E+00 -0.80237668900E+02  0.80237668900E+02  0.00000000000E+00 0.  1.
         25    2    1    2    0    0  0.62958887887E+02 -0.10476259179E+03  0.12857405394E+03  0.21706841469E+03  0.12509351346E+03 0.  0.
         23    2    1    2    0    0 -0.62958887887E+02  0.10476259179E+03  0.12483131275E+03  0.19681228979E+03  0.90626698988E+02 0.  0.
          5    1    3    3  502    0  0.84015032835E+02 -0.32614200405E+02  0.10445668293E+03  0.13802493550E+03  0.41800000000E+01 0.  1.
         -5    1    3    3    0  502 -0.21056144948E+02 -0.72148391381E+02  0.24117371007E+02  0.79043479195E+02  0.41800000000E+01 0.  1.
        -11    1    4    4    0    0  0.96171142581E+01  0.26261320614E+02  0.72650895115E+02  0.77847918457E+02  0.00000000000E+00 0. -1.
         11    1    4    4    0    0 -0.72576002146E+02  0.78501271172E+02  0.52180417633E+02  0.11896437134E+03  0.00000000000E+00 0.  1.
</event>
<event>
 8    1  0.7224924E-009  0.9748756E+02  0.7561462E-02  0.1285670E+00
          2   -1    0    0  501    0  0.00000000000E+00  0.00000000000E+00  0.68129052874E+02  0.68129052874E+02  0.00000000000E+00 0. -1.
         -2   -1    0    0    0  501 -0.00000000000E+00 -0.00000000000E+00 -0.22867976215E+03  0.22867976215E+03  0.00000000000E+00 0.  1.
         25    2    1    2    0    0  0.27482059167E+02 -0.52315503356E+02 -0.72816279570E+02  0.15635307036E+03  0.12510754003E+03 0.  0.
         23    2    1    2    0    0 -0.27482059167E+02  0.52315503356E+02 -0.87734429708E+02  0.14045574467E+03  0.92402979314E+02 0.  0.
          5    1    3    3  502    0 -0.46834116400E+02 -0.28208518397E+02 -0.93841294332E+01  0.55629931281E+02  0.41800000000E+01 0.  1.
         -5    1    3    3    0  502  0.74316175567E+02 -0.24106984959E+02 -0.63432150137E+02  0.10072313908E+03  0.41800000000E+01 0.  1.
        -11    1    4    4    0    0 -0.11422808073E+02  0.40183666720E+02 -0.10558783707E+03  0.11355174570E+03  0.00000000000E+00 0.  1.
         11    1    4    4    0    0 -0.16059251094E+02  0.12131836637E+02  0.17853407360E+02  0.26903998964E+02  0.00000000000E+00 0. -1.
</event>
<event>
 8    1  0.7224924E-009  0.1747070E+03  0.7561462E-02  0.1173026E+00
         -2   -1    0    0    0  501 -0.00000000000E+00  0.00000000000E+00  0.15767253497E+03  0.15767253497E+03  0.00000000000E+00 0.  1.
          2   -1    0    0  501    0  0.00000000000E+00 -0.00000000000E+00 -0.21777566581E+03  0.21777566581E+03  0.00000000000E+00 0. -1.
         25    2    1    2    0    0  0.11291429952E+03  0.99364859020E+02 -0.31451177704E+02  0.19814047126E+03  0.12508978986E+03 0.  0.
         23    2    1    2    0    0 -0.11291429952E+03 -0.99364859020E+02 -0.28651953139E+02  0.17730772951E+03  0.89409631934E+02 0.  0.
          5    1    3    3  502    0  0.99479193492E+02  0.12359677372E+03 -0.37773441896E+01  0.15875771837E+03  0.41800000000E+01 0.  1.
         -5    1    3    3    0  502  0.13435106028E+02 -0.24231914701E+02 -0.27673833515E+02  0.39382752893E+02  0.41800000000E+01 0.  1.
        -11    1    4    4    0    0 -0.46676355785E+02 -0.43810506972E+01  0.20928780224E+02  0.51340915810E+02  0.00000000000E+00 0.  1.
         11    1    4    4    0    0 -0.66237943735E+02 -0.94983808323E+02 -0.49580733363E+02  0.12596681370E+03  0.00000000000E+00 0. -1.
</event>
<event>
 8    1  0.7224924E-009  0.1440717E+03  0.7561462E-02  0.1207953E+00
          1   -1    0    0  501    0  0.00000000000E+00  0.00000000000E+00  0.18464220065E+03  0.18464220065E+03  0.00000000000E+00 0. -1.
         -1   -1    0    0    0  501 -0.00000000000E+00 -0.00000000000E+00 -0.21389673729E+03  0.21389673729E+03  0.00000000000E+00 0.  1.
         25    2    1    2    0    0 -0.58055549096E+02 -0.10719648792E+03  0.98448237410E+02  0.20050202223E+03  0.12508985437E+03 0.  0.
         23    2    1    2    0    0  0.58055549096E+02  0.10719648792E+03 -0.12770277405E+03  0.19803691570E+03  0.89716707904E+02 0.  0.
          5    1    3    3  502    0 -0.61528613086E+01 -0.80330317897E+02  0.11420695181E+03  0.13982674250E+03  0.41800000000E+01 0.  1.
         -5    1    3    3    0  502 -0.51902687787E+02 -0.26866170028E+02 -0.15758714398E+02  0.60675279736E+02  0.41800000000E+01 0.  1.
        -11    1    4    4    0    0 -0.95101018811E+00  0.86260581034E+02 -0.91319529548E+02  0.12562264421E+03  0.00000000000E+00 0.  1.
         11    1    4    4    0    0  0.59006559284E+02  0.20935906891E+02 -0.36383244503E+02  0.72414271497E+02  0.00000000000E+00 0. -1.
</event>
<event>
 8    1  0.7224924E-009  0.1074108E+03  0.7561462E-02  0.1265441E+00
          3   -1    0    0  501    0  0.00000000000E+00  0.00000000000E+00  0.22948209131E+03  0.22948209131E+03  0.00000000000E+00 0. -1.
         -3   -1    0    0    0  501 -0.00000000000E+00 -0.00000000000E+00 -0.89282161131E+02  0.89282161131E+02  0.00000000000E+00 0.  1.
         25    2    1    2    0    0  0.86334834930E+02 -0.24491506966E+02  0.95265715741E+02  0.18104361641E+03  0.12509075429E+03 0.  0.
         23    2    1    2    0    0 -0.86334834930E+02  0.24491506966E+02  0.44934214436E+02  0.13772063603E+03  0.94309873960E+02 0.  0.
          5    1    3    3  502    0  0.64048944357E+02 -0.49075570887E+02  0.11624321263E+03  0.14156495263E+03  0.41800000000E+01 0. -1.
         -5    1    3    3    0  502  0.22285890574E+02  0.24584063921E+02 -0.20977496890E+02  0.39478663773E+02  0.41800000000E+01 0. -1.
        -11    1    4    4    0    0 -0.73775334881E+02  0.81595086238E+00  0.69503970026E+02  0.10136206224E+03  0.00000000000E+00 0. -1.
         11    1    4    4    0    0 -0.12559500049E+02  0.23675556104E+02 -0.24569755590E+02  0.36358573790E+02  0.00000000000E+00 0.  1.
</event>
<event>
 8    1  0.7224924E-009  0.1135935E+03  0.7561462E-02  0.1254056E+00
          2   -1    0    0  501    0  0.00000000000E+00  0.00000000000E+00  0.23900965473E+03  0.23900965473E+03  0.00000000000E+00 0. -1.
         -2   -1    0    0    0  501 -0.00000000000E+00 -0.00000000000E+00 -0.59535954570E+02  0.59535954570E+02  0.00000000000E+00 0.  1.
         25    2    1    2    0    0  0.13220934116E+02 -0.43833673519E+02  0.82553832848E+02  0.15671258999E+03  0.12509003362E+03 0.  0.
         23    2    1    2    0    0 -0.13220934116E+02  0.43833673519E+02  0.96919867315E+02  0.14183301931E+03  0.92881433308E+02 0.  0.
          5    1    3    3  502    0  0.49555158785E+02  0.18415189893E+02  0.92641546423E+01  0.53834282221E+02  0.41800000000E+01 0. -1.
         -5    1    3    3    0  502 -0.36334224670E+02 -0.62248863412E+02  0.73289678206E+02  0.10287830777E+03  0.41800000000E+01 0. -1.
        -11    1    4    4    0    0 -0.52611544027E+02  0.26759313932E+02  0.68123374736E+02  0.90137836853E+02  0.00000000000E+00 0. -1.
         11    1    4    4    0    0  0.39390609912E+02  0.17074359587E+02  0.28796492579E+02  0.51695182458E+02  0.00000000000E+00 0.  1.
</event>
<event>
 8    1  0.7224924E-009  0.1264428E+03  0.7561462E-02  0.1232832E+00
         -1   -1    0    0    0  501 -0.00000000000E+00  0.00000000000E+00  0.14571688632E+03  0.14571688632E+03  0.00000000000E+00 0.  1.
          1   -1    0    0  501    0  0.00000000000E+00 -0.00000000000E+00 -0.14335093827E+03  0.14335093827E+03  0.00000000000E+00 0. -1.
         25    2    1    2    0    0  0.87590344836E+02 -0.16638238198E+02  0.15254254170E+02  0.15436790906E+03  0.12509140497E+03 0.  0.
         23    2    1    2    0    0 -0.87590344836E+02  0.16638238198E+02 -0.12888306128E+02  0.13469991553E+03  0.10014519125E+03 0.  0.
          5    1    3    3  502    0  0.24962172951E+02  0.42036721001E+02  0.41779371188E+02  0.64445203451E+02  0.41800000000E+01 0.  1.
         -5    1    3    3    0  502  0.62628171885E+02 -0.58674959199E+02 -0.26525117018E+02  0.89922705606E+02  0.41800000000E+01 0.  1.
        -11    1    4    4    0    0 -0.86338883993E+02  0.39538556021E+02 -0.36545147145E+02  0.10175091194E+03  0.00000000000E+00 0.  1.
         11    1    4    4    0    0 -0.12514608432E+01 -0.22900317823E+02  0.23656841017E+02  0.32949003589E+02  0.00000000000E+00 0. -1.
</event>
<event>
 8    1  0.7224924E-009  0.8587274E+02  0.7561462E-02  0.1313166E+00
         -2   -1    0    0    0  501 -0.00000000000E+00  0.00000000000E+00  0.69637667400E+03  0.69637667400E+03  0.00000000000E+00 0.  1.
          2   -1    0    0  501    0  0.00000000000E+00 -0.00000000000E+00 -0.23646192829E+02  0.23646192829E+02  0.00000000000E+00 0. -1.
         25    2    1    2    0    0 -0.29861781868E+02  0.32411071381E+01  0.53356369733E+03  0.54885312801E+03  0.12508919308E+03 0.  0.
         23    2    1    2    0    0  0.29861781868E+02 -0.32411071381E+01  0.13916678384E+03  0.17116973882E+03  0.95023444326E+02 0.  0.
          5    1    3    3  502    0  0.11236504819E+02 -0.49825002310E+02  0.13021218020E+03  0.13993382067E+03  0.41800000000E+01 0. -1.
         -5    1    3    3    0  502 -0.41098286687E+02  0.53066109448E+02  0.40335151713E+03  0.40891930734E+03  0.41800000000E+01 0. -1.
        -11    1    4    4    0    0  0.37773936155E+02  0.88517443258E+01  0.14881792260E+03  0.15379205999E+03  0.00000000000E+00 0.  1.
         11    1    4    4    0    0 -0.79121542873E+01 -0.12092851464E+02 -0.96511387605E+01  0.17377678826E+02  0.00000000000E+00 0. -1.
</event>
<event>
 8    1  0.7224924E-009  0.1042002E+03  0.7561462E-02  0.1271703E+00
          3   -1    0    0  501    0  0.00000000000E+00  0.00000000000E+00  0.13039512960E+03  0.13039512960E+03  0.00000000000E+00 0. -1.
         -3   -1    0    0    0  501 -0.00000000000E+00 -0.00000000000E+00 -0.10991180505E+03  0.10991180505E+03  0.00000000000E+00 0.  1.
         25    2    1    2    0    0  0.83756319425E+01  0.40557522768E+02 -0.17982386582E+02  0.13298861744E+03  0.12509013661E+03 0.  0.
         23    2    1    2    0    0 -0.83756319425E+01 -0.40557522768E+02  0.38465711130E+02  0.10731831721E+03  0.91227991387E+02 0.  0.
          5    1    3    3  502    0 -0.56103219736E+01  0.82099551215E+02  0.64199690580E+01  0.82646841591E+02  0.41800000000E+01 0.  1.
         -5    1    3    3    0  502  0.13985953916E+02 -0.41542028446E+02 -0.24402355640E+02  0.50341775844E+02  0.41800000000E+01 0.  1.
        -11    1    4    4    0    0 -0.38617566680E+02 -0.12160986637E+02  0.49927027001E+02  0.64279966377E+02  0.00000000000E+00 0. -1.
         11    1    4    4    0    0  0.30241934737E+02 -0.28396536131E+02 -0.11461315871E+02  0.43038350833E+02  0.00000000000E+00 0.  1.
</event>
<event>
 8    1  0.7224924E-009  0.1340890E+03  0.7561462E-02  0.1221512E+00
         -2   -1    0    0    0  501 -0.00000000000E+00  0.00000000000E+00  0.56878424055E+02  0.56878424055E+02  0.00000000000E+00 0.  1.
          2   -1    0    0  501    0  0.00000000000E+00 -0.00000000000E+00 -0.41841744695E+03  0.41841744695E+03  0.00000000000E+00 0. -1.
         25    2    1    2    0    0 -0.44532538594E+02  0.97058430506E+02 -0.15771848074E+03  0.22787348886E+03  0.12509085431E+03 0.  0.
         23    2    1    2    0    0  0.44532538594E+02 -0.97058430506E+02 -0.20382054216E+03  0.24742238215E+03  0.90947984350E+02 0.  0.
          5    1    3    3  502    0  0.36135626871E+02  0.62950604464E+02 -0.96987959633E+02  0.12121344334E+03  0.41800000000E+01 0. -1.
         -5    1    3    3    0  502 -0.80668165465E+02  0.34107826042E+02 -0.60730521106E+02  0.10666004552E+03  0.41800000000E+01 0. -1.
        -11    1    4    4    0    0  0.18089332560E+02 -0.23719960624E+02 -0.14939454555E+03  0.15234365994E+03  0.00000000000E+00 0. -1.
         11    1    4    4    0    0  0.26443206034E+02 -0.73338469882E+02 -0.54425996610E+02  0.95078722210E+02  0.00000000000E+00 0.  1.
</event>
<event>
 8    1  0.7224924E-009  0.1224101E+03  0.7561462E-02  0.1239173E+00
          2   -1    0    0  501    0  0.00000000000E+00  0.00000000000E+00  0.43671177387E+03  0.43671177387E+03  0.00000000000E+00 0.  1.
         -2   -1    0    0    0  501 -0.00000000000E+00 -0.00000000000E+00 -0.43202665821E+02  0.43202665821E+02  0.00000000000E+00 0. -1.
         25    2    1    2    0    0  0.76524883880E+02 -0.65722949888E+01  0.27727202625E+03  0.31373021679E+03  0.12509044518E+03 0.  0.
         23    2    1    2    0    0 -0.76524883880E+02  0.65722949888E+01  0.11623708181E+03  0.16618422290E+03  0.90591853060E+02 0.  0.
          5    1    3    3  502    0  0.10970734798E+03 -0.15697125600E+02  0.19280841215E+03  0.22242899575E+03  0.41800000000E+01 0.  1.
         -5    1    3    3    0  502 -0.33182464103E+02  0.91248306109E+01  0.84463614099E+02  0.91301221045E+02  0.41800000000E+01 0.  1.
        -11    1    4    4    0    0  0.86173296949E+01 -0.92583775192E+01  0.63590078621E+02  0.64835746501E+02  0.00000000000E+00 0.  1.
         11    1    4    4    0    0 -0.85142213575E+02  0.15830672508E+02  0.52647003184E+02  0.10134847640E+03  0.00000000000E+00 0. -1.
</event>
<event>
 8    1  0.7224924E-009  0.8805008E+02  0.7561462E-02  0.1307644E+00
         -1   -1    0    0    0  501 -0.00000000000E+00  0.00000000000E+00  0.18873232305E+02  0.18873232305E+02  0.00000000000E+00 0.  1.
          1   -1    0    0  501    0  0.00000000000E+00 -0.00000000000E+00 -0.80984209641E+03  0.80984209641E+03  0.00000000000E+00 0. -1.
         25    2    1    2    0    0  0.29831754564E+02  0.48301167982E+02 -0.38353510140E+03  0.40739489692E+03  0.12509393118E+03 0.  0.
         23    2    1    2    0    0 -0.29831754564E+02 -0.48301167982E+02 -0.40743376270E+03  0.42132043180E+03  0.91025814197E+02 0.  0.
          5    1    3    3  502    0  0.12618932207E+02  0.49992361321E+02 -0.38598271984E+03  0.38943369918E+03  0.41800000000E+01 0. -1.
         -5    1    3    3    0  502  0.17212822357E+02 -0.16911933391E+01  0.24476184341E+01  0.17961197744E+02  0.41800000000E+01 0. -1.
        -11    1    4    4    0    0  0.22852640018E+02 -0.48804791021E+02 -0.23003433440E+03  0.23626245107E+03  0.00000000000E+00 0.  1.
         11    1    4    4    0    0 -0.52684394582E+02  0.50362303904E+00 -0.17739942831E+03  0.18505798073E+03  0.00000000000E+00 0. -1.
</event>
<event>
 8    1  0.7224924E-009  0.9741200E+02  0.7561462E-02  0.1285834E+00
          1   -1    0    0  501    0  0.00000000000E+00  0.00000000000E+00  0.40977456781E+03  0.40977456781E+03  0.00000000000E+00 0. -1.
         -1   -1    0    0    0  501 -0.00000000000E+00 -0.00000000000E+00 -0.51290300942E+02  0.51290300942E+02  0.00000000000E+00 0.  1.
         25    2    1    2    0    0  0.61482501360E+02 -0.25211565396E+01  0.31364631853E+03  0.34323291382E+03  0.12509342826E+03 0.  0.
         23    2    1    2    0    0 -0.61482501360E+02  0.25211565396E+01  0.44837948335E+02  0.11783195493E+03  0.89930383013E+02 0.  0.
          5    1    3    3  502    0  0.80603570480E+02  0.33805848194E+00  0.99250171499E+02  0.12792622405E+03  0.41800000000E+01 0. -1.
         -5    1    3    3    0  502 -0.19121069121E+02 -0.28592150215E+01  0.21439614703E+03  0.21530668977E+03  0.41800000000E+01 0. -1.
        -11    1    4    4    0    0 -0.38656563563E+02  0.36652532727E+02  0.53901069775E+02  0.75783001951E+02  0.00000000000E+00 0. -1.
         11    1    4    4    0    0 -0.22825937797E+02 -0.34131376187E+02 -0.90631214400E+01  0.42048952983E+02  0.00000000000E+00 0.  1.
</event>
<event>
 8    1  0.7224924E-009  0.1221441E+03  0.7561462E-02  0.1239601E+00
          1   -1    0    0  501    0  0.00000000000E+00  0.00000000000E+00  0.10161886643E+04  0.10161886643E+04  0.00000000000E+00 0. -1.
         -1   -1    0    0    0  501 -0.00000000000E+00 -0.00000000000E+00 -0.18325378993E+02  0.18325378993E+02  0.00000000000E+00 0.  1.
         25    2    1    2    0    0 -0.61655647078E+02 -0.40112499876E+02  0.57149833821E+03  0.58963395543E+03  0.12508964527E+03 0.  0.
         23    2    1    2    0    0  0.61655647078E+02  0.40112499876E+02  0.42636494707E+03  0.44488008784E+03  0.10354126231E+03 0.  0.
          5    1    3    3  502    0 -0.54153644630E+02 -0.69888154778E+02  0.22547903537E+03  0.24222972402E+03  0.41800000000E+01 0.  1.
         -5    1    3    3    0  502 -0.75020024480E+01  0.29775654903E+02  0.34601930284E+03  0.34740423141E+03  0.41800000000E+01 0.  1.
        -11    1    4    4    0    0 -0.10036361685E+02  0.51259697658E+02  0.22056705129E+03  0.22666739790E+03  0.00000000000E+00 0. -1.
         11    1    4    4    0    0  0.71692008762E+02 -0.11147197782E+02  0.20579789578E+03  0.21821268993E+03  0.00000000000E+00 0.  1.
</event>
<event>
 8    1  0.7224924E-009  0.1683298E+03  0.7561462E-02  0.1179601E+00
         -2   -1    0    0    0  501 -0.00000000000E+00  0.00000000000E+00  0.12010922866E+03  0.12010922866E+03  0.00000000000E+00 0.  1.
          2   -1    0    0  501    0  0.00000000000E+00 -0.00000000000E+00 -0.45944426321E+03  0.45944426321E+03  0.00000000000E+00 0. -1.
         25    2    1    2    0    0 -0.13652785305E+03  0.74077336079E+02 -0.34486693108E+03  0.39838180433E+03  0.12509018943E+03 0.  0.
         23    2    1    2    0    0  0.13652785305E+03 -0.74077336079E+02  0.55318965334E+01  0.18117168754E+03  0.93087443353E+02 0.  0.
          5    1    3    3  502    0 -0.11032770059E+03  0.12110852857E+02 -0.11948215343E+03  0.16313286506E+03  0.41800000000E+01 0. -1.
         -5    1    3    3    0  502 -0.26200152453E+02  0.61966483223E+02 -0.22538477765E+03  0.23524893927E+03  0.41800000000E+01 0. -1.
        -11    1    4    4    0    0  0.75201347353E+02 -0.57471866841E+02  0.46621762662E+02  0.10550756786E+03  0.00000000000E+00 0.  1.
         11    1    4    4    0    0  0.61326505692E+02 -0.16605469239E+02 -0.41089866128E+02  0.75664119684E+02  0.00000000000E+00 0. -1.
</event>
<event>
 8    1  0.7224924E-009  0.7526878E+02  0.7561462E-02  0.1343041E+00
          2   -1    0    0  501    0  0.00000000000E+00  0.00000000000E+00  0.38933375009E+03  0.38933375009E+03  0.00000000000E+00 0. -1.
         -2   -1    0    0    0  501 -0.00000000000E+00 -0.00000000000E+00 -0.32090869363E+02  0.32090869363E+02  0.00000000000E+00 0.  1.
         25    2    1    2    0    0  0.16559529705E+02 -0.18369716763E+02  0.22335022396E+03  0.25718202985E+03  0.12508241051E+03 0.  0.
         23    2    1    2    0    0 -0.16559529705E+02  0.18369716763E+02  0.13389265677E+03  0.16424258960E+03  0.91851620476E+02 0.  0.
          5    1    3    3  502    0  0.21092897862E+01  0.16691069992E+02 -0.10481939829E+02  0.20257946181E+02  0.41800000000E+01 0.  1.
         -5    1    3    3    0  502  0.14450239918E+02 -0.35060786756E+02  0.23383216378E+03  0.23692408367E+03  0.41800000000E+01 0.  1.
        -11    1    4    4    0    0 -0.36100531818E+02  0.47691495932E+02  0.87323015929E+02  0.10584439660E+03  0.00000000000E+00 0. -1.
         11    1    4    4    0    0  0.19541002113E+02 -0.29321779169E+02  0.46569640841E+02  0.58398192996E+02  0.00000000000E+00 0.  1.
</event>
<event>
 8    1  0.7224924E-009  0.9924658E+02  0.7561462E-02  0.1281888E+00
          1   -1    0    0  501    0  0.00000000000E+00  0.00000000000E+00  0.77739003712E+02  0.77739003712E+02  0.00000000000E+00 0. -1.
         -1   -1    0    0    0  501 -0.00000000000E+00 -0.00000000000E+00 -0.23626626605E+03  0.23626626605E+03  0.00000000000E+00 0.  1.
         25    2    1    2    0    0  0.95934220284E+01 -0.43554099490E+02 -0.16710187834E+03  0.21344604320E+03  0.12508869767E+03 0.  0.
         23    2    1    2    0    0 -0.95934220284E+01  0.43554099490E+02  0.85746160010E+01  0.10055922656E+03  0.89719789778E+02 0.  0.
          5    1    3    3  502    0 -0.22575143677E+02 -0.77920860494E+02 -0.13030299731E+03  0.15355012576E+03  0.41800000000E+01 0. -1.
         -5    1    3    3    0  502  0.32168565705E+02  0.34366761005E+02 -0.36798881024E+02  0.59895917441E+02  0.41800000000E+01 0. -1.
        -11    1    4    4    0    0 -0.14368253468E+01  0.55510039397E+02  0.38328300755E+02  0.67472124464E+02  0.00000000000E+00 0. -1.
         11    1    4    4    0    0 -0.81565966816E+01 -0.11955939908E+02 -0.29753684754E+02  0.33087102094E+02  0.00000000000E+00 0.  1.
</event>
<event>
 8    1  0.7224924E-009  0.1350374E+03  0.7561462E-02  0.1220167E+00
         -1   -1    0    0    0  501 -0.00000000000E+00  0.00000000000E+00  0.32912222935E+03  0.32912222935E+03  0.00000000000E+00 0.  1.
          1   -1    0    0  501    0  0.00000000000E+00 -0.00000000000E+00 -0.75590421230E+02  0.75590421230E+02  0.00000000000E+00 0. -1.
         25    2    1    2    0    0  0.58067714076E+02 -0.57385975406E+02  0.23993404463E+03  0.28263215799E+03  0.12509029285E+03 0.  0.
         23    2    1    2    0    0 -0.58067714076E+02  0.57385975406E+02  0.13597763485E+02  0.12208049259E+03  0.89742620350E+02 0.  0.
          5    1    3    3  502    0  0.73161388766E+02  0.15214990894E+02  0.12875020428E+03  0.14892337713E+03  0.41800000000E+01 0. -1.
         -5    1    3    3    0  502 -0.15093674690E+02 -0.72600966300E+02  0.11118384035E+03  0.13370878086E+03  0.41800000000E+01 0. -1.
        -11    1    4    4    0    0  0.21631519848E+02  0.29378218829E+02  0.84370437022E+01  0.37445775449E+02  0.00000000000E+00 0. -1.
         11    1    4    4    0    0 -0.79699233924E+02  0.28007756577E+02  0.51607197830E+01  0.84634717139E+02  0.00000000000E+00 0.  1.
</event>
<event>
 8    1  0.7224924E-009  0.1341122E+03  0.7561462E-02  0.1221479E+00
          1   -1    0    0  501    0  0.00000000000E+00  0.00000000000E+00  0.32261804162E+02  0.32261804162E+02  0.00000000000E+00 0. -1.
         -1   -1    0    0    0  501 -0.00000000000E+00 -0.00000000000E+00 -0.63249129435E+03  0.63249129435E+03  0.00000000000E+00 0.  1.
         25    2    1    2    0    0  0.78049287097E+02 -0.42244285716E+02 -0.39296872163E+03  0.42183927268E+03  0.12509070670E+03 0.  0.
         23    2    1    2    0    0 -0.78049287097E+02  0.42244285716E+02 -0.20726076855E+03  0.24291382583E+03  0.90409234628E+02 0.  0.
          5    1    3    3  502    0  0.46196825333E+02  0.35529948584E+02 -0.89217990727E+02  0.10664823574E+03  0.41800000000E+01 0.  1.
         -5    1    3    3    0  502  0.31852461764E+02 -0.77774234301E+02 -0.30375073091E+03  0.31519103694E+03  0.41800000000E+01 0.  1.
        -11    1    4    4    0    0 -0.55889070619E+02 -0.20168481472E+02 -0.82579363487E+02  0.10173351038E+03  0.00000000000E+00 0. -1.
         11    1    4    4    0    0 -0.22160216478E+02  0.62412767188E+02 -0.12468140506E+03  0.14118031545E+03  0.00000000000E+00 0.  1.
</event>
<event>
 8    1  0.7224924E-009  0.8560680E+02  0.7561462E-02  0.1313853E+00
          1   -1    0    0  501    0  0.00000000000E+00  0.00000000000E+00  0.19570755113E+03  0.19570755113E+03  0.00000000000E+00 0. -1.
         -1   -1    0    0    0  501 -0.00000000000E+00 -0.00000000000E+00 -0.67878365730E+02  0.67878365730E+02  0.00000000000E+00 0.  1.
         25    2    1    2    0    0  0.35086839471E+02 -0.77451795301E+01  0.88353909309E+02  0.15730420270E+03  0.12508846784E+03 0.  0.
         23    2    1    2    0    0 -0.35086839471E+02  0.77451795301E+01  0.39475276092E+02  0.10628171416E+03  0.91904467966E+02 0.  0.
          5    1    3    3  502    0 -0.29815799599E+02  0.31938365236E+02  0.46799342122E+01  0.44140857082E+02  0.41800000000E+01 0.  1.
         -5    1    3    3    0  502  0.64902639070E+02 -0.39683544766E+02  0.83673975097E+02  0.11316334562E+03  0.41800000000E+01 0.  1.
        -11    1    4    4    0    0 -0.14991653527E+02  0.21909847637E+02 -0.25499803596E+02  0.36810746833E+02  0.00000000000E+00 0.  1.
         11    1    4    4    0    0 -0.20095185944E+02 -0.14164668107E+02  0.64975079688E+02  0.69470967326E+02  0.00000000000E+00 0. -1.
</event>
<event>
 8    1  0.7224924E-009  0.1555402E+03  0.7561462E-02  0.1193826E+00
         -2   -1    0    0    0  501 -0.00000000000E+00  0.00000000000E+00  0.12655143770E+03  0.12655143770E+03  0.00000000000E+00 0.  1.
          2   -1    0    0  501    0  0.00000000000E+00 -0.00000000000E+00 -0.51555656457E+03  0.51555656457E+03  0.00000000000E+00 0. -1.
         25    2    1    2    0    0  0.99317411485E+02  0.99972417966E+02  0.27461531814E+02  0.19042062561E+03  0.12508975318E+03 0.  0.
         23    2    1    2    0    0 -0.99317411485E+02 -0.99972417966E+02 -0.41646665869E+03  0.45168737665E+03  0.10353055517E+03 0.  0.
          5    1    3    3  502    0  0.52489940223E+02 -0.27656208287E+01  0.52810912956E+02  0.74627792480E+02  0.41800000000E+01 0.  1.
         -5    1    3    3    0  502  0.46827471261E+02  0.10273803880E+03 -0.25349381143E+02  0.11579283313E+03  0.41800000000E+01 0.  1.
        -11    1    4    4    0    0 -0.97738855997E+02 -0.82724780983E+02 -0.41500018121E+03  0.43430568010E+03  0.00000000000E+00 0. -1.
         11    1    4    4    0    0 -0.15785554877E+01 -0.17247636984E+02 -0.14664774735E+01  0.17381696555E+02  0.00000000000E+00 0.  1.
</event>
<event>
 8    1  0.7224924E-009  0.1307817E+03  0.7561462E-02  0.1226300E+00
          2   -1    0    0  501    0  0.00000000000E+00  0.00000000000E+00  0.20406473744E+03  0.20406473744E+03  0.00000000000E+00 0. -1.
         -2   -1    0    0    0  501 -0.00000000000E+00 -0.00000000000E+00 -0.12232091165E+03  0.12232091165E+03  0.00000000000E+00 0.  1.
         25    2    1    2    0    0 -0.29801196305E+02 -0.10305758638E+03  0.20836742465E+01  0.16480731289E+03  0.12509249087E+03 0.  0.
         23    2    1    2    0    0  0.29801196305E+02  0.10305758638E+03  0.79660151544E+02  0.16157833620E+03  0.90845151631E+02 0.  0.
          5    1    3    3  502    0 -0.16716940992E+01 -0.10180517742E+03 -0.43713128205E+02  0.11088461880E+03  0.41800000000E+01 0.  1.
         -5    1    3    3    0  502 -0.28129502206E+02 -0.12524089634E+01  0.45796802452E+02  0.53922694085E+02  0.41800000000E+01 0.  1.
        -11    1    4    4    0    0  0.37753209207E+01 -0.12335964586E+02  0.31168593036E+02  0.33732925491E+02  0.00000000000E+00 0. -1.
         11    1    4    4    0    0  0.26025875384E+02  0.11539355096E+03  0.48491558508E+02  0.12784541071E+03  0.00000000000E+00 0.  1.
</event>
<event>
 8    1  0.7224924E-009  0.1478189E+03  0.7561462E-02  0.1203179E+00
          1   -1    0    0  501    0  0.00000000000E+00  0.00000000000E+00  0.34736811801E+03  0.34736811801E+03  0.00000000000E+00 0.  1.
         -1   -1    0    0    0  501 -0.00000000000E+00 -0.00000000000E+00 -0.86582716170E+02  0.86582716170E+02  0.00000000000E+00 0. -1.
         25    2    1    2    0    0  0.39851186971E+01  0.11532310072E+03  0.22592672745E+03  0.28285280455E+03  0.12509006409E+03 0.  0.
         23    2    1    2    0    0 -0.39851186971E+01 -0.11532310072E+03  0.34858674394E+02  0.15109802963E+03  0.91105371119E+02 0.  0.
          5    1    3    3  502    0 -0.52655029532E+02  0.15618879335E+02  0.82026972032E+02  0.98804848400E+02  0.41800000000E+01 0. -1.
         -5    1    3    3    0  502  0.56640148229E+02  0.99704221388E+02  0.14389975542E+03  0.18404795615E+03  0.41800000000E+01 0. -1.
        -11    1    4    4    0    0  0.22958138889E+02 -0.45359678530E+02  0.53541917255E+02  0.73833010780E+02  0.00000000000E+00 0.  1.
         11    1    4    4    0    0 -0.26943257586E+02 -0.69963422193E+02 -0.18683242861E+02  0.77265018852E+02  0.00000000000E+00 0. -1.
</event>
<event>
 8    1  0.7224924E-009  0.9425989E+02  0.7561462E-02  0.1292852E+00
          1   -1    0    0  501    0  0.00000000000E+00  0.00000000000E+00  0.32574084278E+03  0.32574084278E+03  0.00000000000E+00 0. -1.
         -1   -1    0    0    0  501 -0.00000000000E+00 -0.00000000000E+00 -0.36904460458E+02  0.36904460458E+02  0.00000000000E+00 0.  1.
         25    2    1    2    0    0 -0.14483932183E+02  0.11385829130E+01  0.17626196583E+03  0.21662655883E+03  0.12509078595E+03 0.  0.
         23    2    1    2    0    0  0.14483932183E+02 -0.11385829130E+01  0.11257441650E+03  0.14601874441E+03  0.91855287313E+02 0.  0.
          5    1    3    3  502    0 -0.18326974087E+02 -0.54091812671E+02  0.41047644914E+02  0.70456963674E+02  0.41800000000E+01 0.  1.
         -5    1    3    3    0  502  0.38430419035E+01  0.55230395584E+02  0.13521432091E+03  0.14616959515E+03  0.41800000000E+01 0.  1.
        -11    1    4    4    0    0 -0.18140047877E+01 -0.36631999494E+02  0.97472021194E+02  0.10414407768E+03  0.00000000000E+00 0. -1.
         11    1    4    4    0    0  0.16297936971E+02  0.35493416581E+02  0.15102395307E+02  0.41874666734E+02  0.00000000000E+00 0.  1.
</event>
<event>
 8    1  0.7224924E-009  0.1414912E+03  0.7561462E-02  0.1211336E+00
          1   -1    0    0  501    0  0.00000000000E+00  0.00000000000E+00  0.23308000573E+03  0.23308000573E+03  0.00000000000E+00 0. -1.
         -1   -1    0    0    0  501 -0.00000000000E+00 -0.00000000000E+00 -0.11949206098E+03  0.11949206098E+03  0.00000000000E+00 0.  1.
         25    2    1    2    0    0  0.16020475719E+02  0.11654818053E+03  0.11032689583E+03  0.20410975546E+03  0.12509450149E+03 0.  0.
         23    2    1    2    0    0 -0.16020475719E+02 -0.11654818053E+03  0.32610489191E+01  0.14846231125E+03  0.90500217645E+02 0.  0.
          5    1    3    3  502    0  0.47510570946E+02  0.40263053333E+02  0.10392399289E+03  0.12122721028E+03  0.41800000000E+01 0.  1.
         -5    1    3    3    0  502 -0.31490095226E+02  0.76285127197E+02  0.64029029405E+01  0.82882545176E+02  0.41800000000E+01 0.  1.
        -11    1    4    4    0    0  0.28675379133E+02 -0.52642665348E+02  0.28660959549E+02  0.66445302209E+02  0.00000000000E+00 0. -1.
         11    1    4    4    0    0 -0.44695854852E+02 -0.63905515182E+02 -0.25399910630E+02  0.82017009039E+02  0.00000000000E+00 0.  1.
</event>
<event>
 8    1  0.7224924E-009  0.1333007E+03  0.7561462E-02  0.1222639E+00
         -2   -1    0    0    0  501 -0.00000000000E+00  0.00000000000E+00  0.36502909977E+02  0.36502909977E+02  0.00000000000E+00 0.  1.
          2   -1    0    0  501    0  0.00000000000E+00 -0.00000000000E+00 -0.95389358617E+03  0.95389358617E+03  0.00000000000E+00 0. -1.
         25    2    1    2    0    0  0.78182285672E+02 -0.70730136843E+02 -0.76881964760E+03  0.78603166988E+03  0.12508762320E+03 0.  0.
         23    2    1    2    0    0 -0.78182285672E+02  0.70730136843E+02 -0.14857102859E+03  0.20436482626E+03  0.92608906834E+02 0.  0.
          5    1    3    3  502    0  0.10372824738E+03 -0.81906635476E+02 -0.56480740846E+03  0.58008027659E+03  0.41800000000E+01 0.  1.
         -5    1    3    3    0  502 -0.25545961704E+02  0.11176498634E+02 -0.20401223914E+03  0.20595139329E+03  0.41800000000E+01 0.  1.
        -11    1    4    4    0    0 -0.45637552479E+02  0.32845103520E+02 -0.10055335281E+02  0.57120020913E+02  0.00000000000E+00 0.  1.
         11    1    4    4    0    0 -0.32544733194E+02  0.37885033323E+02 -0.13851569331E+03  0.14724480535E+03  0.00000000000E+00 0. -1.
</event>
<event>
 8    1  0.7224924E-009  0.7528169E+02  0.7561462E-02  0.1343001E+00
          2   -1    0    0  501    0  0.00000000000E+00  0.00000000000E+00  0.10009551087E+03  0.10009551087E+03  0.00000000000E+00 0.  1.
         -2   -1    0    0    0  501 -0.00000000000E+00 -0.00000000000E+00 -0.12927571406E+03  0.12927571406E+03  0.00000000000E+00 0. -1.
         25    2    1    2    0    0  0.25239563962E+02  0.32606653767E+00  0.59240375479E+01  0.12776388209E+03  0.12510544927E+03 0.  0.
         23    2    1    2    0    0 -0.25239563962E+02 -0.32606653767E+00 -0.35104240744E+02  0.10160734284E+03  0.91948912407E+02 0.  0.
          5    1    3    3  502    0 -0.15354881277E+02 -0.17291912848E+02 -0.50638507146E+02  0.55825741687E+02  0.41800000000E+01 0.  1.
         -5    1    3    3    0  502  0.40594445239E+02  0.17617979386E+02  0.56562544693E+02  0.71938140399E+02  0.41800000000E+01 0.  1.
        -11    1    4    4    0    0 -0.18215706438E+02  0.38799412703E+02  0.73052653976E+01  0.43480723196E+02  0.00000000000E+00 0.  1.
         11    1    4    4    0    0 -0.70238575239E+01 -0.39125479240E+02 -0.42409506142E+02  0.58126619646E+02  0.00000000000E+00 0. -1.
</event>
<event>
 8    1  0.7224924E-009  0.1227431E+03  0.7561462E-02  0.1238639E+00
          1   -1    0    0  501    0  0.00000000000E+00  0.00000000000E+00  0.28811023305E+03  0.28811023305E+03  0.00000000000E+00 0. -1.
         -1   -1    0    0    0  501 -0.00000000000E+00 -0.00000000000E+00 -0.78896714692E+02  0.78896714692E+02  0.00000000000E+00 0.  1.
         25    2    1    2    0    0  0.73010172332E+02 -0.70183307576E+02  0.83340571752E+02  0.18124606426E+03  0.12509317720E+03 0.  0.
         23    2    1    2    0    0 -0.73010172332E+02  0.70183307576E+02  0.12587294660E+03  0.18576088348E+03  0.91689286285E+02 0.  0.
          5    1    3    3  502    0  0.14170026314E+02 -0.56631497026E+02 -0.19692413032E+02  0.61750948431E+02  0.41800000000E+01 0.  1.
         -5    1    3    3    0  502  0.58840146019E+02 -0.13551810549E+02  0.10303298478E+03  0.11949511583E+03  0.41800000000E+01 0.  1.
        -11    1    4    4    0    0  0.15799091926E+02  0.15539100511E+02  0.56041650999E+02  0.60263932804E+02  0.00000000000E+00 0. -1.
         11    1    4    4    0    0 -0.88809264258E+02  0.54644207064E+02  0.69831295604E+02  0.12549695068E+03  0.00000000000E+00 0.  1.
</event>
<event>
 8    1  0.7224924E-009  0.1107656E+03  0.7561462E-02  0.1259159E+00
          2   -1    0    0  501    0  0.00000000000E+00  0.00000000000E+00  0.84834063648E+02  0.84834063648E+02  0.00000000000E+00 0.  1.
         -2   -1    0    0    0  501 -0.00000000000E+00 -0.00000000000E+00 -0.16147558345E+03  0.16147558345E+03  0.00000000000E+00 0. -1.
         25    2    1    2    0    0 -0.12551815935E+02  0.39797093078E+02 -0.60346739530E+02  0.14501818597E+03  0.12508872287E+03 0.  0.
         23    2    1    2    0    0  0.12551815935E+02 -0.39797093078E+02 -0.16294780267E+02  0.10129146112E+03  0.90846483322E+02 0.  0.
          5    1    3    3  502    0 -0.21553234822E+02  0.79426279689E+02 -0.14605172915E+02  0.83689063279E+02  0.41800000000E+01 0.  1.
         -5    1    3    3    0  502  0.90014188867E+01 -0.39629186611E+02 -0.45741566616E+02  0.61329122690E+02  0.41800000000E+01 0.  1.
        -11    1    4    4    0    0 -0.38522312739E+02 -0.20813071272E+02 -0.16533225297E+02  0.46802778265E+02  0.00000000000E+00 0.  1.
         11    1    4    4    0    0  0.51074128675E+02 -0.18984021806E+02  0.23844503010E+00  0.54488682860E+02  0.00000000000E+00 0. -1.
</event>
<event>
 8    1  0.7224924E-009  0.3049219E+03  0.7561462E-02  0.1082806E+00
         -1   -1    0    0    0  501 -0.00000000000E+00  0.00000000000E+00  0.14760545297E+03  0.14760545297E+03  0.00000000000E+00 0.  1.
          1   -1    0    0  501    0  0.00000000000E+00 -0.00000000000E+00 -0.80085167524E+03  0.80085167524E+03  0.00000000000E+00 0. -1.
         25    2    1    2    0    0  0.20077652149E+03 -0.22813975164E+03 -0.49299128226E+03  0.59249219732E+03  0.12509053378E+03 0.  0.
         23    2    1    2    0    0 -0.20077652149E+03  0.22813975164E+03 -0.16025494001E+03  0.35596493089E+03  0.93115135007E+02 0.  0.
          5    1    3    3  502    0  0.12964394066E+03 -0.17002764236E+03 -0.23080803677E+03  0.31465341688E+03  0.41800000000E+01 0. -1.
         -5    1    3    3    0  502  0.71132580830E+02 -0.58112109276E+02 -0.26218324549E+03  0.27783878044E+03  0.41800000000E+01 0. -1.
        -11    1    4    4    0    0 -0.16292213739E+03  0.19032954886E+03 -0.16836072465E+03  0.30185144297E+03  0.00000000000E+00 0. -1.
         11    1    4    4    0    0 -0.37854384106E+02  0.37810202775E+02  0.81057846417E+01  0.54113487917E+02  0.00000000000E+00 0.  1.
</event>
<event>
 8    1  0.7224924E-009  0.7779600E+02  0.7561462E-02  0.1335425E+00
         -3   -1    0    0    0  501 -0.00000000000E+00  0.00000000000E+00  0.38024978121E+03  0.38024978121E+03  0.00000000000E+00 0.  1.
          3   -1    0    0  501    0  0.00000000000E+00 -0.00000000000E+00 -0.49256957817E+02  0.49256957817E+02  0.00000000000E+00 0. -1.
         25    2    1    2    0    0  0.32657548420E+02  0.37047729258E+02  0.28769849078E+03  0.31758001225E+03  0.12509033884E+03 0.  0.
         23    2    1    2    0    0 -0.32657548420E+02 -0.37047729258E+02  0.43294332607E+02  0.11192672677E+03  0.90631910593E+02 0.  0.
          5    1    3    3  502    0  0.23849261568E+02 -0.13247409867E+02  0.25568158002E+03  0.25716691838E+03  0.41800000000E+01 0.  1.
         -5    1    3    3    0  502  0.88082868513E+01  0.50295139126E+02  0.32016910763E+02  0.60413093876E+02  0.41800000000E+01 0.  1.
        -11    1    4    4    0    0 -0.20922086388E+02  0.13479597947E+02 -0.18672676023E+02  0.31114338969E+02  0.00000000000E+00 0. -1.
         11    1    4    4    0    0 -0.11735462032E+02 -0.50527327206E+02  0.61967008630E+02  0.80812387801E+02  0.00000000000E+00 0.  1.
</event>
<event>
 8    1  0.7224924E-009  0.9900208E+02  0.7561462E-02  0.1282409E+00
         -2   -1    0    0    0  501 -0.00000000000E+00  0.00000000000E+00  0.17404171401E+02  0.17404171401E+02  0.00000000000E+00 0.  1.
          2   -1    0    0  501    0  0.00000000000E+00 -0.00000000000E+00 -0.85484790804E+03  0.85484790804E+03  0.00000000000E+00 0. -1.
         25    2    1    2    0    0  0.41510206913E+02  0.50266955676E+01 -0.60542623441E+03  0.61962671022E+03  0.12509184529E+03 0.  0.
         23    2    1    2    0    0 -0.41510206913E+02 -0.50266955676E+01 -0.23201750222E+03  0.25262536922E+03  0.90769438074E+02 0.  0.
          5    1    3    3  502    0  0.47797118707E+01 -0.53273541040E+02 -0.38284984445E+03  0.38659072883E+03  0.41800000000E+01 0. -1.
         -5    1    3    3    0  502  0.36730495042E+02  0.58300236608E+02 -0.22257638996E+03  0.23303598139E+03  0.41800000000E+01 0. -1.
        -11    1    4    4    0    0  0.39188303226E+01  0.22076143146E+02 -0.10280883455E+02  0.24665966268E+02  0.00000000000E+00 0.  1.
         11    1    4    4    0    0 -0.45429037235E+02 -0.27102838714E+02 -0.22173661877E+03  0.22795940295E+03  0.00000000000E+00 0. -1.
</event>
<event>
 8    1  0.7224924E-009  0.1745824E+03  0.7561462E-02  0.1173152E+00
         -1   -1    0    0    0  501 -0.00000000000E+00  0.00000000000E+00  0.11499529136E+03  0.11499529136E+03  0.00000000000E+00 0.  1.
          1   -1    0    0  501    0  0.00000000000E+00 -0.00000000000E+00 -0.34852708043E+03  0.34852708043E+03  0.00000000000E+00 0. -1.
         25    2    1    2    0    0 -0.13693967813E+03 -0.94709071461E+02 -0.16892709511E+03  0.26815527929E+03  0.12509439109E+03 0.  0.
         23    2    1    2    0    0  0.13693967813E+03  0.94709071461E+02 -0.64604693961E+02  0.19536709250E+03  0.79197542179E+02 0.  0.
          5    1    3    3  502    0 -0.10656828837E+03 -0.47532255356E+02 -0.33450179491E+02  0.12145987936E+03  0.41800000000E+01 0.  1.
         -5    1    3    3    0  502 -0.30371389758E+02 -0.47176816105E+02 -0.13547691562E+03  0.14669539993E+03  0.41800000000E+01 0.  1.
        -11    1    4    4    0    0  0.14052144905E+03  0.81484621229E+02 -0.40134586681E+02  0.16732246169E+03  0.00000000000E+00 0.  1.
         11    1    4    4    0    0 -0.35817709167E+01  0.13224450232E+02 -0.24470107280E+02  0.28044630808E+02  0.00000000000E+00 0. -1.
</event>
<event>
 8    1  0.7224924E-009  0.1112560E+03  0.7561462E-02  0.1258262E+00
         -1   -1    0    0    0  501 -0.00000000000E+00  0.00000000000E+00  0.17174882468E+03  0.17174882468E+03  0.00000000000E+00 0.  1.
          1   -1    0    0  501    0  0.00000000000E+00 -0.00000000000E+00 -0.11306235129E+03  0.11306235129E+03  0.00000000000E+00 0. -1.
         25    2    1    2    0    0 -0.79394273111E+01  0.77768937743E+02  0.74260196211E+02  0.16514562660E+03  0.12508980398E+03 0.  0.
         23    2    1    2    0    0  0.79394273111E+01 -0.77768937743E+02 -0.15573722818E+02  0.11966554937E+03  0.89253911284E+02 0.  0.
          5    1    3    3  502    0  0.21479047558E+02  0.96791040574E+02  0.21274800422E+02  0.10148864248E+03  0.41800000000E+01 0.  1.
         -5    1    3    3    0  502 -0.29418474869E+02 -0.19022102831E+02  0.52985395789E+02  0.63656984115E+02  0.41800000000E+01 0.  1.
        -11    1    4    4    0    0 -0.10155578598E+02 -0.23314503064E+01 -0.37603896081E+02  0.39020820566E+02  0.00000000000E+00 0. -1.
         11    1    4    4    0    0  0.18095005909E+02 -0.75437487436E+02  0.22030173263E+02  0.80644728802E+02  0.00000000000E+00 0.  1.
</event>
<event>
 8    1  0.7224924E-009  0.1246990E+03  0.7561462E-02  0.1235540E+00
         -1   -1    0    0    0  501 -0.00000000000E+00  0.00000000000E+00  0.15592417248E+03  0.15592417248E+03  0.00000000000E+00 0.  1.
          1   -1    0    0  501    0  0.00000000000E+00 -0.00000000000E+00 -0.15167410136E+03  0.15167410136E+03  0.00000000000E+00 0. -1.
         25    2    1    2    0    0 -0.10862467094E+03  0.96948602690E+01  0.13604327758E+01  0.16596053636E+03  0.12509092453E+03 0.  0.
         23    2    1    2    0    0  0.10862467094E+03 -0.96948602690E+01  0.28896383440E+01  0.14163773748E+03  0.90330444569E+02 0.  0.
          5    1    3    3  502    0 -0.15522876517E+02 -0.28952688897E+02  0.45135993996E+02  0.55981677750E+02  0.41800000000E+01 0. -1.
         -5    1    3    3    0  502 -0.93101794422E+02  0.38647549166E+02 -0.43775561220E+02  0.10997885861E+03  0.41800000000E+01 0. -1.
        -11    1    4    4    0    0  0.81710028974E+01  0.10114057103E+02  0.32541042214E+02  0.35042529416E+02  0.00000000000E+00 0.  1.
         11    1    4    4    0    0  0.10045366804E+03 -0.19808917372E+02 -0.29651403870E+02  0.10659520806E+03  0.00000000000E+00 0. -1.
</event>
<event>
 8    1  0.7224924E-009  0.1071986E+03  0.7561462E-02  0.1265847E+00
          1   -1    0    0  501    0  0.00000000000E+00  0.00000000000E+00  0.15994232932E+04  0.15994232932E+04  0.00000000000E+00 0. -1.
         -1   -1    0    0    0  501 -0.00000000000E+00 -0.00000000000E+00 -0.15363538157E+02  0.15363538157E+02  0.00000000000E+00 0.  1.
         25    2    1    2    0    0  0.37428805784E+02 -0.82297872553E+02  0.12323298229E+04  0.12419574749E+04  0.12509085440E+03 0.  0.
         23    2    1    2    0    0 -0.37428805784E+02  0.82297872553E+02  0.35172993213E+03  0.37282935640E+03  0.84344107691E+02 0.  0.
          5    1    3    3  502    0 -0.53653149696E+01 -0.20947497630E+02  0.29590127127E+02  0.36886749451E+02  0.41800000000E+01 0. -1.
         -5    1    3    3    0  502  0.42794120753E+02 -0.61350374922E+02  0.12027396957E+04  0.12050707255E+04  0.41800000000E+01 0. -1.
        -11    1    4    4    0    0 -0.24871019200E+02 -0.81251443779E+01  0.38365903236E+02  0.46438433418E+02  0.00000000000E+00 0.  1.
         11    1    4    4    0    0 -0.12557786583E+02  0.90423016930E+02  0.31336402890E+03  0.32639092298E+03  0.00000000000E+00 0. -1.
</event>
<event>
 8    1  0.7224924E-009  0.1762548E+03  0.7561462E-02  0.1171478E+00
         -2   -1    0    0    0  501 -0.00000000000E+00  0.00000000000E+00  0.82302396141E+02  0.82302396141E+02  0.00000000000E+00 0.  1.
          2   -1    0    0  501    0  0.00000000000E+00 -0.00000000000E+00 -0.73763800334E+03  0.73763800334E+03  0.00000000000E+00 0. -1.
         25    2    1    2    0    0 -0.16535689780E+02  0.15466792228E+03 -0.59570891465E+03  0.62826082767E+03  0.12508781463E+03 0.  0.
         23    2    1    2    0    0  0.16535689780E+02 -0.15466792228E+03 -0.59626692551E+02  0.19167957181E+03  0.94816246321E+02 0.  0.
          5    1    3    3  502    0  0.25350374014E+02  0.10959492260E+01 -0.25424654112E+02  0.36162522092E+02  0.41800000000E+01 0.  1.
         -5    1    3    3    0  502 -0.41886063793E+02  0.15357197306E+03 -0.57028426054E+03  0.59209830558E+03  0.41800000000E+01 0.  1.
        -11    1    4    4    0    0 -0.12792977817E+02 -0.12564864339E+03 -0.75874322591E+02  0.14733687487E+03  0.00000000000E+00 0. -1.
         11    1    4    4    0    0  0.29328667596E+02 -0.29019278890E+02  0.16247630041E+02  0.44342696944E+02  0.00000000000E+00 0.  1.
</event>
<event>
 8    1  0.7224924E-009  0.1862692E+03  0.7561462E-02  0.1161870E+00
          1   -1    0    0  501    0  0.00000000000E+00  0.00000000000E+00  0.11988438054E+03  0.11988438054E+03  0.00000000000E+00 0. -1.
         -1   -1    0    0    0  501 -0.00000000000E+00 -0.00000000000E+00 -0.40761911840E+03  0.40761911840E+03  0.00000000000E+00 0.  1.
         25    2    1    2    0    0 -0.62705871161E+02  0.16680095256E+03 -0.67568574673E+02  0.22796137027E+03  0.12508513100E+03 0.  0.
         23    2    1    2    0    0  0.62705871161E+02 -0.16680095256E+03 -0.22016616318E+03  0.29954212867E+03  0.97456469195E+02 0.  0.
          5    1    3    3  502    0 -0.58398944739E+02  0.11591665940E+03 -0.10292871079E+03  0.16570727376E+03  0.41800000000E+01 0.  1.
         -5    1    3    3    0  502 -0.43069264225E+01  0.50884293162E+02  0.35360136115E+02  0.62254096507E+02  0.41800000000E+01 0.  1.
        -11    1    4    4    0    0 -0.11284948495E+02 -0.62777112697E+02 -0.12495054378E+03  0.14028882468E+03  0.00000000000E+00 0.  1.
         11    1    4    4    0    0  0.73990819656E+02 -0.10402383986E+03 -0.95215619402E+02  0.15925330399E+03  0.00000000000E+00 0. -1.
</event>
<event>
 8    1  0.7224924E-009  0.1104418E+03  0.7561462E-02  0.1259754E+00
         -2   -1    0    0    0  501 -0.00000000000E+00  0.00000000000E+00  0.20753139508E+03  0.20753139508E+03  0.00000000000E+00 0.  1.
          2   -1    0    0  501    0  0.00000000000E+00 -0.00000000000E+00 -0.10499168561E+03  0.10499168561E+03  0.00000000000E+00 0. -1.
         25    2    1    2    0    0 -0.93228861837E+02 -0.30021498485E+02  0.76506181768E+02  0.17633897878E+03  0.12509727631E+03 0.  0.
         23    2    1    2    0    0  0.93228861837E+02  0.30021498485E+02  0.26033527698E+02  0.13618410190E+03  0.90969522348E+02 0.  0.
          5    1    3    3  502    0  0.10679385259E+02 -0.12294366154E+02  0.68511241269E+02  0.70544052115E+02  0.41800000000E+01 0. -1.
         -5    1    3    3    0  502 -0.10390824710E+03 -0.17727132331E+02  0.79949404992E+01  0.10579492667E+03  0.41800000000E+01 0. -1.
        -11    1    4    4    0    0  0.52165499937E+02  0.10950772602E+02  0.59498911805E+02  0.79882910001E+02  0.00000000000E+00 0.  1.
         11    1    4    4    0    0  0.41063361901E+02  0.19070725883E+02 -0.33465384107E+02  0.56301191904E+02  0.00000000000E+00 0. -1.
</event>
<event>
 8    1  0.7224924E-009  0.9170302E+02  0.7561462E-02  0.1298779E+00
         -2   -1    0    0    0  501 -0.00000000000E+00  0.00000000000E+00  0.30115237449E+03  0.30115237449E+03  0.00000000000E+00 0.  1.
          2   -1    0    0  501    0  0.00000000000E+00 -0.00000000000E+00 -0.54947087099E+02  0.54947087099E+02  0.00000000000E+00 0. -1.
         25    2    1    2    0    0 -0.97864887281E+01 -0.14604588868E+02  0.22619279921E+03  0.25907194007E+03  0.12508404510E+03 0.  0.
         23    2    1    2    0    0  0.97864887281E+01  0.14604588868E+02  0.20012488178E+02  0.97027521521E+02  0.93299361583E+02 0.  0.
          5    1    3    3  502    0 -0.17494284524E+02  0.44971124850E+02  0.16979579586E+03  0.17656878759E+03  0.41800000000E+01 0. -1.
         -5    1    3    3    0  502  0.77077957956E+01 -0.59575713718E+02  0.56397003359E+02  0.82503152478E+02  0.41800000000E+01 0. -1.
        -11    1    4    4    0    0 -0.15530451490E+02  0.37519321048E+02 -0.19296291021E+02  0.44958216408E+02  0.00000000000E+00 0. -1.
         11    1    4    4    0    0  0.25316940218E+02 -0.22914732180E+02  0.39308779198E+02  0.52069305113E+02  0.00000000000E+00 0.  1.
</event>
<event>
 8    1  0.7224924E-009  0.1489722E+03  0.7561462E-02  0.1201742E+00
         -3   -1    0    0    0  501 -0.00000000000E+00  0.00000000000E+00  0.24091483093E+03  0.24091483093E+03  0.00000000000E+00 0.  1.
          3   -1    0    0  501    0  0.00000000000E+00 -0.00000000000E+00 -0.31028454226E+03  0.31028454226E+03  0.00000000000E+00 0. -1.
         25    2    1    2    0    0  0.12064218848E+03 -0.34185389205E+02  0.18120392920E+03  0.25338804187E+03  0.12508979705E+03 0.  0.
         23    2    1    2    0    0 -0.12064218848E+03  0.34185389205E+02 -0.25057364053E+03  0.29781133132E+03  0.10090223614E+03 0.  0.
          5    1    3    3  502    0 -0.40806160019E+01  0.33714087360E+01 -0.15800280507E+02  0.17179612566E+02  0.41800000000E+01 0. -1.
         -5    1    3    3    0  502  0.12472280449E+03 -0.37556797941E+02  0.19700420970E+03  0.23620842930E+03  0.41800000000E+01 0. -1.
        -11    1    4    4    0    0 -0.12080115367E+03 -0.57541175388E+01 -0.18449908572E+03  0.22060358390E+03  0.00000000000E+00 0.  1.
         11    1    4    4    0    0  0.15896519072E+00  0.39939506743E+02 -0.66074554803E+02  0.77207747417E+02  0.00000000000E+00 0. -1.
</event>
<event>
 8    1  0.7224924E-009  0.1849498E+03  0.7561462E-02  0.1163097E+00
         -2   -1    0    0    0  501 -0.00000000000E+00  0.00000000000E+00  0.20364243658E+03  0.20364243658E+03  0.00000000000E+00 0.  1.
          2   -1    0    0  501    0  0.00000000000E+00 -0.00000000000E+00 -0.18996816296E+03  0.18996816296E+03  0.00000000000E+00 0. -1.
         25    2    1    2    0    0  0.23789814679E+02 -0.15823293870E+03  0.43047513088E+02  0.20761384035E+03  0.12508717020E+03 0.  0.
         23    2    1    2    0    0 -0.23789814679E+02  0.15823293870E+03 -0.29373239463E+02  0.18599675919E+03  0.90157579039E+02 0.  0.
          5    1    3    3  502    0  0.52138164162E+02 -0.43193404918E+02 -0.23339318248E+02  0.71737400057E+02  0.41800000000E+01 0. -1.
         -5    1    3    3    0  502 -0.28348349484E+02 -0.11503953379E+03  0.66386831336E+02  0.13587644029E+03  0.41800000000E+01 0. -1.
        -11    1    4    4    0    0 -0.57955553498E+02  0.11095708177E+03 -0.16500899299E+02  0.12626400855E+03  0.00000000000E+00 0.  1.
         11    1    4    4    0    0  0.34165738819E+02  0.47275856930E+02 -0.12872340164E+02  0.59732750639E+02  0.00000000000E+00 0. -1.
</event>
<event>
 8    1  0.7224924E-009  0.9539596E+02  0.7561462E-02  0.1290287E+00
         -2   -1    0    0    0  501 -0.00000000000E+00  0.00000000000E+00  0.76429897803E+02  0.76429897803E+02  0.00000000000E+00 0.  1.
          2   -1    0    0  501    0  0.00000000000E+00 -0.00000000000E+00 -0.16157235652E+03  0.16157235652E+03  0.00000000000E+00 0. -1.
         25    2    1    2    0    0  0.14407103403E+01  0.21329882339E+02 -0.57424889958E+02  0.13928788426E+03  0.12508579931E+03 0.  0.
         23    2    1    2    0    0 -0.14407103403E+01 -0.21329882339E+02 -0.27717568759E+02  0.98714370063E+02  0.92299640910E+02 0.  0.
          5    1    3    3  502    0 -0.43274114217E+02  0.50995543302E+02 -0.52710093878E+02  0.85258552618E+02  0.41800000000E+01 0.  1.
         -5    1    3    3    0  502  0.44714824558E+02 -0.29665660963E+02 -0.47147960802E+01  0.54029331642E+02  0.41800000000E+01 0.  1.
        -11    1    4    4    0    0  0.28508275800E+02 -0.27239455597E+02 -0.47958956360E+02  0.62086803956E+02  0.00000000000E+00 0. -1.
         11    1    4    4    0    0 -0.29948986141E+02  0.59095732574E+01  0.20241387601E+02  0.36627566107E+02  0.00000000000E+00 0.  1.
</event>
<event>
 8    1  0.7224924E-009  0.1595220E+03  0.7561462E-02  0.1189237E+00
          1   -1    0    0  501    0  0.00000000000E+00  0.00000000000E+00  0.17702894166E+03  0.17702894166E+03  0.00000000000E+00 0. -1.
         -1   -1    0    0    0  501 -0.00000000000E+00 -0.00000000000E+00 -0.17283080246E+03  0.17283080246E+03  0.00000000000E+00 0.  1.
         25    2    1    2    0    0 -0.20004369450E+02 -0.11384126230E+03 -0.63980942109E+02  0.18193906937E+03  0.12509299025E+03 0.  0.
         23    2    1    2    0    0  0.20004369450E+02  0.11384126230E+03  0.68179081317E+02  0.16792067476E+03  0.10094036894E+03 0.  0.
          5    1    3    3  502    0  0.48854852545E+02 -0.20043958845E+02 -0.11411553163E+02  0.54187201893E+02  0.41800000000E+01 0.  1.
         -5    1    3    3    0  502 -0.68859221995E+02 -0.93797303452E+02 -0.52569388946E+02  0.12775186747E+03  0.41800000000E+01 0.  1.
        -11    1    4    4    0    0  0.78165946853E+01 -0.16747202433E+02 -0.29549910258E+01  0.18716300750E+02  0.00000000000E+00 0.  1.
         11    1    4    4    0    0  0.12187774765E+02  0.13058846473E+03  0.71134072343E+02  0.14920437401E+03  0.00000000000E+00 0. -1.
</event>
<event>
 8    1  0.7224924E-009  0.2648425E+03  0.7561462E-02  0.1104268E+00
          2   -1    0    0  501    0  0.00000000000E+00  0.00000000000E+00  0.10769399164E+04  0.10769399164E+04  0.00000000000E+00 0. -1.
         -2   -1    0    0    0  501 -0.00000000000E+00 -0.00000000000E+00 -0.66579920396E+02  0.66579920396E+02  0.00000000000E+00 0.  1.
         25    2    1    2    0    0 -0.22133831342E+03  0.10131613046E+03  0.47626429266E+03  0.54929986530E+03  0.12508820200E+03 0.  0.
         23    2    1    2    0    0  0.22133831342E+03 -0.10131613046E+03  0.53409570334E+03  0.59421997149E+03  0.92647433381E+02 0.  0.
          5    1    3    3  502    0 -0.17656068798E+03  0.16129236096E+02  0.30647490369E+03  0.35408779673E+03  0.41800000000E+01 0. -1.
         -5    1    3    3    0  502 -0.44777625437E+02  0.85186894363E+02  0.16978938896E+03  0.19521206857E+03  0.41800000000E+01 0. -1.
        -11    1    4    4    0    0  0.13085310947E+03 -0.16321828194E+02  0.22017595486E+03  0.25664448061E+03  0.00000000000E+00 0. -1.
         11    1    4    4    0    0  0.90485203953E+02 -0.84994302266E+02  0.31391974848E+03  0.33757549087E+03  0.00000000000E+00 0.  1.
</event>
<event>
 8    1  0.7224924E-009  0.9830631E+02  0.7561462E-02  0.1283898E+00
          2   -1    0    0  501    0  0.00000000000E+00  0.00000000000E+00  0.58026214016E+02  0.58026214016E+02  0.00000000000E+00 0. -1.
         -2   -1    0    0    0  501 -0.00000000000E+00 -0.00000000000E+00 -0.35383201672E+03  0.35383201672E+03  0.00000000000E+00 0.  1.
         25    2    1    2    0    0 -0.10790658373E+02 -0.19915695502E+02 -0.30616007417E+02  0.13077572284E+03  0.12510745996E+03 0.  0.
         23    2    1    2    0    0  0.10790658373E+02  0.19915695502E+02 -0.26518979529E+03  0.28108250790E+03  0.90380725189E+02 0.  0.
          5    1    3    3  502    0 -0.55322562130E+02 -0.20230684855E+02 -0.54247490073E+02  0.80188085583E+02  0.41800000000E+01 0.  1.
         -5    1    3    3    0  502  0.44531903757E+02  0.31498935271E+00  0.23631482656E+02  0.50587637255E+02  0.41800000000E+01 0.  1.
        -11    1    4    4    0    0  0.94069550557E+01  0.55967126804E+02 -0.15011187939E+03  0.16048173235E+03  0.00000000000E+00 0. -1.
         11    1    4    4    0    0  0.13837033172E+01 -0.36051431301E+02 -0.11507791590E+03  0.12060077554E+03  0.00000000000E+00 0.  1.
</event>
<event>
 8    1  0.7224924E-009  0.9623693E+02  0.7561462E-02  0.1288414E+00
         -2   -1    0    0    0  501 -0.00000000000E+00  0.00000000000E+00  0.28221171072E+02  0.28221171072E+02  0.00000000000E+00 0.  1.
          2   -1    0    0  501    0  0.00000000000E+00 -0.00000000000E+00 -0.49445625105E+03  0.49445625105E+03  0.00000000000E+00 0. -1.
         25    2    1    2    0    0 -0.35401275775E+02  0.14214907846E+02 -0.20061527293E+03  0.23947830104E+03  0.12509218603E+03 0.  0.
         23    2    1    2    0    0  0.35401275775E+02 -0.14214907846E+02 -0.26561980705E+03  0.28319912108E+03  0.90512686133E+02 0.  0.
          5    1    3    3  502    0  0.45140273992E+01 -0.48564533385E+02 -0.12052579429E+03  0.13008777742E+03  0.41800000000E+01 0.  1.
         -5    1    3    3    0  502 -0.39915303174E+02  0.62779441231E+02 -0.80089478640E+02  0.10939052362E+03  0.41800000000E+01 0.  1.
        -11    1    4    4    0    0  0.48880159578E+02 -0.21824535801E+02 -0.26185307526E+03  0.26726880361E+03  0.00000000000E+00 0. -1.
         11    1    4    4    0    0 -0.13478883803E+02  0.76096279557E+01 -0.37667317953E+01  0.15930317468E+02  0.00000000000E+00 0.  1.
</event>
<event>
 8    1  0.7224924E-009  0.8887087E+02  0.7561462E-02  0.1305609E+00
         -1   -1    0    0    0  501 -0.00000000000E+00  0.00000000000E+00  0.17217219812E+03  0.17217219812E+03  0.00000000000E+00 0.  1.
          1   -1    0    0  501    0  0.00000000000E+00 -0.00000000000E+00 -0.78657674829E+02  0.78657674829E+02  0.00000000000E+00 0. -1.
         25    2    1    2    0    0  0.30127059838E+02  0.25083001605E+02  0.32792948383E+02  0.13512663370E+03  0.12508810083E+03 0.  0.
         23    2    1    2    0    0 -0.30127059838E+02 -0.25083001605E+02  0.60721574906E+02  0.11570323924E+03  0.90351166059E+02 0.  0.
          5    1    3    3  502    0 -0.34699184319E+01  0.52321178748E+02  0.63098977737E+02  0.82149251189E+02  0.41800000000E+01 0. -1.
         -5    1    3    3    0  502  0.33596978270E+02 -0.27238177142E+02 -0.30306029354E+02  0.52977382515E+02  0.41800000000E+01 0. -1.
        -11    1    4    4    0    0 -0.46465850769E+02  0.57217972124E+01  0.65496255156E+02  0.80508221260E+02  0.00000000000E+00 0.  1.
         11    1    4    4    0    0  0.16338790931E+02 -0.30804798818E+02 -0.47746802503E+01  0.35195017982E+02  0.00000000000E+00 0. -1.
</event>
<event>
 8    1  0.7224924E-009  0.1262828E+03  0.7561462E-02  0.1233078E+00
         -2   -1    0    0    0  501 -0.00000000000E+00  0.00000000000E+00  0.34805470677E+02  0.34805470677E+02  0.00000000000E+00 0.  1.
          2   -1    0    0  501    0  0.00000000000E+00 -0.00000000000E+00 -0.55431056795E+03  0.55431056795E+03  0.00000000000E+00 0. -1.
         25    2    1    2    0    0 -0.31741415138E+02  0.81072965243E+02 -0.24601395263E+03  0.28939719236E+03  0.12509007526E+03 0.  0.
         23    2    1    2    0    0  0.31741415138E+02 -0.81072965243E+02 -0.27349114464E+03  0.29971884626E+03  0.86334451308E+02 0.  0.
          5    1    3    3  502    0 -0.67805657577E+02  0.77268463685E+02 -0.22467817527E+03  0.24711490753E+03  0.41800000000E+01 0.  1.
         -5    1    3    3    0  502  0.36064242439E+02  0.38045015580E+01 -0.21335777358E+02  0.42282284828E+02  0.41800000000E+01 0.  1.
        -11    1    4    4    0    0 -0.23383712660E+02 -0.18762660073E+02 -0.30023012693E+02  0.42428960886E+02  0.00000000000E+00 0.  1.
         11    1    4    4    0    0  0.55125127798E+02 -0.62310305170E+02 -0.24346813194E+03  0.25728988538E+03  0.00000000000E+00 0. -1.
</event>
<event>
 8    1  0.7224924E-009  0.1360243E+03  0.7561462E-02  0.1218781E+00
         -1   -1    0    0    0  501 -0.00000000000E+00  0.00000000000E+00  0.62731869901E+03  0.62731869901E+03  0.00000000000E+00 0.  1.
          1   -1    0    0  501    0  0.00000000000E+00 -0.00000000000E+00 -0.38223891002E+02  0.38223891002E+02  0.00000000000E+00 0. -1.
         25    2    1    2    0    0 -0.53060126501E+02  0.95736881226E+02  0.27963089359E+03  0.32530191253E+03  0.12508784991E+03 0.  0.
         23    2    1    2    0    0  0.53060126501E+02 -0.95736881226E+02  0.30946391442E+03  0.34024067749E+03  0.89525844513E+02 0.  0.
          5    1    3    3  502    0  0.35500132036E+02  0.44386855021E+02  0.14732411993E+03  0.15796303677E+03  0.41800000000E+01 0. -1.
         -5    1    3    3    0  502 -0.88560258537E+02  0.51350026205E+02  0.13230677366E+03  0.16733887576E+03  0.41800000000E+01 0. -1.
        -11    1    4    4    0    0  0.61356776715E+01 -0.36595660235E+02  0.22240682653E+02  0.43261262735E+02  0.00000000000E+00 0. -1.
         11    1    4    4    0    0  0.46924448830E+02 -0.59141220991E+02  0.28722323177E+03  0.29697941475E+03  0.00000000000E+00 0.  1.
</event>
<event>
 8    1  0.7224924E-009  0.1364149E+03  0.7561462E-02  0.1218236E+00
          1   -1    0    0  501    0  0.00000000000E+00  0.00000000000E+00  0.48938342798E+03  0.48938342798E+03  0.00000000000E+00 0. -1.
         -1   -1    0    0    0  501 -0.00000000000E+00 -0.00000000000E+00 -0.54468595530E+02  0.54468595530E+02  0.00000000000E+00 0.  1.
         25    2    1    2    0    0 -0.38266520518E+02 -0.85731729032E+02  0.35977878244E+03  0.39230199986E+03  0.12508329562E+03 0.  0.
         23    2    1    2    0    0  0.38266520518E+02  0.85731729032E+02  0.75136050004E+02  0.15155002365E+03  0.92237344398E+02 0.  0.
          5    1    3    3  502    0 -0.72714675157E+02 -0.94427895852E+02  0.25316717386E+03  0.27984842651E+03  0.41800000000E+01 0. -1.
         -5    1    3    3    0  502  0.34448154638E+02  0.86961668200E+01  0.10661160858E+03  0.11245357335E+03  0.41800000000E+01 0. -1.
        -11    1    4    4    0    0 -0.20060951259E+02  0.10607525958E+02 -0.91498416308E+01  0.24467958113E+02  0.00000000000E+00 0.  1.
         11    1    4    4    0    0  0.58327471777E+02  0.75124203073E+02  0.84285891635E+02  0.12708206553E+03  0.00000000000E+00 0. -1.
</event>
<event>
 8    1  0.7224924E-009  0.9484190E+02  0.7561462E-02  0.1291533E+00
         -2   -1    0    0    0  501 -0.00000000000E+00  0.00000000000E+00  0.14019297437E+03  0.14019297437E+03  0.00000000000E+00 0. -1.
          2   -1    0    0  501    0  0.00000000000E+00 -0.00000000000E+00 -0.12036572989E+03  0.12036572989E+03  0.00000000000E+00 0.  1.
         25    2    1    2    0    0  0.20468292830E+02 -0.66534532319E+02 -0.73309016448E+01  0.14334230225E+03  0.12508988165E+03 0.  0.
         23    2    1    2    0    0 -0.20468292830E+02  0.66534532319E+02  0.27158146132E+02  0.11721640201E+03  0.90312374551E+02 0.  0.
          5    1    3    3  502    0  0.27430452120E+02 -0.62265908622E+02 -0.59432753596E+02  0.90438916845E+02  0.41800000000E+01 0.  1.
         -5    1    3    3    0  502 -0.69621592902E+01 -0.42686236975E+01  0.52101851951E+02  0.52903385402E+02  0.41800000000E+01 0.  1.
        -11    1    4    4    0    0  0.34555559327E+02  0.33685974861E+02  0.17791625857E+01  0.48290754832E+02  0.00000000000E+00 0.  1.
         11    1    4    4    0    0 -0.55023852157E+02  0.32848557458E+02  0.25378983547E+02  0.68925647180E+02  0.00000000000E+00 0. -1.
</event>
<event>
 8    1  0.7224924E-009  0.8747644E+02  0.7561462E-02  0.1309081E+00
          1   -1    0    0  501    0  0.00000000000E+00  0.00000000000E+00  0.38088122599E+03  0.38088122599E+03  0.00000000000E+00 0. -1.
         -1   -1    0    0    0  501 -0.00000000000E+00 -0.00000000000E+00 -0.48356767581E+02  0.48356767581E+02  0.00000000000E+00 0.  1.
         25    2    1    2    0    0  0.12754377572E+02 -0.61184875903E+01  0.31047310105E+03  0.33502430140E+03  0.12509047131E+03 0.  0.
         23    2    1    2    0    0 -0.12754377572E+02  0.61184875903E+01  0.22051357358E+02  0.94213692173E+02  0.90497775630E+02 0.  0.
          5    1    3    3  502    0 -0.38825671977E+02  0.36183111213E+02  0.18925697400E+03  0.19660194544E+03  0.41800000000E+01 0. -1.
         -5    1    3    3    0  502  0.51580049548E+02 -0.42301598803E+02  0.12121612704E+03  0.13842235596E+03  0.41800000000E+01 0. -1.
        -11    1    4    4    0    0  0.10640927024E+02 -0.18231742272E+02 -0.27241702819E+02  0.34463547796E+02  0.00000000000E+00 0.  1.
         11    1    4    4    0    0 -0.23395304596E+02  0.24350229862E+02  0.49293060177E+02  0.59750144377E+02  0.00000000000E+00 0. -1.
</event>
<event>
 8    1  0.7224924E-009  0.1054509E+03  0.7561462E-02  0.1269234E+00
         -3   -1    0    0    0  501 -0.00000000000E+00  0.00000000000E+00  0.52434899716E+02  0.52434899716E+02  0.00000000000E+00 0.  1.
          3   -1    0    0  501    0  0.00000000000E+00 -0.00000000000E+00 -0.42152856532E+03  0.42152856532E+03  0.00000000000E+00 0. -1.
         25    2    1    2    0    0 -0.20968109973E+02 -0.87047102228E+02 -0.12206232637E+03  0.19638195447E+03  0.12509916418E+03 0.  0.
         23    2    1    2    0    0  0.20968109973E+02  0.87047102228E+02 -0.24703133923E+03  0.27758151056E+03  0.89499457001E+02 0.  0.
          5    1    3    3  502    0  0.20379461387E+01 -0.95972340012E+02 -0.29523717442E+02  0.10051848369E+03  0.41800000000E+01 0. -1.
         -5    1    3    3    0  502 -0.23006056111E+02  0.89252377832E+01 -0.92538608929E+02  0.95863470779E+02  0.41800000000E+01 0. -1.
        -11    1    4    4    0    0  0.13892028653E+02  0.69381967083E+02 -0.24861274764E+03  0.25848625516E+03  0.00000000000E+00 0. -1.
         11    1    4    4    0    0  0.70760813199E+01  0.17665135145E+02  0.15814084088E+01  0.19095255408E+02  0.00000000000E+00 0.  1.
</event>
<event>
 8    1  0.7224924E-009  0.1236344E+03  0.7561462E-02  0.1237219E+00
          2   -1    0    0  501    0  0.00000000000E+00  0.00000000000E+00  0.26092217272E+03  0.26092217272E+03  0.00000000000E+00 0. -1.
         -2   -1    0    0    0  501 -0.00000000000E+00 -0.00000000000E+00 -0.71653387165E+02  0.71653387165E+02  0.00000000000E+00 0.  1.
         25    2    1    2    0    0  0.77215004089E+02 -0.61813476366E+01  0.73669512753E+02  0.16455116896E+03  0.12509805827E+03 0.  0.
         23    2    1    2    0    0 -0.77215004089E+02  0.61813476366E+01  0.11559927280E+03  0.16802439092E+03  0.94173447200E+02 0.  0.
          5    1    3    3  502    0 -0.22879270305E+02  0.30679290015E+02  0.31622684758E+02  0.49821144475E+02  0.41800000000E+01 0.  1.
         -5    1    3    3    0  502  0.10009427439E+03 -0.36860637652E+02  0.42046827995E+02  0.11473002449E+03  0.41800000000E+01 0.  1.
        -11    1    4    4    0    0 -0.74957301307E+02 -0.18525506845E+02  0.37033688834E+02  0.85634604756E+02  0.00000000000E+00 0.  1.
         11    1    4    4    0    0 -0.22577027823E+01  0.24706854482E+02  0.78565583971E+02  0.82389786169E+02  0.00000000000E+00 0. -1.
</event>
<event>
 8    1  0.7224924E-009  0.1037126E+03  0.7561462E-02  0.1272677E+00
         -2   -1    0    0    0  501 -0.00000000000E+00  0.00000000000E+00  0.99646721831E+02  0.99646721831E+02  0.00000000000E+00 0.  1.
          2   -1    0    0  501    0  0.00000000000E+00 -0.00000000000E+00 -0.13664313452E+03  0.13664313452E+03  0.00000000000E+00 0. -1.
         25    2    1    2    0    0  0.36911754695E+02 -0.26725446064E+02 -0.22213097816E+02  0.13497131623E+03  0.12508839830E+03 0.  0.
         23    2    1    2    0    0 -0.36911754695E+02  0.26725446064E+02 -0.14783314871E+02  0.10131854012E+03  0.89275825793E+02 0.  0.
          5    1    3    3  502    0  0.69878164190E+02 -0.63523781223E+01 -0.50721380644E+02  0.86680109557E+02  0.41800000000E+01 0. -1.
         -5    1    3    3    0  502 -0.32966409496E+02 -0.20373067942E+02  0.28508282827E+02  0.48291206676E+02  0.41800000000E+01 0. -1.
        -11    1    4    4    0    0 -0.56047534420E+02  0.44862138643E+02 -0.15240889782E+01  0.71807105814E+02  0.00000000000E+00 0.  1.
         11    1    4    4    0    0  0.19135779725E+02 -0.18136692579E+02 -0.13259225893E+02  0.29511434303E+02  0.00000000000E+00 0. -1.
</event>
<event>
 8    1  0.7224924E-009  0.1082816E+03  0.7561462E-02  0.1263786E+00
          1   -1    0    0  501    0  0.00000000000E+00  0.00000000000E+00  0.97249163987E+03  0.97249163987E+03  0.00000000000E+00 0. -1.
         -1   -1    0    0    0  501 -0.00000000000E+00 -0.00000000000E+00 -0.17006742529E+02  0.17006742529E+02  0.00000000000E+00 0.  1.
         25    2    1    2    0    0 -0.26921964986E+01 -0.65267358742E+02  0.43928138440E+03  0.46139254335E+03  0.12509143991E+03 0.  0.
         23    2    1    2    0    0  0.26921964986E+01  0.65267358742E+02  0.51620351294E+03  0.52810583905E+03  0.90347298944E+02 0.  0.
          5    1    3    3  502    0  0.25956171212E+02  0.81483271260E+01  0.30037311069E+03  0.30163155684E+03  0.41800000000E+01 0. -1.
         -5    1    3    3    0  502 -0.28648367710E+02 -0.73415685868E+02  0.13890827371E+03  0.15976098651E+03  0.41800000000E+01 0. -1.
        -11    1    4    4    0    0  0.30495212143E+02 -0.81915869317E+01  0.11330307484E+03  0.11762077550E+03  0.00000000000E+00 0. -1.
         11    1    4    4    0    0 -0.27803015645E+02  0.73458945673E+02  0.40290043810E+03  0.41048506355E+03  0.00000000000E+00 0.  1.
</event>
<event>
 8    1  0.7224924E-009  0.1022285E+03  0.7561462E-02  0.1275678E+00
          1   -1    0    0  501    0  0.00000000000E+00  0.00000000000E+00  0.11412707935E+04  0.11412707935E+04  0.00000000000E+00 0. -1.
         -1   -1    0    0    0  501 -0.00000000000E+00 -0.00000000000E+00 -0.16931159855E+02  0.16931159855E+02  0.00000000000E+00 0.  1.
         25    2    1    2    0    0 -0.56823174076E+01  0.49293393283E+02  0.91365130117E+03  0.92350844517E+03  0.12508805224E+03 0.  0.
         23    2    1    2    0    0  0.56823174076E+01 -0.49293393283E+02  0.21068833248E+03  0.23469350819E+03  0.90715720756E+02 0.  0.
          5    1    3    3  502    0  0.40091520213E+02  0.36379480439E+02  0.77437024535E+03  0.77627156709E+03  0.41800000000E+01 0.  1.
         -5    1    3    3    0  502 -0.45773837620E+02  0.12913912843E+02  0.13928105582E+03  0.14723687807E+03  0.41800000000E+01 0.  1.
        -11    1    4    4    0    0  0.13279661624E+02  0.24694179825E+02  0.44142024726E+02  0.52294074970E+02  0.00000000000E+00 0.  1.
         11    1    4    4    0    0 -0.75973442163E+01 -0.73987573108E+02  0.16654630776E+03  0.18239943322E+03  0.00000000000E+00 0. -1.
</event>
<event>
 8    1  0.7224924E-009  0.8046599E+02  0.7561462E-02  0.1327734E+00
          2   -1    0    0  501    0  0.00000000000E+00  0.00000000000E+00  0.44109114459E+03  0.44109114459E+03  0.00000000000E+00 0. -1.
         -2   -1    0    0    0  501 -0.00000000000E+00 -0.00000000000E+00 -0.32576553578E+02  0.32576553578E+02  0.00000000000E+00 0.  1.
         25    2    1    2    0    0 -0.46378851171E+02 -0.19226905665E+02  0.25320362453E+03  0.28684403742E+03  0.12508698811E+03 0.  0.
         23    2    1    2    0    0  0.46378851171E+02  0.19226905665E+02  0.15531096649E+03  0.18682366075E+03  0.90889560274E+02 0.  0.
          5    1    3    3  502    0  0.39442285484E+01 -0.43385514838E+02  0.21418213917E+03  0.21860768736E+03  0.41800000000E+01 0.  1.
         -5    1    3    3    0  502 -0.50323079719E+02  0.24158609173E+02  0.39021485363E+02  0.68236350060E+02  0.41800000000E+01 0.  1.
        -11    1    4    4    0    0  0.23403669438E+02 -0.87517474969E+01  0.14773920463E+03  0.14983723640E+03  0.00000000000E+00 0. -1.
         11    1    4    4    0    0  0.22975181732E+02  0.27978653161E+02  0.75717618560E+01  0.36986424347E+02  0.00000000000E+00 0.  1.
</event>
<event>
 8    1  0.7224924E-009  0.1024051E+03  0.7561462E-02  0.1275318E+00
         -1   -1    0    0    0  501 -0.00000000000E+00  0.00000000000E+00  0.78886529758E+02  0.78886529758E+02  0.00000000000E+00 0.  1.
          1   -1    0    0  501    0  0.00000000000E+00 -0.00000000000E+00 -0.17923038691E+03  0.17923038691E+03  0.00000000000E+00 0. -1.
         25    2    1    2    0    0 -0.41680792696E+01 -0.18727645409E+00 -0.11400194950E+03  0.16929687376E+03  0.12509028348E+03 0.  0.
         23    2    1    2    0    0  0.41680792696E+01  0.18727645409E+00  0.13658092347E+02  0.88820042899E+02  0.87664408837E+02 0.  0.
          5    1    3    3  502    0  0.59080018077E+02  0.69345013234E+01 -0.41067444443E+02  0.72405408898E+02  0.41800000000E+01 0. -1.
         -5    1    3    3    0  502 -0.63248097347E+02 -0.71217777775E+01 -0.72934505053E+02  0.96891464867E+02  0.41800000000E+01 0. -1.
        -11    1    4    4    0    0 -0.25521850365E+02  0.29952886305E+02 -0.99685884842E+01  0.40594494706E+02  0.00000000000E+00 0. -1.
         11    1    4    4    0    0  0.29689929634E+02 -0.29765609851E+02  0.23626680831E+02  0.48225548194E+02  0.00000000000E+00 0.  1.
</event>
<event>
 8    1  0.7224924E-009  0.1482395E+03  0.7561462E-02  0.1202653E+00
          1   -1    0    0  501    0  0.00000000000E+00  0.00000000000E+00  0.11002420727E+04  0.11002420727E+04  0.00000000000E+00 0. -1.
         -1   -1    0    0    0  501 -0.00000000000E+00 -0.00000000000E+00 -0.22593378400E+02  0.22593378400E+02  0.00000000000E+00 0.  1.
         25    2    1    2    0    0  0.77195489714E+00 -0.10845819232E+03  0.45637833324E+03  0.48548046056E+03  0.12508524748E+03 0.  0.
         23    2    1    2    0    0 -0.77195489714E+00  0.10845819232E+03  0.62127036110E+03  0.63735499058E+03  0.92090971564E+02 0.  0.
          5    1    3    3  502    0  0.37629814284E+02 -0.11166831087E+03  0.25839942706E+03  0.28403089776E+03  0.41800000000E+01 0.  1.
         -5    1    3    3    0  502 -0.36857859387E+02  0.32101185559E+01  0.19797890618E+03  0.20144956280E+03  0.41800000000E+01 0.  1.
        -11    1    4    4    0    0 -0.37109706178E+02  0.13211969621E+02  0.14197517626E+03  0.14733851197E+03  0.00000000000E+00 0.  1.
         11    1    4    4    0    0  0.36337751280E+02  0.95246222698E+02  0.47929518484E+03  0.49001647861E+03  0.00000000000E+00 0. -1.
</event>
<event>
 8    1  0.7224924E-009  0.9894989E+02  0.7561462E-02  0.1282520E+00
          1   -1    0    0  501    0  0.00000000000E+00  0.00000000000E+00  0.48574500665E+02  0.48574500665E+02  0.00000000000E+00 0. -1.
         -1   -1    0    0    0  501 -0.00000000000E+00 -0.00000000000E+00 -0.35973655290E+03  0.35973655290E+03  0.00000000000E+00 0.  1.
         25    2    1    2    0    0 -0.92569514782E+01 -0.74280795778E+02 -0.15362875608E+03  0.21178227872E+03  0.12508641458E+03 0.  0.
         23    2    1    2    0    0  0.92569514782E+01  0.74280795778E+02 -0.15753329616E+03  0.19652877485E+03  0.90573131627E+02 0.  0.
          5    1    3    3  502    0 -0.56942671019E+01  0.13520848475E+02  0.15120168099E+02  0.21478591775E+02  0.41800000000E+01 0. -1.
         -5    1    3    3    0  502 -0.35626843764E+01 -0.87801644253E+02 -0.16874892418E+03  0.19030368694E+03  0.41800000000E+01 0. -1.
        -11    1    4    4    0    0 -0.29010465216E+01  0.80816342370E+02 -0.16278086260E+03  0.18176167499E+03  0.00000000000E+00 0.  1.
         11    1    4    4    0    0  0.12157998000E+02 -0.65355465919E+01  0.52475664459E+01  0.14767099858E+02  0.00000000000E+00 0. -1.
</event>
<event>
 8    1  0.7224924E-009  0.1869469E+03  0.7561462E-02  0.1161244E+00
         -2   -1    0    0    0  501 -0.00000000000E+00  0.00000000000E+00  0.28832111932E+02  0.28832111932E+02  0.00000000000E+00 0.  1.
          2   -1    0    0  501    0  0.00000000000E+00 -0.00000000000E+00 -0.16660110397E+04  0.16660110397E+04  0.00000000000E+00 0. -1.
         25    2    1    2    0    0  0.56316335369E+02 -0.16602413990E+03 -0.11214329871E+04  0.11419269335E+04  0.12509849032E+03 0.  0.
         23    2    1    2    0    0 -0.56316335369E+02  0.16602413990E+03 -0.51574594062E+03  0.55291621807E+03  0.94799389632E+02 0.  0.
          5    1    3    3  502    0  0.71309104196E+02 -0.12548805462E+03 -0.10367851313E+04  0.10467918232E+04  0.41800000000E+01 0. -1.
         -5    1    3    3    0  502 -0.14992768827E+02 -0.40536085282E+02 -0.84647855776E+02  0.95135110314E+02  0.41800000000E+01 0. -1.
        -11    1    4    4    0    0 -0.46910697256E+02  0.46050980342E+02 -0.96665346579E+02  0.11689951042E+03  0.00000000000E+00 0. -1.
         11    1    4    4    0    0 -0.94056381125E+01  0.11997315956E+03 -0.41908059404E+03  0.43601670764E+03  0.00000000000E+00 0.  1.
</event>
<event>
 8    1  0.7224924E-009  0.7832054E+02  0.7561462E-02  0.1333886E+00
         -2   -1    0    0    0  501 -0.00000000000E+00  0.00000000000E+00  0.45851901049E+02  0.45851901049E+02  0.00000000000E+00 0.  1.
          2   -1    0    0  501    0  0.00000000000E+00 -0.00000000000E+00 -0.26627017585E+03  0.26627017585E+03  0.00000000000E+00 0. -1.
         25    2    1    2    0    0  0.12691440059E+02  0.13655421379E+02 -0.13603984198E+03  0.18573820716E+03  0.12507717541E+03 0.  0.
         23    2    1    2    0    0 -0.12691440059E+02 -0.13655421379E+02 -0.84378432823E+02  0.12638386975E+03  0.92225915134E+02 0.  0.
          5    1    3    3  502    0  0.40387362965E+02  0.39811304661E+02 -0.15047411398E+02  0.58821561148E+02  0.41800000000E+01 0.  1.
         -5    1    3    3    0  502 -0.27695922906E+02 -0.26155883282E+02 -0.12099243058E+03  0.12691664601E+03  0.41800000000E+01 0.  1.
        -11    1    4    4    0    0  0.23596721519E+02 -0.43962570948E+01  0.91097872868E+01  0.25673343517E+02  0.00000000000E+00 0.  1.
         11    1    4    4    0    0 -0.36288161578E+02 -0.92591642841E+01 -0.93488220109E+02  0.10071052623E+03  0.00000000000E+00 0. -1.
</event>
<event>
 8    1  0.7224924E-009  0.9958932E+02  0.7561462E-02  0.1281162E+00
         -1   -1    0    0    0  501 -0.00000000000E+00  0.00000000000E+00  0.18095651613E+03  0.18095651613E+03  0.00000000000E+00 0. -1.
          1   -1    0    0  501    0  0.00000000000E+00 -0.00000000000E+00 -0.79928083696E+02  0.79928083696E+02  0.00000000000E+00 0.  1.
         25    2    1    2    0    0  0.20223620550E+02  0.36451722946E+02  0.90192748416E+02  0.15975056840E+03  0.12509112400E+03 0.  0.
         23    2    1    2    0    0 -0.20223620550E+02 -0.36451722946E+02  0.10835684014E+02  0.10113403142E+03  0.91503865108E+02 0.  0.
          5    1    3    3  502    0 -0.33970361364E+02  0.42412867410E+02  0.26255643750E+00  0.54501175299E+02  0.41800000000E+01 0. -1.
         -5    1    3    3    0  502  0.54193981913E+02 -0.59611444640E+01  0.89930191979E+02  0.10524939310E+03  0.41800000000E+01 0. -1.
        -11    1    4    4    0    0 -0.50836406450E+02 -0.16459727458E+02 -0.16001631669E+02  0.55779163357E+02  0.00000000000E+00 0.  1.
         11    1    4    4    0    0  0.30612785900E+02 -0.19991995488E+02  0.26837315683E+02  0.45354868065E+02  0.00000000000E+00 0. -1.
</event>
<event>
 8    1  0.7224924E-009  0.1498663E+03  0.7561462E-02  0.1200637E+00
         -1   -1    0    0    0  501 -0.00000000000E+00  0.00000000000E+00  0.34426344266E+03  0.34426344266E+03  0.00000000000E+00 0.  1.
          1   -1    0    0  501    0  0.00000000000E+00 -0.00000000000E+00 -0.93315038027E+02  0.93315038027E+02  0.00000000000E+00 0. -1.
         25    2    1    2    0    0 -0.11824088147E+03  0.52055906861E+02  0.59643448296E+02  0.18946141184E+03  0.12509021609E+03 0.  0.
         23    2    1    2    0    0  0.11824088147E+03 -0.52055906861E+02  0.19130495633E+03  0.24811706884E+03  0.90960266288E+02 0.  0.
          5    1    3    3  502    0 -0.23122499621E+02 -0.25880732784E+02 -0.22453114248E+02  0.41546083541E+02  0.41800000000E+01 0. -1.
         -5    1    3    3    0  502 -0.95118381849E+02  0.77936639645E+02  0.82096562544E+02  0.14791532830E+03  0.41800000000E+01 0. -1.
        -11    1    4    4    0    0  0.81618953843E+01  0.11896758416E+02  0.72712523927E+02  0.74130024503E+02  0.00000000000E+00 0.  1.
         11    1    4    4    0    0  0.11007898609E+03 -0.63952665277E+02  0.11859243241E+03  0.17398704434E+03  0.00000000000E+00 0. -1.
</event>
<event>
 8    1  0.7224924E-009  0.1644227E+03  0.7561462E-02  0.1183792E+00
         -1   -1    0    0    0  501 -0.00000000000E+00  0.00000000000E+00  0.18023841892E+03  0.18023841892E+03  0.00000000000E+00 0. -1.
          1   -1    0    0  501    0  0.00000000000E+00 -0.00000000000E+00 -0.19514130402E+03  0.19514130402E+03  0.00000000000E+00 0.  1.
         25    2    1    2    0    0 -0.13926849800E+03  0.21076969522E+02 -0.67335825543E+02  0.20005370821E+03  0.12508964620E+03 0.  0.
         23    2    1    2    0    0  0.13926849800E+03 -0.21076969522E+02  0.52432940442E+02  0.17532601473E+03  0.90277599762E+02 0.  0.
          5    1    3    3  502    0  0.13595213795E+02 -0.24566831442E+02 -0.14982006342E+02  0.32098161307E+02  0.41800000000E+01 0.  1.
         -5    1    3    3    0  502 -0.15286371179E+03  0.45643800964E+02 -0.52353819201E+02  0.16795554690E+03  0.41800000000E+01 0.  1.
        -11    1    4    4    0    0  0.49732476578E+02 -0.85732332719E+01 -0.24976151136E+02  0.56308326923E+02  0.00000000000E+00 0.  1.
         11    1    4    4    0    0  0.89536021421E+02 -0.12503736250E+02  0.77409091578E+02  0.11901768781E+03  0.00000000000E+00 0. -1.
</event>
<event>
 8    1  0.7224924E-009  0.5424557E+02  0.7561462E-02  0.1423701E+00
         -2   -1    0    0    0  501 -0.00000000000E+00  0.00000000000E+00  0.11908159751E+03  0.11908159751E+03  0.00000000000E+00 0.  1.
          2   -1    0    0  501    0  0.00000000000E+00 -0.00000000000E+00 -0.12977673821E+03  0.12977673821E+03  0.00000000000E+00 0. -1.
         25    2    1    2    0    0 -0.12113505837E+02 -0.39847947993E+02  0.39417021478E+02  0.13761666726E+03  0.12510015805E+03 0.  0.
         23    2    1    2    0    0  0.12113505837E+02  0.39847947993E+02 -0.50112162171E+02  0.11124166846E+03  0.90160323981E+02 0.  0.
          5    1    3    3  502    0 -0.26298488542E+02 -0.18661667171E+02  0.81773833803E+02  0.88001708029E+02  0.41800000000E+01 0.  1.
         -5    1    3    3    0  502  0.14184982705E+02 -0.21186280822E+02 -0.42356812325E+02  0.49614959233E+02  0.41800000000E+01 0.  1.
        -11    1    4    4    0    0  0.18239035030E+02  0.12498661968E+02 -0.72230161229E+02  0.75538567242E+02  0.00000000000E+00 0. -1.
         11    1    4    4    0    0 -0.61255291931E+01  0.27349286025E+02  0.22117999058E+02  0.35703101213E+02  0.00000000000E+00 0.  1.
</event>
<event>
 8    1  0.7224924E-009  0.9868262E+02  0.7561462E-02  0.1283091E+00
         -1   -1    0    0    0  501 -0.00000000000E+00  0.00000000000E+00  0.50433184617E+02  0.50433184617E+02  0.00000000000E+00 0.  1.
          1   -1    0    0  501    0  0.00000000000E+00 -0.00000000000E+00 -0.36615092371E+03  0.36615092371E+03  0.00000000000E+00 0. -1.
         25    2    1    2    0    0 -0.36082624799E+02 -0.63276382667E+02 -0.22860924960E+03  0.27058033837E+03  0.12508266904E+03 0.  0.
         23    2    1    2    0    0  0.36082624799E+02  0.63276382667E+02 -0.87108489494E+02  0.14600376996E+03  0.91778840065E+02 0.  0.
          5    1    3    3  502    0  0.82371990947E+00 -0.69203958096E+02 -0.22176400055E+03  0.23235018973E+03  0.41800000000E+01 0. -1.
         -5    1    3    3    0  502 -0.36906344709E+02  0.59275754291E+01 -0.68452490531E+01  0.38230148637E+02  0.41800000000E+01 0. -1.
        -11    1    4    4    0    0  0.46700970844E+02  0.30043937871E+02 -0.37707827559E+01  0.55658222062E+02  0.00000000000E+00 0.  1.
         11    1    4    4    0    0 -0.10618346045E+02  0.33232444796E+02 -0.83337706738E+02  0.90345547893E+02  0.00000000000E+00 0. -1.
</event>
<event>
 8    1  0.7224924E-009  0.1095810E+03  0.7561462E-02  0.1261348E+00
         -3   -1    0    0    0  501 -0.00000000000E+00  0.00000000000E+00  0.42180929606E+02  0.42180929606E+02  0.00000000000E+00 0.  1.
          3   -1    0    0  501    0  0.00000000000E+00 -0.00000000000E+00 -0.29372157092E+03  0.29372157092E+03  0.00000000000E+00 0. -1.
         25    2    1    2    0    0  0.27741538972E+02  0.49441239584E+01 -0.14636998395E+03  0.19459073138E+03  0.12508934084E+03 0.  0.
         23    2    1    2    0    0 -0.27741538972E+02 -0.49441239584E+01 -0.10517065737E+03  0.14131176915E+03  0.90078363568E+02 0.  0.
          5    1    3    3  502    0  0.74865135834E+02  0.14985074197E+02 -0.11050595903E+03  0.13438147340E+03  0.41800000000E+01 0.  1.
         -5    1    3    3    0  502 -0.47123596862E+02 -0.10040950238E+02 -0.35864024920E+02  0.60209257979E+02  0.41800000000E+01 0.  1.
        -11    1    4    4    0    0  0.31756430592E+02 -0.12960785967E+02 -0.40419570252E+02  0.53011267823E+02  0.00000000000E+00 0.  1.
         11    1    4    4    0    0 -0.59497969564E+02  0.80166620085E+01 -0.64751087116E+02  0.88300501328E+02  0.00000000000E+00 0. -1.
</event>
<event>
 8    1  0.7224924E-009  0.9015305E+02  0.7561462E-02  0.1302481E+00
          2   -1    0    0  501    0  0.00000000000E+00  0.00000000000E+00  0.33899966976E+03  0.33899966976E+03  0.00000000000E+00 0. -1.
         -2   -1    0    0    0  501 -0.00000000000E+00 -0.00000000000E+00 -0.44138998708E+02  0.44138998708E+02  0.00000000000E+00 0.  1.
         25    2    1    2    0    0 -0.20089964938E+02  0.49250781247E+02  0.14290072058E+03  0.19722197193E+03  0.12508654654E+03 0.  0.
         23    2    1    2    0    0  0.20089964938E+02 -0.49250781247E+02  0.15195995047E+03  0.18591669654E+03  0.92972820541E+02 0.  0.
          5    1    3    3  502    0 -0.19966763815E+02  0.62055781071E+02  0.12973869784E+02  0.66598688566E+02  0.41800000000E+01 0.  1.
         -5    1    3    3    0  502 -0.12320112306E+00 -0.12804999824E+02  0.12992685080E+03  0.13062328336E+03  0.41800000000E+01 0.  1.
        -11    1    4    4    0    0 -0.29828281659E+02 -0.41330722961E+02  0.46603431544E+02  0.69063991189E+02  0.00000000000E+00 0.  1.
         11    1    4    4    0    0  0.49918246597E+02 -0.79200582854E+01  0.10535651893E+03  0.11685270535E+03  0.00000000000E+00 0. -1.
</event>
<event>
 8    1  0.7224924E-009  0.1752260E+03  0.7561462E-02  0.1172505E+00
         -4   -1    0    0    0  501 -0.00000000000E+00  0.00000000000E+00  0.10871866687E+04  0.10871866687E+04  0.00000000000E+00 0.  1.
          4   -1    0    0  501    0  0.00000000000E+00 -0.00000000000E+00 -0.32567277361E+02  0.32567277361E+02  0.00000000000E+00 0. -1.
         25    2    1    2    0    0  0.13486655533E+03  0.73527628025E+02  0.60018005774E+03  0.63202745678E+03  0.12508918653E+03 0.  0.
         23    2    1    2    0    0 -0.13486655533E+03 -0.73527628025E+02  0.45443933357E+03  0.48772648925E+03  0.88128999716E+02 0.  0.
          5    1    3    3  502    0 -0.19753573188E+02 -0.82831842144E+01  0.92466094652E+02  0.95006662159E+02  0.41800000000E+01 0. -1.
         -5    1    3    3    0  502  0.15462012852E+03  0.81810812239E+02  0.50771396308E+03  0.53702079462E+03  0.41800000000E+01 0. -1.
        -11    1    4    4    0    0 -0.65666222964E+02 -0.33788123481E+02  0.34178639724E+03  0.34967360704E+03  0.00000000000E+00 0.  1.
         11    1    4    4    0    0 -0.69200332367E+02 -0.39739504544E+02  0.11265293633E+03  0.13805288221E+03  0.00000000000E+00 0. -1.
</event>
<event>
 8    1  0.7224924E-009  0.1004825E+03  0.7561462E-02  0.1279285E+00
          4   -1    0    0  501    0  0.00000000000E+00  0.00000000000E+00  0.41784870829E+02  0.41784870829E+02  0.00000000000E+00 0. -1.
         -4   -1    0    0    0  501 -0.00000000000E+00 -0.00000000000E+00 -0.32575925062E+03  0.32575925062E+03  0.00000000000E+00 0.  1.
         25    2    1    2    0    0  0.15603485353E+02 -0.30264667658E+02 -0.12176430390E+03  0.17785885037E+03  0.12509119110E+03 0.  0.
         23    2    1    2    0    0 -0.15603485353E+02  0.30264667658E+02 -0.16221007589E+03  0.18968527107E+03  0.92244102667E+02 0.  0.
          5    1    3    3  502    0 -0.50599943522E+02  0.24297566190E+01 -0.26701055140E+02  0.57416693977E+02  0.41800000000E+01 0.  1.
         -5    1    3    3    0  502  0.66203428875E+02 -0.32694424277E+02 -0.95063248756E+02  0.12044215640E+03  0.41800000000E+01 0.  1.
        -11    1    4    4    0    0 -0.42756860405E+02  0.18534993629E+02 -0.15104350271E+03  0.15806908240E+03  0.00000000000E+00 0.  1.
         11    1    4    4    0    0  0.27153375052E+02  0.11729674029E+02 -0.11166573188E+02  0.31616188674E+02  0.00000000000E+00 0. -1.
</event>
<event>
 8    1  0.7224924E-009  0.1066858E+03  0.7561462E-02  0.1266833E+00
          1   -1    0    0  501    0  0.00000000000E+00  0.00000000000E+00  0.28166791504E+03  0.28166791504E+03  0.00000000000E+00 0. -1.
         -1   -1    0    0    0  501 -0.00000000000E+00 -0.00000000000E+00 -0.56005019460E+02  0.56005019460E+02  0.00000000000E+00 0.  1.
         25    2    1    2    0    0  0.17570434527E+02  0.20144882920E+02  0.60181682984E+02  0.14136373446E+03  0.12508930400E+03 0.  0.
         23    2    1    2    0    0 -0.17570434527E+02 -0.20144882920E+02  0.16548121259E+03  0.19630920004E+03  0.10217012197E+03 0.  0.
          5    1    3    3  502    0  0.68132183112E+02 -0.74787488597E+01  0.43299724194E+02  0.81180444538E+02  0.41800000000E+01 0. -1.
         -5    1    3    3    0  502 -0.50561748585E+02  0.27623631780E+02  0.16881958791E+02  0.60183289917E+02  0.41800000000E+01 0. -1.
        -11    1    4    4    0    0  0.29890541497E+02  0.90301645463E+01  0.12737806837E+02  0.33722990166E+02  0.00000000000E+00 0.  1.
         11    1    4    4    0    0 -0.47460976025E+02 -0.29175047467E+02  0.15274340576E+03  0.16258620988E+03  0.00000000000E+00 0. -1.
</event>
<event>
 8    1  0.7224924E-009  0.1159785E+03  0.7561462E-02  0.1249883E+00
         -2   -1    0    0    0  501 -0.00000000000E+00  0.00000000000E+00  0.27331660755E+02  0.27331660755E+02  0.00000000000E+00 0.  1.
          2   -1    0    0  501    0  0.00000000000E+00 -0.00000000000E+00 -0.68792098825E+03  0.68792098825E+03  0.00000000000E+00 0. -1.
         25    2    1    2    0    0 -0.77550437459E+02 -0.76893322640E+01 -0.42651506195E+03  0.45126035276E+03  0.12509041418E+03 0.  0.
         23    2    1    2    0    0  0.77550437459E+02  0.76893322640E+01 -0.23407426554E+03  0.26399229624E+03  0.93957301508E+02 0.  0.
          5    1    3    3  502    0 -0.44299015240E+02 -0.63200679158E+02 -0.17119418083E+03  0.18783409847E+03  0.41800000000E+01 0.  1.
         -5    1    3    3    0  502 -0.33251422219E+02  0.55511346894E+02 -0.25532088112E+03  0.26342625429E+03  0.41800000000E+01 0.  1.
        -11    1    4    4    0    0  0.75742318257E+02 -0.60309174702E+01 -0.23781376564E+03  0.24965708055E+03  0.00000000000E+00 0. -1.
         11    1    4    4    0    0  0.18081192014E+01  0.13720249734E+02  0.37395001048E+01  0.14335215689E+02  0.00000000000E+00 0.  1.
</event>
<event>
 8    1  0.7224924E-009  0.1314118E+03  0.7561462E-02  0.1225376E+00
         -2   -1    0    0    0  501 -0.00000000000E+00  0.00000000000E+00  0.32309589383E+02  0.32309589383E+02  0.00000000000E+00 0.  1.
          2   -1    0    0  501    0  0.00000000000E+00 -0.00000000000E+00 -0.84961298019E+03  0.84961298019E+03  0.00000000000E+00 0. -1.
         25    2    1    2    0    0 -0.94674665043E+02 -0.68450373928E+02 -0.30820515334E+03  0.35254172302E+03  0.12508598658E+03 0.  0.
         23    2    1    2    0    0  0.94674665043E+02  0.68450373928E+02 -0.50909823747E+03  0.52938084655E+03  0.86106442296E+02 0.  0.
          5    1    3    3  502    0 -0.69780468145E+02 -0.56357876712E+02 -0.31166177203E+03  0.32433941566E+03  0.41800000000E+01 0.  1.
         -5    1    3    3    0  502 -0.24894196898E+02 -0.12092497216E+02  0.34566186946E+01  0.28202307369E+02  0.41800000000E+01 0.  1.
        -11    1    4    4    0    0 -0.41637395421E+01  0.42699335437E+02 -0.15929626717E+03  0.16497233316E+03  0.00000000000E+00 0.  1.
         11    1    4    4    0    0  0.98838404585E+02  0.25751038491E+02 -0.34980197030E+03  0.36440851339E+03  0.00000000000E+00 0. -1.
</event>
<event>
 8    1  0.7224924E-009  0.1843121E+03  0.7561462E-02  0.1163694E+00
         -2   -1    0    0    0  501 -0.00000000000E+00  0.00000000000E+00  0.82160706811E+02  0.82160706811E+02  0.00000000000E+00 0.  1.
          2   -1    0    0  501    0  0.00000000000E+00 -0.00000000000E+00 -0.45707984139E+03  0.45707984139E+03  0.00000000000E+00 0. -1.
         25    2    1    2    0    0 -0.14333883881E+03  0.41906642029E+02 -0.27709964702E+03  0.33872408198E+03  0.12509036722E+03 0.  0.
         23    2    1    2    0    0  0.14333883881E+03 -0.41906642029E+02 -0.97819487561E+02  0.20051646623E+03  0.91301761887E+02 0.  0.
          5    1    3    3  502    0 -0.16213027700E+03  0.18417960655E+02 -0.24624179332E+03  0.29542840278E+03  0.41800000000E+01 0. -1.
         -5    1    3    3    0  502  0.18791438182E+02  0.23488681374E+02 -0.30857853704E+02  0.43295679194E+02  0.41800000000E+01 0. -1.
        -11    1    4    4    0    0  0.10741112987E+03 -0.71035412611E+02 -0.71041320349E+02  0.14707158074E+03  0.00000000000E+00 0.  1.
         11    1    4    4    0    0  0.35927708944E+02  0.29128770582E+02 -0.26778167212E+02  0.53444885488E+02  0.00000000000E+00 0. -1.
</event>
<event>
 8    1  0.7224924E-009  0.1237745E+03  0.7561462E-02  0.1236997E+00
          2   -1    0    0  501    0  0.00000000000E+00  0.00000000000E+00  0.11868981442E+03  0.11868981442E+03  0.00000000000E+00 0. -1.
         -2   -1    0    0    0  501 -0.00000000000E+00 -0.00000000000E+00 -0.13567711445E+03  0.13567711445E+03  0.00000000000E+00 0.  1.
         25    2    1    2    0    0  0.90899828220E+01  0.72134230338E+02 -0.23773965970E+02  0.14662053838E+03  0.12508559406E+03 0.  0.
         23    2    1    2    0    0 -0.90899828220E+01 -0.72134230338E+02  0.67866659393E+01  0.10774639050E+03  0.79229103597E+02 0.  0.
          5    1    3    3  502    0  0.73310414298E+01  0.10588767816E+03 -0.20849768472E+01  0.10624388963E+03  0.41800000000E+01 0. -1.
         -5    1    3    3    0  502  0.17589413923E+01 -0.33753447824E+02 -0.21688989123E+02  0.40376648747E+02  0.41800000000E+01 0. -1.
        -11    1    4    4    0    0 -0.42837793671E+02 -0.26007127705E+02  0.69342584575E+01  0.50591809598E+02  0.00000000000E+00 0. -1.
         11    1    4    4    0    0  0.33747810849E+02 -0.46127102633E+02 -0.14759251814E+00  0.57154580901E+02  0.00000000000E+00 0.  1.
</event>
<event>
 8    1  0.7224924E-009  0.1718391E+03  0.7561462E-02  0.1175943E+00
         -2   -1    0    0    0  501 -0.00000000000E+00  0.00000000000E+00  0.22599004670E+02  0.22599004670E+02  0.00000000000E+00 0.  1.
          2   -1    0    0  501    0  0.00000000000E+00 -0.00000000000E+00 -0.15192294323E+04  0.15192294323E+04  0.00000000000E+00 0. -1.
         25    2    1    2    0    0  0.12292525448E+03  0.66213093231E+02 -0.10171182867E+04  0.10342488648E+04  0.12508522408E+03 0.  0.
         23    2    1    2    0    0 -0.12292525448E+03 -0.66213093231E+02 -0.47951214095E+03  0.50757957219E+03  0.90610909329E+02 0.  0.
          5    1    3    3  502    0  0.14242847967E+03  0.46167891790E+02 -0.94478758867E+03  0.95658685239E+03  0.41800000000E+01 0.  1.
         -5    1    3    3    0  502 -0.19503225194E+02  0.20045201442E+02 -0.72330698059E+02  0.77662012435E+02  0.41800000000E+01 0.  1.
        -11    1    4    4    0    0 -0.54109260066E+02  0.17851661241E+02 -0.18979301434E+03  0.19816125284E+03  0.00000000000E+00 0. -1.
         11    1    4    4    0    0 -0.68815994414E+02 -0.84064754472E+02 -0.28971912660E+03  0.30941831935E+03  0.00000000000E+00 0.  1.
</event>
<event>
 8    1  0.7224924E-009  0.9239675E+02  0.7561462E-02  0.1297149E+00
         -1   -1    0    0    0  501 -0.00000000000E+00  0.00000000000E+00  0.23081890221E+02  0.23081890221E+02  0.00000000000E+00 0.  1.
          1   -1    0    0  501    0  0.00000000000E+00 -0.00000000000E+00 -0.62786927237E+03  0.62786927237E+03  0.00000000000E+00 0. -1.
         25    2    1    2    0    0  0.43757326985E+02 -0.29911872433E+02 -0.31946399717E+03  0.34715211254E+03  0.12509164629E+03 0.  0.
         23    2    1    2    0    0 -0.43757326985E+02  0.29911872433E+02 -0.28532338498E+03  0.30379905006E+03  0.89861031720E+02 0.  0.
          5    1    3    3  502    0 -0.13448726363E+01  0.15727730137E+02  0.44441803935E+01  0.16923159192E+02  0.41800000000E+01 0.  1.
         -5    1    3    3    0  502  0.45102199621E+02 -0.45639602571E+02 -0.32390817757E+03  0.33022895335E+03  0.41800000000E+01 0.  1.
        -11    1    4    4    0    0  0.23133034693E+02  0.29220677660E+02 -0.11041512714E+03  0.11653534056E+03  0.00000000000E+00 0.  1.
         11    1    4    4    0    0 -0.66890361678E+02  0.69119477295E+00 -0.17490825783E+03  0.18726370950E+03  0.00000000000E+00 0. -1.
</event>
<event>
 8    1  0.7224924E-009  0.2108045E+03  0.7561462E-02  0.1140930E+00
          3   -1    0    0  501    0  0.00000000000E+00  0.00000000000E+00  0.80731167315E+03  0.80731167315E+03  0.00000000000E+00 0. -1.
         -3   -1    0    0    0  501 -0.00000000000E+00 -0.00000000000E+00 -0.71983976940E+02  0.71983976940E+02  0.00000000000E+00 0.  1.
         25    2    1    2    0    0 -0.11776593317E+03 -0.15658779954E+03  0.21791753322E+03  0.31862982424E+03  0.12509340363E+03 0.  0.
         23    2    1    2    0    0  0.11776593317E+03  0.15658779954E+03  0.51741016299E+03  0.56066582585E+03  0.90798334429E+02 0.  0.
          5    1    3    3  502    0 -0.81484114154E+02 -0.16376296665E+03  0.13386552067E+03  0.22670558028E+03  0.41800000000E+01 0.  1.
         -5    1    3    3    0  502 -0.36281819013E+02  0.71751671135E+01  0.84052012547E+02  0.91924243957E+02  0.41800000000E+01 0.  1.
        -11    1    4    4    0    0  0.29024104498E+02  0.76755736697E+02  0.11747684658E+03  0.14329916692E+03  0.00000000000E+00 0.  1.
         11    1    4    4    0    0  0.88741828669E+02  0.79832062839E+02  0.39993331641E+03  0.41736665893E+03  0.00000000000E+00 0. -1.
</event>
<event>
 8    1  0.7224924E-009  0.9953424E+02  0.7561462E-02  0.1281278E+00
          1   -1    0    0  501    0  0.00000000000E+00  0.00000000000E+00  0.19466354842E+04  0.19466354842E+04  0.00000000000E+00 0. -1.
         -1   -1    0    0    0  501 -0.00000000000E+00 -0.00000000000E+00 -0.11144398865E+02  0.11144398865E+02  0.00000000000E+00 0.  1.
         25    2    1    2    0    0  0.58959742398E+02 -0.45479704680E+02  0.14912489281E+04  0.14983386092E+04  0.12510222877E+03 0.  0.
         23    2    1    2    0    0 -0.58959742398E+02  0.45479704680E+02  0.44424215721E+03  0.45944127379E+03  0.90501574899E+02 0.  0.
          5    1    3    3  502    0  0.56662555427E+02 -0.52167241838E+02  0.14871672887E+04  0.14891662376E+04  0.41800000000E+01 0.  1.
         -5    1    3    3    0  502  0.22971869717E+01  0.66875371589E+01  0.40816394261E+01  0.91723716475E+01  0.41800000000E+01 0.  1.
        -11    1    4    4    0    0  0.19114354366E+02 -0.61970753455E+01  0.43645673455E+02  0.48049007243E+02  0.00000000000E+00 0.  1.
         11    1    4    4    0    0 -0.78074096765E+02  0.51676780025E+02  0.40059648375E+03  0.41139226655E+03  0.00000000000E+00 0. -1.
</event>
<event>
 8    1  0.7224924E-009  0.1147325E+03  0.7561462E-02  0.1252049E+00
         -2   -1    0    0    0  501 -0.00000000000E+00  0.00000000000E+00  0.52781976067E+02  0.52781976067E+02  0.00000000000E+00 0.  1.
          2   -1    0    0  501    0  0.00000000000E+00 -0.00000000000E+00 -0.34343969218E+03  0.34343969218E+03  0.00000000000E+00 0. -1.
         25    2    1    2    0    0  0.68903887192E+02  0.20543972197E+02 -0.20782142353E+03  0.25299627750E+03  0.12509025497E+03 0.  0.
         23    2    1    2    0    0 -0.68903887192E+02 -0.20543972197E+02 -0.82836292583E+02  0.14322539074E+03  0.92097017980E+02 0.  0.
          5    1    3    3  502    0  0.13765687557E+02  0.57655836275E+02 -0.37875276210E+02  0.70467712880E+02  0.41800000000E+01 0.  1.
         -5    1    3    3    0  502  0.55138199635E+02 -0.37111864078E+02 -0.16994614732E+03  0.18252856462E+03  0.41800000000E+01 0.  1.
        -11    1    4    4    0    0 -0.77980758022E+02  0.31790363886E+01 -0.87662826980E+02  0.11737067832E+03  0.00000000000E+00 0. -1.
         11    1    4    4    0    0  0.90768708297E+01 -0.23723008586E+02  0.48265343976E+01  0.25854712427E+02  0.00000000000E+00 0.  1.
</event>
<event>
 8    1  0.7224924E-009  0.1440884E+03  0.7561462E-02  0.1207931E+00
          3   -1    0    0  501    0  0.00000000000E+00  0.00000000000E+00  0.36098413875E+02  0.36098413875E+02  0.00000000000E+00 0. -1.
         -3   -1    0    0    0  501 -0.00000000000E+00 -0.00000000000E+00 -0.83958755379E+03  0.83958755379E+03  0.00000000000E+00 0.  1.
         25    2    1    2    0    0 -0.20599858441E+02  0.13319743912E+03 -0.44056523605E+03  0.47740157868E+03  0.12509447693E+03 0.  0.
         23    2    1    2    0    0  0.20599858441E+02 -0.13319743912E+03 -0.36292390387E+03  0.39828438898E+03  0.93545617500E+02 0.  0.
          5    1    3    3  502    0 -0.37984534251E+02  0.69670640796E+02 -0.87399872492E+02  0.11812295773E+03  0.41800000000E+01 0. -1.
         -5    1    3    3    0  502  0.17384675810E+02  0.63526798322E+02 -0.35316536356E+03  0.35927862095E+03  0.41800000000E+01 0. -1.
        -11    1    4    4    0    0  0.29663708530E+02 -0.44018409877E+02 -0.24203928343E+03  0.24779138551E+03  0.00000000000E+00 0.  1.
         11    1    4    4    0    0 -0.90638500888E+01 -0.89179029240E+02 -0.12088462044E+03  0.15049300347E+03  0.00000000000E+00 0. -1.
</event>
<event>
 8    1  0.7224924E-009  0.1012291E+03  0.7561462E-02  0.1277732E+00
          2   -1    0    0  501    0  0.00000000000E+00  0.00000000000E+00  0.74940591944E+03  0.74940591944E+03  0.00000000000E+00 0.  1.
         -2   -1    0    0    0  501 -0.00000000000E+00 -0.00000000000E+00 -0.26308549503E+02  0.26308549503E+02  0.00000000000E+00 0. -1.
         25    2    1    2    0    0 -0.70528002289E+02  0.46209393966E+02  0.47211638861E+03  0.49563100429E+03  0.12508677318E+03 0.  0.
         23    2    1    2    0    0  0.70528002289E+02 -0.46209393966E+02  0.25098098133E+03  0.28008346465E+03  0.91355278909E+02 0.  0.
          5    1    3    3  502    0 -0.57570685309E+02  0.42870984486E+02  0.47574752500E+03  0.48115016893E+03  0.41800000000E+01 0.  1.
         -5    1    3    3    0  502 -0.12957316980E+02  0.33384094803E+01 -0.36311363949E+01  0.14480835359E+02  0.41800000000E+01 0.  1.
        -11    1    4    4    0    0  0.22605423948E+02 -0.62071287025E+02  0.18861285298E+03  0.19984658660E+03  0.00000000000E+00 0.  1.
         11    1    4    4    0    0  0.47922578341E+02  0.15861893059E+02  0.62368128348E+02  0.80236878054E+02  0.00000000000E+00 0. -1.
</event>
<event>
 8    1  0.7224924E-009  0.9811425E+02  0.7561462E-02  0.1284312E+00
         -1   -1    0    0    0  501 -0.00000000000E+00  0.00000000000E+00  0.10449511715E+04  0.10449511715E+04  0.00000000000E+00 0.  1.
          1   -1    0    0  501    0  0.00000000000E+00 -0.00000000000E+00 -0.13778651835E+02  0.13778651835E+02  0.00000000000E+00 0. -1.
         25    2    1    2    0    0  0.14289093660E+02  0.28072879203E+02  0.76713922496E+03  0.77790893621E+03  0.12508979898E+03 0.  0.
         23    2    1    2    0    0 -0.14289093660E+02 -0.28072879203E+02  0.26403329474E+03  0.28082088717E+03  0.90302409677E+02 0.  0.
          5    1    3    3  502    0  0.34333127316E+02 -0.27727371545E+02  0.57689687010E+03  0.57859747830E+03  0.41800000000E+01 0. -1.
         -5    1    3    3    0  502 -0.20044033656E+02  0.55800250748E+02  0.19024235486E+03  0.19931145790E+03  0.41800000000E+01 0. -1.
        -11    1    4    4    0    0 -0.50331060293E+02 -0.25248511104E+02  0.19400131118E+03  0.20200794955E+03  0.00000000000E+00 0.  1.
         11    1    4    4    0    0  0.36041966633E+02 -0.28243680991E+01  0.70031983567E+02  0.78812937620E+02  0.00000000000E+00 0. -1.
</event>
<event>
 8    1  0.7224924E-009  0.1280126E+03  0.7561462E-02  0.1230435E+00
         -2   -1    0    0    0  501 -0.00000000000E+00  0.00000000000E+00  0.48917450025E+03  0.48917450025E+03  0.00000000000E+00 0.  1.
          2   -1    0    0  501    0  0.00000000000E+00 -0.00000000000E+00 -0.63502430599E+02  0.63502430599E+02  0.00000000000E+00 0. -1.
         25    2    1    2    0    0  0.33943996080E+02 -0.64265743851E+02  0.41047726595E+03  0.43522051514E+03  0.12507210013E+03 0.  0.
         23    2    1    2    0    0 -0.33943996080E+02  0.64265743851E+02  0.15194803702E+02  0.11745641572E+03  0.91010146855E+02 0.  0.
          5    1    3    3  502    0 -0.79141930642E+01  0.35363298767E+02  0.10753138227E+03  0.11355028809E+03  0.41800000000E+01 0. -1.
         -5    1    3    3    0  502  0.41858189144E+02 -0.99629042618E+02  0.30294588368E+03  0.32167022705E+03  0.41800000000E+01 0. -1.
        -11    1    4    4    0    0 -0.55195127408E+02  0.14171412757E+02  0.24889944945E+02  0.62183923875E+02  0.00000000000E+00 0.  1.
         11    1    4    4    0    0  0.21251131328E+02  0.50094331094E+02 -0.96951412430E+01  0.55272491840E+02  0.00000000000E+00 0. -1.
</event>
<event>
 8    1  0.7224924E-009  0.1103204E+03  0.7561462E-02  0.1259978E+00
          1   -1    0    0  501    0  0.00000000000E+00  0.00000000000E+00  0.64718865962E+03  0.64718865962E+03  0.00000000000E+00 0. -1.
         -1   -1    0    0    0  501 -0.00000000000E+00 -0.00000000000E+00 -0.24570866462E+02  0.24570866462E+02  0.00000000000E+00 0.  1.
         25    2    1    2    0    0  0.19752469858E+02  0.58604557321E+02  0.42056961536E+03  0.44311513067E+03  0.12509022129E+03 0.  0.
         23    2    1    2    0    0 -0.19752469858E+02 -0.58604557321E+02  0.20204817780E+03  0.22864439541E+03  0.87350667979E+02 0.  0.
          5    1    3    3  502    0  0.13693385802E+01  0.84048240167E+02  0.16147371483E+03  0.18209122644E+03  0.41800000000E+01 0.  1.
         -5    1    3    3    0  502  0.18383131277E+02 -0.25443682846E+02  0.25909590053E+03  0.26102390424E+03  0.41800000000E+01 0.  1.
        -11    1    4    4    0    0  0.24920396271E+02  0.65918350799E+01  0.71873306205E+02  0.76356077589E+02  0.00000000000E+00 0. -1.
         11    1    4    4    0    0 -0.44672866128E+02 -0.65196392401E+02  0.13017487159E+03  0.15228831782E+03  0.00000000000E+00 0.  1.
</event>
<event>
 8    1  0.7224924E-009  0.1184367E+03  0.7561462E-02  0.1245698E+00
          1   -1    0    0  501    0  0.00000000000E+00  0.00000000000E+00  0.76996866858E+03  0.76996866858E+03  0.00000000000E+00 0. -1.
         -1   -1    0    0    0  501 -0.00000000000E+00 -0.00000000000E+00 -0.20277791013E+02  0.20277791013E+02  0.00000000000E+00 0.  1.
         25    2    1    2    0    0  0.27944328424E+02 -0.54424091669E+02  0.46143724058E+03  0.48199040554E+03  0.12509019465E+03 0.  0.
         23    2    1    2    0    0 -0.27944328424E+02  0.54424091669E+02  0.28825363699E+03  0.30825605405E+03  0.90491813857E+02 0.  0.
          5    1    3    3  502    0  0.76424663629E+02 -0.45371754893E+02  0.32016518930E+03  0.33229888081E+03  0.41800000000E+01 0.  1.
         -5    1    3    3    0  502 -0.48480335204E+02 -0.90523367759E+01  0.14127205128E+03  0.14969152473E+03  0.41800000000E+01 0.  1.
        -11    1    4    4    0    0 -0.49858903662E+02  0.12980161519E+02  0.21649186180E+03  0.22253790934E+03  0.00000000000E+00 0. -1.
         11    1    4    4    0    0  0.21914575238E+02  0.41443930150E+02  0.71761775190E+02  0.85718144710E+02  0.00000000000E+00 0.  1.
</event>
<event>
 8    1  0.7224924E-009  0.1016119E+03  0.7561462E-02  0.1276942E+00
         -3   -1    0    0    0  501 -0.00000000000E+00  0.00000000000E+00  0.31971726593E+03  0.31971726593E+03  0.00000000000E+00 0.  1.
          3   -1    0    0  501    0  0.00000000000E+00 -0.00000000000E+00 -0.56438837861E+02  0.56438837861E+02  0.00000000000E+00 0. -1.
         25    2    1    2    0    0  0.16661486603E+02  0.29845393457E+02  0.43542474803E+02  0.13679022576E+03  0.12508903271E+03 0.  0.
         23    2    1    2    0    0 -0.16661486603E+02 -0.29845393457E+02  0.21973595326E+03  0.23936587803E+03  0.88565127234E+02 0.  0.
          5    1    3    3  502    0  0.61044856692E+02  0.38761347279E+02 -0.19732133241E+01  0.72458833431E+02  0.41800000000E+01 0.  1.
         -5    1    3    3    0  502 -0.44383370089E+02 -0.89159538215E+01  0.45515688127E+02  0.64331392327E+02  0.41800000000E+01 0.  1.
        -11    1    4    4    0    0  0.17217488509E+02 -0.45025213428E+02  0.17348974904E+03  0.18006222473E+03  0.00000000000E+00 0.  1.
         11    1    4    4    0    0 -0.33878975112E+02  0.15179819971E+02  0.46246204225E+02  0.59303653296E+02  0.00000000000E+00 0. -1.
</event>
<event>
 8    1  0.7224924E-009  0.1073151E+03  0.7561462E-02  0.1265624E+00
         -1   -1    0    0    0  501 -0.00000000000E+00  0.00000000000E+00  0.54472548840E+02  0.54472548840E+02  0.00000000000E+00 0.  1.
          1   -1    0    0  501    0  0.00000000000E+00 -0.00000000000E+00 -0.25649727129E+03  0.25649727129E+03  0.00000000000E+00 0. -1.
         25    2    1    2    0    0 -0.45514954857E+02 -0.26052041876E+01 -0.94772631239E+02  0.16342549590E+03  0.12509053871E+03 0.  0.
         23    2    1    2    0    0  0.45514954857E+02  0.26052041876E+01 -0.10725209121E+03  0.14754432422E+03  0.90487116970E+02 0.  0.
          5    1    3    3  502    0  0.92853273837E+01  0.46911517262E+02 -0.71035182083E+02  0.85734341135E+02  0.41800000000E+01 0. -1.
         -5    1    3    3    0  502 -0.54800282241E+02 -0.49516721450E+02 -0.23737449157E+02  0.77691154769E+02  0.41800000000E+01 0. -1.
        -11    1    4    4    0    0  0.39820962980E+02 -0.35967378833E+02 -0.31177146052E+02  0.62059454306E+02  0.00000000000E+00 0.  1.
         11    1    4    4    0    0  0.56939918772E+01  0.38572583020E+02 -0.76074945157E+02  0.85484869919E+02  0.00000000000E+00 0. -1.
</event>
<event>
 8    1  0.7224924E-009  0.6345407E+02  0.7561462E-02  0.1383883E+00
         -1   -1    0    0    0  501 -0.00000000000E+00  0.00000000000E+00  0.17262843906E+03  0.17262843906E+03  0.00000000000E+00 0.  1.
          1   -1    0    0  501    0  0.00000000000E+00 -0.00000000000E+00 -0.82480469914E+02  0.82480469914E+02  0.00000000000E+00 0. -1.
         25    2    1    2    0    0 -0.38587558019E+02  0.21555051320E+02  0.19895374881E+02  0.13414567893E+03  0.12508244226E+03 0.  0.
         23    2    1    2    0    0  0.38587558019E+02 -0.21555051320E+02  0.70252594262E+02  0.12096323004E+03  0.87994637056E+02 0.  0.
          5    1    3    3  502    0  0.16218371455E+02  0.71991711632E+00  0.60450257185E+02  0.62731649484E+02  0.41800000000E+01 0. -1.
         -5    1    3    3    0  502 -0.54805929473E+02  0.20835134204E+02 -0.40554882304E+02  0.71414029444E+02  0.41800000000E+01 0. -1.
        -11    1    4    4    0    0  0.22399772906E+02  0.23175366424E+01 -0.17546187349E+02  0.28548020822E+02  0.00000000000E+00 0. -1.
         11    1    4    4    0    0  0.16187785112E+02 -0.23872587963E+02  0.87798781611E+02  0.92415209220E+02  0.00000000000E+00 0.  1.
</event>
<event>
 8    1  0.7224924E-009  0.1156360E+03  0.7561462E-02  0.1250475E+00
         -2   -1    0    0    0  501 -0.00000000000E+00  0.00000000000E+00  0.58520583975E+02  0.58520583975E+02  0.00000000000E+00 0.  1.
          2   -1    0    0  501    0  0.00000000000E+00 -0.00000000000E+00 -0.48995567904E+03  0.48995567904E+03  0.00000000000E+00 0. -1.
         25    2    1    2    0    0  0.10544598003E+03 -0.18963683544E+02 -0.34808902649E+03  0.38508744070E+03  0.12509152899E+03 0.  0.
         23    2    1    2    0    0 -0.10544598003E+03  0.18963683544E+02 -0.83346068573E+02  0.16338882231E+03  0.90944291259E+02 0.  0.
          5    1    3    3  502    0  0.59780689776E+02 -0.53559586653E+01 -0.37627596959E+02  0.70962846732E+02  0.41800000000E+01 0. -1.
         -5    1    3    3    0  502  0.45665290249E+02 -0.13607724879E+02 -0.31046142953E+03  0.31412459397E+03  0.41800000000E+01 0. -1.
        -11    1    4    4    0    0 -0.20457312940E+02 -0.21035755794E+02  0.99641940436E+01  0.30988543649E+02  0.00000000000E+00 0.  1.
         11    1    4    4    0    0 -0.84988667086E+02  0.39999439338E+02 -0.93310262617E+02  0.13240027866E+03  0.00000000000E+00 0. -1.
</event>
<event>
 8    1  0.7224924E-009  0.1873464E+03  0.7561462E-02  0.1160877E+00
         -1   -1    0    0    0  501 -0.00000000000E+00  0.00000000000E+00  0.22103726701E+03  0.22103726701E+03  0.00000000000E+00 0.  1.
          1   -1    0    0  501    0  0.00000000000E+00 -0.00000000000E+00 -0.18846472254E+03  0.18846472254E+03  0.00000000000E+00 0. -1.
         25    2    1    2    0    0 -0.15929694177E+03 -0.37684252303E+02 -0.38014375029E+02  0.20949599797E+03  0.12509141429E+03 0.  0.
         23    2    1    2    0    0  0.15929694177E+03  0.37684252303E+02  0.70586919498E+02  0.20000599158E+03  0.90687733103E+02 0.  0.
          5    1    3    3  502    0 -0.17729979882E+03 -0.39820419835E+02 -0.48521215752E+02  0.18812938440E+03  0.41800000000E+01 0.  1.
         -5    1    3    3    0  502  0.18002857046E+02  0.21361675315E+01  0.10506840723E+02  0.21366613572E+02  0.41800000000E+01 0.  1.
        -11    1    4    4    0    0  0.15221591552E+03  0.49914665007E+02  0.83688928123E+02  0.18073459937E+03  0.00000000000E+00 0.  1.
         11    1    4    4    0    0  0.70810262531E+01 -0.12230412704E+02 -0.13102008625E+02  0.19271392210E+02  0.00000000000E+00 0. -1.
</event>
<event>
 8    1  0.7224924E-009  0.1473918E+03  0.7561462E-02  0.1203715E+00
         -4   -1    0    0    0  501 -0.00000000000E+00  0.00000000000E+00  0.11824464053E+03  0.11824464053E+03  0.00000000000E+00 0.  1.
          4   -1    0    0  501    0  0.00000000000E+00 -0.00000000000E+00 -0.32407888698E+03  0.32407888698E+03  0.00000000000E+00 0. -1.
         25    2    1    2    0    0 -0.15854830759E+02 -0.10570913278E+03  0.27824722818E+02  0.16687671149E+03  0.12509126760E+03 0.  0.
         23    2    1    2    0    0  0.15854830759E+02  0.10570913278E+03 -0.23365896927E+03  0.27544681601E+03  0.99240304916E+02 0.  0.
          5    1    3    3  502    0  0.44894158770E+02 -0.17010299455E+02  0.34209830740E+02  0.59098398442E+02  0.41800000000E+01 0.  1.
         -5    1    3    3    0  502 -0.60748989529E+02 -0.88698833320E+02 -0.63851079217E+01  0.10777831305E+03  0.41800000000E+01 0.  1.
        -11    1    4    4    0    0 -0.34971391201E+02  0.22772016229E+02 -0.35855674241E+02  0.55019926399E+02  0.00000000000E+00 0.  1.
         11    1    4    4    0    0  0.50826221960E+02  0.82937116546E+02 -0.19780329503E+03  0.22042688961E+03  0.00000000000E+00 0. -1.
</event>
<event>
 8    1  0.7224924E-009  0.1204186E+03  0.7561462E-02  0.1242408E+00
         -2   -1    0    0    0  501 -0.00000000000E+00  0.00000000000E+00  0.28744262636E+03  0.28744262636E+03  0.00000000000E+00 0.  1.
          2   -1    0    0  501    0  0.00000000000E+00 -0.00000000000E+00 -0.64666010692E+02  0.64666010692E+02  0.00000000000E+00 0. -1.
         25    2    1    2    0    0 -0.36868397892E+02  0.69229533517E+02  0.15708991574E+03  0.21558492973E+03  0.12509042020E+03 0.  0.
         23    2    1    2    0    0  0.36868397892E+02 -0.69229533517E+02  0.65686699928E+02  0.13652370732E+03  0.90398965916E+02 0.  0.
          5    1    3    3  502    0 -0.45761061794E+02  0.93321427188E+02  0.71749258308E+02  0.12636610312E+03  0.41800000000E+01 0.  1.
         -5    1    3    3    0  502  0.88926639022E+01 -0.24091893671E+02  0.85340657432E+02  0.89218826617E+02  0.41800000000E+01 0.  1.
        -11    1    4    4    0    0  0.28191588096E+02 -0.86766293140E+02  0.71721833987E+02  0.11604816558E+03  0.00000000000E+00 0.  1.
         11    1    4    4    0    0  0.86768097962E+01  0.17536759623E+02 -0.60351340591E+01  0.20475541737E+02  0.00000000000E+00 0. -1.
</event>
<event>
 8    1  0.7224924E-009  0.1006163E+03  0.7561462E-02  0.1279005E+00
          2   -1    0    0  501    0  0.00000000000E+00  0.00000000000E+00  0.20326151195E+02  0.20326151195E+02  0.00000000000E+00 0. -1.
         -2   -1    0    0    0  501 -0.00000000000E+00 -0.00000000000E+00 -0.64622486091E+03  0.64622486091E+03  0.00000000000E+00 0.  1.
         25    2    1    2    0    0  0.31850685315E+02 -0.94637929705E+01 -0.40940253880E+03  0.42937381422E+03  0.12508958401E+03 0.  0.
         23    2    1    2    0    0 -0.31850685315E+02  0.94637929705E+01 -0.21649617092E+03  0.23717719789E+03  0.90985722201E+02 0.  0.
          5    1    3    3  502    0  0.44129258246E+01  0.47632445242E+02 -0.75404722708E+02  0.89396131688E+02  0.41800000000E+01 0. -1.
         -5    1    3    3    0  502  0.27437759491E+02 -0.57096238213E+02 -0.33399781610E+03  0.33997768253E+03  0.41800000000E+01 0. -1.
        -11    1    4    4    0    0 -0.11071247991E+02  0.46208451951E+02 -0.69138319090E+02  0.83892197077E+02  0.00000000000E+00 0.  1.
         11    1    4    4    0    0 -0.20779437324E+02 -0.36744658980E+02 -0.14735785183E+03  0.15328500081E+03  0.00000000000E+00 0. -1.
</event>
<event>
 8    1  0.7224924E-009  0.7086879E+02  0.7561462E-02  0.1357163E+00
          2   -1    0    0  501    0  0.00000000000E+00  0.00000000000E+00  0.21296459453E+03  0.21296459453E+03  0.00000000000E+00 0. -1.
         -2   -1    0    0    0  501 -0.00000000000E+00 -0.00000000000E+00 -0.57901462669E+02  0.57901462669E+02  0.00000000000E+00 0.  1.
         25    2    1    2    0    0  0.17852593260E+02  0.39261876317E+01  0.68543027209E+02  0.14380504296E+03  0.12509042236E+03 0.  0.
         23    2    1    2    0    0 -0.17852593260E+02 -0.39261876317E+01  0.86520104651E+02  0.12706101424E+03  0.91239480461E+02 0.  0.
          5    1    3    3  502    0 -0.34050982112E+02  0.22048996617E+02  0.77854877151E+02  0.87889031914E+02  0.41800000000E+01 0.  1.
         -5    1    3    3    0  502  0.51903575372E+02 -0.18122808985E+02 -0.93118499418E+01  0.55916011046E+02  0.41800000000E+01 0.  1.
        -11    1    4    4    0    0  0.10117578643E+02  0.10302669501E+02 -0.14988308008E+02  0.20812490802E+02  0.00000000000E+00 0.  1.
         11    1    4    4    0    0 -0.27970171903E+02 -0.14228857133E+02  0.10150841266E+03  0.10624852344E+03  0.00000000000E+00 0. -1.
</event>
<event>
 8    1  0.7224924E-009  0.9155180E+02  0.7561462E-02  0.1299137E+00
          1   -1    0    0  501    0  0.00000000000E+00  0.00000000000E+00  0.23689943980E+03  0.23689943980E+03  0.00000000000E+00 0. -1.
         -1   -1    0    0    0  501 -0.00000000000E+00 -0.00000000000E+00 -0.58644923245E+02  0.58644923245E+02  0.00000000000E+00 0.  1.
         25    2    1    2    0    0  0.93852137818E+01 -0.41097290481E+00  0.16071774499E+03  0.20387665934E+03  0.12508895846E+03 0.  0.
         23    2    1    2    0    0 -0.93852137818E+01  0.41097290481E+00  0.17536771564E+02  0.91667703712E+02  0.89482838636E+02 0.  0.
          5    1    3    3  502    0 -0.52021709277E+02 -0.60304255537E+01  0.33137722065E+02  0.62114453167E+02  0.41800000000E+01 0.  1.
         -5    1    3    3    0  502  0.61406923059E+02  0.56194526489E+01  0.12758002293E+03  0.14176220617E+03  0.41800000000E+01 0.  1.
        -11    1    4    4    0    0  0.28050927821E+02 -0.10205207762E+02  0.37502946842E+02  0.47931950085E+02  0.00000000000E+00 0. -1.
         11    1    4    4    0    0 -0.37436141603E+02  0.10616180666E+02 -0.19966175278E+02  0.43735753627E+02  0.00000000000E+00 0.  1.
</event>
<event>
 8    1  0.7224924E-009  0.1195154E+03  0.7561462E-02  0.1243899E+00
          2   -1    0    0  501    0  0.00000000000E+00  0.00000000000E+00  0.29982030268E+03  0.29982030268E+03  0.00000000000E+00 0. -1.
         -2   -1    0    0    0  501 -0.00000000000E+00 -0.00000000000E+00 -0.80730628860E+02  0.80730628860E+02  0.00000000000E+00 0.  1.
         25    2    1    2    0    0 -0.50653453706E+02  0.73546057220E+02  0.19551633848E+03  0.24869373304E+03  0.12508852600E+03 0.  0.
         23    2    1    2    0    0  0.50653453706E+02 -0.73546057220E+02  0.23573335339E+02  0.13185719850E+03  0.94105386412E+02 0.  0.
          5    1    3    3  502    0  0.89545001144E+01  0.42170144448E+02  0.17177086131E+03  0.17714741136E+03  0.41800000000E+01 0. -1.
         -5    1    3    3    0  502 -0.59607953820E+02  0.31375912772E+02  0.23745477171E+02  0.71546321687E+02  0.41800000000E+01 0. -1.
        -11    1    4    4    0    0  0.10565547061E+02 -0.85691100605E+02  0.63696083386E+01  0.86574634957E+02  0.00000000000E+00 0. -1.
         11    1    4    4    0    0  0.40087906645E+02  0.12145043386E+02  0.17203727001E+02  0.45282563540E+02  0.00000000000E+00 0.  1.
</event>
<event>
 8    1  0.7224924E-009  0.1117108E+03  0.7561462E-02  0.1257434E+00
          2   -1    0    0  501    0  0.00000000000E+00  0.00000000000E+00  0.70252052483E+02  0.70252052483E+02  0.00000000000E+00 0. -1.
         -2   -1    0    0    0  501 -0.00000000000E+00 -0.00000000000E+00 -0.21358639852E+03  0.21358639852E+03  0.00000000000E+00 0.  1.
         25    2    1    2    0    0  0.37541372341E+02 -0.40792373799E+02 -0.66444991056E+02  0.15210376491E+03  0.12508895261E+03 0.  0.
         23    2    1    2    0    0 -0.37541372341E+02  0.40792373799E+02 -0.76889354978E+02  0.13173468609E+03  0.91480501819E+02 0.  0.
          5    1    3    3  502    0  0.60439973758E+02 -0.72880252641E+02 -0.59375839866E+02  0.11183686518E+03  0.41800000000E+01 0.  1.
         -5    1    3    3    0  502 -0.22898601416E+02  0.32087878842E+02 -0.70691511896E+01  0.40266899731E+02  0.41800000000E+01 0.  1.
        -11    1    4    4    0    0  0.11982821942E+02  0.37505911993E+02 -0.71740668913E+02  0.81835230996E+02  0.00000000000E+00 0.  1.
         11    1    4    4    0    0 -0.49524194283E+02  0.32864618060E+01 -0.51486860649E+01  0.49899455095E+02  0.00000000000E+00 0. -1.
</event>
<event>
 8    1  0.7224924E-009  0.1470199E+03  0.7561462E-02  0.1204184E+00
         -1   -1    0    0    0  501 -0.00000000000E+00  0.00000000000E+00  0.47168552582E+02  0.47168552582E+02  0.00000000000E+00 0.  1.
          1   -1    0    0  501    0  0.00000000000E+00 -0.00000000000E+00 -0.65254527306E+03  0.65254527306E+03  0.00000000000E+00 0. -1.
         25    2    1    2    0    0 -0.10715118795E+02 -0.13258627875E+03 -0.39151443220E+03  0.43200237374E+03  0.12509422532E+03 0.  0.
         23    2    1    2    0    0  0.10715118795E+02  0.13258627875E+03 -0.21386228827E+03  0.26771145190E+03  0.90765676601E+02 0.  0.
          5    1    3    3  502    0  0.18599037464E+02 -0.11949079567E+03 -0.17308743827E+03  0.21118879736E+03  0.41800000000E+01 0. -1.
         -5    1    3    3    0  502 -0.29314156259E+02 -0.13095483089E+02 -0.21842699394E+03  0.22081357638E+03  0.41800000000E+01 0. -1.
        -11    1    4    4    0    0  0.27368200324E+02  0.56581192851E+02 -0.33368936826E+02  0.71161335838E+02  0.00000000000E+00 0.  1.
         11    1    4    4    0    0 -0.16653081529E+02  0.76005085903E+02 -0.18049335145E+03  0.19655011606E+03  0.00000000000E+00 0. -1.
</event>
<event>
 8    1  0.7224924E-009  0.6029859E+02  0.7561462E-02  0.1396583E+00
         -3   -1    0    0    0  501 -0.00000000000E+00  0.00000000000E+00  0.66964651037E+02  0.66964651037E+02  0.00000000000E+00 0.  1.
          3   -1    0    0  501    0  0.00000000000E+00 -0.00000000000E+00 -0.18451139592E+03  0.18451139592E+03  0.00000000000E+00 0. -1.
         25    2    1    2    0    0 -0.20542630076E+02 -0.24142439251E+01 -0.79165594008E+02  0.14947598971E+03  0.12509217402E+03 0.  0.
         23    2    1    2    0    0  0.20542630076E+02  0.24142439251E+01 -0.38381150878E+02  0.10200005725E+03  0.92212096347E+02 0.  0.
          5    1    3    3  502    0 -0.25638383500E+02 -0.32242242122E+02 -0.10281813867E+03  0.11084191863E+03  0.41800000000E+01 0.  1.
         -5    1    3    3    0  502  0.50957534243E+01  0.29827998197E+02  0.23652544661E+02  0.38634071081E+02  0.41800000000E+01 0.  1.
        -11    1    4    4    0    0  0.25114401710E+02  0.18967287025E+02  0.22535969061E+02  0.38708668949E+02  0.00000000000E+00 0.  1.
         11    1    4    4    0    0 -0.45717716338E+01 -0.16553043100E+02 -0.60917119939E+02  0.63291388303E+02  0.00000000000E+00 0. -1.
</event>
<event>
 8    1  0.7224924E-009  0.6205448E+02  0.7561462E-02  0.1389407E+00
         -3   -1    0    0    0  501 -0.00000000000E+00  0.00000000000E+00  0.18171838348E+03  0.18171838348E+03  0.00000000000E+00 0.  1.
          3   -1    0    0  501    0  0.00000000000E+00 -0.00000000000E+00 -0.89309754658E+02  0.89309754658E+02  0.00000000000E+00 0. -1.
         25    2    1    2    0    0 -0.29568939582E+02  0.10745195845E+02 -0.11708947601E+02  0.12951426680E+03  0.12508822658E+03 0.  0.
         23    2    1    2    0    0  0.29568939582E+02 -0.10745195845E+02  0.10411757642E+03  0.14151387133E+03  0.90531346164E+02 0.  0.
          5    1    3    3  502    0 -0.13309109825E+00  0.30456873705E+01 -0.66500978240E+02  0.66701922249E+02  0.41800000000E+01 0.  1.
         -5    1    3    3    0  502 -0.29435848483E+02  0.76995084741E+01  0.54792030639E+02  0.62812344553E+02  0.41800000000E+01 0.  1.
        -11    1    4    4    0    0 -0.24621902147E+02  0.14355934612E+02  0.10310187871E+02  0.30308924393E+02  0.00000000000E+00 0. -1.
         11    1    4    4    0    0  0.54190841729E+02 -0.25101130457E+02  0.93807388550E+02  0.11120494694E+03  0.00000000000E+00 0.  1.
</event>
<event>
 8    1  0.7224924E-009  0.1373404E+03  0.7561462E-02  0.1216953E+00
          4   -1    0    0  501    0  0.00000000000E+00  0.00000000000E+00  0.11406637851E+03  0.11406637851E+03  0.00000000000E+00 0. -1.
         -4   -1    0    0    0  501 -0.00000000000E+00 -0.00000000000E+00 -0.27708825844E+03  0.27708825844E+03  0.00000000000E+00 0.  1.
         25    2    1    2    0    0  0.23319849078E+02 -0.95411269750E+02 -0.19756146869E+03  0.25362709149E+03  0.12509613051E+03 0.  0.
         23    2    1    2    0    0 -0.23319849078E+02  0.95411269750E+02  0.34539588765E+02  0.13752754546E+03  0.89853863652E+02 0.  0.
          5    1    3    3  502    0 -0.46555210644E+02 -0.95115046989E+01 -0.50154178883E+02  0.69215391491E+02  0.41800000000E+01 0.  1.
         -5    1    3    3    0  502  0.69875059722E+02 -0.85899765051E+02 -0.14740728981E+03  0.18441170000E+03  0.41800000000E+01 0.  1.
        -11    1    4    4    0    0  0.21477385660E+02  0.30795393884E+02  0.44556959860E+02  0.58266259973E+02  0.00000000000E+00 0.  1.
         11    1    4    4    0    0 -0.44797234738E+02  0.64615875866E+02 -0.10017371095E+02  0.79261285491E+02  0.00000000000E+00 0. -1.
</event>
<event>
 8    1  0.7224924E-009  0.1156045E+03  0.7561462E-02  0.1250530E+00
          1   -1    0    0  501    0  0.00000000000E+00  0.00000000000E+00  0.97471185193E+02  0.97471185193E+02  0.00000000000E+00 0. -1.
         -1   -1    0    0    0  501 -0.00000000000E+00 -0.00000000000E+00 -0.20391059510E+03  0.20391059510E+03  0.00000000000E+00 0.  1.
         25    2    1    2    0    0 -0.71744368770E+02  0.44011894786E+02 -0.24608414066E+02  0.15276688151E+03  0.12509134547E+03 0.  0.
         23    2    1    2    0    0  0.71744368770E+02 -0.44011894786E+02 -0.81830995844E+02  0.14861489878E+03  0.91136024311E+02 0.  0.
          5    1    3    3  502    0  0.46945060337E+01  0.54261575118E+02 -0.47309632558E+02  0.72263619159E+02  0.41800000000E+01 0.  1.
         -5    1    3    3    0  502 -0.76438874804E+02 -0.10249680332E+02  0.22701218492E+02  0.80503262352E+02  0.41800000000E+01 0.  1.
        -11    1    4    4    0    0  0.36254323672E+02  0.72773348138E+01  0.93513343646E+01  0.38141618231E+02  0.00000000000E+00 0.  1.
         11    1    4    4    0    0  0.35490045098E+02 -0.51289229600E+02 -0.91182330209E+02  0.11047328055E+03  0.00000000000E+00 0. -1.
</event>
<event>
 8    1  0.7224924E-009  0.1005328E+03  0.7561462E-02  0.1279179E+00
          4   -1    0    0  501    0  0.00000000000E+00  0.00000000000E+00  0.42893033008E+03  0.42893033008E+03  0.00000000000E+00 0. -1.
         -4   -1    0    0    0  501 -0.00000000000E+00 -0.00000000000E+00 -0.29233868010E+02  0.29233868010E+02  0.00000000000E+00 0.  1.
         25    2    1    2    0    0 -0.12466924939E+02  0.22480498030E+02  0.27454571862E+03  0.30279775539E+03  0.12510128717E+03 0.  0.
         23    2    1    2    0    0  0.12466924939E+02 -0.22480498030E+02  0.12515074345E+03  0.15536644269E+03  0.88403766433E+02 0.  0.
          5    1    3    3  502    0 -0.43575803920E+02 -0.38478470198E+02  0.10874749103E+03  0.12338124882E+03  0.41800000000E+01 0.  1.
         -5    1    3    3    0  502  0.31108878981E+02  0.60958968229E+02  0.16579822759E+03  0.17941650657E+03  0.41800000000E+01 0.  1.
        -11    1    4    4    0    0  0.27604117907E+02 -0.41541478883E+02  0.12073111562E+03  0.13062803708E+03  0.00000000000E+00 0. -1.
         11    1    4    4    0    0 -0.15137192968E+02  0.19060980853E+02  0.44196278323E+01  0.24738405611E+02  0.00000000000E+00 0.  1.
</event>
<event>
 8    1  0.7224924E-009  0.1244410E+03  0.7561462E-02  0.1235946E+00
         -1   -1    0    0    0  501 -0.00000000000E+00  0.00000000000E+00  0.24073113101E+03  0.24073113101E+03  0.00000000000E+00 0.  1.
          1   -1    0    0  501    0  0.00000000000E+00 -0.00000000000E+00 -0.82486110599E+02  0.82486110599E+02  0.00000000000E+00 0. -1.
         25    2    1    2    0    0 -0.11534433051E+02  0.67784857084E+02  0.25733444771E+02  0.14504309539E+03  0.12508980512E+03 0.  0.
         23    2    1    2    0    0  0.11534433051E+02 -0.67784857084E+02  0.13251157564E+03  0.17817414621E+03  0.97256766885E+02 0.  0.
          5    1    3    3  502    0 -0.43308280098E+01 -0.32078671874E+02  0.30566121672E+02  0.44716411468E+02  0.41800000000E+01 0.  1.
         -5    1    3    3    0  502 -0.72036050413E+01  0.99863528958E+02 -0.48326769013E+01  0.10032668393E+03  0.41800000000E+01 0.  1.
        -11    1    4    4    0    0  0.28809585794E+02  0.14290805417E+02  0.56347978984E+02  0.64879226942E+02  0.00000000000E+00 0. -1.
         11    1    4    4    0    0 -0.17275152742E+02 -0.82075662501E+02  0.76163596655E+02  0.11329491927E+03  0.00000000000E+00 0.  1.
</event>
<event>
 8    1  0.7224924E-009  0.1942838E+03  0.7561462E-02  0.1154653E+00
         -2   -1    0    0    0  501 -0.00000000000E+00  0.00000000000E+00  0.68070390177E+03  0.68070390177E+03  0.00000000000E+00 0. -1.
          2   -1    0    0  501    0  0.00000000000E+00 -0.00000000000E+00 -0.90742067981E+02  0.90742067981E+02  0.00000000000E+00 0.  1.
         25    2    1    2    0    0  0.15247896160E+03  0.98363611676E+02  0.50703486744E+03  0.55286366541E+03  0.12509453185E+03 0.  0.
         23    2    1    2    0    0 -0.15247896160E+03 -0.98363611676E+02  0.82926966350E+02  0.21858230434E+03  0.89309059947E+02 0.  0.
          5    1    3    3  502    0  0.22535879633E+02 -0.19176838935E+02  0.17377603981E+03  0.17632697308E+03  0.41800000000E+01 0. -1.
         -5    1    3    3    0  502  0.12994308197E+03  0.11754045061E+03  0.33325882763E+03  0.37653669233E+03  0.41800000000E+01 0. -1.
        -11    1    4    4    0    0 -0.80493900760E+02 -0.36013603374E+02 -0.58640344492E+01  0.88377794652E+02  0.00000000000E+00 0.  1.
         11    1    4    4    0    0 -0.71985060843E+02 -0.62350008302E+02  0.88791000800E+02  0.13020450969E+03  0.00000000000E+00 0. -1.
</event>
<event>
 8    1  0.7224924E-009  0.2628598E+03  0.7561462E-02  0.1105437E+00
          2   -1    0    0  501    0  0.00000000000E+00  0.00000000000E+00  0.68504739558E+03  0.68504739558E+03  0.00000000000E+00 0. -1.
         -2   -1    0    0    0  501 -0.00000000000E+00 -0.00000000000E+00 -0.16659941310E+03  0.16659941310E+03  0.00000000000E+00 0.  1.
         25    2    1    2    0    0 -0.14191857079E+03  0.22006349471E+03  0.49427147480E+03  0.57316714823E+03  0.12508983401E+03 0.  0.
         23    2    1    2    0    0  0.14191857079E+03 -0.22006349471E+03  0.24176507677E+02  0.27847966044E+03  0.91638394346E+02 0.  0.
          5    1    3    3  502    0 -0.37851512085E+02  0.85988395977E+02  0.73252796251E+02  0.11920648375E+03  0.41800000000E+01 0.  1.
         -5    1    3    3    0  502 -0.10406705870E+03  0.13407509873E+03  0.42101867855E+03  0.45396066448E+03  0.41800000000E+01 0.  1.
        -11    1    4    4    0    0  0.10285195695E+03 -0.16340004980E+03  0.58264501683E+02  0.20167511864E+03  0.00000000000E+00 0. -1.
         11    1    4    4    0    0  0.39066613841E+02 -0.56663444909E+02 -0.34087994005E+02  0.76804541801E+02  0.00000000000E+00 0.  1.
</event>
<event>
 8    1  0.7224924E-009  0.1108459E+03  0.7561462E-02  0.1259011E+00
          2   -1    0    0  501    0  0.00000000000E+00  0.00000000000E+00  0.19986269830E+03  0.19986269830E+03  0.00000000000E+00 0. -1.
         -2   -1    0    0    0  501 -0.00000000000E+00 -0.00000000000E+00 -0.73858694049E+02  0.73858694049E+02  0.00000000000E+00 0.  1.
         25    2    1    2    0    0  0.30576315735E+02  0.77306654911E+01  0.22489828390E+02  0.13095135203E+03  0.12509112656E+03 0.  0.
         23    2    1    2    0    0 -0.30576315735E+02 -0.77306654911E+01  0.10351417586E+03  0.14277004032E+03  0.93131227505E+02 0.  0.
          5    1    3    3  502    0 -0.13136218954E+02 -0.50916970509E+02  0.23335544937E+02  0.57681177101E+02  0.41800000000E+01 0.  1.
         -5    1    3    3    0  502  0.43712534689E+02  0.58647636000E+02 -0.84571654706E+00  0.73270174927E+02  0.41800000000E+01 0.  1.
        -11    1    4    4    0    0  0.29509997638E+02 -0.18219849459E+02  0.22418412262E+02  0.41296344672E+02  0.00000000000E+00 0.  1.
         11    1    4    4    0    0 -0.60086313373E+02  0.10489183968E+02  0.81095763603E+02  0.10147369565E+03  0.00000000000E+00 0. -1.
</event>
<event>
 8    1  0.7224924E-009  0.9851810E+02  0.7561462E-02  0.1283443E+00
         -2   -1    0    0    0  501 -0.00000000000E+00  0.00000000000E+00  0.69336824207E+02  0.69336824207E+02  0.00000000000E+00 0.  1.
          2   -1    0    0  501    0  0.00000000000E+00 -0.00000000000E+00 -0.33668188439E+03  0.33668188439E+03  0.00000000000E+00 0. -1.
         25    2    1    2    0    0  0.51122029824E+02  0.43542625626E+02 -0.31657399339E+02  0.14545686702E+03  0.12508431976E+03 0.  0.
         23    2    1    2    0    0 -0.51122029824E+02 -0.43542625626E+02 -0.23568766084E+03  0.26056184157E+03  0.88512019705E+02 0.  0.
          5    1    3    3  502    0  0.29097979227E+01 -0.20308962887E+02 -0.57564551344E+02  0.61254149810E+02  0.41800000000E+01 0. -1.
         -5    1    3    3    0  502  0.48212231901E+02  0.63851588513E+02  0.25907152005E+02  0.84202717210E+02  0.41800000000E+01 0. -1.
        -11    1    4    4    0    0 -0.53590119813E+02 -0.12387749526E+01 -0.19341716427E+03  0.20070783477E+03  0.00000000000E+00 0. -1.
         11    1    4    4    0    0  0.24680899892E+01 -0.42303850674E+02 -0.42270496576E+02  0.59854006807E+02  0.00000000000E+00 0.  1.
</event>
<event>
 8    1  0.7224924E-009  0.8510372E+02  0.7561462E-02  0.1315162E+00
          1   -1    0    0  501    0  0.00000000000E+00  0.00000000000E+00  0.38610459180E+03  0.38610459180E+03  0.00000000000E+00 0. -1.
         -1   -1    0    0    0  501 -0.00000000000E+00 -0.00000000000E+00 -0.44221956482E+02  0.44221956482E+02  0.00000000000E+00 0.  1.
         25    2    1    2    0    0 -0.38565919665E+02  0.46202153934E+01  0.88268436281E+02  0.15794765833E+03  0.12508984522E+03 0.  0.
         23    2    1    2    0    0  0.38565919665E+02 -0.46202153934E+01  0.25361419904E+03  0.27237888996E+03  0.91440807030E+02 0.  0.
          5    1    3    3  502    0 -0.46885423629E+02  0.22369977466E+02  0.11398989789E+03  0.12533885296E+03  0.41800000000E+01 0.  1.
         -5    1    3    3    0  502  0.83195039633E+01 -0.17749762072E+02 -0.25721461611E+02  0.32608805363E+02  0.41800000000E+01 0.  1.
        -11    1    4    4    0    0  0.22715260981E+02 -0.47325948029E+02  0.15746608572E+03  0.16598583250E+03  0.00000000000E+00 0.  1.
         11    1    4    4    0    0  0.15850658684E+02  0.42705732635E+02  0.96148113319E+02  0.10639305746E+03  0.00000000000E+00 0. -1.
</event>
<event>
 8    1  0.7224924E-009  0.1007925E+03  0.7561462E-02  0.1278638E+00
         -1   -1    0    0    0  501 -0.00000000000E+00  0.00000000000E+00  0.36824879502E+02  0.36824879502E+02  0.00000000000E+00 0.  1.
          1   -1    0    0  501    0  0.00000000000E+00 -0.00000000000E+00 -0.51076290992E+03  0.51076290992E+03  0.00000000000E+00 0. -1.
         25    2    1    2    0    0 -0.40114548786E+02  0.70136398388E+02 -0.25543915961E+03  0.29567168726E+03  0.12507714012E+03 0.  0.
         23    2    1    2    0    0  0.40114548786E+02 -0.70136398388E+02 -0.21849887081E+03  0.25191610216E+03  0.95873221395E+02 0.  0.
          5    1    3    3  502    0  0.10474105635E+02 -0.16010898312E+02  0.18157104944E+01  0.19667866132E+02  0.41800000000E+01 0.  1.
         -5    1    3    3    0  502 -0.50588654421E+02  0.86147296700E+02 -0.25725487010E+03  0.27600382113E+03  0.41800000000E+01 0.  1.
        -11    1    4    4    0    0  0.35110291101E+02 -0.48938857864E+02 -0.22184893623E+03  0.22987973999E+03  0.00000000000E+00 0. -1.
         11    1    4    4    0    0  0.50042576846E+01 -0.21197540525E+02  0.33500654277E+01  0.22036362169E+02  0.00000000000E+00 0.  1.
</event>
<event>
 8    1  0.7224924E-009  0.1239567E+03  0.7561462E-02  0.1236709E+00
          1   -1    0    0  501    0  0.00000000000E+00  0.00000000000E+00  0.29009645098E+03  0.29009645098E+03  0.00000000000E+00 0. -1.
         -1   -1    0    0    0  501 -0.00000000000E+00 -0.00000000000E+00 -0.11748496338E+03  0.11748496338E+03  0.00000000000E+00 0.  1.
         25    2    1    2    0    0  0.24313839713E+02  0.95468151762E+02 -0.33424108994E+02  0.16269668912E+03  0.12509081016E+03 0.  0.
         23    2    1    2    0    0 -0.24313839713E+02 -0.95468151762E+02  0.20603559659E+03  0.24488472524E+03  0.88388521843E+02 0.  0.
          5    1    3    3  502    0 -0.41410432855E+01 -0.14338621942E+02  0.29198958238E+02  0.33057463316E+02  0.41800000000E+01 0. -1.
         -5    1    3    3    0  502  0.28454882999E+02  0.10980677370E+03 -0.62623067232E+02  0.12963922580E+03  0.41800000000E+01 0. -1.
        -11    1    4    4    0    0 -0.45189937980E+02 -0.42767681387E+02  0.53152881962E+02  0.81831741560E+02  0.00000000000E+00 0.  1.
         11    1    4    4    0    0  0.20876098267E+02 -0.52700470375E+02  0.15288271462E+03  0.16305298368E+03  0.00000000000E+00 0. -1.
</event>
<event>
 8    1  0.7224924E-009  0.1170605E+03  0.7561462E-02  0.1248027E+00
          1   -1    0    0  501    0  0.00000000000E+00  0.00000000000E+00  0.30540754062E+03  0.30540754062E+03  0.00000000000E+00 0. -1.
         -1   -1    0    0    0  501 -0.00000000000E+00 -0.00000000000E+00 -0.83881962498E+02  0.83881962498E+02  0.00000000000E+00 0.  1.
         25    2    1    2    0    0 -0.65223968552E+02  0.13698197898E+02  0.23571951797E+03  0.27504939294E+03  0.12508665279E+03 0.  0.
         23    2    1    2    0    0  0.65223968552E+02 -0.13698197898E+02 -0.14193939842E+02  0.11424011018E+03  0.91692574112E+02 0.  0.
          5    1    3    3  502    0 -0.94912499009E+02  0.25316557407E+02  0.21601580827E+03  0.23733860278E+03  0.41800000000E+01 0. -1.
         -5    1    3    3    0  502  0.29688530457E+02 -0.11618359508E+02  0.19703709693E+02  0.37710790153E+02  0.41800000000E+01 0. -1.
        -11    1    4    4    0    0 -0.12293789827E+02 -0.22491931427E+02 -0.24608460276E+02  0.35533091123E+02  0.00000000000E+00 0.  1.
         11    1    4    4    0    0  0.77517758379E+02  0.87937335287E+01  0.10414520433E+02  0.78707019061E+02  0.00000000000E+00 0. -1.
</event>
<event>
 8    1  0.7224924E-009  0.1027846E+03  0.7561462E-02  0.1274547E+00
         -2   -1    0    0    0  501 -0.00000000000E+00  0.00000000000E+00  0.24770892574E+03  0.24770892574E+03  0.00000000000E+00 0.  1.
          2   -1    0    0  501    0  0.00000000000E+00 -0.00000000000E+00 -0.47222677224E+02  0.47222677224E+02  0.00000000000E+00 0. -1.
         25    2    1    2    0    0  0.96835550793E+01  0.70735017326E+01  0.10902025436E+03  0.16636095457E+03  0.12508695246E+03 0.  0.
         23    2    1    2    0    0 -0.96835550793E+01 -0.70735017326E+01  0.91465994157E+02  0.12857064840E+03  0.89557679055E+02 0.  0.
          5    1    3    3  502    0 -0.45080083177E+02 -0.27977114610E+02  0.21847717066E+02  0.57530235374E+02  0.41800000000E+01 0.  1.
         -5    1    3    3    0  502  0.54763638256E+02  0.35050616343E+02  0.87172537298E+02  0.10883071919E+03  0.41800000000E+01 0.  1.
        -11    1    4    4    0    0  0.25679646331E+02  0.27578957026E+02  0.23242543814E+02  0.44274811680E+02  0.00000000000E+00 0. -1.
         11    1    4    4    0    0 -0.35363201410E+02 -0.34652458759E+02  0.68223450343E+02  0.84295836723E+02  0.00000000000E+00 0.  1.
</event>
<event>
 8    1  0.7224924E-009  0.1262450E+03  0.7561462E-02  0.1233136E+00
          2   -1    0    0  501    0  0.00000000000E+00  0.00000000000E+00  0.38916299122E+02  0.38916299122E+02  0.00000000000E+00 0. -1.
         -2   -1    0    0    0  501 -0.00000000000E+00 -0.00000000000E+00 -0.61077926682E+03  0.61077926682E+03  0.00000000000E+00 0.  1.
         25    2    1    2    0    0  0.10571374657E+03  0.23789208556E+02 -0.33192077476E+03  0.37089613317E+03  0.12510482896E+03 0.  0.
         23    2    1    2    0    0 -0.10571374657E+03 -0.23789208556E+02 -0.23994219294E+03  0.27879943276E+03  0.91736280177E+02 0.  0.
          5    1    3    3  502    0  0.27257139692E+02 -0.73442781384E+01 -0.15692851297E+00  0.28537468565E+02  0.41800000000E+01 0. -1.
         -5    1    3    3    0  502  0.78456606881E+02  0.31133486694E+02 -0.33176384625E+03  0.34235866461E+03  0.41800000000E+01 0. -1.
        -11    1    4    4    0    0 -0.34603843240E+02  0.33471360504E+02 -0.10913117823E+03  0.11927854796E+03  0.00000000000E+00 0.  1.
         11    1    4    4    0    0 -0.71109903332E+02 -0.57260569060E+02 -0.13081101470E+03  0.15952088480E+03  0.00000000000E+00 0. -1.
</event>
<event>
 8    1  0.7224924E-009  0.1274515E+03  0.7561462E-02  0.1231287E+00
         -2   -1    0    0    0  501 -0.00000000000E+00  0.00000000000E+00  0.44844443997E+02  0.44844443997E+02  0.00000000000E+00 0.  1.
          2   -1    0    0  501    0  0.00000000000E+00 -0.00000000000E+00 -0.39213116027E+03  0.39213116027E+03  0.00000000000E+00 0. -1.
         25    2    1    2    0    0 -0.74292889389E+02 -0.16511447050E+02 -0.17746814295E+03  0.23007700510E+03  0.12509366578E+03 0.  0.
         23    2    1    2    0    0  0.74292889389E+02  0.16511447050E+02 -0.16981857333E+03  0.20689859917E+03  0.90424671379E+02 0.  0.
          5    1    3    3  502    0  0.12472595515E+02  0.35795054146E+02 -0.20747542064E+02  0.43414104181E+02  0.41800000000E+01 0.  1.
         -5    1    3    3    0  502 -0.86765484904E+02 -0.52306501196E+02 -0.15672060089E+03  0.18666290092E+03  0.41800000000E+01 0.  1.
        -11    1    4    4    0    0  0.87767590285E+02  0.33272665307E+02 -0.11788830822E+03  0.15069131819E+03  0.00000000000E+00 0.  1.
         11    1    4    4    0    0 -0.13474700897E+02 -0.16761218257E+02 -0.51930265105E+02  0.56207280984E+02  0.00000000000E+00 0. -1.
</event>
<event>
 8    1  0.7224924E-009  0.1693582E+03  0.7561462E-02  0.1178519E+00
         -2   -1    0    0    0  501 -0.00000000000E+00  0.00000000000E+00  0.36224688131E+03  0.36224688131E+03  0.00000000000E+00 0.  1.
          2   -1    0    0  501    0  0.00000000000E+00 -0.00000000000E+00 -0.11175265212E+03  0.11175265212E+03  0.00000000000E+00 0. -1.
         25    2    1    2    0    0  0.14920431453E+03 -0.50067003559E+02  0.21351765361E+03  0.29326749654E+03  0.12508958313E+03 0.  0.
         23    2    1    2    0    0 -0.14920431453E+03  0.50067003559E+02  0.36976575584E+02  0.18073203689E+03  0.80797089656E+02 0.  0.
          5    1    3    3  502    0  0.77415504126E+02 -0.48285971026E+02  0.20028532003E+03  0.22012809248E+03  0.41800000000E+01 0.  1.
         -5    1    3    3    0  502  0.71788810401E+02 -0.17810325334E+01  0.13232333576E+02  0.73139404069E+02  0.41800000000E+01 0.  1.
        -11    1    4    4    0    0 -0.26425529232E+02 -0.20849975076E+02  0.16452729428E+02  0.37466282995E+02  0.00000000000E+00 0.  1.
         11    1    4    4    0    0 -0.12277878530E+03  0.70916978635E+02  0.20523846156E+02  0.14326575389E+03  0.00000000000E+00 0. -1.
</event>
<event>
 8    1  0.7224924E-009  0.9585363E+02  0.7561462E-02  0.1289265E+00
         -2   -1    0    0    0  501 -0.00000000000E+00  0.00000000000E+00  0.29977960018E+03  0.29977960018E+03  0.00000000000E+00 0.  1.
          2   -1    0    0  501    0  0.00000000000E+00 -0.00000000000E+00 -0.57591429781E+02  0.57591429781E+02  0.00000000000E+00 0. -1.
         25    2    1    2    0    0 -0.50219516784E+02 -0.43934738740E+02  0.17757886102E+03  0.22723180272E+03  0.12509108342E+03 0.  0.
         23    2    1    2    0    0  0.50219516784E+02  0.43934738740E+02  0.64609309382E+02  0.13013922724E+03  0.91156977103E+02 0.  0.
          5    1    3    3  502    0 -0.67311875674E+01  0.81864174847E+01 -0.17363029588E+02  0.20767125794E+02  0.41800000000E+01 0. -1.
         -5    1    3    3    0  502 -0.43488329217E+02 -0.52121156225E+02  0.19494189061E+03  0.20646467693E+03  0.41800000000E+01 0. -1.
        -11    1    4    4    0    0  0.15713367188E+02  0.68286418657E+02  0.47044526994E+02  0.84398651656E+02  0.00000000000E+00 0.  1.
         11    1    4    4    0    0  0.34506149596E+02 -0.24351679916E+02  0.17564782388E+02  0.45740575587E+02  0.00000000000E+00 0. -1.
</event>
<event>
 8    1  0.7224924E-009  0.1406780E+03  0.7561462E-02  0.1212420E+00
          2   -1    0    0  501    0  0.00000000000E+00  0.00000000000E+00  0.58715675211E+03  0.58715675211E+03  0.00000000000E+00 0.  1.
         -2   -1    0    0    0  501 -0.00000000000E+00 -0.00000000000E+00 -0.49434206424E+02  0.49434206424E+02  0.00000000000E+00 0. -1.
         25    2    1    2    0    0  0.81528947619E+02  0.72511022284E+02  0.42059460521E+03  0.45216303193E+03  0.12508704112E+03 0.  0.
         23    2    1    2    0    0 -0.81528947619E+02 -0.72511022284E+02  0.11712794048E+03  0.18442792661E+03  0.91596331916E+02 0.  0.
          5    1    3    3  502    0  0.37644227496E+01  0.71305449034E+02  0.30144885100E+03  0.30981852771E+03  0.41800000000E+01 0.  1.
         -5    1    3    3    0  502  0.77764524870E+02  0.12055732502E+01  0.11914575421E+03  0.14234450422E+03  0.41800000000E+01 0.  1.
        -11    1    4    4    0    0 -0.61180771196E+02 -0.87430856099E+02  0.11811029429E+03  0.15917689210E+03  0.00000000000E+00 0.  1.
         11    1    4    4    0    0 -0.20348176423E+02  0.14919833815E+02 -0.98235380838E+00  0.25251034510E+02  0.00000000000E+00 0. -1.
</event>
<event>
 8    1  0.7224924E-009  0.1093238E+03  0.7561462E-02  0.1261827E+00
          1   -1    0    0  501    0  0.00000000000E+00  0.00000000000E+00  0.10699722842E+03  0.10699722842E+03  0.00000000000E+00 0. -1.
         -1   -1    0    0    0  501 -0.00000000000E+00 -0.00000000000E+00 -0.11695935511E+03  0.11695935511E+03  0.00000000000E+00 0.  1.
         25    2    1    2    0    0 -0.19116732185E+02  0.75798282486E+01 -0.18096704220E+02  0.12806318908E+03  0.12509910650E+03 0.  0.
         23    2    1    2    0    0  0.19116732185E+02 -0.75798282486E+01  0.81345775390E+01  0.95893394453E+02  0.93308458900E+02 0.  0.
          5    1    3    3  502    0 -0.43525076805E+02  0.54685047766E+02 -0.25114091700E+02  0.74384654076E+02  0.41800000000E+01 0.  1.
         -5    1    3    3    0  502  0.24408344621E+02 -0.47105219517E+02  0.70173874806E+01  0.53678535002E+02  0.41800000000E+01 0.  1.
        -11    1    4    4    0    0  0.18425849217E+02  0.41981287613E+02  0.13642918367E+01  0.45867218373E+02  0.00000000000E+00 0. -1.
         11    1    4    4    0    0  0.69088296749E+00 -0.49561115862E+02  0.67702857023E+01  0.50026176080E+02  0.00000000000E+00 0.  1.
</event>
<event>
 8    1  0.7224924E-009  0.8436294E+02  0.7561462E-02  0.1317107E+00
         -4   -1    0    0    0  501 -0.00000000000E+00  0.00000000000E+00  0.78257508996E+02  0.78257508996E+02  0.00000000000E+00 0. -1.
          4   -1    0    0  501    0  0.00000000000E+00 -0.00000000000E+00 -0.15728783158E+03  0.15728783158E+03  0.00000000000E+00 0.  1.
         25    2    1    2    0    0  0.43607015956E+01  0.24318954373E+02 -0.27926530381E+02  0.13052792072E+03  0.12508884734E+03 0.  0.
         23    2    1    2    0    0 -0.43607015956E+01 -0.24318954373E+02 -0.51103792198E+02  0.10501741985E+03  0.88355156240E+02 0.  0.
          5    1    3    3  502    0  0.11138941725E+02  0.60962730136E+02  0.23904701984E+02  0.66554020655E+02  0.41800000000E+01 0. -1.
         -5    1    3    3    0  502 -0.67782401291E+01 -0.36643775763E+02 -0.51831232366E+02  0.63973900068E+02  0.41800000000E+01 0. -1.
        -11    1    4    4    0    0  0.28463759011E+02 -0.34348190614E+00 -0.57222092033E+02  0.63911433824E+02  0.00000000000E+00 0.  1.
         11    1    4    4    0    0 -0.32824460607E+02 -0.23975472467E+02  0.61182998346E+01  0.41105986024E+02  0.00000000000E+00 0. -1.
</event>
<event>
 8    1  0.7224924E-009  0.1257600E+03  0.7561462E-02  0.1233886E+00
          1   -1    0    0  501    0  0.00000000000E+00  0.00000000000E+00  0.36093558716E+02  0.36093558716E+02  0.00000000000E+00 0. -1.
         -1   -1    0    0    0  501 -0.00000000000E+00 -0.00000000000E+00 -0.63190087918E+03  0.63190087918E+03  0.00000000000E+00 0.  1.
         25    2    1    2    0    0  0.96332579307E+02  0.29274875154E+02 -0.24857229333E+03  0.29592634697E+03  0.12508890307E+03 0.  0.
         23    2    1    2    0    0 -0.96332579307E+02 -0.29274875154E+02 -0.34723502713E+03  0.37206809092E+03  0.87894914889E+02 0.  0.
          5    1    3    3  502    0  0.39902313525E+02 -0.22658208173E+02 -0.19957305609E+03  0.20482301174E+03  0.41800000000E+01 0. -1.
         -5    1    3    3    0  502  0.56430265782E+02  0.51933083327E+02 -0.48999237242E+02  0.91103335232E+02  0.41800000000E+01 0. -1.
        -11    1    4    4    0    0 -0.44516100868E+02  0.27062016428E+02 -0.93437256685E+02  0.10697923587E+03  0.00000000000E+00 0. -1.
         11    1    4    4    0    0 -0.51816478440E+02 -0.56336891582E+02 -0.25379777044E+03  0.26508885505E+03  0.00000000000E+00 0.  1.
</event>
<event>
 8    1  0.7224924E-009  0.8303269E+02  0.7561462E-02  0.1320659E+00
         -2   -1    0    0    0  501 -0.00000000000E+00  0.00000000000E+00  0.75552168522E+02  0.75552168522E+02  0.00000000000E+00 0.  1.
          2   -1    0    0  501    0  0.00000000000E+00 -0.00000000000E+00 -0.15760176331E+03  0.15760176331E+03  0.00000000000E+00 0. -1.
         25    2    1    2    0    0  0.33688163051E+01  0.92885952137E+01 -0.33201178673E+02  0.12979924502E+03  0.12509156174E+03 0.  0.
         23    2    1    2    0    0 -0.33688163051E+01 -0.92885952137E+01 -0.48848416117E+02  0.10335468681E+03  0.90544997678E+02 0.  0.
          5    1    3    3  502    0 -0.38321161060E+01 -0.57461925348E+02 -0.20954379173E+02  0.61425698084E+02  0.41800000000E+01 0.  1.
         -5    1    3    3    0  502  0.72009324111E+01  0.66750520562E+02 -0.12246799501E+02  0.68373546938E+02  0.41800000000E+01 0.  1.
        -11    1    4    4    0    0  0.74379834985E+01  0.13736765447E+02  0.22622983525E+02  0.27492211752E+02  0.00000000000E+00 0.  1.
         11    1    4    4    0    0 -0.10806799804E+02 -0.23025360660E+02 -0.71471399641E+02  0.75862475060E+02  0.00000000000E+00 0. -1.
</event>
<event>
 8    1  0.7224924E-009  0.1895174E+03  0.7561462E-02  0.1158897E+00
          2   -1    0    0  501    0  0.00000000000E+00  0.00000000000E+00  0.56018878434E+02  0.56018878434E+02  0.00000000000E+00 0. -1.
         -2   -1    0    0    0  501 -0.00000000000E+00 -0.00000000000E+00 -0.72637486017E+03  0.72637486017E+03  0.00000000000E+00 0.  1.
         25    2    1    2    0    0 -0.15023547996E+03 -0.49173372536E+02 -0.23128588347E+03  0.30680414922E+03  0.12508759364E+03 0.  0.
         23    2    1    2    0    0  0.15023547996E+03  0.49173372536E+02 -0.43907009827E+03  0.47558958938E+03  0.91728874006E+02 0.  0.
          5    1    3    3  502    0 -0.95076197085E+02  0.34495720822E+02 -0.11970909961E+03  0.15677110364E+03  0.41800000000E+01 0. -1.
         -5    1    3    3    0  502 -0.55159282879E+02 -0.83669093359E+02 -0.11157678385E+03  0.15003304558E+03  0.41800000000E+01 0. -1.
        -11    1    4    4    0    0  0.76798610465E+02 -0.16994335761E+02 -0.25226552617E+03  0.26424369380E+03  0.00000000000E+00 0.  1.
         11    1    4    4    0    0  0.73436869498E+02  0.66167708297E+02 -0.18680457210E+03  0.21134589558E+03  0.00000000000E+00 0. -1.
</event>
<event>
 8    1  0.7224924E-009  0.1001004E+03  0.7561462E-02  0.1280085E+00
         -2   -1    0    0    0  501 -0.00000000000E+00  0.00000000000E+00  0.18432254491E+03  0.18432254491E+03  0.00000000000E+00 0. -1.
          2   -1    0    0  501    0  0.00000000000E+00 -0.00000000000E+00 -0.76321659543E+02  0.76321659543E+02  0.00000000000E+00 0.  1.
         25    2    1    2    0    0 -0.27156005162E+01  0.32255721074E+02  0.99652404017E+02  0.16318345850E+03  0.12510169253E+03 0.  0.
         23    2    1    2    0    0  0.27156005162E+01 -0.32255721074E+02  0.83484813538E+01  0.97460745959E+02  0.91548314205E+02 0.  0.
          5    1    3    3  502    0 -0.12745050395E+02  0.75302513887E+02  0.89330623926E+02  0.11760245609E+03  0.41800000000E+01 0. -1.
         -5    1    3    3    0  502  0.10029449879E+02 -0.43046792812E+02  0.10321780092E+02  0.45581002409E+02  0.41800000000E+01 0. -1.
        -11    1    4    4    0    0 -0.23164165933E+02 -0.44892046623E+02 -0.22462839048E+02  0.55285202101E+02  0.00000000000E+00 0.  1.
         11    1    4    4    0    0  0.25879766449E+02  0.12636325549E+02  0.30811320401E+02  0.42175543858E+02  0.00000000000E+00 0. -1.
</event>
<event>
 8    1  0.7224924E-009  0.2173796E+03  0.7561462E-02  0.1135852E+00
         -1   -1    0    0    0  501 -0.00000000000E+00  0.00000000000E+00  0.59551375393E+03  0.59551375393E+03  0.00000000000E+00 0.  1.
          1   -1    0    0  501    0  0.00000000000E+00 -0.00000000000E+00 -0.84591419636E+02  0.84591419636E+02  0.00000000000E+00 0. -1.
         25    2    1    2    0    0 -0.17903747155E+02  0.19371531625E+03  0.23184564123E+03  0.32748122540E+03  0.12508150830E+03 0.  0.
         23    2    1    2    0    0  0.17903747155E+02 -0.19371531625E+03  0.27907669306E+03  0.35262394817E+03  0.92809914881E+02 0.  0.
          5    1    3    3  502    0 -0.71762258458E+02  0.11061819279E+03  0.13983350989E+03  0.19224226696E+03  0.41800000000E+01 0. -1.
         -5    1    3    3    0  502  0.53858511302E+02  0.83097123459E+02  0.92012131337E+02  0.13523895844E+03  0.41800000000E+01 0. -1.
        -11    1    4    4    0    0  0.27319667511E+02 -0.33481338683E+02  0.11608262071E+03  0.12386500355E+03  0.00000000000E+00 0.  1.
         11    1    4    4    0    0 -0.94159203558E+01 -0.16023397757E+03  0.16299407236E+03  0.22875894463E+03  0.00000000000E+00 0. -1.
</event>
<event>
 8    1  0.7224924E-009  0.8910429E+02  0.7561462E-02  0.1305035E+00
         -3   -1    0    0    0  501 -0.00000000000E+00  0.00000000000E+00  0.28464777361E+03  0.28464777361E+03  0.00000000000E+00 0.  1.
          3   -1    0    0  501    0  0.00000000000E+00 -0.00000000000E+00 -0.59162705600E+02  0.59162705600E+02  0.00000000000E+00 0. -1.
         25    2    1    2    0    0 -0.49522961281E+02  0.48085824568E+02  0.83211198195E+02  0.16533651518E+03  0.12508912633E+03 0.  0.
         23    2    1    2    0    0  0.49522961281E+02 -0.48085824568E+02  0.14227386982E+03  0.17847396404E+03  0.82742562132E+02 0.  0.
          5    1    3    3  502    0 -0.96978219819E+01  0.46638608884E+01 -0.33007837125E+02  0.34968400896E+02  0.41800000000E+01 0. -1.
         -5    1    3    3    0  502 -0.39825139299E+02  0.43421963679E+02  0.11621903532E+03  0.13036811428E+03  0.41800000000E+01 0. -1.
        -11    1    4    4    0    0  0.54449322760E+02  0.46349122488E+01  0.67421922693E+02  0.86786674209E+02  0.00000000000E+00 0.  1.
         11    1    4    4    0    0 -0.49263614791E+01 -0.52720736817E+02  0.74851947124E+02  0.91687289829E+02  0.00000000000E+00 0. -1.
</event>
<event>
 8    1  0.7224924E-009  0.1558441E+03  0.7561462E-02  0.1193470E+00
         -2   -1    0    0    0  501 -0.00000000000E+00  0.00000000000E+00  0.14013733027E+03  0.14013733027E+03  0.00000000000E+00 0.  1.
          2   -1    0    0  501    0  0.00000000000E+00 -0.00000000000E+00 -0.20236604645E+03  0.20236604645E+03  0.00000000000E+00 0. -1.
         25    2    1    2    0    0 -0.59283664354E+02 -0.11166227486E+03 -0.53737855087E+02  0.18579084168E+03  0.12508982091E+03 0.  0.
         23    2    1    2    0    0  0.59283664354E+02  0.11166227486E+03 -0.84908610919E+01  0.15671253504E+03  0.92215548741E+02 0.  0.
          5    1    3    3  502    0 -0.75338993796E+02 -0.12268959826E+03 -0.18374660384E+02  0.14520262412E+03  0.41800000000E+01 0.  1.
         -5    1    3    3    0  502  0.16055329442E+02  0.11027323397E+02 -0.35363194702E+02  0.40588217556E+02  0.41800000000E+01 0.  1.
        -11    1    4    4    0    0 -0.72288216039E+01  0.67516235405E+02  0.21820286995E+02  0.71321965968E+02  0.00000000000E+00 0.  1.
         11    1    4    4    0    0  0.66512485957E+02  0.44146039459E+02 -0.30311148086E+02  0.85390569072E+02  0.00000000000E+00 0. -1.
</event>
<event>
 8    1  0.7224924E-009  0.2156972E+03  0.7561462E-02  0.1137132E+00
         -1   -1    0    0    0  501 -0.00000000000E+00  0.00000000000E+00  0.25145087883E+02  0.25145087883E+02  0.00000000000E+00 0.  1.
          1   -1    0    0  501    0  0.00000000000E+00 -0.00000000000E+00 -0.19057235978E+04  0.19057235978E+04  0.00000000000E+00 0. -1.
         25    2    1    2    0    0  0.17809706784E+03  0.64493647026E+02 -0.97652116639E+03  0.10025547280E+04  0.12507756829E+03 0.  0.
         23    2    1    2    0    0 -0.17809706784E+03 -0.64493647026E+02 -0.90405734351E+03  0.92831395769E+03  0.92569582547E+02 0.  0.
          5    1    3    3  502    0  0.11429949448E+03  0.99106895267E+02 -0.57975972133E+03  0.59918724787E+03  0.41800000000E+01 0. -1.
         -5    1    3    3    0  502  0.63797573364E+02 -0.34613248240E+02 -0.39676144506E+03  0.40336748010E+03  0.41800000000E+01 0. -1.
        -11    1    4    4    0    0 -0.21188709827E+02 -0.44354081115E+02 -0.15026950077E+03  0.15810492970E+03  0.00000000000E+00 0.  1.
         11    1    4    4    0    0 -0.15690835802E+03 -0.20139565911E+02 -0.75378784274E+03  0.77020902799E+03  0.00000000000E+00 0. -1.
</event>
<event>
 8    1  0.7224924E-009  0.7479847E+02  0.7561462E-02  0.1344496E+00
         -1   -1    0    0    0  501 -0.00000000000E+00  0.00000000000E+00  0.68793772261E+02  0.68793772261E+02  0.00000000000E+00 0.  1.
          1   -1    0    0  501    0  0.00000000000E+00 -0.00000000000E+00 -0.26491623248E+03  0.26491623248E+03  0.00000000000E+00 0. -1.
         25    2    1    2    0    0  0.40727880314E+02  0.15437360424E+01 -0.22373261677E+02  0.13345127453E+03  0.12509011343E+03 0.  0.
         23    2    1    2    0    0 -0.40727880314E+02 -0.15437360424E+01 -0.17374919854E+03  0.20025873022E+03  0.90849500152E+02 0.  0.
          5    1    3    3  502    0  0.17065879043E+02  0.31202112317E+02  0.44094375842E+02  0.56803190240E+02  0.41800000000E+01 0.  1.
         -5    1    3    3    0  502  0.23662001271E+02 -0.29658376274E+02 -0.66467637519E+02  0.76648084286E+02  0.41800000000E+01 0.  1.
        -11    1    4    4    0    0 -0.58184276353E+01 -0.30012608540E+02 -0.12831585715E+02  0.33155095589E+02  0.00000000000E+00 0.  1.
         11    1    4    4    0    0 -0.34909452679E+02  0.28468872498E+02 -0.16091761283E+03  0.16710363463E+03  0.00000000000E+00 0. -1.
</event>
<event>
 8    1  0.7224924E-009  0.1324741E+03  0.7561462E-02  0.1223830E+00
          1   -1    0    0  501    0  0.00000000000E+00  0.00000000000E+00  0.36369593219E+02  0.36369593219E+02  0.00000000000E+00 0. -1.
         -1   -1    0    0    0  501 -0.00000000000E+00 -0.00000000000E+00 -0.79390226841E+03  0.79390226841E+03  0.00000000000E+00 0.  1.
         25    2    1    2    0    0 -0.33844910585E+02 -0.12183488257E+03 -0.32492504609E+03  0.37042371053E+03  0.12509285818E+03 0.  0.
         23    2    1    2    0    0  0.33844910585E+02  0.12183488257E+03 -0.43260762910E+03  0.45984815110E+03  0.91223597410E+02 0.  0.
          5    1    3    3  502    0 -0.94638570637E+01 -0.54281147697E+02 -0.22674267233E+02  0.59729409677E+02  0.41800000000E+01 0.  1.
         -5    1    3    3    0  502 -0.24381053521E+02 -0.67553734875E+02 -0.30225077885E+03  0.31069430085E+03  0.41800000000E+01 0.  1.
        -11    1    4    4    0    0  0.35820363004E+02  0.32420786444E+02 -0.61998835719E+02  0.78600645226E+02  0.00000000000E+00 0.  1.
         11    1    4    4    0    0 -0.19754524198E+01  0.89414096128E+02 -0.37060879339E+03  0.38124750587E+03  0.00000000000E+00 0. -1.
</event>
<event>
 8    1  0.7224924E-009  0.1157742E+03  0.7561462E-02  0.1250236E+00
          2   -1    0    0  501    0  0.00000000000E+00  0.00000000000E+00  0.42539934706E+03  0.42539934706E+03  0.00000000000E+00 0. -1.
         -2   -1    0    0    0  501 -0.00000000000E+00 -0.00000000000E+00 -0.55163220072E+02  0.55163220072E+02  0.00000000000E+00 0.  1.
         25    2    1    2    0    0  0.96084209138E+02 -0.19898589062E+02  0.27325046881E+03  0.31613472608E+03  0.12508883738E+03 0.  0.
         23    2    1    2    0    0 -0.96084209138E+02  0.19898589062E+02  0.96985658182E+02  0.16442784105E+03  0.89454837368E+02 0.  0.
          5    1    3    3  502    0 -0.15815574887E+02  0.77232484007E+01  0.13448741147E+03  0.13569862645E+03  0.41800000000E+01 0. -1.
         -5    1    3    3    0  502  0.11189978403E+03 -0.27621837463E+02  0.13876305733E+03  0.18043609963E+03  0.41800000000E+01 0. -1.
        -11    1    4    4    0    0 -0.57267751255E+02  0.12068937197E+02 -0.12210154008E+01  0.58538410103E+02  0.00000000000E+00 0.  1.
         11    1    4    4    0    0 -0.38816457883E+02  0.78296518647E+01  0.98206673583E+02  0.10588943095E+03  0.00000000000E+00 0. -1.
</event>
<event>
 8    1  0.7224924E-009  0.1338398E+03  0.7561462E-02  0.1221867E+00
         -1   -1    0    0    0  501 -0.00000000000E+00  0.00000000000E+00  0.58697199347E+03  0.58697199347E+03  0.00000000000E+00 0.  1.
          1   -1    0    0  501    0  0.00000000000E+00 -0.00000000000E+00 -0.48636527173E+02  0.48636527173E+02  0.00000000000E+00 0. -1.
         25    2    1    2    0    0 -0.91212653637E+02  0.18669777812E+00  0.11465960799E+03  0.19265284963E+03  0.12509401156E+03 0.  0.
         23    2    1    2    0    0  0.91212653637E+02 -0.18669777812E+00  0.42367585830E+03  0.44295567101E+03  0.91589904083E+02 0.  0.
          5    1    3    3  502    0 -0.72970329802E+02  0.48848650630E+02  0.10926212832E+03  0.14023745856E+03  0.41800000000E+01 0.  1.
         -5    1    3    3    0  502 -0.18242323836E+02 -0.48661952852E+02  0.53974796754E+01  0.52415391071E+02  0.41800000000E+01 0.  1.
        -11    1    4    4    0    0 -0.16931684957E+02  0.88602024971E+01  0.92469105422E+02  0.94423093580E+02  0.00000000000E+00 0.  1.
         11    1    4    4    0    0  0.10814433859E+03 -0.90469002752E+01  0.33120675288E+03  0.34853257743E+03  0.00000000000E+00 0. -1.
</event>
<event>
 8    1  0.7224924E-009  0.1131605E+03  0.7561462E-02  0.1254827E+00
         -3   -1    0    0    0  501 -0.00000000000E+00  0.00000000000E+00  0.18677003998E+03  0.18677003998E+03  0.00000000000E+00 0. -1.
          3   -1    0    0  501    0  0.00000000000E+00 -0.00000000000E+00 -0.83979770033E+02  0.83979770033E+02  0.00000000000E+00 0.  1.
         25    2    1    2    0    0 -0.37863591934E+02 -0.47320500183E+02  0.28914644052E+02  0.14197553933E+03  0.12509242901E+03 0.  0.
         23    2    1    2    0    0  0.37863591934E+02  0.47320500183E+02  0.73875625894E+02  0.12877427068E+03  0.86326840301E+02 0.  0.
          5    1    3    3  502    0  0.44120160761E+02 -0.97152236135E+00  0.42522078849E+01  0.44531855038E+02  0.41800000000E+01 0.  1.
         -5    1    3    3    0  502 -0.81983752695E+02 -0.46348977821E+02  0.24662436167E+02  0.97443684293E+02  0.41800000000E+01 0.  1.
        -11    1    4    4    0    0  0.12894569144E+01  0.50951345337E+02  0.56517078197E+01  0.51280055500E+02  0.00000000000E+00 0.  1.
         11    1    4    4    0    0  0.36574135020E+02 -0.36308451549E+01  0.68223918074E+02  0.77494215180E+02  0.00000000000E+00 0. -1.
</event>
<event>
 8    1  0.7224924E-009  0.9001883E+02  0.7561462E-02  0.1302806E+00
          1   -1    0    0  501    0  0.00000000000E+00  0.00000000000E+00  0.47453638805E+03  0.47453638805E+03  0.00000000000E+00 0. -1.
         -1   -1    0    0    0  501 -0.00000000000E+00 -0.00000000000E+00 -0.51097268552E+02  0.51097268552E+02  0.00000000000E+00 0.  1.
         25    2    1    2    0    0 -0.66111981752E+02 -0.47590376594E+02  0.35190755506E+03  0.38225896720E+03  0.12508937854E+03 0.  0.
         23    2    1    2    0    0  0.66111981752E+02  0.47590376594E+02  0.71531564443E+02  0.14337468940E+03  0.93829093432E+02 0.  0.
          5    1    3    3  502    0 -0.13328274365E+02 -0.15237006290E+02 -0.39390604551E+01  0.21042762544E+02  0.41800000000E+01 0.  1.
         -5    1    3    3    0  502 -0.52783707387E+02 -0.32353370304E+02  0.35584661551E+03  0.36121620466E+03  0.41800000000E+01 0.  1.
        -11    1    4    4    0    0  0.40388240734E+02  0.57057383770E+02  0.34591697653E+01  0.69990862888E+02  0.00000000000E+00 0.  1.
         11    1    4    4    0    0  0.25723741017E+02 -0.94670071765E+01  0.68072394678E+02  0.73383826515E+02  0.00000000000E+00 0. -1.
</event>
<event>
 8    1  0.7224924E-009  0.1229674E+03  0.7561462E-02  0.1238281E+00
          2   -1    0    0  501    0  0.00000000000E+00  0.00000000000E+00  0.73925186377E+03  0.73925186377E+03  0.00000000000E+00 0. -1.
         -2   -1    0    0    0  501 -0.00000000000E+00 -0.00000000000E+00 -0.34403814117E+02  0.34403814117E+02  0.00000000000E+00 0.  1.
         25    2    1    2    0    0  0.73820901448E+02 -0.64200211976E+02  0.22171348526E+03  0.27271973548E+03  0.12509193367E+03 0.  0.
         23    2    1    2    0    0 -0.73820901448E+02  0.64200211976E+02  0.48313456439E+03  0.50093594240E+03  0.89143807241E+02 0.  0.
          5    1    3    3  502    0 -0.15105250346E+01  0.12934759840E+02 -0.10115511443E+02  0.17011339446E+02  0.41800000000E+01 0. -1.
         -5    1    3    3    0  502  0.75331426482E+02 -0.77134971816E+02  0.23182899670E+03  0.25570839604E+03  0.41800000000E+01 0. -1.
        -11    1    4    4    0    0  0.13208617305E+02  0.26309217873E+02  0.54765121187E+02  0.62176048562E+02  0.00000000000E+00 0.  1.
         11    1    4    4    0    0 -0.87029518753E+02  0.37890994103E+02  0.42836944321E+03  0.43875989384E+03  0.00000000000E+00 0. -1.
</event>
<event>
 8    1  0.7224924E-009  0.1700217E+03  0.7561462E-02  0.1177825E+00
         -2   -1    0    0    0  501 -0.00000000000E+00  0.00000000000E+00  0.21057811973E+03  0.21057811973E+03  0.00000000000E+00 0.  1.
          2   -1    0    0  501    0  0.00000000000E+00 -0.00000000000E+00 -0.17283537938E+03  0.17283537938E+03  0.00000000000E+00 0. -1.
         25    2    1    2    0    0  0.11203407661E+03 -0.10348319876E+03  0.49955556285E+02  0.20347963088E+03  0.12509194950E+03 0.  0.
         23    2    1    2    0    0 -0.11203407661E+03  0.10348319876E+03 -0.12212815942E+02  0.17993386824E+03  0.94692329768E+02 0.  0.
          5    1    3    3  502    0  0.20295866363E+02 -0.64479006851E+02  0.74549170436E+02  0.10071998674E+03  0.41800000000E+01 0. -1.
         -5    1    3    3    0  502  0.91738210247E+02 -0.39004191912E+02 -0.24593614152E+02  0.10275964414E+03  0.41800000000E+01 0. -1.
        -11    1    4    4    0    0 -0.64986303449E+02  0.10718846242E+03  0.13696664178E+02  0.12609593460E+03  0.00000000000E+00 0.  1.
         11    1    4    4    0    0 -0.47047773161E+02 -0.37052636603E+01 -0.25909480120E+02  0.53837933637E+02  0.00000000000E+00 0. -1.
</event>
<event>
 8    1  0.7224924E-009  0.1722048E+03  0.7561462E-02  0.1175568E+00
          2   -1    0    0  501    0  0.00000000000E+00  0.00000000000E+00  0.14439361016E+04  0.14439361016E+04  0.00000000000E+00 0. -1.
         -2   -1    0    0    0  501 -0.00000000000E+00 -0.00000000000E+00 -0.34335464567E+02  0.34335464567E+02  0.00000000000E+00 0.  1.
         25    2    1    2    0    0 -0.11159973129E+03  0.10564465504E+03  0.11224777708E+04  0.11398323684E+04  0.12508472643E+03 0.  0.
         23    2    1    2    0    0  0.11159973129E+03 -0.10564465504E+03  0.28712286617E+03  0.33843919778E+03  0.92120883358E+02 0.  0.
          5    1    3    3  502    0 -0.18448473582E+02 -0.12008417087E+02  0.31969125938E+02  0.39039027545E+02  0.41800000000E+01 0. -1.
         -5    1    3    3    0  502 -0.93151257711E+02  0.11765307212E+03  0.10905086449E+04  0.11007933408E+04  0.41800000000E+01 0. -1.
        -11    1    4    4    0    0  0.11864810713E+03 -0.74838841162E+02  0.18911734325E+03  0.23546463639E+03  0.00000000000E+00 0.  1.
         11    1    4    4    0    0 -0.70483758329E+01 -0.30805813875E+02  0.98005522918E+02  0.10297456139E+03  0.00000000000E+00 0. -1.
</event>
<event>
 8    1  0.7224924E-009  0.3237201E+03  0.7561462E-02  0.1073950E+00
          2   -1    0    0  501    0  0.00000000000E+00  0.00000000000E+00  0.92615631573E+03  0.92615631573E+03  0.00000000000E+00 0.  1.
         -2   -1    0    0    0  501 -0.00000000000E+00 -0.00000000000E+00 -0.12540355291E+03  0.12540355291E+03  0.00000000000E+00 0. -1.
         25    2    1    2    0    0 -0.49004394503E+02 -0.31558035329E+03  0.33841864020E+03  0.48183655883E+03  0.12508758262E+03 0.  0.
         23    2    1    2    0    0  0.49004394503E+02  0.31558035329E+03  0.46233412261E+03  0.56972330981E+03  0.94018183099E+02 0.  0.
          5    1    3    3  502    0 -0.13857137702E+02 -0.19214197936E+03  0.28207753384E+03  0.34160762286E+03  0.41800000000E+01 0.  1.
         -5    1    3    3    0  502 -0.35147256801E+02 -0.12343837392E+03  0.56341106368E+02  0.14022893597E+03  0.41800000000E+01 0.  1.
        -11    1    4    4    0    0  0.57361288836E+02  0.15067837164E+03  0.28484454319E+03  0.32730826895E+03  0.00000000000E+00 0.  1.
         11    1    4    4    0    0 -0.83568943328E+01  0.16490198165E+03  0.17748957942E+03  0.24241504086E+03  0.00000000000E+00 0. -1.
</event>
<event>
 8    1  0.7224924E-009  0.1951062E+03  0.7561462E-02  0.1153935E+00
          1   -1    0    0  501    0  0.00000000000E+00  0.00000000000E+00  0.15156347827E+03  0.15156347827E+03  0.00000000000E+00 0. -1.
         -1   -1    0    0    0  501 -0.00000000000E+00 -0.00000000000E+00 -0.29921406479E+03  0.29921406479E+03  0.00000000000E+00 0.  1.
         25    2    1    2    0    0 -0.77551284969E+02  0.14924494033E+03 -0.15506774829E+03  0.26072870916E+03  0.12508077072E+03 0.  0.
         23    2    1    2    0    0  0.77551284969E+02 -0.14924494033E+03  0.74171617723E+01  0.19004883390E+03  0.88177610338E+02 0.  0.
          5    1    3    3  502    0  0.12429705877E+02 -0.16015133117E+02 -0.22119118027E+02  0.30293726400E+02  0.41800000000E+01 0. -1.
         -5    1    3    3    0  502 -0.89980990846E+02  0.16526007345E+03 -0.13294863026E+03  0.23043498276E+03  0.41800000000E+01 0. -1.
        -11    1    4    4    0    0  0.86308040669E+02 -0.10369372412E+03 -0.19661634566E+02  0.13633798510E+03  0.00000000000E+00 0.  1.
         11    1    4    4    0    0 -0.87567557003E+01 -0.45551216205E+02  0.27078796339E+02  0.53710848805E+02  0.00000000000E+00 0. -1.
</event>
<event>
 8    1  0.7224924E-009  0.1171673E+03  0.7561462E-02  0.1247845E+00
          2   -1    0    0  501    0  0.00000000000E+00  0.00000000000E+00  0.13883531843E+04  0.13883531843E+04  0.00000000000E+00 0. -1.
         -2   -1    0    0    0  501 -0.00000000000E+00 -0.00000000000E+00 -0.15929907404E+02  0.15929907404E+02  0.00000000000E+00 0.  1.
         25    2    1    2    0    0 -0.83856599261E+02  0.57219834822E+02  0.71008323301E+03  0.72812924972E+03  0.12509183729E+03 0.  0.
         23    2    1    2    0    0  0.83856599261E+02 -0.57219834822E+02  0.66234004384E+03  0.67615384194E+03  0.90463504008E+02 0.  0.
          5    1    3    3  502    0 -0.46709220575E+02  0.41529566900E+02  0.10928576532E+03  0.12596549970E+03  0.41800000000E+01 0.  1.
         -5    1    3    3    0  502 -0.37147378686E+02  0.15690267922E+02  0.60079746769E+03  0.60216375002E+03  0.41800000000E+01 0.  1.
        -11    1    4    4    0    0  0.40602486366E+02 -0.74281944041E+02  0.50647452095E+03  0.51350054477E+03  0.00000000000E+00 0. -1.
         11    1    4    4    0    0  0.43254112895E+02  0.17062109219E+02  0.15586552289E+03  0.16265329717E+03  0.00000000000E+00 0.  1.
</event>
<event>
 8    1  0.7224924E-009  0.1916371E+03  0.7561462E-02  0.1156993E+00
         -1   -1    0    0    0  501 -0.00000000000E+00  0.00000000000E+00  0.96012963825E+02  0.96012963825E+02  0.00000000000E+00 0.  1.
          1   -1    0    0  501    0  0.00000000000E+00 -0.00000000000E+00 -0.45210024024E+03  0.45210024024E+03  0.00000000000E+00 0. -1.
         25    2    1    2    0    0  0.93986541183E+02 -0.14947259316E+03 -0.18552823313E+03  0.28503288127E+03  0.12508993599E+03 0.  0.
         23    2    1    2    0    0 -0.93986541183E+02  0.14947259316E+03 -0.17055904329E+03  0.26308032280E+03  0.94579823263E+02 0.  0.
          5    1    3    3  502    0  0.10990846892E+03 -0.15283683219E+03 -0.13474963257E+03  0.23154676567E+03  0.41800000000E+01 0. -1.
         -5    1    3    3    0  502 -0.15921927736E+02  0.33642390300E+01 -0.50778600557E+02  0.53486115596E+02  0.41800000000E+01 0. -1.
        -11    1    4    4    0    0 -0.61328226949E+02  0.75192592732E+02 -0.31387573394E+02  0.10198165122E+03  0.00000000000E+00 0.  1.
         11    1    4    4    0    0 -0.32658314235E+02  0.74280000428E+02 -0.13917146989E+03  0.16109867158E+03  0.00000000000E+00 0. -1.
</event>
<event>
 8    1  0.7224924E-009  0.3992144E+03  0.7561462E-02  0.1044052E+00
          1   -1    0    0  501    0  0.00000000000E+00  0.00000000000E+00  0.18712361156E+04  0.18712361156E+04  0.00000000000E+00 0. -1.
         -1   -1    0    0    0  501 -0.00000000000E+00 -0.00000000000E+00 -0.86037003718E+02  0.86037003718E+02  0.00000000000E+00 0.  1.
         25    2    1    2    0    0  0.21426643839E+03  0.32090366984E+03  0.92660511298E+03  0.10115003720E+04  0.12508675096E+03 0.  0.
         23    2    1    2    0    0 -0.21426643839E+03 -0.32090366984E+03  0.85859399893E+03  0.94577274732E+03  0.91723293882E+02 0.  0.
          5    1    3    3  502    0  0.21409023121E+03  0.24311659819E+03  0.68714775709E+03  0.75969060801E+03  0.41800000000E+01 0.  1.
         -5    1    3    3    0  502  0.17620717271E+00  0.77787071653E+02  0.23945735589E+03  0.25180976402E+03  0.41800000000E+01 0.  1.
        -11    1    4    4    0    0 -0.18446355239E+03 -0.20018645262E+03  0.59672400245E+03  0.65588181334E+03  0.00000000000E+00 0. -1.
         11    1    4    4    0    0 -0.29802886001E+02 -0.12071721722E+03  0.26186999648E+03  0.28989093398E+03  0.00000000000E+00 0.  1.
</event>
<event>
 8    1  0.7224924E-009  0.1092103E+03  0.7561462E-02  0.1262039E+00
         -1   -1    0    0    0  501 -0.00000000000E+00  0.00000000000E+00  0.23747324797E+02  0.23747324797E+02  0.00000000000E+00 0.  1.
          1   -1    0    0  501    0  0.00000000000E+00 -0.00000000000E+00 -0.59859044860E+03  0.59859044860E+03  0.00000000000E+00 0. -1.
         25    2    1    2    0    0  0.15396167243E+02 -0.29973700169E+02 -0.43364233118E+03  0.45258295104E+03  0.12510072545E+03 0.  0.
         23    2    1    2    0    0 -0.15396167243E+02  0.29973700169E+02 -0.14120079262E+03  0.16975482236E+03  0.87997563661E+02 0.  0.
          5    1    3    3  502    0  0.12131479070E+02  0.46220334607E+02 -0.23318545239E+03  0.23806809892E+03  0.41800000000E+01 0. -1.
         -5    1    3    3    0  502  0.32646881728E+01 -0.76194034776E+02 -0.20045687879E+03  0.21451485212E+03  0.41800000000E+01 0. -1.
        -11    1    4    4    0    0 -0.40246932449E+02  0.48538768300E+02 -0.99135667212E+02  0.11748918296E+03  0.00000000000E+00 0.  1.
         11    1    4    4    0    0  0.24850765206E+02 -0.18565068131E+02 -0.42065125409E+02  0.52265639398E+02  0.00000000000E+00 0. -1.
</event>
<event>
 8    1  0.7224924E-009  0.1006295E+03  0.7561462E-02  0.1278978E+00
          1   -1    0    0  501    0  0.00000000000E+00  0.00000000000E+00  0.21055212572E+03  0.21055212572E+03  0.00000000000E+00 0. -1.
         -1   -1    0    0    0  501 -0.00000000000E+00 -0.00000000000E+00 -0.95215918519E+02  0.95215918519E+02  0.00000000000E+00 0.  1.
         25    2    1    2    0    0  0.24915368292E+02 -0.83459603437E+02  0.31010928474E+02  0.15554853382E+03  0.12508951877E+03 0.  0.
         23    2    1    2    0    0 -0.24915368292E+02  0.83459603437E+02  0.84325278728E+02  0.15021951042E+03  0.88706638394E+02 0.  0.
          5    1    3    3  502    0  0.16186360708E+02 -0.86850121996E+02  0.71531482596E+02  0.11375046095E+03  0.41800000000E+01 0.  1.
         -5    1    3    3    0  502  0.87290075834E+01  0.33905185589E+01 -0.40520554122E+02  0.41798072872E+02  0.41800000000E+01 0.  1.
        -11    1    4    4    0    0 -0.42078076345E+02  0.53909269767E+02  0.10924859702E+02  0.69254071614E+02  0.00000000000E+00 0.  1.
         11    1    4    4    0    0  0.17162708053E+02  0.29550333670E+02  0.73400419026E+02  0.80965438805E+02  0.00000000000E+00 0. -1.
</event>
<event>
 8    1  0.7224924E-009  0.8297932E+02  0.7561462E-02  0.1320803E+00
         -1   -1    0    0    0  501 -0.00000000000E+00  0.00000000000E+00  0.64627404044E+02  0.64627404044E+02  0.00000000000E+00 0.  1.
          1   -1    0    0  501    0  0.00000000000E+00 -0.00000000000E+00 -0.21691810082E+03  0.21691810082E+03  0.00000000000E+00 0. -1.
         25    2    1    2    0    0  0.32178678651E+02 -0.34043970199E+02 -0.81325691274E+02  0.15639047993E+03  0.12509858067E+03 0.  0.
         23    2    1    2    0    0 -0.32178678651E+02  0.34043970199E+02 -0.70965005505E+02  0.12515502494E+03  0.91832940680E+02 0.  0.
          5    1    3    3  502    0 -0.87132487988E+01 -0.22211317854E+02 -0.10482432403E+03  0.10758659142E+03  0.41800000000E+01 0. -1.
         -5    1    3    3    0  502  0.40891927450E+02 -0.11832652345E+02  0.23498632757E+02  0.48803888508E+02  0.41800000000E+01 0. -1.
        -11    1    4    4    0    0  0.86967171805E+01 -0.25384629197E+02 -0.47666314239E+01  0.27253129441E+02  0.00000000000E+00 0.  1.
         11    1    4    4    0    0 -0.40875395831E+02  0.59428599397E+02 -0.66198374081E+02  0.97901895496E+02  0.00000000000E+00 0. -1.
</event>
<event>
 8    1  0.7224924E-009  0.1109614E+03  0.7561462E-02  0.1258800E+00
         -1   -1    0    0    0  501 -0.00000000000E+00  0.00000000000E+00  0.78654414307E+02  0.78654414307E+02  0.00000000000E+00 0.  1.
          1   -1    0    0  501    0  0.00000000000E+00 -0.00000000000E+00 -0.21414662183E+03  0.21414662183E+03  0.00000000000E+00 0. -1.
         25    2    1    2    0    0  0.15454711583E+02  0.63400178185E+02 -0.35314384178E+02  0.14544015373E+03  0.12508917572E+03 0.  0.
         23    2    1    2    0    0 -0.15454711583E+02 -0.63400178185E+02 -0.10017782334E+03  0.14736088241E+03  0.86146402538E+02 0.  0.
          5    1    3    3  502    0  0.65226260695E+02  0.61141627080E+02 -0.32996312266E+02  0.95388640149E+02  0.41800000000E+01 0.  1.
         -5    1    3    3    0  502 -0.49771549112E+02  0.22585511045E+01 -0.23180719113E+01  0.50051513578E+02  0.41800000000E+01 0.  1.
        -11    1    4    4    0    0 -0.34062138800E+02 -0.41353909183E+02 -0.12439128625E+02  0.55000972948E+02  0.00000000000E+00 0.  1.
         11    1    4    4    0    0  0.18607427216E+02 -0.22046269002E+02 -0.87738694719E+02  0.92359909460E+02  0.00000000000E+00 0. -1.
</event>
<event>
 8    1  0.7224924E-009  0.2339647E+03  0.7561462E-02  0.1123880E+00
          1   -1    0    0  501    0  0.00000000000E+00  0.00000000000E+00  0.22653490629E+03  0.22653490629E+03  0.00000000000E+00 0. -1.
         -1   -1    0    0    0  501 -0.00000000000E+00 -0.00000000000E+00 -0.26287359442E+03  0.26287359442E+03  0.00000000000E+00 0.  1.
         25    2    1    2    0    0  0.88970715714E+02 -0.19506133908E+03  0.25496946338E+02  0.24953431387E+03  0.12511021247E+03 0.  0.
         23    2    1    2    0    0 -0.88970715714E+02  0.19506133908E+03 -0.61835634467E+02  0.23987418685E+03  0.88041271960E+02 0.  0.
          5    1    3    3  502    0  0.10927451273E+03 -0.19491888603E+03  0.10127634602E+02  0.22372825625E+03  0.41800000000E+01 0. -1.
         -5    1    3    3    0  502 -0.20303797018E+02 -0.14245305326E+00  0.15369311736E+02  0.25806057612E+02  0.41800000000E+01 0. -1.
        -11    1    4    4    0    0 -0.52544152247E+02  0.17369812055E+03 -0.73921577381E+02  0.19594980127E+03  0.00000000000E+00 0. -1.
         11    1    4    4    0    0 -0.36426563468E+02  0.21363218535E+02  0.12085942914E+02  0.43924385577E+02  0.00000000000E+00 0.  1.
</event>
<event>
 8    1  0.7224924E-009  0.1151002E+03  0.7561462E-02  0.1251406E+00
         -1   -1    0    0    0  501 -0.00000000000E+00  0.00000000000E+00  0.16276200085E+03  0.16276200085E+03  0.00000000000E+00 0.  1.
          1   -1    0    0  501    0  0.00000000000E+00 -0.00000000000E+00 -0.11360211253E+03  0.11360211253E+03  0.00000000000E+00 0. -1.
         25    2    1    2    0    0 -0.64700327482E+02 -0.40515437110E+02 -0.59534779945E+01  0.14666104070E+03  0.12508550651E+03 0.  0.
         23    2    1    2    0    0  0.64700327482E+02  0.40515437110E+02  0.55113366315E+02  0.12970307268E+03  0.89206338879E+02 0.  0.
          5    1    3    3  502    0 -0.88397775288E+02  0.13684685573E+01  0.21526314872E+02  0.91087287884E+02  0.41800000000E+01 0.  1.
         -5    1    3    3    0  502  0.23697447806E+02 -0.41883905667E+02 -0.27479792866E+02  0.55573752819E+02  0.41800000000E+01 0.  1.
        -11    1    4    4    0    0 -0.96961230967E+01  0.36586676242E+01 -0.16882263542E+02  0.19809378440E+02  0.00000000000E+00 0. -1.
         11    1    4    4    0    0  0.74396450579E+02  0.36856769485E+02  0.71995629857E+02  0.10989369424E+03  0.00000000000E+00 0.  1.
</event>
<event>
 8    1  0.7224924E-009  0.9278650E+02  0.7561462E-02  0.1296241E+00
         -1   -1    0    0    0  501 -0.00000000000E+00  0.00000000000E+00  0.20097347875E+03  0.20097347875E+03  0.00000000000E+00 0.  1.
          1   -1    0    0  501    0  0.00000000000E+00 -0.00000000000E+00 -0.87974564742E+02  0.87974564742E+02  0.00000000000E+00 0. -1.
         25    2    1    2    0    0 -0.13906508717E+01 -0.46006092809E+02  0.12874750188E+03  0.18531510977E+03  0.12508907299E+03 0.  0.
         23    2    1    2    0    0  0.13906508717E+01  0.46006092809E+02 -0.15748587878E+02  0.10363293372E+03  0.91505586963E+02 0.  0.
          5    1    3    3  502    0  0.31302209812E+02  0.59455496302E+00  0.12409050511E+03  0.12804728694E+03  0.41800000000E+01 0.  1.
         -5    1    3    3    0  502 -0.32692860683E+02 -0.46600647772E+02  0.46569967715E+01  0.57267822827E+02  0.41800000000E+01 0.  1.
        -11    1    4    4    0    0 -0.41746559566E+02  0.17891885906E+02  0.93186364104E+01  0.46365200327E+02  0.00000000000E+00 0.  1.
         11    1    4    4    0    0  0.43137210438E+02  0.28114206904E+02 -0.25067224289E+02  0.57267733391E+02  0.00000000000E+00 0. -1.
</event>
<event>
 8    1  0.7224924E-009  0.1641482E+03  0.7561462E-02  0.1184091E+00
         -1   -1    0    0    0  501 -0.00000000000E+00  0.00000000000E+00  0.84884665969E+02  0.84884665969E+02  0.00000000000E+00 0.  1.
          1   -1    0    0  501    0  0.00000000000E+00 -0.00000000000E+00 -0.41444975302E+03  0.41444975302E+03  0.00000000000E+00 0. -1.
         25    2    1    2    0    0 -0.13377626494E+03 -0.66660556111E+02 -0.13143088396E+03  0.23507765006E+03  0.12509078902E+03 0.  0.
         23    2    1    2    0    0  0.13377626494E+03  0.66660556111E+02 -0.19813420309E+03  0.26425676893E+03  0.90745571163E+02 0.  0.
          5    1    3    3  502    0 -0.45683071999E+02 -0.75891275225E+02 -0.16971574801E+02  0.90288069388E+02  0.41800000000E+01 0. -1.
         -5    1    3    3    0  502 -0.88093192946E+02  0.92307191144E+01 -0.11445930916E+03  0.14478958067E+03  0.41800000000E+01 0. -1.
        -11    1    4    4    0    0  0.24813123420E+02  0.36685348167E+01 -0.10428193956E+03  0.10725610546E+03  0.00000000000E+00 0. -1.
         11    1    4    4    0    0  0.10896314152E+03  0.62992021294E+02 -0.93852263538E+02  0.15700066347E+03  0.00000000000E+00 0.  1.
</event>
<event>
 8    1  0.7224924E-009  0.8583564E+02  0.7561462E-02  0.1313262E+00
         -2   -1    0    0    0  501 -0.00000000000E+00  0.00000000000E+00  0.51427353034E+02  0.51427353034E+02  0.00000000000E+00 0.  1.
          2   -1    0    0  501    0  0.00000000000E+00 -0.00000000000E+00 -0.36548869300E+03  0.36548869300E+03  0.00000000000E+00 0. -1.
         25    2    1    2    0    0  0.59384794388E+02 -0.57438951214E+02 -0.19202090484E+03  0.24360872941E+03  0.12508956082E+03 0.  0.
         23    2    1    2    0    0 -0.59384794388E+02  0.57438951214E+02 -0.12204043513E+03  0.17330731663E+03  0.91190850799E+02 0.  0.
          5    1    3    3  502    0  0.58038865615E+02 -0.43908947954E+02 -0.20906448877E+03  0.22140898468E+03  0.41800000000E+01 0.  1.
         -5    1    3    3    0  502  0.13459287732E+01 -0.13530003259E+02  0.17043583935E+02  0.22199744724E+02  0.41800000000E+01 0.  1.
        -11    1    4    4    0    0 -0.16624361495E+02  0.60364791290E+01  0.13448169049E+02  0.22218499638E+02  0.00000000000E+00 0.  1.
         11    1    4    4    0    0 -0.42760432893E+02  0.51402472085E+02 -0.13548860418E+03  0.15108881699E+03  0.00000000000E+00 0. -1.
</event>
<event>
 8    1  0.7224924E-009  0.1166615E+03  0.7561462E-02  0.1248708E+00
         -1   -1    0    0    0  501 -0.00000000000E+00  0.00000000000E+00  0.74887762768E+02  0.74887762768E+02  0.00000000000E+00 0.  1.
          1   -1    0    0  501    0  0.00000000000E+00 -0.00000000000E+00 -0.22898902660E+03  0.22898902660E+03  0.00000000000E+00 0. -1.
         25    2    1    2    0    0 -0.59443436810E+02  0.31147803463E+02 -0.10423834832E+03  0.17611496011E+03  0.12508852096E+03 0.  0.
         23    2    1    2    0    0  0.59443436810E+02 -0.31147803463E+02 -0.49862915521E+02  0.12776182926E+03  0.96607799019E+02 0.  0.
          5    1    3    3  502    0 -0.64964719398E+02  0.58628243780E+02 -0.23730830643E+02  0.90765139003E+02  0.41800000000E+01 0.  1.
         -5    1    3    3    0  502  0.55212825887E+01 -0.27480440316E+02 -0.80507517674E+02  0.85349821109E+02  0.41800000000E+01 0.  1.
        -11    1    4    4    0    0 -0.18386427932E+02 -0.34908657093E+02 -0.12827929256E+02  0.41487719161E+02  0.00000000000E+00 0.  1.
         11    1    4    4    0    0  0.77829864742E+02  0.37608536300E+01 -0.37034986264E+02  0.86274110099E+02  0.00000000000E+00 0. -1.
</event>
<event>
 8    1  0.7224924E-009  0.1456887E+03  0.7561462E-02  0.1205873E+00
          2   -1    0    0  501    0  0.00000000000E+00  0.00000000000E+00  0.15560743617E+03  0.15560743617E+03  0.00000000000E+00 0. -1.
         -2   -1    0    0    0  501 -0.00000000000E+00 -0.00000000000E+00 -0.24372666500E+03  0.24372666500E+03  0.00000000000E+00 0.  1.
         25    2    1    2    0    0 -0.21519959475E+02  0.10464276920E+03 -0.17019310681E+03  0.23669293090E+03  0.12507850386E+03 0.  0.
         23    2    1    2    0    0  0.21519959475E+02 -0.10464276920E+03  0.82073877988E+02  0.16264117027E+03  0.91119761951E+02 0.  0.
          5    1    3    3  502    0  0.45296286080E+02  0.58882046712E+02 -0.43261514689E+02  0.86069042116E+02  0.41800000000E+01 0. -1.
         -5    1    3    3    0  502 -0.66816245555E+02  0.45760722489E+02 -0.12693159212E+03  0.15062388878E+03  0.41800000000E+01 0. -1.
        -11    1    4    4    0    0  0.49866849485E+02 -0.35678360959E+02  0.57699138985E+02  0.84195241896E+02  0.00000000000E+00 0. -1.
         11    1    4    4    0    0 -0.28346890011E+02 -0.68964408242E+02  0.24374739003E+02  0.78445928377E+02  0.00000000000E+00 0.  1.
</event>
<event>
 8    1  0.7224924E-009  0.1033510E+03  0.7561462E-02  0.1273403E+00
         -1   -1    0    0    0  501 -0.00000000000E+00  0.00000000000E+00  0.16540193971E+03  0.16540193971E+03  0.00000000000E+00 0.  1.
          1   -1    0    0  501    0  0.00000000000E+00 -0.00000000000E+00 -0.82876420079E+02  0.82876420079E+02  0.00000000000E+00 0. -1.
         25    2    1    2    0    0  0.28168126263E+02  0.35307221024E+02  0.56567049263E+02  0.14451309601E+03  0.12507661917E+03 0.  0.
         23    2    1    2    0    0 -0.28168126263E+02 -0.35307221024E+02  0.25958470365E+02  0.10376526378E+03  0.89740428957E+02 0.  0.
          5    1    3    3  502    0  0.63679794164E+02  0.30659028364E+02  0.75737474371E+02  0.10367608031E+03  0.41800000000E+01 0. -1.
         -5    1    3    3    0  502 -0.35511667901E+02  0.46481926598E+01 -0.19170425108E+02  0.40837015696E+02  0.41800000000E+01 0. -1.
        -11    1    4    4    0    0  0.30875807096E+02 -0.25388511376E+02  0.16069988735E+02  0.43082902777E+02  0.00000000000E+00 0.  1.
         11    1    4    4    0    0 -0.59043933359E+02 -0.99187096474E+01  0.98884816308E+01  0.60682361000E+02  0.00000000000E+00 0. -1.
</event>
<event>
 8    1  0.7224924E-009  0.9388820E+02  0.7561462E-02  0.1293700E+00
         -1   -1    0    0    0  501 -0.00000000000E+00  0.00000000000E+00  0.52038131086E+02  0.52038131086E+02  0.00000000000E+00 0.  1.
          1   -1    0    0  501    0  0.00000000000E+00 -0.00000000000E+00 -0.27744026010E+03  0.27744026010E+03  0.00000000000E+00 0. -1.
         25    2    1    2    0    0 -0.15601984178E+02 -0.48757588866E+02 -0.12297628237E+03  0.18273539285E+03  0.12509329875E+03 0.  0.
         23    2    1    2    0    0  0.15601984178E+02  0.48757588866E+02 -0.10242584664E+03  0.14674299833E+03  0.91769979386E+02 0.  0.
          5    1    3    3  502    0 -0.28724030339E+02 -0.88343792308E+02 -0.89919563791E+02  0.12935492225E+03  0.41800000000E+01 0. -1.
         -5    1    3    3    0  502  0.13122046161E+02  0.39586203442E+02 -0.33056718580E+02  0.53380470602E+02  0.41800000000E+01 0. -1.
        -11    1    4    4    0    0  0.57921691677E+00  0.23343742855E+02  0.13598320301E+02  0.27021845565E+02  0.00000000000E+00 0.  1.
         11    1    4    4    0    0  0.15022767261E+02  0.25413846010E+02 -0.11602416694E+03  0.11972115276E+03  0.00000000000E+00 0. -1.
</event>
<event>
 8    1  0.7224924E-009  0.9817640E+02  0.7561462E-02  0.1284178E+00
         -2   -1    0    0    0  501 -0.00000000000E+00  0.00000000000E+00  0.89179745604E+02  0.89179745604E+02  0.00000000000E+00 0.  1.
          2   -1    0    0  501    0  0.00000000000E+00 -0.00000000000E+00 -0.16252302132E+03  0.16252302132E+03  0.00000000000E+00 0. -1.
         25    2    1    2    0    0  0.24444012486E+02 -0.13455994175E+02  0.46969068915E+01  0.12825308008E+03  0.12509283789E+03 0.  0.
         23    2    1    2    0    0 -0.24444012486E+02  0.13455994175E+02 -0.78040182605E+02  0.12344968684E+03  0.91493068336E+02 0.  0.
          5    1    3    3  502    0  0.29571396275E+02  0.38580076296E+02  0.41600961183E+02  0.64117097065E+02  0.41800000000E+01 0.  1.
         -5    1    3    3    0  502 -0.51273837885E+01 -0.52036070471E+02 -0.36904054292E+02  0.64135983019E+02  0.41800000000E+01 0.  1.
        -11    1    4    4    0    0 -0.17940096529E+02  0.52523981642E+02 -0.51952633343E+02  0.76024284425E+02  0.00000000000E+00 0.  1.
         11    1    4    4    0    0 -0.65039159568E+01 -0.39067987467E+02 -0.26087549262E+02  0.47425402413E+02  0.00000000000E+00 0. -1.
</event>
<event>
 8    1  0.7224924E-009  0.1593415E+03  0.7561462E-02  0.1189442E+00
         -4   -1    0    0    0  501 -0.00000000000E+00  0.00000000000E+00  0.47926102620E+02  0.47926102620E+02  0.00000000000E+00 0. -1.
          4   -1    0    0  501    0  0.00000000000E+00 -0.00000000000E+00 -0.64228504719E+03  0.64228504719E+03  0.00000000000E+00 0.  1.
         25    2    1    2    0    0 -0.10525942643E+03  0.67107573006E+02 -0.20110476082E+03  0.26772188326E+03  0.12509559841E+03 0.  0.
         23    2    1    2    0    0  0.10525942643E+03 -0.67107573006E+02 -0.39325418375E+03  0.42248926655E+03  0.90913992911E+02 0.  0.
          5    1    3    3  502    0 -0.37712450831E+02  0.89791324062E+02 -0.15381055489E+03  0.18209851735E+03  0.41800000000E+01 0. -1.
         -5    1    3    3    0  502 -0.67546975604E+02 -0.22683751057E+02 -0.47294205928E+02  0.85623365909E+02  0.41800000000E+01 0. -1.
        -11    1    4    4    0    0  0.56439649736E+02 -0.81314582833E+02 -0.20745724223E+03  0.22986083354E+03  0.00000000000E+00 0. -1.
         11    1    4    4    0    0  0.48819776699E+02  0.14207009828E+02 -0.18579694152E+03  0.19262843301E+03  0.00000000000E+00 0.  1.
</event>
<event>
 8    1  0.7224924E-009  0.1731527E+03  0.7561462E-02  0.1174599E+00
         -4   -1    0    0    0  501 -0.00000000000E+00  0.00000000000E+00  0.49604092061E+03  0.49604092061E+03  0.00000000000E+00 0.  1.
          4   -1    0    0  501    0  0.00000000000E+00 -0.00000000000E+00 -0.10536151893E+03  0.10536151893E+03  0.00000000000E+00 0. -1.
         25    2    1    2    0    0 -0.16649998858E+03 -0.12336793049E+02  0.34890806950E+03  0.40652239558E+03  0.12509666057E+03 0.  0.
         23    2    1    2    0    0  0.16649998858E+03  0.12336793049E+02  0.41771332185E+02  0.19488004396E+03  0.91427264421E+02 0.  0.
          5    1    3    3  502    0 -0.14997111152E+03 -0.44591795566E+01  0.17060462962E+03  0.22723254745E+03  0.41800000000E+01 0.  1.
         -5    1    3    3    0  502 -0.16528877068E+02 -0.78776134929E+01  0.17830343988E+03  0.17928984813E+03  0.41800000000E+01 0.  1.
        -11    1    4    4    0    0  0.42934009898E+02 -0.23270092908E+02 -0.19313560604E+02  0.52515141179E+02  0.00000000000E+00 0. -1.
         11    1    4    4    0    0  0.12356597868E+03  0.35606885957E+02  0.61084892790E+02  0.14236490278E+03  0.00000000000E+00 0.  1.
</event>
<event>
 8    1  0.7224924E-009  0.1234988E+03  0.7561462E-02  0.1237434E+00
          2   -1    0    0  501    0  0.00000000000E+00  0.00000000000E+00  0.21841359712E+03  0.21841359712E+03  0.00000000000E+00 0. -1.
         -2   -1    0    0    0  501 -0.00000000000E+00 -0.00000000000E+00 -0.96923670354E+02  0.96923670354E+02  0.00000000000E+00 0.  1.
         25    2    1    2    0    0 -0.50036273655E+02  0.78606337235E+02  0.92110466481E+02  0.18114567700E+03  0.12508730282E+03 0.  0.
         23    2    1    2    0    0  0.50036273655E+02 -0.78606337235E+02  0.29379460290E+02  0.13419159048E+03  0.91987202011E+02 0.  0.
          5    1    3    3  502    0  0.17716646730E+02  0.11628498919E+02 -0.23075076680E+02  0.31607485225E+02  0.41800000000E+01 0. -1.
         -5    1    3    3    0  502 -0.67752920385E+02  0.66977838315E+02  0.11518554316E+03  0.14953819177E+03  0.41800000000E+01 0. -1.
        -11    1    4    4    0    0 -0.26071336456E+02 -0.11223527011E+02  0.14180942885E-01  0.28384544109E+02  0.00000000000E+00 0.  1.
         11    1    4    4    0    0  0.76107610111E+02 -0.67382810224E+02  0.29365279347E+02  0.10580704637E+03  0.00000000000E+00 0. -1.
</event>
<event>
 8    1  0.7224924E-009  0.9441468E+02  0.7561462E-02  0.1292500E+00
          1   -1    0    0  501    0  0.00000000000E+00  0.00000000000E+00  0.49741244636E+03  0.49741244636E+03  0.00000000000E+00 0. -1.
         -1   -1    0    0    0  501 -0.00000000000E+00 -0.00000000000E+00 -0.27419513057E+02  0.27419513057E+02  0.00000000000E+00 0.  1.
         25    2    1    2    0    0 -0.41360497433E+02 -0.13737079705E+02  0.29027851445E+03  0.31907462154E+03  0.12509036756E+03 0.  0.
         23    2    1    2    0    0  0.41360497433E+02  0.13737079705E+02  0.17971441886E+03  0.20575733788E+03  0.90218687851E+02 0.  0.
          5    1    3    3  502    0 -0.30831801083E+02 -0.47979917695E+02  0.49570727976E+02  0.75679600502E+02  0.41800000000E+01 0.  1.
         -5    1    3    3    0  502 -0.10528696350E+02  0.34242837990E+02  0.24070778647E+03  0.24339502104E+03  0.41800000000E+01 0.  1.
        -11    1    4    4    0    0  0.22256942013E+02  0.49921633605E+02  0.71031793197E+02  0.89627320692E+02  0.00000000000E+00 0.  1.
         11    1    4    4    0    0  0.19103555420E+02 -0.36184553900E+02  0.10868262566E+03  0.11613001718E+03  0.00000000000E+00 0. -1.
</event>
<event>
 8    1  0.7224924E-009  0.1027607E+03  0.7561462E-02  0.1274595E+00
         -3   -1    0    0    0  501 -0.00000000000E+00  0.00000000000E+00  0.15928988641E+03  0.15928988641E+03  0.00000000000E+00 0.  1.
          3   -1    0    0  501    0  0.00000000000E+00 -0.00000000000E+00 -0.11296237310E+03  0.11296237310E+03  0.00000000000E+00 0. -1.
         25    2    1    2    0    0 -0.36815844084E+02 -0.60884926665E+02 -0.81227436571E+01  0.14413478936E+03  0.12508588197E+03 0.  0.
         23    2    1    2    0    0  0.36815844084E+02  0.60884926665E+02  0.54450256971E+02  0.12811747015E+03  0.91579883181E+02 0.  0.
          5    1    3    3  502    0 -0.55784806623E+02 -0.73248299553E+02 -0.43506401326E+02  0.10191926900E+03  0.41800000000E+01 0.  1.
         -5    1    3    3    0  502  0.18968962539E+02  0.12363372888E+02  0.35383657669E+02  0.42215520357E+02  0.41800000000E+01 0.  1.
        -11    1    4    4    0    0  0.24165627327E+02  0.70444098188E+02  0.72608238464E+02  0.10401108021E+03  0.00000000000E+00 0.  1.
         11    1    4    4    0    0  0.12650216757E+02 -0.95591715222E+01 -0.18157981493E+02  0.24106389943E+02  0.00000000000E+00 0. -1.
</event>
<event>
 8    1  0.7224924E-009  0.1668027E+03  0.7561462E-02  0.1181224E+00
          1   -1    0    0  501    0  0.00000000000E+00  0.00000000000E+00  0.57485544202E+03  0.57485544202E+03  0.00000000000E+00 0. -1.
         -1   -1    0    0    0  501 -0.00000000000E+00 -0.00000000000E+00 -0.60018151861E+02  0.60018151861E+02  0.00000000000E+00 0.  1.
         25    2    1    2    0    0  0.12326008400E+03 -0.84906078823E+02  0.28458948965E+03  0.34502333868E+03  0.12509131100E+03 0.  0.
         23    2    1    2    0    0 -0.12326008400E+03  0.84906078823E+02  0.23024780051E+03  0.28985025520E+03  0.92720171861E+02 0.  0.
          5    1    3    3  502    0  0.13305892178E+03 -0.57287902232E+02  0.27970410879E+03  0.31502133464E+03  0.41800000000E+01 0. -1.
         -5    1    3    3    0  502 -0.97988377815E+01 -0.27618176591E+02  0.48853808566E+01  0.30002004036E+02  0.41800000000E+01 0. -1.
        -11    1    4    4    0    0 -0.61562662935E+02  0.10556352408E+02  0.15587867737E+03  0.16792724646E+03  0.00000000000E+00 0. -1.
         11    1    4    4    0    0 -0.61697421063E+02  0.74349726415E+02  0.74369123139E+02  0.12192300874E+03  0.00000000000E+00 0.  1.
</event>
<event>
 8    1  0.7224924E-009  0.9053282E+02  0.7561462E-02  0.1301567E+00
         -2   -1    0    0    0  501 -0.00000000000E+00  0.00000000000E+00  0.72771749468E+02  0.72771749468E+02  0.00000000000E+00 0.  1.
          2   -1    0    0  501    0  0.00000000000E+00 -0.00000000000E+00 -0.18004901024E+03  0.18004901024E+03  0.00000000000E+00 0. -1.
         25    2    1    2    0    0  0.21220993522E+02  0.25822923617E+02 -0.76493878477E+02  0.15038540281E+03  0.12508917613E+03 0.  0.
         23    2    1    2    0    0 -0.21220993522E+02 -0.25822923617E+02 -0.30783382297E+02  0.10243535690E+03  0.91805401620E+02 0.  0.
          5    1    3    3  502    0  0.43249265889E+02  0.50453967152E+02 -0.92062999598E+02  0.11361852884E+03  0.41800000000E+01 0. -1.
         -5    1    3    3    0  502 -0.22028272366E+02 -0.24631043535E+02  0.15569121121E+02  0.36766873970E+02  0.41800000000E+01 0. -1.
        -11    1    4    4    0    0 -0.39217655117E+02  0.10532054611E+02  0.13106594150E+02  0.42670029967E+02  0.00000000000E+00 0.  1.
         11    1    4    4    0    0  0.17996661594E+02 -0.36354978228E+02 -0.43889976446E+02  0.59765326929E+02  0.00000000000E+00 0. -1.
</event>
<event>
 8    1  0.7224924E-009  0.1194981E+03  0.7561462E-02  0.1243927E+00
          2   -1    0    0  501    0  0.00000000000E+00  0.00000000000E+00  0.62749262338E+03  0.62749262338E+03  0.00000000000E+00 0. -1.
         -2   -1    0    0    0  501 -0.00000000000E+00 -0.00000000000E+00 -0.34303118651E+02  0.34303118651E+02  0.00000000000E+00 0.  1.
         25    2    1    2    0    0 -0.38541689961E+02  0.77112118220E+02  0.40811466204E+03  0.43547239395E+03  0.12508752087E+03 0.  0.
         23    2    1    2    0    0  0.38541689961E+02 -0.77112118220E+02  0.18507484269E+03  0.22632334809E+03  0.97661762475E+02 0.  0.
          5    1    3    3  502    0  0.76235104143E+01 -0.23652530443E+02  0.18072925310E+03  0.18247765735E+03  0.41800000000E+01 0.  1.
         -5    1    3    3    0  502 -0.46165200376E+02  0.10076464866E+03  0.22738540894E+03  0.25299473660E+03  0.41800000000E+01 0.  1.
        -11    1    4    4    0    0 -0.35285237149E+01 -0.55448405365E+02  0.27885399839E+02  0.62165679127E+02  0.00000000000E+00 0.  1.
         11    1    4    4    0    0  0.42070213676E+02 -0.21663712855E+02  0.15718944285E+03  0.16415766896E+03  0.00000000000E+00 0. -1.
</event>
<event>
 8    1  0.7224924E-009  0.6693199E+02  0.7561462E-02  0.1370848E+00
         -1   -1    0    0    0  501 -0.00000000000E+00  0.00000000000E+00  0.16935291637E+02  0.16935291637E+02  0.00000000000E+00 0.  1.
          1   -1    0    0  501    0  0.00000000000E+00 -0.00000000000E+00 -0.10540113299E+04  0.10540113299E+04  0.00000000000E+00 0. -1.
         25    2    1    2    0    0 -0.13039956350E+02 -0.49886082971E+02 -0.80142876638E+03  0.81276945710E+03  0.12508981208E+03 0.  0.
         23    2    1    2    0    0  0.13039956350E+02  0.49886082971E+02 -0.23564727190E+03  0.25817716445E+03  0.92017116630E+02 0.  0.
          5    1    3    3  502    0  0.32935818354E+01 -0.19052459444E+02 -0.75124070797E+03  0.75150110951E+03  0.41800000000E+01 0. -1.
         -5    1    3    3    0  502 -0.16333538186E+02 -0.30833623527E+02 -0.50188058410E+02  0.61268347590E+02  0.41800000000E+01 0. -1.
        -11    1    4    4    0    0  0.30248191534E+02  0.47293573412E+01 -0.18616498708E+02  0.35831465726E+02  0.00000000000E+00 0.  1.
         11    1    4    4    0    0 -0.17208235184E+02  0.45156725630E+02 -0.21703077320E+03  0.22234569873E+03  0.00000000000E+00 0. -1.
</event>
<event>
 8    1  0.7224924E-009  0.9128696E+02  0.7561462E-02  0.1299765E+00
          1   -1    0    0  501    0  0.00000000000E+00  0.00000000000E+00  0.70222435302E+03  0.70222435302E+03  0.00000000000E+00 0. -1.
         -1   -1    0    0    0  501 -0.00000000000E+00 -0.00000000000E+00 -0.32755970479E+02  0.32755970479E+02  0.00000000000E+00 0.  1.
         25    2    1    2    0    0  0.33692084755E+02  0.14389846116E+02  0.60760971111E+03  0.62143087742E+03  0.12507817608E+03 0.  0.
         23    2    1    2    0    0 -0.33692084755E+02 -0.14389846116E+02  0.61858671436E+02  0.11354944608E+03  0.87890598058E+02 0.  0.
          5    1    3    3  502    0  0.54807960257E+02  0.54240387293E+02  0.47653255974E+03  0.48274909115E+03  0.41800000000E+01 0.  1.
         -5    1    3    3    0  502 -0.21115875502E+02 -0.39850541177E+02  0.13107715137E+03  0.13868178626E+03  0.41800000000E+01 0.  1.
        -11    1    4    4    0    0 -0.43862912122E+02 -0.18359324178E+01 -0.55324841933E+01  0.44248549005E+02  0.00000000000E+00 0.  1.
         11    1    4    4    0    0  0.10170827367E+02 -0.12553913698E+02  0.67391155629E+02  0.69300897076E+02  0.00000000000E+00 0. -1.
</event>
<event>
 8    1  0.7224924E-009  0.2121235E+03  0.7561462E-02  0.1139895E+00
          2   -1    0    0  501    0  0.00000000000E+00  0.00000000000E+00  0.27481626449E+03  0.27481626449E+03  0.00000000000E+00 0. -1.
         -2   -1    0    0    0  501 -0.00000000000E+00 -0.00000000000E+00 -0.18357922123E+03  0.18357922123E+03  0.00000000000E+00 0.  1.
         25    2    1    2    0    0 -0.17756413491E+03  0.85362744259E+02  0.37021732816E+02  0.23629160999E+03  0.12508915275E+03 0.  0.
         23    2    1    2    0    0  0.17756413491E+03 -0.85362744259E+02  0.54215310436E+02  0.22210387573E+03  0.87034542658E+02 0.  0.
          5    1    3    3  502    0 -0.14621106006E+02  0.60234176638E+02 -0.13952131098E+02  0.63671556745E+02  0.41800000000E+01 0. -1.
         -5    1    3    3    0  502 -0.16294302890E+03  0.25128567621E+02  0.50973863913E+02  0.17262005324E+03  0.41800000000E+01 0. -1.
        -11    1    4    4    0    0  0.46762707034E+02 -0.26682495114E+02 -0.23827751361E+02  0.58876719080E+02  0.00000000000E+00 0.  1.
         11    1    4    4    0    0  0.13080142788E+03 -0.58680249145E+02  0.78043061797E+02  0.16322715665E+03  0.00000000000E+00 0. -1.
</event>
<event>
 8    1  0.7224924E-009  0.1012500E+03  0.7561462E-02  0.1277689E+00
         -1   -1    0    0    0  501 -0.00000000000E+00  0.00000000000E+00  0.29884399751E+03  0.29884399751E+03  0.00000000000E+00 0.  1.
          1   -1    0    0  501    0  0.00000000000E+00 -0.00000000000E+00 -0.63311658596E+02  0.63311658596E+02  0.00000000000E+00 0. -1.
         25    2    1    2    0    0 -0.15409811025E+02 -0.57980867557E+02  0.51171935178E+02  0.14786704601E+03  0.12508738173E+03 0.  0.
         23    2    1    2    0    0  0.15409811025E+02  0.57980867557E+02  0.18436040374E+03  0.21428861010E+03  0.91277635123E+02 0.  0.
          5    1    3    3  502    0  0.72144892593E+01  0.31184333062E+02  0.45260002009E+02  0.55591830926E+02  0.41800000000E+01 0. -1.
         -5    1    3    3    0  502 -0.22624300285E+02 -0.89165200619E+02  0.59119331682E+01  0.92275215083E+02  0.41800000000E+01 0. -1.
        -11    1    4    4    0    0 -0.82570812144E+01  0.53392169438E+02  0.18224933272E+03  0.19008872251E+03  0.00000000000E+00 0.  1.
         11    1    4    4    0    0  0.23666892240E+02  0.45886981195E+01  0.21110710190E+01  0.24199887594E+02  0.00000000000E+00 0. -1.
</event>
<event>
 8    1  0.7224924E-009  0.1255557E+03  0.7561462E-02  0.1234203E+00
         -3   -1    0    0    0  501 -0.00000000000E+00  0.00000000000E+00  0.41303744100E+03  0.41303744100E+03  0.00000000000E+00 0.  1.
          3   -1    0    0  501    0  0.00000000000E+00 -0.00000000000E+00 -0.40442591504E+02  0.40442591504E+02  0.00000000000E+00 0. -1.
         25    2    1    2    0    0 -0.66486706137E+02 -0.18701026647E+02  0.22101692635E+03  0.26318533605E+03  0.12509128222E+03 0.  0.
         23    2    1    2    0    0  0.66486706137E+02  0.18701026647E+02  0.15157792314E+03  0.19029469645E+03  0.92010837527E+02 0.  0.
          5    1    3    3  502    0 -0.10232105915E+03 -0.25450247377E+02  0.15235220501E+03  0.18532668725E+03  0.41800000000E+01 0. -1.
         -5    1    3    3    0  502  0.35834353009E+02  0.67492207298E+01  0.68664721348E+02  0.77858648806E+02  0.41800000000E+01 0. -1.
        -11    1    4    4    0    0  0.53038214217E+02  0.51197512915E+02  0.70876982661E+02  0.10226330802E+03  0.00000000000E+00 0.  1.
         11    1    4    4    0    0  0.13448491920E+02 -0.32496486267E+02  0.80700940476E+02  0.88031388427E+02  0.00000000000E+00 0. -1.
</event>
<event>
 8    1  0.7224924E-009  0.1087303E+03  0.7561462E-02  0.1262939E+00
         -2   -1    0    0    0  501 -0.00000000000E+00  0.00000000000E+00  0.51630797332E+03  0.51630797332E+03  0.00000000000E+00 0.  1.
          2   -1    0    0  501    0  0.00000000000E+00 -0.00000000000E+00 -0.24515598178E+02  0.24515598178E+02  0.00000000000E+00 0. -1.
         25    2    1    2    0    0  0.25256541462E+00  0.22212011315E+02  0.27945857869E+03  0.30698140354E+03  0.12508815963E+03 0.  0.
         23    2    1    2    0    0 -0.25256541462E+00 -0.22212011315E+02  0.21233379645E+03  0.23384216795E+03  0.95410068463E+02 0.  0.
          5    1    3    3  502    0 -0.54595694113E+02 -0.17415364917E+02  0.15412600882E+03  0.16448794408E+03  0.41800000000E+01 0. -1.
         -5    1    3    3    0  502  0.54848259527E+02  0.39627376231E+02  0.12533256987E+03  0.14249345946E+03  0.41800000000E+01 0. -1.
        -11    1    4    4    0    0 -0.43849896366E+02 -0.13370878985E+01  0.62168932997E+02  0.76089272867E+02  0.00000000000E+00 0. -1.
         11    1    4    4    0    0  0.43597330951E+02 -0.20874923416E+02  0.15016486345E+03  0.15775289509E+03  0.00000000000E+00 0.  1.
</event>
<event>
 8    1  0.7224924E-009  0.2952954E+03  0.7561462E-02  0.1087616E+00
         -2   -1    0    0    0  501 -0.00000000000E+00  0.00000000000E+00  0.22930339899E+03  0.22930339899E+03  0.00000000000E+00 0.  1.
          2   -1    0    0  501    0  0.00000000000E+00 -0.00000000000E+00 -0.43868146955E+03  0.43868146955E+03  0.00000000000E+00 0. -1.
         25    2    1    2    0    0  0.25375897738E+03 -0.12689644285E+03 -0.20198555636E+03  0.37005335603E+03  0.12507995652E+03 0.  0.
         23    2    1    2    0    0 -0.25375897738E+03  0.12689644285E+03 -0.73925142041E+01  0.29793151251E+03  0.90621250658E+02 0.  0.
          5    1    3    3  502    0  0.19788266544E+03 -0.62426557810E+02 -0.19429159149E+03  0.28429090616E+03  0.41800000000E+01 0. -1.
         -5    1    3    3    0  502  0.55876311935E+02 -0.64469885043E+02 -0.76939648775E+01  0.85762449874E+02  0.41800000000E+01 0. -1.
        -11    1    4    4    0    0 -0.17533563449E+03  0.13136184888E+03 -0.58160772474E+00  0.21908641749E+03  0.00000000000E+00 0.  1.
         11    1    4    4    0    0 -0.78423342891E+02 -0.44654060261E+01 -0.68109064793E+01  0.78845095017E+02  0.00000000000E+00 0. -1.
</event>
<event>
 8    1  0.7224924E-009  0.1103952E+03  0.7561462E-02  0.1259840E+00
          2   -1    0    0  501    0  0.00000000000E+00  0.00000000000E+00  0.17487550559E+03  0.17487550559E+03  0.00000000000E+00 0. -1.
         -2   -1    0    0    0  501 -0.00000000000E+00 -0.00000000000E+00 -0.82073403091E+02  0.82073403091E+02  0.00000000000E+00 0.  1.
         25    2    1    2    0    0 -0.12564146096E+01  0.49857989720E+02  0.60649876907E+02  0.14769197021E+03  0.12508841984E+03 0.  0.
         23    2    1    2    0    0  0.12564146096E+01 -0.49857989720E+02  0.32152225588E+02  0.10925693847E+03  0.91738297764E+02 0.  0.
          5    1    3    3  502    0 -0.60136915050E+02  0.40794372149E+02  0.20121736671E+02  0.75518117280E+02  0.41800000000E+01 0. -1.
         -5    1    3    3    0  502  0.58880500441E+02  0.90636175706E+01  0.40528140236E+02  0.72173852929E+02  0.41800000000E+01 0. -1.
        -11    1    4    4    0    0  0.24353394763E+02  0.82811030043E+01 -0.16016942735E+02  0.30301929939E+02  0.00000000000E+00 0.  1.
         11    1    4    4    0    0 -0.23096980153E+02 -0.58139092724E+02  0.48169168323E+02  0.78955008530E+02  0.00000000000E+00 0. -1.
</event>
<event>
 8    1  0.7224924E-009  0.6895348E+02  0.7561462E-02  0.1363688E+00
          2   -1    0    0  501    0  0.00000000000E+00  0.00000000000E+00  0.37358907286E+03  0.37358907286E+03  0.00000000000E+00 0. -1.
         -2   -1    0    0    0  501 -0.00000000000E+00 -0.00000000000E+00 -0.86513395626E+02  0.86513395626E+02  0.00000000000E+00 0.  1.
         25    2    1    2    0    0 -0.36902014348E+01  0.41724296243E+02  0.32904607046E+03  0.35450672900E+03  0.12509664239E+03 0.  0.
         23    2    1    2    0    0  0.36902014348E+01 -0.41724296243E+02 -0.41970393234E+02  0.10559573948E+03  0.87375121200E+02 0.  0.
          5    1    3    3  502    0 -0.27230026852E+02 -0.14097652883E+02  0.26289007044E+03  0.26470526952E+03  0.41800000000E+01 0.  1.
         -5    1    3    3    0  502  0.23539825417E+02  0.55821949125E+02  0.66156000027E+02  0.89801459478E+02  0.41800000000E+01 0.  1.
        -11    1    4    4    0    0  0.94374705301E+01 -0.91094556378E+01 -0.64319125363E+02  0.65642957882E+02  0.00000000000E+00 0.  1.
         11    1    4    4    0    0 -0.57472690953E+01 -0.32614840605E+02  0.22348732129E+02  0.39952781599E+02  0.00000000000E+00 0. -1.
</event>
<event>
 8    1  0.7224924E-009  0.9949993E+02  0.7561462E-02  0.1281351E+00
         -1   -1    0    0    0  501 -0.00000000000E+00  0.00000000000E+00  0.13977173233E+03  0.13977173233E+03  0.00000000000E+00 0.  1.
          1   -1    0    0  501    0  0.00000000000E+00 -0.00000000000E+00 -0.11769359843E+03  0.11769359843E+03  0.00000000000E+00 0. -1.
         25    2    1    2    0    0 -0.41419903676E+02  0.54343182160E+02  0.32640688670E+02  0.14622433511E+03  0.12508937506E+03 0.  0.
         23    2    1    2    0    0  0.41419903676E+02 -0.54343182160E+02 -0.10562554767E+02  0.11124099565E+03  0.87144716888E+02 0.  0.
          5    1    3    3  502    0 -0.18558910462E+02  0.75077567099E+02 -0.24427011523E+02  0.81210993905E+02  0.41800000000E+01 0.  1.
         -5    1    3    3    0  502 -0.22860993214E+02 -0.20734384939E+02  0.57067700193E+02  0.65013341206E+02  0.41800000000E+01 0.  1.
        -11    1    4    4    0    0  0.15835982831E+01 -0.50343012410E+02 -0.37665138612E+02  0.62893476201E+02  0.00000000000E+00 0. -1.
         11    1    4    4    0    0  0.39836305393E+02 -0.40001697504E+01  0.27102583846E+02  0.48347519446E+02  0.00000000000E+00 0.  1.
</event>
<event>
 8    1  0.7224924E-009  0.1090551E+03  0.7561462E-02  0.1262330E+00
         -2   -1    0    0    0  501 -0.00000000000E+00  0.00000000000E+00  0.15841814888E+03  0.15841814888E+03  0.00000000000E+00 0.  1.
          2   -1    0    0  501    0  0.00000000000E+00 -0.00000000000E+00 -0.83107901404E+02  0.83107901404E+02  0.00000000000E+00 0. -1.
         25    2    1    2    0    0 -0.34809389994E+02 -0.77994344247E+00  0.61895259891E+02  0.14384899710E+03  0.12509679782E+03 0.  0.
         23    2    1    2    0    0  0.34809389994E+02  0.77994344247E+00  0.13414987583E+02  0.97677053186E+02  0.90269279845E+02 0.  0.
          5    1    3    3  502    0 -0.23416372114E+02 -0.60826381324E+02  0.15834276599E+02  0.67203957201E+02  0.41800000000E+01 0. -1.
         -5    1    3    3    0  502 -0.11393017880E+02  0.60046437882E+02  0.46060983292E+02  0.76645039895E+02  0.41800000000E+01 0. -1.
        -11    1    4    4    0    0 -0.27956953180E+02 -0.53801493286E+01  0.19208044826E+02  0.34343648961E+02  0.00000000000E+00 0.  1.
         11    1    4    4    0    0  0.62766343175E+02  0.61600927711E+01 -0.57930572433E+01  0.63333404225E+02  0.00000000000E+00 0. -1.
</event>
<event>
 8    1  0.7224924E-009  0.1204259E+03  0.7561462E-02  0.1242396E+00
         -1   -1    0    0    0  501 -0.00000000000E+00  0.00000000000E+00  0.25916190671E+02  0.25916190671E+02  0.00000000000E+00 0.  1.
          1   -1    0    0  501    0  0.00000000000E+00 -0.00000000000E+00 -0.71248524500E+03  0.71248524500E+03  0.00000000000E+00 0. -1.
         25    2    1    2    0    0  0.62753561922E+02 -0.52457540670E+02 -0.34490454119E+03  0.37589707877E+03  0.12509863384E+03 0.  0.
         23    2    1    2    0    0 -0.62753561922E+02  0.52457540670E+02 -0.34166451313E+03  0.36250435690E+03  0.89358637666E+02 0.  0.
          5    1    3    3  502    0  0.77376575514E+02 -0.36143297473E+01 -0.10470476641E+03  0.13031023876E+03  0.41800000000E+01 0. -1.
         -5    1    3    3    0  502 -0.14623013592E+02 -0.48843210923E+02 -0.24019977478E+03  0.24558684001E+03  0.41800000000E+01 0. -1.
        -11    1    4    4    0    0 -0.19592153255E+02  0.64419950267E+02 -0.26768207458E+03  0.27602078819E+03  0.00000000000E+00 0.  1.
         11    1    4    4    0    0 -0.43161408667E+02 -0.11962409597E+02 -0.73982438553E+02  0.86483568704E+02  0.00000000000E+00 0. -1.
</event>
<event>
 8    1  0.7224924E-009  0.9844917E+02  0.7561462E-02  0.1283591E+00
         -1   -1    0    0    0  501 -0.00000000000E+00  0.00000000000E+00  0.52367526605E+02  0.52367526605E+02  0.00000000000E+00 0.  1.
          1   -1    0    0  501    0  0.00000000000E+00 -0.00000000000E+00 -0.27701435741E+03  0.27701435741E+03  0.00000000000E+00 0. -1.
         25    2    1    2    0    0  0.40020157337E+02 -0.24636160908E+02 -0.11974608580E+03  0.17942852170E+03  0.12508763296E+03 0.  0.
         23    2    1    2    0    0 -0.40020157337E+02  0.24636160908E+02 -0.10490074500E+03  0.14995336231E+03  0.96297929095E+02 0.  0.
          5    1    3    3  502    0 -0.24286442373E+02 -0.48831732332E+01 -0.10815864914E+03  0.11103802253E+03  0.41800000000E+01 0. -1.
         -5    1    3    3    0  502  0.64306599710E+02 -0.19752987675E+02 -0.11587436657E+02  0.68390499169E+02  0.41800000000E+01 0. -1.
        -11    1    4    4    0    0 -0.70161769552E+02  0.24235737385E+02 -0.58006332476E+02  0.94206048004E+02  0.00000000000E+00 0. -1.
         11    1    4    4    0    0  0.30141612215E+02  0.40042352352E+00 -0.46894412527E+02  0.55747314304E+02  0.00000000000E+00 0.  1.
</event>
<event>
 8    1  0.7224924E-009  0.1134554E+03  0.7561462E-02  0.1254302E+00
          1   -1    0    0  501    0  0.00000000000E+00  0.00000000000E+00  0.13845906560E+03  0.13845906560E+03  0.00000000000E+00 0. -1.
         -1   -1    0    0    0  501 -0.00000000000E+00 -0.00000000000E+00 -0.10298627793E+03  0.10298627793E+03  0.00000000000E+00 0.  1.
         25    2    1    2    0    0  0.44959951940E+02 -0.33571832330E+02  0.27068358967E+02  0.13974389295E+03  0.12508874592E+03 0.  0.
         23    2    1    2    0    0 -0.44959951940E+02  0.33571832330E+02  0.84044287009E+01  0.10170145057E+03  0.84404297415E+02 0.  0.
          5    1    3    3  502    0  0.23812330229E+01 -0.75723884514E+02  0.24094308570E+02  0.79610207022E+02  0.41800000000E+01 0.  1.
         -5    1    3    3    0  502  0.42578718917E+02  0.42152052184E+02  0.29740503965E+01  0.60133685931E+02  0.41800000000E+01 0.  1.
        -11    1    4    4    0    0  0.14997534169E+02 -0.89536917990E+01 -0.16561386566E+02  0.24070192209E+02  0.00000000000E+00 0.  1.
         11    1    4    4    0    0 -0.59957486109E+02  0.42525524129E+02  0.24965815267E+02  0.77631258362E+02  0.00000000000E+00 0. -1.
</event>
<event>
 8    1  0.7224924E-009  0.1134184E+03  0.7561462E-02  0.1254367E+00
          2   -1    0    0  501    0  0.00000000000E+00  0.00000000000E+00  0.45701305753E+02  0.45701305753E+02  0.00000000000E+00 0. -1.
         -2   -1    0    0    0  501 -0.00000000000E+00 -0.00000000000E+00 -0.44808448413E+03  0.44808448413E+03  0.00000000000E+00 0.  1.
         25    2    1    2    0    0 -0.17448866944E+02 -0.72161839974E+01 -0.68818152787E+02  0.14400727219E+03  0.12508245289E+03 0.  0.
         23    2    1    2    0    0  0.17448866944E+02  0.72161839974E+01 -0.33356502559E+03  0.34977851770E+03  0.10355118964E+03 0.  0.
          5    1    3    3  502    0  0.45747209914E+02 -0.32676396173E+02 -0.43489446238E+02  0.71199427075E+02  0.41800000000E+01 0. -1.
         -5    1    3    3    0  502 -0.63196076858E+02  0.25460212175E+02 -0.25328706549E+02  0.72807845111E+02  0.41800000000E+01 0. -1.
        -11    1    4    4    0    0  0.28701628740E+02  0.50169790539E+02 -0.14589739875E+03  0.15692941833E+03  0.00000000000E+00 0. -1.
         11    1    4    4    0    0 -0.11252761796E+02 -0.42953606542E+02 -0.18766762684E+03  0.19284909937E+03  0.00000000000E+00 0.  1.
</event>
<event>
 8    1  0.7224924E-009  0.1252796E+03  0.7561462E-02  0.1234633E+00
          1   -1    0    0  501    0  0.00000000000E+00  0.00000000000E+00  0.55029534221E+03  0.55029534221E+03  0.00000000000E+00 0. -1.
         -1   -1    0    0    0  501 -0.00000000000E+00 -0.00000000000E+00 -0.37455087907E+02  0.37455087907E+02  0.00000000000E+00 0.  1.
         25    2    1    2    0    0 -0.82799152944E+02  0.45383167041E+02  0.29807811182E+03  0.33677195040E+03  0.12509777877E+03 0.  0.
         23    2    1    2    0    0  0.82799152944E+02 -0.45383167041E+02  0.21476214248E+03  0.25097847971E+03  0.89174479850E+02 0.  0.
          5    1    3    3  502    0 -0.53585361717E+01 -0.19120064487E+02  0.18141595005E+03  0.18254728184E+03  0.41800000000E+01 0.  1.
         -5    1    3    3    0  502 -0.77440616772E+02  0.64503231527E+02  0.11666216177E+03  0.15422466856E+03  0.41800000000E+01 0.  1.
        -11    1    4    4    0    0  0.62278983849E+02 -0.72379418849E+02  0.16758942834E+03  0.19288252537E+03  0.00000000000E+00 0.  1.
         11    1    4    4    0    0  0.20520169095E+02  0.26996251808E+02  0.47172714143E+02  0.58095954343E+02  0.00000000000E+00 0. -1.
</event>
<event>
 8    1  0.7224924E-009  0.9950831E+02  0.7561462E-02  0.1281333E+00
         -2   -1    0    0    0  501 -0.00000000000E+00  0.00000000000E+00  0.59494818820E+02  0.59494818820E+02  0.00000000000E+00 0.  1.
          2   -1    0    0  501    0  0.00000000000E+00 -0.00000000000E+00 -0.21233867538E+03  0.21233867538E+03  0.00000000000E+00 0. -1.
         25    2    1    2    0    0  0.17549772464E+02  0.23362321443E+02 -0.80755146131E+02  0.15173411833E+03  0.12509219185E+03 0.  0.
         23    2    1    2    0    0 -0.17549772464E+02 -0.23362321443E+02 -0.72088710428E+02  0.12009937587E+03  0.91505657398E+02 0.  0.
          5    1    3    3  502    0  0.64648926510E+02 -0.16166586909E+02 -0.44275239779E+02  0.80116237360E+02  0.41800000000E+01 0. -1.
         -5    1    3    3    0  502 -0.47099154046E+02  0.39528908352E+02 -0.36479906351E+02  0.71617880971E+02  0.41800000000E+01 0. -1.
        -11    1    4    4    0    0 -0.36967134904E+02  0.38702432899E+01 -0.77749692436E+02  0.86177505882E+02  0.00000000000E+00 0. -1.
         11    1    4    4    0    0  0.19417362440E+02 -0.27232564733E+02  0.56609820077E+01  0.33921869986E+02  0.00000000000E+00 0.  1.
</event>
<event>
 8    1  0.7224924E-009  0.8749990E+02  0.7561462E-02  0.1309022E+00
          3   -1    0    0  501    0  0.00000000000E+00  0.00000000000E+00  0.43467481057E+02  0.43467481057E+02  0.00000000000E+00 0. -1.
         -3   -1    0    0    0  501 -0.00000000000E+00 -0.00000000000E+00 -0.47269059818E+03  0.47269059818E+03  0.00000000000E+00 0.  1.
         25    2    1    2    0    0  0.20169134902E+02  0.56825520573E+02 -0.10695986925E+03  0.17528118005E+03  0.12508854726E+03 0.  0.
         23    2    1    2    0    0 -0.20169134902E+02 -0.56825520573E+02 -0.32226324787E+03  0.34087689919E+03  0.93314123711E+02 0.  0.
          5    1    3    3  502    0  0.32259822712E+02  0.22351324182E+02 -0.12728688479E+03  0.13326552928E+03  0.41800000000E+01 0.  1.
         -5    1    3    3    0  502 -0.12090687810E+02  0.34474196391E+02  0.20327015539E+02  0.42015650765E+02  0.41800000000E+01 0.  1.
        -11    1    4    4    0    0 -0.20407042255E+02  0.16001647195E+02 -0.29898420110E+02  0.39577968765E+02  0.00000000000E+00 0.  1.
         11    1    4    4    0    0  0.23790735296E+00 -0.72827167768E+02 -0.29236482776E+03  0.30129893043E+03  0.00000000000E+00 0. -1.
</event>
<event>
 8    1  0.7224924E-009  0.9260293E+02  0.7561462E-02  0.1296668E+00
          2   -1    0    0  501    0  0.00000000000E+00  0.00000000000E+00  0.82821420968E+02  0.82821420968E+02  0.00000000000E+00 0. -1.
         -2   -1    0    0    0  501 -0.00000000000E+00 -0.00000000000E+00 -0.27947133297E+03  0.27947133297E+03  0.00000000000E+00 0.  1.
         25    2    1    2    0    0  0.80688968963E+01 -0.38800910823E+02  0.90935692537E+01  0.13153164170E+03  0.12508901626E+03 0.  0.
         23    2    1    2    0    0 -0.80688968963E+01  0.38800910823E+02 -0.20574348126E+03  0.23076111224E+03  0.96693810897E+02 0.  0.
          5    1    3    3  502    0  0.47738464255E+02 -0.41900125316E+01  0.46429142220E+02  0.66855477126E+02  0.41800000000E+01 0. -1.
         -5    1    3    3    0  502 -0.39669567359E+02 -0.34610898292E+02 -0.37335572966E+02  0.64676164572E+02  0.41800000000E+01 0. -1.
        -11    1    4    4    0    0  0.23727043611E+02 -0.10241173330E+02 -0.14177858967E+03  0.14411461661E+03  0.00000000000E+00 0.  1.
         11    1    4    4    0    0 -0.31795940508E+02  0.49042084153E+02 -0.63964891585E+02  0.86646495637E+02  0.00000000000E+00 0. -1.
</event>
<event>
 8    1  0.7224924E-009  0.1304754E+03  0.7561462E-02  0.1226752E+00
         -2   -1    0    0    0  501 -0.00000000000E+00  0.00000000000E+00  0.48399106917E+02  0.48399106917E+02  0.00000000000E+00 0. -1.
          2   -1    0    0  501    0  0.00000000000E+00 -0.00000000000E+00 -0.36953154830E+03  0.36953154830E+03  0.00000000000E+00 0.  1.
         25    2    1    2    0    0 -0.45978122510E+02 -0.55742765715E+02 -0.21305936380E+03  0.25741593782E+03  0.12508968327E+03 0.  0.
         23    2    1    2    0    0  0.45978122510E+02  0.55742765715E+02 -0.10807307758E+03  0.16051471739E+03  0.94148503564E+02 0.  0.
          5    1    3    3  502    0  0.59561987061E+01 -0.84582495627E+02 -0.12695298927E+03  0.15272265304E+03  0.41800000000E+01 0. -1.
         -5    1    3    3    0  502 -0.51934321216E+02  0.28839729911E+02 -0.86106374533E+02  0.10469328477E+03  0.41800000000E+01 0. -1.
        -11    1    4    4    0    0 -0.28159702516E+02  0.14775495320E+02 -0.16695206409E+02  0.35916765232E+02  0.00000000000E+00 0.  1.
         11    1    4    4    0    0  0.74137825026E+02  0.40967270395E+02 -0.91377871171E+02  0.12459795216E+03  0.00000000000E+00 0. -1.
</event>
<event>
 8    1  0.7224924E-009  0.2240533E+03  0.7561462E-02  0.1130897E+00
          1   -1    0    0  501    0  0.00000000000E+00  0.00000000000E+00  0.28294329444E+03  0.28294329444E+03  0.00000000000E+00 0. -1.
         -1   -1    0    0    0  501 -0.00000000000E+00 -0.00000000000E+00 -0.18966147221E+03  0.18966147221E+03  0.00000000000E+00 0.  1.
         25    2    1    2    0    0 -0.89018424616E+02  0.18378221756E+03  0.54133231330E+02  0.24551696490E+03  0.12509192581E+03 0.  0.
         23    2    1    2    0    0  0.89018424616E+02 -0.18378221756E+03  0.39148590906E+02  0.22708780176E+03  0.91302103609E+02 0.  0.
          5    1    3    3  502    0 -0.56504380140E+02  0.10184453323E+02  0.36061617437E+02  0.67929233152E+02  0.41800000000E+01 0.  1.
         -5    1    3    3    0  502 -0.32514044476E+02  0.17359776424E+03  0.18071613893E+02  0.17758773174E+03  0.41800000000E+01 0.  1.
        -11    1    4    4    0    0  0.99043958940E+02 -0.17120295368E+03  0.15376700106E+02  0.19838497941E+03  0.00000000000E+00 0.  1.
         11    1    4    4    0    0 -0.10025534323E+02 -0.12579263887E+02  0.23771890801E+02  0.28702822346E+02  0.00000000000E+00 0. -1.
</event>
<event>
 8    1  0.7224924E-009  0.8017856E+02  0.7561462E-02  0.1328545E+00
         -2   -1    0    0    0  501 -0.00000000000E+00  0.00000000000E+00  0.25805701964E+02  0.25805701964E+02  0.00000000000E+00 0.  1.
          2   -1    0    0  501    0  0.00000000000E+00 -0.00000000000E+00 -0.51340893547E+03  0.51340893547E+03  0.00000000000E+00 0. -1.
         25    2    1    2    0    0 -0.28868529716E+02 -0.27617759886E+02 -0.27734554736E+03  0.30686108281E+03  0.12508812428E+03 0.  0.
         23    2    1    2    0    0  0.28868529716E+02  0.27617759886E+02 -0.21025768614E+03  0.23235355462E+03  0.90464065197E+02 0.  0.
          5    1    3    3  502    0  0.26868392004E+02 -0.38261473006E+02 -0.22400500251E+03  0.22887019106E+03  0.41800000000E+01 0. -1.
         -5    1    3    3    0  502 -0.55736921720E+02  0.10643713120E+02 -0.53340544850E+02  0.77990891755E+02  0.41800000000E+01 0. -1.
        -11    1    4    4    0    0  0.45573901683E+01 -0.10421993974E+02  0.49909725510E+01  0.12421657319E+02  0.00000000000E+00 0.  1.
         11    1    4    4    0    0  0.24311139547E+02  0.38039753860E+02 -0.21524865869E+03  0.21993189730E+03  0.00000000000E+00 0. -1.
</event>
<event>
 8    1  0.7224924E-009  0.1312579E+03  0.7561462E-02  0.1225601E+00
          1   -1    0    0  501    0  0.00000000000E+00  0.00000000000E+00  0.20320657264E+02  0.20320657264E+02  0.00000000000E+00 0. -1.
         -1   -1    0    0    0  501 -0.00000000000E+00 -0.00000000000E+00 -0.15300413618E+04  0.15300413618E+04  0.00000000000E+00 0.  1.
         25    2    1    2    0    0  0.29151524543E+02  0.11721473627E+03 -0.11071608852E+04  0.11207326890E+04  0.12508968222E+03 0.  0.
         23    2    1    2    0    0 -0.29151524543E+02 -0.11721473627E+03 -0.40255981924E+03  0.42962933002E+03  0.89094597804E+02 0.  0.
          5    1    3    3  502    0  0.11001919213E+02  0.64350900126E+02 -0.17401865365E+03  0.18590870015E+03  0.41800000000E+01 0. -1.
         -5    1    3    3    0  502  0.18149605330E+02  0.52863836145E+02 -0.93314223160E+03  0.93482398886E+03  0.41800000000E+01 0. -1.
        -11    1    4    4    0    0  0.18353562982E+02 -0.75911629769E+02 -0.14731674063E+03  0.16673827058E+03  0.00000000000E+00 0.  1.
         11    1    4    4    0    0 -0.47505087525E+02 -0.41303106502E+02 -0.25524307862E+03  0.26289105943E+03  0.00000000000E+00 0. -1.
</event>
<event>
 8    1  0.7224924E-009  0.1202486E+03  0.7561462E-02  0.1242688E+00
          4   -1    0    0  501    0  0.00000000000E+00  0.00000000000E+00  0.73916897587E+02  0.73916897587E+02  0.00000000000E+00 0.  1.
         -4   -1    0    0    0  501 -0.00000000000E+00 -0.00000000000E+00 -0.33247250460E+03  0.33247250460E+03  0.00000000000E+00 0. -1.
         25    2    1    2    0    0 -0.31202468040E+02  0.44817827531E+02 -0.10489302687E+02  0.13689299576E+03  0.12508970837E+03 0.  0.
         23    2    1    2    0    0  0.31202468040E+02 -0.44817827531E+02 -0.24806630433E+03  0.26949640643E+03  0.90051041405E+02 0.  0.
          5    1    3    3  502    0 -0.61707889279E+02 -0.19073575738E+02 -0.12597079866E+02  0.65938029329E+02  0.41800000000E+01 0. -1.
         -5    1    3    3    0  502  0.30505421238E+02  0.63891403269E+02  0.21077771792E+01  0.70954966432E+02  0.41800000000E+01 0. -1.
        -11    1    4    4    0    0 -0.14934856345E+02 -0.55514944066E+02 -0.12330632471E+03  0.13604928762E+03  0.00000000000E+00 0.  1.
         11    1    4    4    0    0  0.46137324385E+02  0.10697116535E+02 -0.12475997962E+03  0.13344711881E+03  0.00000000000E+00 0. -1.
</event>
<event>
 8    1  0.7224924E-009  0.1158578E+03  0.7561462E-02  0.1250091E+00
          1   -1    0    0  501    0  0.00000000000E+00  0.00000000000E+00  0.58739457729E+03  0.58739457729E+03  0.00000000000E+00 0. -1.
         -1   -1    0    0    0  501 -0.00000000000E+00 -0.00000000000E+00 -0.25097922103E+02  0.25097922103E+02  0.00000000000E+00 0.  1.
         25    2    1    2    0    0 -0.95550281374E+00  0.45972334108E+02  0.39830154084E+03  0.42000772199E+03  0.12509196861E+03 0.  0.
         23    2    1    2    0    0  0.95550281374E+00 -0.45972334108E+02  0.16399511435E+03  0.19248477740E+03  0.89675099734E+02 0.  0.
          5    1    3    3  502    0 -0.61823352101E+02  0.22141993602E+02  0.23560323594E+03  0.24461960660E+03  0.41800000000E+01 0. -1.
         -5    1    3    3    0  502  0.60867849287E+02  0.23830340506E+02  0.16269830490E+03  0.17538811540E+03  0.41800000000E+01 0. -1.
        -11    1    4    4    0    0  0.43143682109E+02 -0.37971762056E+02  0.85703188253E+02  0.10319044770E+03  0.00000000000E+00 0. -1.
         11    1    4    4    0    0 -0.42188179295E+02 -0.80005720525E+01  0.78291926098E+02  0.89294329705E+02  0.00000000000E+00 0.  1.
</event>
<event>
 8    1  0.7224924E-009  0.1009082E+03  0.7561462E-02  0.1278398E+00
         -1   -1    0    0    0  501 -0.00000000000E+00  0.00000000000E+00  0.69796044920E+02  0.69796044920E+02  0.00000000000E+00 0. -1.
          1   -1    0    0  501    0  0.00000000000E+00 -0.00000000000E+00 -0.22735159970E+03  0.22735159970E+03  0.00000000000E+00 0.  1.
         25    2    1    2    0    0  0.11390948186E+02  0.33728247890E+02 -0.14817564701E+03  0.19715674797E+03  0.12508961786E+03 0.  0.
         23    2    1    2    0    0 -0.11390948186E+02 -0.33728247890E+02 -0.93799077609E+01  0.99990896641E+02  0.92966920651E+02 0.  0.
          5    1    3    3  502    0 -0.46385646497E+02  0.14128306254E+02 -0.12064471634E+03  0.13009172617E+03  0.41800000000E+01 0. -1.
         -5    1    3    3    0  502  0.57776594683E+02  0.19599941635E+02 -0.27530930679E+02  0.67065021802E+02  0.41800000000E+01 0. -1.
        -11    1    4    4    0    0 -0.46467985181E+02 -0.51578023811E+01 -0.23860206295E+02  0.52489865847E+02  0.00000000000E+00 0.  1.
         11    1    4    4    0    0  0.35077036995E+02 -0.28570445509E+02  0.14480298534E+02  0.47501030794E+02  0.00000000000E+00 0. -1.
</event>
<event>
 8    1  0.7224924E-009  0.6809170E+02  0.7561462E-02  0.1366705E+00
         -1   -1    0    0    0  501 -0.00000000000E+00  0.00000000000E+00  0.28319255772E+03  0.28319255772E+03  0.00000000000E+00 0.  1.
          1   -1    0    0  501    0  0.00000000000E+00 -0.00000000000E+00 -0.48161883285E+02  0.48161883285E+02  0.00000000000E+00 0. -1.
         25    2    1    2    0    0  0.30120275974E+02  0.23056287944E+02  0.17943124559E+03  0.22199630054E+03  0.12509181476E+03 0.  0.
         23    2    1    2    0    0 -0.30120275974E+02 -0.23056287944E+02  0.55599428841E+02  0.10935814046E+03  0.86192128178E+02 0.  0.
          5    1    3    3  502    0  0.20600836908E+02  0.32109215340E+02  0.19641073313E+03  0.20012507259E+03  0.41800000000E+01 0. -1.
         -5    1    3    3    0  502  0.95194390657E+01 -0.90529273962E+01 -0.16979487541E+02  0.21871227943E+02  0.41800000000E+01 0. -1.
        -11    1    4    4    0    0 -0.31865101784E+02 -0.48764353073E+02  0.13178327280E+02  0.59724493738E+02  0.00000000000E+00 0. -1.
         11    1    4    4    0    0  0.17448258100E+01  0.25708065129E+02  0.42421101561E+02  0.49633646727E+02  0.00000000000E+00 0.  1.
</event>
<event>
 8    1  0.7224924E-009  0.1121448E+03  0.7561462E-02  0.1256649E+00
         -2   -1    0    0    0  501 -0.00000000000E+00  0.00000000000E+00  0.36808141131E+02  0.36808141131E+02  0.00000000000E+00 0.  1.
          2   -1    0    0  501    0  0.00000000000E+00 -0.00000000000E+00 -0.59166962389E+03  0.59166962389E+03  0.00000000000E+00 0. -1.
         25    2    1    2    0    0 -0.72955095379E+02  0.63817590168E+02 -0.30871153072E+03  0.34690995775E+03  0.12509427976E+03 0.  0.
         23    2    1    2    0    0  0.72955095379E+02 -0.63817590168E+02 -0.24614995204E+03  0.28156780727E+03  0.96413175692E+02 0.  0.
          5    1    3    3  502    0 -0.11096862688E+00 -0.82309871101E+01 -0.18924940029E+03  0.18947445573E+03  0.41800000000E+01 0.  1.
         -5    1    3    3    0  502 -0.72844126752E+02  0.72048577278E+02 -0.11946213043E+03  0.15743550202E+03  0.41800000000E+01 0.  1.
        -11    1    4    4    0    0  0.24373668239E+02  0.81373591647E+01 -0.14932092601E+03  0.15151577893E+03  0.00000000000E+00 0. -1.
         11    1    4    4    0    0  0.48581427139E+02 -0.71954949333E+02 -0.96829026026E+02  0.13005202835E+03  0.00000000000E+00 0.  1.
</event>
<event>
 8    1  0.7224924E-009  0.1046968E+03  0.7561462E-02  0.1270718E+00
         -1   -1    0    0    0  501 -0.00000000000E+00  0.00000000000E+00  0.25723357074E+03  0.25723357074E+03  0.00000000000E+00 0.  1.
          1   -1    0    0  501    0  0.00000000000E+00 -0.00000000000E+00 -0.53502530709E+02  0.53502530709E+02  0.00000000000E+00 0. -1.
         25    2    1    2    0    0  0.14220384087E+02 -0.13661955096E+01  0.17382050430E+03  0.21462610547E+03  0.12508681633E+03 0.  0.
         23    2    1    2    0    0 -0.14220384087E+02  0.13661955096E+01  0.29910535728E+02  0.96109995978E+02  0.90213110830E+02 0.  0.
          5    1    3    3  502    0 -0.36184444839E+02 -0.45732310713E+02  0.75519027374E+02  0.95505780908E+02  0.41800000000E+01 0. -1.
         -5    1    3    3    0  502  0.50404828927E+02  0.44366115203E+02  0.98301476927E+02  0.11912032456E+03  0.41800000000E+01 0. -1.
        -11    1    4    4    0    0 -0.26158349282E+02  0.37427687737E+02 -0.31231106134E+01  0.45769475269E+02  0.00000000000E+00 0.  1.
         11    1    4    4    0    0  0.11937965194E+02 -0.36061492227E+02  0.33033646341E+02  0.50340520709E+02  0.00000000000E+00 0. -1.
</event>
<event>
 8    1  0.7224924E-009  0.1403307E+03  0.7561462E-02  0.1212885E+00
         -4   -1    0    0    0  501 -0.00000000000E+00  0.00000000000E+00  0.64398399812E+02  0.64398399812E+02  0.00000000000E+00 0.  1.
          4   -1    0    0  501    0  0.00000000000E+00 -0.00000000000E+00 -0.32244147915E+03  0.32244147915E+03  0.00000000000E+00 0. -1.
         25    2    1    2    0    0 -0.94077406354E+02 -0.70654400721E+01 -0.15976190881E+03  0.22376743532E+03  0.12509004266E+03 0.  0.
         23    2    1    2    0    0  0.94077406354E+02  0.70654400721E+01 -0.98281170527E+02  0.16307244364E+03  0.89626751390E+02 0.  0.
          5    1    3    3  502    0 -0.57350495467E+02  0.55750855527E+02 -0.10761777842E+03  0.13415027340E+03  0.41800000000E+01 0.  1.
         -5    1    3    3    0  502 -0.36726910886E+02 -0.62816295599E+02 -0.52144130395E+02  0.89617161920E+02  0.41800000000E+01 0.  1.
        -11    1    4    4    0    0  0.48065174848E+02  0.46655101857E+02 -0.35759657172E+02  0.75932289861E+02  0.00000000000E+00 0.  1.
         11    1    4    4    0    0  0.46012231506E+02 -0.39589661785E+02 -0.62521513355E+02  0.87140153779E+02  0.00000000000E+00 0. -1.
</event>
<event>
 8    1  0.7224924E-009  0.1105303E+03  0.7561462E-02  0.1259591E+00
         -1   -1    0    0    0  501 -0.00000000000E+00  0.00000000000E+00  0.33753850763E+02  0.33753850763E+02  0.00000000000E+00 0.  1.
          1   -1    0    0  501    0  0.00000000000E+00 -0.00000000000E+00 -0.38682917769E+03  0.38682917769E+03  0.00000000000E+00 0. -1.
         25    2    1    2    0    0 -0.26399682545E+02  0.81562057528E+01 -0.23209705181E+03  0.26510693245E+03  0.12509667160E+03 0.  0.
         23    2    1    2    0    0  0.26399682545E+02 -0.81562057528E+01 -0.12097827512E+03  0.15547609601E+03  0.93667531444E+02 0.  0.
          5    1    3    3  502    0 -0.58048165218E+02  0.46842266574E+02 -0.10861896229E+03  0.13183072021E+03  0.41800000000E+01 0. -1.
         -5    1    3    3    0  502  0.31648482673E+02 -0.38686060821E+02 -0.12347808952E+03  0.13327621224E+03  0.41800000000E+01 0. -1.
        -11    1    4    4    0    0 -0.31469120830E+01 -0.47159733446E+02 -0.46073248091E+02  0.66005209673E+02  0.00000000000E+00 0.  1.
         11    1    4    4    0    0  0.29546594628E+02  0.39003527693E+02 -0.74905027030E+02  0.89470886332E+02  0.00000000000E+00 0. -1.
</event>
<event>
 8    1  0.7224924E-009  0.9947125E+02  0.7561462E-02  0.1281412E+00
         -2   -1    0    0    0  501 -0.00000000000E+00  0.00000000000E+00  0.44148222697E+03  0.44148222697E+03  0.00000000000E+00 0.  1.
          2   -1    0    0  501    0  0.00000000000E+00 -0.00000000000E+00 -0.34657356193E+02  0.34657356193E+02  0.00000000000E+00 0. -1.
         25    2    1    2    0    0 -0.36377094624E+02  0.31629756026E+00  0.13539339559E+03  0.18788927099E+03  0.12509042140E+03 0.  0.
         23    2    1    2    0    0  0.36377094624E+02 -0.31629756026E+00  0.27143147519E+03  0.28825031218E+03  0.89943335980E+02 0.  0.
          5    1    3    3  502    0  0.32059027243E+02  0.33368754326E+02  0.84174377061E+02  0.96145999120E+02  0.41800000000E+01 0.  1.
         -5    1    3    3    0  502 -0.68436121867E+02 -0.33052456766E+02  0.51219018525E+02  0.91743271868E+02  0.41800000000E+01 0.  1.
        -11    1    4    4    0    0  0.35804023407E+02  0.29593114779E+02  0.24152130199E+03  0.24594759574E+03  0.00000000000E+00 0.  1.
         11    1    4    4    0    0  0.57307121772E+00 -0.29909412339E+02  0.29910173205E+02  0.42302716441E+02  0.00000000000E+00 0. -1.
</event>
<event>
 8    1  0.7224924E-009  0.1003605E+03  0.7561462E-02  0.1279540E+00
         -2   -1    0    0    0  501 -0.00000000000E+00  0.00000000000E+00  0.34876898032E+03  0.34876898032E+03  0.00000000000E+00 0.  1.
          2   -1    0    0  501    0  0.00000000000E+00 -0.00000000000E+00 -0.39606757429E+02  0.39606757429E+02  0.00000000000E+00 0. -1.
         25    2    1    2    0    0  0.22281883865E+02  0.40634870809E+02  0.17850103482E+03  0.22284578743E+03  0.12509976208E+03 0.  0.
         23    2    1    2    0    0 -0.22281883865E+02 -0.40634870809E+02  0.13066118807E+03  0.16552995031E+03  0.90444144688E+02 0.  0.
          5    1    3    3  502    0  0.71117844157E+02  0.39721053674E+02  0.13265759130E+03  0.15572738614E+03  0.41800000000E+01 0.  1.
         -5    1    3    3    0  502 -0.48835960292E+02  0.91381713536E+00  0.45843443514E+02  0.67118401297E+02  0.41800000000E+01 0.  1.
        -11    1    4    4    0    0  0.75698207825E+01 -0.39542377151E+02  0.10355083807E+02  0.41570777453E+02  0.00000000000E+00 0. -1.
         11    1    4    4    0    0 -0.29851704647E+02 -0.10924936577E+01  0.12030610427E+03  0.12395917286E+03  0.00000000000E+00 0.  1.
</event>
<event>
 8    1  0.7224924E-009  0.2497562E+03  0.7561462E-02  0.1113459E+00
         -2   -1    0    0    0  501 -0.00000000000E+00  0.00000000000E+00  0.47375936197E+02  0.47375936197E+02  0.00000000000E+00 0.  1.
          2   -1    0    0  501    0  0.00000000000E+00 -0.00000000000E+00 -0.15486684115E+04  0.15486684115E+04  0.00000000000E+00 0. -1.
         25    2    1    2    0    0  0.57369597420E+02 -0.24095681792E+03 -0.80432996863E+03  0.85084988490E+03  0.12508944555E+03 0.  0.
         23    2    1    2    0    0 -0.57369597420E+02  0.24095681792E+03 -0.69696250667E+03  0.74519446279E+03  0.90590247060E+02 0.  0.
          5    1    3    3  502    0 -0.13671078898E+01 -0.37427164863E+02 -0.30330337665E+02  0.48374202180E+02  0.41800000000E+01 0. -1.
         -5    1    3    3    0  502  0.58736705310E+02 -0.20352965306E+03 -0.77399963096E+03  0.80247568272E+03  0.41800000000E+01 0. -1.
        -11    1    4    4    0    0 -0.22823761624E+02  0.16419649297E+03 -0.33760248631E+03  0.37610749947E+03  0.00000000000E+00 0. -1.
         11    1    4    4    0    0 -0.34545835795E+02  0.76760324947E+02 -0.35936002037E+03  0.36908696332E+03  0.00000000000E+00 0.  1.
</event>
<event>
 8    1  0.7224924E-009  0.8532816E+02  0.7561462E-02  0.1314577E+00
          2   -1    0    0  501    0  0.00000000000E+00  0.00000000000E+00  0.15457365992E+03  0.15457365992E+03  0.00000000000E+00 0. -1.
         -2   -1    0    0    0  501 -0.00000000000E+00 -0.00000000000E+00 -0.16386814695E+03  0.16386814695E+03  0.00000000000E+00 0.  1.
         25    2    1    2    0    0 -0.10113696298E+01  0.51520282055E+02 -0.10913407434E+03  0.17381528202E+03  0.12508454641E+03 0.  0.
         23    2    1    2    0    0  0.10113696298E+01 -0.51520282055E+02  0.99839587312E+02  0.14462652484E+03  0.91068799058E+02 0.  0.
          5    1    3    3  502    0 -0.24354776672E+02  0.31487950497E+02 -0.13025637646E+03  0.13626753899E+03  0.41800000000E+01 0.  1.
         -5    1    3    3    0  502  0.23343407042E+02  0.20032331558E+02  0.21122302121E+02  0.37547743033E+02  0.41800000000E+01 0.  1.
        -11    1    4    4    0    0 -0.15294879186E+02  0.20593642300E+02  0.47687601322E+02  0.54149226701E+02  0.00000000000E+00 0. -1.
         11    1    4    4    0    0  0.16306248816E+02 -0.72113924355E+02  0.52151985990E+02  0.90477298141E+02  0.00000000000E+00 0.  1.
</event>
<event>
 8    1  0.7224924E-009  0.1504666E+03  0.7561462E-02  0.1199901E+00
          2   -1    0    0  501    0  0.00000000000E+00  0.00000000000E+00  0.59565226267E+02  0.59565226267E+02  0.00000000000E+00 0.  1.
         -2   -1    0    0    0  501 -0.00000000000E+00 -0.00000000000E+00 -0.55225024792E+03  0.55225024792E+03  0.00000000000E+00 0. -1.
         25    2    1    2    0    0 -0.74871325296E+02  0.10407740044E+03 -0.37521021903E+03  0.41577861855E+03  0.12510527784E+03 0.  0.
         23    2    1    2    0    0  0.74871325296E+02 -0.10407740044E+03 -0.11747480262E+03  0.19603685563E+03  0.90511319077E+02 0.  0.
          5    1    3    3  502    0 -0.67611740500E+02  0.12918798561E+03 -0.26563857289E+03  0.30305479189E+03  0.41800000000E+01 0.  1.
         -5    1    3    3    0  502 -0.72595847955E+01 -0.25110585171E+02 -0.10957164614E+03  0.11272382666E+03  0.41800000000E+01 0.  1.
        -11    1    4    4    0    0  0.45058236111E+02 -0.70701517828E+02 -0.12514425741E+03  0.15063211619E+03  0.00000000000E+00 0. -1.
         11    1    4    4    0    0  0.29813089184E+02 -0.33375882615E+02  0.76694547923E+01  0.45404739443E+02  0.00000000000E+00 0.  1.
</event>
<event>
 8    1  0.7224924E-009  0.1294643E+03  0.7561462E-02  0.1228253E+00
         -2   -1    0    0    0  501 -0.00000000000E+00  0.00000000000E+00  0.94924481189E+02  0.94924481189E+02  0.00000000000E+00 0.  1.
          2   -1    0    0  501    0  0.00000000000E+00 -0.00000000000E+00 -0.31745486741E+03  0.31745486741E+03  0.00000000000E+00 0. -1.
         25    2    1    2    0    0 -0.11333527537E+03 -0.24577459303E+02 -0.35195310972E+02  0.17416861734E+03  0.12508821368E+03 0.  0.
         23    2    1    2    0    0  0.11333527537E+03  0.24577459303E+02 -0.18733507525E+03  0.23821073126E+03  0.90559295059E+02 0.  0.
          5    1    3    3  502    0 -0.86952638102E+02 -0.61958281974E+01  0.37179067430E+02  0.94862558551E+02  0.41800000000E+01 0.  1.
         -5    1    3    3    0  502 -0.26382637265E+02 -0.18381631105E+02 -0.72374378402E+02  0.79306058786E+02  0.41800000000E+01 0.  1.
        -11    1    4    4    0    0  0.79892192913E+02 -0.21087663219E+02 -0.14726178866E+03  0.16885936879E+03  0.00000000000E+00 0. -1.
         11    1    4    4    0    0  0.33443082454E+02  0.45665122522E+02 -0.40073286592E+02  0.69351362475E+02  0.00000000000E+00 0.  1.
</event>
<event>
 8    1  0.7224924E-009  0.1019676E+03  0.7561462E-02  0.1276212E+00
         -4   -1    0    0    0  501 -0.00000000000E+00  0.00000000000E+00  0.79108678639E+02  0.79108678639E+02  0.00000000000E+00 0.  1.
          4   -1    0    0  501    0  0.00000000000E+00 -0.00000000000E+00 -0.20945017666E+03  0.20945017666E+03  0.00000000000E+00 0. -1.
         25    2    1    2    0    0  0.15102322963E+01  0.57169952007E+02 -0.28502186472E+02  0.14046951232E+03  0.12509446448E+03 0.  0.
         23    2    1    2    0    0 -0.15102322963E+01 -0.57169952007E+02 -0.10183931155E+03  0.14808934298E+03  0.91041330802E+02 0.  0.
          5    1    3    3  502    0 -0.39321228286E+02  0.56104356202E+02 -0.58040995197E+02  0.89889305828E+02  0.41800000000E+01 0. -1.
         -5    1    3    3    0  502  0.40831460582E+02  0.10655958052E+01  0.29538808725E+02  0.50580206490E+02  0.41800000000E+01 0. -1.
        -11    1    4    4    0    0 -0.12029178835E+02 -0.73683072135E+02 -0.10439529666E+03  0.12834435799E+03  0.00000000000E+00 0. -1.
         11    1    4    4    0    0  0.10518946539E+02  0.16513120128E+02  0.25559851076E+01  0.19744984997E+02  0.00000000000E+00 0.  1.
</event>
<event>
 8    1  0.7224924E-009  0.9909027E+02  0.7561462E-02  0.1282221E+00
         -3   -1    0    0    0  501 -0.00000000000E+00  0.00000000000E+00  0.40333951068E+03  0.40333951068E+03  0.00000000000E+00 0.  1.
          3   -1    0    0  501    0  0.00000000000E+00 -0.00000000000E+00 -0.44609999413E+02  0.44609999413E+02  0.00000000000E+00 0. -1.
         25    2    1    2    0    0 -0.67375087247E+01 -0.26604145922E+01  0.65826469293E+02  0.14153229282E+03  0.12508314843E+03 0.  0.
         23    2    1    2    0    0  0.67375087247E+01  0.26604145922E+01  0.29290304198E+03  0.30641721728E+03  0.89704220733E+02 0.  0.
          5    1    3    3  502    0 -0.61471247656E+02  0.64535184357E+01  0.10076467053E+02  0.62764398960E+02  0.41800000000E+01 0.  1.
         -5    1    3    3    0  502  0.54733738931E+02 -0.91139330280E+01  0.55750002240E+02  0.78767893855E+02  0.41800000000E+01 0.  1.
        -11    1    4    4    0    0  0.39344144381E+02  0.19473427011E+02  0.22495066434E+03  0.22919419156E+03  0.00000000000E+00 0.  1.
         11    1    4    4    0    0 -0.32606635657E+02 -0.16813012418E+02  0.67952377637E+02  0.77223025724E+02  0.00000000000E+00 0. -1.
</event>
<event>
 8    1  0.7224924E-009  0.6682072E+02  0.7561462E-02  0.1371251E+00
          2   -1    0    0  501    0  0.00000000000E+00  0.00000000000E+00  0.13456874564E+04  0.13456874564E+04  0.00000000000E+00 0. -1.
         -2   -1    0    0    0  501 -0.00000000000E+00 -0.00000000000E+00 -0.93224190741E+01  0.93224190741E+01  0.00000000000E+00 0.  1.
         25    2    1    2    0    0 -0.81742710724E+01 -0.44623515767E+01  0.92403637435E+03  0.93251142655E+03  0.12509040022E+03 0.  0.
         23    2    1    2    0    0  0.81742710724E+01  0.44623515767E+01  0.41232866294E+03  0.42249844890E+03  0.91669415540E+02 0.  0.
          5    1    3    3  502    0  0.52666648157E+01 -0.20504581482E+02  0.90042703715E+03  0.90068557069E+03  0.41800000000E+01 0.  1.
         -5    1    3    3    0  502 -0.13440935888E+02  0.16042229905E+02  0.23609337200E+02  0.31825855855E+02  0.41800000000E+01 0.  1.
        -11    1    4    4    0    0  0.49358876860E+02  0.41716961342E+01  0.18775514077E+03  0.19417954233E+03  0.00000000000E+00 0.  1.
         11    1    4    4    0    0 -0.41184605787E+02  0.29065544254E+00  0.22457352218E+03  0.22831890657E+03  0.00000000000E+00 0. -1.
</event>
<event>
 8    1  0.7224924E-009  0.1512006E+03  0.7561462E-02  0.1199005E+00
         -1   -1    0    0    0  501 -0.00000000000E+00  0.00000000000E+00  0.85861690935E+02  0.85861690935E+02  0.00000000000E+00 0.  1.
          1   -1    0    0  501    0  0.00000000000E+00 -0.00000000000E+00 -0.33919589487E+03  0.33919589487E+03  0.00000000000E+00 0. -1.
         25    2    1    2    0    0  0.86393267520E+02  0.90208800174E+02 -0.82703673730E+02  0.19516414140E+03  0.12509084754E+03 0.  0.
         23    2    1    2    0    0 -0.86393267520E+02 -0.90208800174E+02 -0.17063053020E+03  0.22989344440E+03  0.90193090867E+02 0.  0.
          5    1    3    3  502    0  0.95160877355E+02  0.10199815747E+03 -0.10029992473E+03  0.17186263121E+03  0.41800000000E+01 0. -1.
         -5    1    3    3    0  502 -0.87676098350E+01 -0.11789357298E+02  0.17596251001E+02  0.23301510187E+02  0.41800000000E+01 0. -1.
        -11    1    4    4    0    0  0.91365212292E+01 -0.37220678676E+02 -0.18376458124E+02  0.42503519318E+02  0.00000000000E+00 0.  1.
         11    1    4    4    0    0 -0.95529788749E+02 -0.52988121499E+02 -0.15225407208E+03  0.18738992508E+03  0.00000000000E+00 0. -1.
</event>
<event>
 8    1  0.7224924E-009  0.1325774E+03  0.7561462E-02  0.1223681E+00
         -2   -1    0    0    0  501 -0.00000000000E+00  0.00000000000E+00  0.15219153799E+02  0.15219153799E+02  0.00000000000E+00 0.  1.
          2   -1    0    0  501    0  0.00000000000E+00 -0.00000000000E+00 -0.16768088917E+04  0.16768088917E+04  0.00000000000E+00 0. -1.
         25    2    1    2    0    0 -0.99202347364E+02  0.59147390434E+02 -0.82215468446E+03  0.83959806838E+03  0.12508825578E+03 0.  0.
         23    2    1    2    0    0  0.99202347364E+02 -0.59147390434E+02 -0.83943505343E+03  0.85242997711E+03  0.92984608523E+02 0.  0.
          5    1    3    3  502    0 -0.75670337384E+02  0.37158654275E+02 -0.78785161483E+03  0.79236002230E+03  0.41800000000E+01 0. -1.
         -5    1    3    3    0  502 -0.23532009980E+02  0.21988736159E+02 -0.34303069622E+02  0.47238046076E+02  0.41800000000E+01 0. -1.
        -11    1    4    4    0    0  0.84432532965E+02 -0.84167681150E+02 -0.67291845641E+03  0.68339761497E+03  0.00000000000E+00 0.  1.
         11    1    4    4    0    0  0.14769814399E+02  0.25020290716E+02 -0.16651659702E+03  0.16903236214E+03  0.00000000000E+00 0. -1.
</event>
<event>
 8    1  0.7224924E-009  0.9009568E+02  0.7561462E-02  0.1302620E+00
          1   -1    0    0  501    0  0.00000000000E+00  0.00000000000E+00  0.63331286782E+03  0.63331286782E+03  0.00000000000E+00 0. -1.
         -1   -1    0    0    0  501 -0.00000000000E+00 -0.00000000000E+00 -0.19639324505E+02  0.19639324505E+02  0.00000000000E+00 0.  1.
         25    2    1    2    0    0 -0.10398940351E+02 -0.63390113146E+01  0.41281102011E+03  0.43151870313E+03  0.12508849590E+03 0.  0.
         23    2    1    2    0    0  0.10398940351E+02  0.63390113146E+01  0.20086252321E+03  0.22143348919E+03  0.92405172375E+02 0.  0.
          5    1    3    3  502    0  0.39948154378E+02 -0.46279130994E+02  0.20123083785E+03  0.21035430945E+03  0.41800000000E+01 0. -1.
         -5    1    3    3    0  502 -0.50347094728E+02  0.39940119680E+02  0.21158018226E+03  0.22116439368E+03  0.41800000000E+01 0. -1.
        -11    1    4    4    0    0 -0.11776878465E+02 -0.18047284101E+02  0.41090753550E+01  0.21938182014E+02  0.00000000000E+00 0.  1.
         11    1    4    4    0    0  0.22175818816E+02  0.24386295416E+02  0.19675344785E+03  0.19949530718E+03  0.00000000000E+00 0. -1.
</event>
<event>
 8    1  0.7224924E-009  0.1347437E+03  0.7561462E-02  0.1220582E+00
          3   -1    0    0  501    0  0.00000000000E+00  0.00000000000E+00  0.10739364337E+03  0.10739364337E+03  0.00000000000E+00 0. -1.
         -3   -1    0    0    0  501 -0.00000000000E+00 -0.00000000000E+00 -0.18187017243E+03  0.18187017243E+03  0.00000000000E+00 0.  1.
         25    2    1    2    0    0  0.31350493879E+01 -0.81108992012E+02 -0.43004586740E+01  0.14917979520E+03  0.12509044820E+03 0.  0.
         23    2    1    2    0    0 -0.31350493879E+01  0.81108992012E+02 -0.70176070387E+02  0.14008402060E+03  0.90057508585E+02 0.  0.
          5    1    3    3  502    0  0.30384132432E+02 -0.10696641403E+03 -0.16241315190E+01  0.11128845150E+03  0.41800000000E+01 0. -1.
         -5    1    3    3    0  502 -0.27249083044E+02  0.25857422019E+02 -0.26763271549E+01  0.37891343698E+02  0.41800000000E+01 0. -1.
        -11    1    4    4    0    0  0.33087581630E+02  0.16971754832E+01 -0.26819719878E+02  0.42625882244E+02  0.00000000000E+00 0.  1.
         11    1    4    4    0    0 -0.36222631018E+02  0.79411816529E+02 -0.43356350509E+02  0.97458138356E+02  0.00000000000E+00 0. -1.
</event>
<event>
 8    1  0.7224924E-009  0.1139422E+03  0.7561462E-02  0.1253439E+00
          3   -1    0    0  501    0  0.00000000000E+00  0.00000000000E+00  0.37981187579E+03  0.37981187579E+03  0.00000000000E+00 0. -1.
         -3   -1    0    0    0  501 -0.00000000000E+00 -0.00000000000E+00 -0.53861860764E+02  0.53861860764E+02  0.00000000000E+00 0.  1.
         25    2    1    2    0    0 -0.89673637998E+02 -0.28080063674E+02  0.15959935158E+03  0.22349346665E+03  0.12509006869E+03 0.  0.
         23    2    1    2    0    0  0.89673637998E+02  0.28080063674E+02  0.16635066344E+03  0.21018026990E+03  0.87597667201E+02 0.  0.
          5    1    3    3  502    0 -0.76053583073E+02 -0.48608080675E+02  0.17297361043E+03  0.19515182630E+03  0.41800000000E+01 0. -1.
         -5    1    3    3    0  502 -0.13620054925E+02  0.20528017001E+02 -0.13374258845E+02  0.28341640351E+02  0.41800000000E+01 0. -1.
        -11    1    4    4    0    0  0.77680013031E+02 -0.45121649819E+01  0.15535550219E+03  0.17375234133E+03  0.00000000000E+00 0. -1.
         11    1    4    4    0    0  0.11993624967E+02  0.32592228656E+02  0.10995161249E+02  0.36427928565E+02  0.00000000000E+00 0.  1.
</event>
<event>
 8    1  0.7224924E-009  0.1034208E+03  0.7561462E-02  0.1273263E+00
         -2   -1    0    0    0  501 -0.00000000000E+00  0.00000000000E+00  0.58580552364E+03  0.58580552364E+03  0.00000000000E+00 0.  1.
          2   -1    0    0  501    0  0.00000000000E+00 -0.00000000000E+00 -0.24476689459E+02  0.24476689459E+02  0.00000000000E+00 0. -1.
         25    2    1    2    0    0 -0.41463103258E+02  0.30036551227E+02  0.33892865368E+03  0.36488566187E+03  0.12509008996E+03 0.  0.
         23    2    1    2    0    0  0.41463103258E+02 -0.30036551227E+02  0.22240018049E+03  0.24539655123E+03  0.90201129319E+02 0.  0.
          5    1    3    3  502    0 -0.71341126148E+02  0.51291277999E+02  0.29326603990E+03  0.30617445034E+03  0.41800000000E+01 0.  1.
         -5    1    3    3    0  502  0.29878022891E+02 -0.21254726772E+02  0.45662613783E+02  0.58711211532E+02  0.41800000000E+01 0.  1.
        -11    1    4    4    0    0  0.46977729625E+02  0.43200097314E+01  0.47052302278E+02  0.66629488325E+02  0.00000000000E+00 0. -1.
         11    1    4    4    0    0 -0.55146263669E+01 -0.34356560958E+02  0.17534787822E+03  0.17876706291E+03  0.00000000000E+00 0.  1.
</event>
<event>
 8    1  0.7224924E-009  0.1967487E+03  0.7561462E-02  0.1152512E+00
         -4   -1    0    0    0  501 -0.00000000000E+00  0.00000000000E+00  0.13218433394E+03  0.13218433394E+03  0.00000000000E+00 0.  1.
          4   -1    0    0  501    0  0.00000000000E+00 -0.00000000000E+00 -0.37710347063E+03  0.37710347063E+03  0.00000000000E+00 0. -1.
         25    2    1    2    0    0 -0.93616210756E+02  0.15464503318E+03 -0.21045858555E+03  0.30433461048E+03  0.12509059798E+03 0.  0.
         23    2    1    2    0    0  0.93616210756E+02 -0.15464503318E+03 -0.34460551141E+02  0.20495319408E+03  0.90217520338E+02 0.  0.
          5    1    3    3  502    0 -0.86590824871E+01  0.12071079094E+03 -0.80722709562E+02  0.14553248091E+03  0.41800000000E+01 0.  1.
         -5    1    3    3    0  502 -0.84957128269E+02  0.33934242234E+02 -0.12973587599E+03  0.15880212957E+03  0.41800000000E+01 0.  1.
        -11    1    4    4    0    0  0.67032101845E+02 -0.10690034499E+03 -0.65437308538E+02  0.14213735535E+03  0.00000000000E+00 0.  1.
         11    1    4    4    0    0  0.26584108911E+02 -0.47744688191E+02  0.30976757397E+02  0.62815838734E+02  0.00000000000E+00 0. -1.
</event>
<event>
 8    1  0.7224924E-009  0.2566254E+03  0.7561462E-02  0.1109188E+00
         -2   -1    0    0    0  501 -0.00000000000E+00  0.00000000000E+00  0.26312048967E+02  0.26312048967E+02  0.00000000000E+00 0. -1.
          2   -1    0    0  501    0  0.00000000000E+00 -0.00000000000E+00 -0.27342777795E+04  0.27342777795E+04  0.00000000000E+00 0.  1.
         25    2    1    2    0    0  0.17077886418E+03 -0.15903934278E+03 -0.17654979942E+04  0.17852421393E+04  0.12508955040E+03 0.  0.
         23    2    1    2    0    0 -0.17077886418E+03  0.15903934278E+03 -0.94246773636E+03  0.97534768913E+03  0.92729432319E+02 0.  0.
          5    1    3    3  502    0  0.13570339314E+03 -0.17709541335E+03 -0.14118645734E+04  0.14293905143E+04  0.41800000000E+01 0.  1.
         -5    1    3    3    0  502  0.35075471042E+02  0.18056070574E+02 -0.35363342071E+03  0.35585162498E+03  0.41800000000E+01 0.  1.
        -11    1    4    4    0    0 -0.33912421904E+02 -0.76359632867E+01 -0.10774986017E+03  0.11321834065E+03  0.00000000000E+00 0. -1.
         11    1    4    4    0    0 -0.13686644228E+03  0.16667530606E+03 -0.83471787619E+03  0.86212934848E+03  0.00000000000E+00 0.  1.
</event>
<event>
 8    1  0.7224924E-009  0.8354451E+02  0.7561462E-02  0.1319283E+00
         -3   -1    0    0    0  501 -0.00000000000E+00  0.00000000000E+00  0.29286458170E+02  0.29286458170E+02  0.00000000000E+00 0.  1.
          3   -1    0    0  501    0  0.00000000000E+00 -0.00000000000E+00 -0.66091627536E+03  0.66091627536E+03  0.00000000000E+00 0. -1.
         25    2    1    2    0    0 -0.11467822022E+02  0.41949489414E+02 -0.52327395491E+03  0.53976990270E+03  0.12507855677E+03 0.  0.
         23    2    1    2    0    0  0.11467822022E+02 -0.41949489414E+02 -0.10835586227E+03  0.15043283083E+03  0.94856592278E+02 0.  0.
          5    1    3    3  502    0  0.18058612421E+02  0.12091347101E+02 -0.47554958711E+03  0.47606427755E+03  0.41800000000E+01 0.  1.
         -5    1    3    3    0  502 -0.29526434443E+02  0.29858142313E+02 -0.47724367802E+02  0.63705625147E+02  0.41800000000E+01 0.  1.
        -11    1    4    4    0    0  0.42028091175E+02  0.93411923141E+01 -0.32743513728E+02  0.54090258022E+02  0.00000000000E+00 0.  1.
         11    1    4    4    0    0 -0.30560269153E+02 -0.51290681728E+02 -0.75612348546E+02  0.96342572809E+02  0.00000000000E+00 0. -1.
</event>
<event>
 8    1  0.7224924E-009  0.1144971E+03  0.7561462E-02  0.1252462E+00
          1   -1    0    0  501    0  0.00000000000E+00  0.00000000000E+00  0.99287799078E+03  0.99287799078E+03  0.00000000000E+00 0. -1.
         -1   -1    0    0    0  501 -0.00000000000E+00 -0.00000000000E+00 -0.16016474057E+02  0.16016474057E+02  0.00000000000E+00 0.  1.
         25    2    1    2    0    0  0.56086405878E+02 -0.30274314819E+02  0.58840079683E+03  0.60491807886E+03  0.12509262712E+03 0.  0.
         23    2    1    2    0    0 -0.56086405878E+02  0.30274314819E+02  0.38846071989E+03  0.40397638597E+03  0.90735717688E+02 0.  0.
          5    1    3    3  502    0 -0.27389888190E+02  0.26155630176E+02  0.20278065392E+03  0.20632932164E+03  0.41800000000E+01 0. -1.
         -5    1    3    3    0  502  0.83476294068E+02 -0.56429944995E+02  0.38562014292E+03  0.39858875722E+03  0.41800000000E+01 0. -1.
        -11    1    4    4    0    0 -0.15829834115E+02 -0.20084624088E+02  0.28515797099E+02  0.38303086782E+02  0.00000000000E+00 0.  1.
         11    1    4    4    0    0 -0.40256571763E+02  0.50358938907E+02  0.35994492279E+03  0.36567329919E+03  0.00000000000E+00 0. -1.
</event>
<event>
 8    1  0.7224924E-009  0.1169462E+03  0.7561462E-02  0.1248222E+00
         -1   -1    0    0    0  501 -0.00000000000E+00  0.00000000000E+00  0.60680386431E+03  0.60680386431E+03  0.00000000000E+00 0.  1.
          1   -1    0    0  501    0  0.00000000000E+00 -0.00000000000E+00 -0.76393906673E+02  0.76393906673E+02  0.00000000000E+00 0. -1.
         25    2    1    2    0    0 -0.28595896985E+02 -0.33248048872E+02 -0.10252229725E+02  0.13296243516E+03  0.12510292911E+03 0.  0.
         23    2    1    2    0    0  0.28595896985E+02  0.33248048872E+02  0.54066218736E+03  0.55023533582E+03  0.92304744556E+02 0.  0.
          5    1    3    3  502    0  0.46264981234E+02 -0.32549797324E+02 -0.11928715329E+02  0.57962957514E+02  0.41800000000E+01 0. -1.
         -5    1    3    3    0  502 -0.74860878219E+02 -0.69825154879E+00  0.16764856042E+01  0.74999477644E+02  0.41800000000E+01 0. -1.
        -11    1    4    4    0    0  0.40743590992E+02  0.60162514023E+02  0.38249375639E+03  0.38933410071E+03  0.00000000000E+00 0.  1.
         11    1    4    4    0    0 -0.12147694007E+02 -0.26914465151E+02  0.15816843097E+03  0.16090123511E+03  0.00000000000E+00 0. -1.
</event>
<event>
 8    1  0.7224924E-009  0.1148304E+03  0.7561462E-02  0.1251877E+00
         -3   -1    0    0    0  501 -0.00000000000E+00  0.00000000000E+00  0.68869935502E+03  0.68869935502E+03  0.00000000000E+00 0.  1.
          3   -1    0    0  501    0  0.00000000000E+00 -0.00000000000E+00 -0.27526507005E+02  0.27526507005E+02  0.00000000000E+00 0. -1.
         25    2    1    2    0    0  0.17409379840E+02 -0.82762753834E+02  0.33852401147E+03  0.37067294961E+03  0.12508864575E+03 0.  0.
         23    2    1    2    0    0 -0.17409379840E+02  0.82762753834E+02  0.32264883654E+03  0.34555291242E+03  0.90287228506E+02 0.  0.
          5    1    3    3  502    0 -0.34684899653E+02 -0.54202867024E+02  0.68175674788E+02  0.93842357655E+02  0.41800000000E+01 0. -1.
         -5    1    3    3    0  502  0.52094279493E+02 -0.28559886810E+02  0.27034833669E+03  0.27683059195E+03  0.41800000000E+01 0. -1.
        -11    1    4    4    0    0 -0.41417794543E+02  0.56205142177E+02  0.28569048739E+03  0.29409778357E+03  0.00000000000E+00 0.  1.
         11    1    4    4    0    0  0.24008414702E+02  0.26557611657E+02  0.36958349148E+02  0.51455128852E+02  0.00000000000E+00 0. -1.
</event>
<event>
 8    1  0.7224924E-009  0.1090216E+03  0.7561462E-02  0.1262393E+00
          1   -1    0    0  501    0  0.00000000000E+00  0.00000000000E+00  0.33364159066E+03  0.33364159066E+03  0.00000000000E+00 0. -1.
         -1   -1    0    0    0  501 -0.00000000000E+00 -0.00000000000E+00 -0.63232854093E+02  0.63232854093E+02  0.00000000000E+00 0.  1.
         25    2    1    2    0    0 -0.79582490192E+02  0.23402487697E+02  0.74995824510E+02  0.16778683387E+03  0.12508796405E+03 0.  0.
         23    2    1    2    0    0  0.79582490192E+02 -0.23402487697E+02  0.19541291206E+03  0.22908761088E+03  0.86103879626E+02 0.  0.
          5    1    3    3  502    0 -0.16039639208E+02  0.39313562734E+02  0.90755180427E+02  0.10028360492E+03  0.41800000000E+01 0.  1.
         -5    1    3    3    0  502 -0.63542850983E+02 -0.15911075038E+02 -0.15759355917E+02  0.67503228951E+02  0.41800000000E+01 0.  1.
        -11    1    4    4    0    0  0.21946816814E+02  0.25862004881E+02  0.10885652551E+03  0.11401863537E+03  0.00000000000E+00 0.  1.
         11    1    4    4    0    0  0.57635673377E+02 -0.49264492578E+02  0.86556386545E+02  0.11506897552E+03  0.00000000000E+00 0. -1.
</event>
<event>
 8    1  0.7224924E-009  0.1302487E+03  0.7561462E-02  0.1227087E+00
         -2   -1    0    0    0  501 -0.00000000000E+00  0.00000000000E+00  0.28718882197E+02  0.28718882197E+02  0.00000000000E+00 0. -1.
          2   -1    0    0  501    0  0.00000000000E+00 -0.00000000000E+00 -0.74851061461E+03  0.74851061461E+03  0.00000000000E+00 0.  1.
         25    2    1    2    0    0  0.92958213710E+02  0.17997524359E+01 -0.47913063525E+03  0.50384397587E+03  0.12509243692E+03 0.  0.
         23    2    1    2    0    0 -0.92958213710E+02 -0.17997524359E+01 -0.24066109717E+03  0.27338552095E+03  0.90429037195E+02 0.  0.
          5    1    3    3  502    0 -0.14060785290E+02  0.21152727845E+02 -0.21771458380E+02  0.33713682360E+02  0.41800000000E+01 0. -1.
         -5    1    3    3    0  502  0.10701899900E+03 -0.19352975409E+02 -0.45735917687E+03  0.47013029351E+03  0.41800000000E+01 0. -1.
        -11    1    4    4    0    0 -0.78938776676E+02 -0.37627490581E+02 -0.19477217731E+03  0.21350259850E+03  0.00000000000E+00 0.  1.
         11    1    4    4    0    0 -0.14019437034E+02  0.35827738145E+02 -0.45888919854E+02  0.59882922447E+02  0.00000000000E+00 0. -1.
</event>
<event>
 8    1  0.7224924E-009  0.1134190E+03  0.7561462E-02  0.1254366E+00
         -1   -1    0    0    0  501 -0.00000000000E+00  0.00000000000E+00  0.18353757351E+02  0.18353757351E+02  0.00000000000E+00 0.  1.
          1   -1    0    0  501    0  0.00000000000E+00 -0.00000000000E+00 -0.11162733943E+04  0.11162733943E+04  0.00000000000E+00 0. -1.
         25    2    1    2    0    0  0.11888798685E+02 -0.84815688202E+02 -0.75037598864E+03  0.76553740824E+03  0.12509338348E+03 0.  0.
         23    2    1    2    0    0 -0.11888798685E+02  0.84815688202E+02 -0.34754364827E+03  0.36908974337E+03  0.90031142998E+02 0.  0.
          5    1    3    3  502    0  0.15873122355E+02 -0.99731044588E+02 -0.33647908271E+03  0.35133158522E+03  0.41800000000E+01 0. -1.
         -5    1    3    3    0  502 -0.39843236705E+01  0.14915356385E+02 -0.41389690592E+03  0.41420582302E+03  0.41800000000E+01 0. -1.
        -11    1    4    4    0    0  0.28131077636E+02  0.24047879681E+02 -0.21242916505E+03  0.21562886683E+03  0.00000000000E+00 0. -1.
         11    1    4    4    0    0 -0.40019876321E+02  0.60767808522E+02 -0.13511448322E+03  0.15346087654E+03  0.00000000000E+00 0.  1.
</event>
<event>
 8    1  0.7224924E-009  0.3393460E+03  0.7561462E-02  0.1067075E+00
          1   -1    0    0  501    0  0.00000000000E+00  0.00000000000E+00  0.20384209869E+03  0.20384209869E+03  0.00000000000E+00 0. -1.
         -1   -1    0    0    0  501 -0.00000000000E+00 -0.00000000000E+00 -0.71451991024E+03  0.71451991024E+03  0.00000000000E+00 0.  1.
         25    2    1    2    0    0 -0.31730596671E+03 -0.11483019277E+03 -0.42282844937E+03  0.55524748784E+03  0.12508727142E+03 0.  0.
         23    2    1    2    0    0  0.31730596671E+03  0.11483019277E+03 -0.87849362169E+02  0.36311452109E+03  0.10131927414E+03 0.  0.
          5    1    3    3  502    0 -0.86070987373E+02 -0.39097623118E+02 -0.42517973583E+02  0.10374049103E+03  0.41800000000E+01 0. -1.
         -5    1    3    3    0  502 -0.23123497934E+03 -0.75732569650E+02 -0.38031047579E+03  0.45150699681E+03  0.41800000000E+01 0. -1.
        -11    1    4    4    0    0  0.17626153466E+03  0.88481713262E+02 -0.96104506160E+02  0.21939284010E+03  0.00000000000E+00 0.  1.
         11    1    4    4    0    0  0.14104443205E+03  0.26348479507E+02  0.82551439913E+01  0.14372168099E+03  0.00000000000E+00 0. -1.
</event>
<event>
 8    1  0.7224924E-009  0.2204697E+03  0.7561462E-02  0.1133533E+00
         -1   -1    0    0    0  501 -0.00000000000E+00  0.00000000000E+00  0.48645252636E+02  0.48645252636E+02  0.00000000000E+00 0.  1.
          1   -1    0    0  501    0  0.00000000000E+00 -0.00000000000E+00 -0.12219962003E+04  0.12219962003E+04  0.00000000000E+00 0. -1.
         25    2    1    2    0    0  0.20858811102E+03 -0.62079682763E+02 -0.63045368801E+03  0.67858818401E+03  0.12508870328E+03 0.  0.
         23    2    1    2    0    0 -0.20858811102E+03  0.62079682763E+02 -0.54289725970E+03  0.59205326896E+03  0.91797340017E+02 0.  0.
          5    1    3    3  502    0  0.15321886765E+03 -0.33842751295E+02 -0.57206034789E+03  0.59320474311E+03  0.41800000000E+01 0. -1.
         -5    1    3    3    0  502  0.55369243374E+02 -0.28236931468E+02 -0.58393340116E+02  0.85383440903E+02  0.41800000000E+01 0. -1.
        -11    1    4    4    0    0 -0.54693603306E+02  0.36287937795E+02 -0.79528822817E+02  0.10311662490E+03  0.00000000000E+00 0. -1.
         11    1    4    4    0    0 -0.15389450771E+03  0.25791744968E+02 -0.46336843688E+03  0.48893664407E+03  0.00000000000E+00 0.  1.
</event>
<event>
 8    1  0.7224924E-009  0.6014145E+02  0.7561462E-02  0.1397239E+00
         -2   -1    0    0    0  501 -0.00000000000E+00  0.00000000000E+00  0.17501187891E+03  0.17501187891E+03  0.00000000000E+00 0.  1.
          2   -1    0    0  501    0  0.00000000000E+00 -0.00000000000E+00 -0.85953361721E+02  0.85953361721E+02  0.00000000000E+00 0. -1.
         25    2    1    2    0    0 -0.76286979039E+01 -0.10200626285E+02  0.11170267995E+03  0.16818768404E+03  0.12508940222E+03 0.  0.
         23    2    1    2    0    0  0.76286979039E+01  0.10200626285E+02 -0.22644162752E+02  0.92777556594E+02  0.89065521345E+02 0.  0.
          5    1    3    3  502    0  0.11708709599E+02 -0.77606801696E+01 -0.25571542058E+02  0.29473686576E+02  0.41800000000E+01 0.  1.
         -5    1    3    3    0  502 -0.19337407503E+02 -0.24399461151E+01  0.13727422200E+03  0.13871399746E+03  0.41800000000E+01 0.  1.
        -11    1    4    4    0    0  0.46085903200E+02  0.75129830991E+00 -0.26198426374E+02  0.53017284610E+02  0.00000000000E+00 0.  1.
         11    1    4    4    0    0 -0.38457205296E+02  0.94493279748E+01  0.35542636220E+01  0.39760271984E+02  0.00000000000E+00 0. -1.
</event>
<event>
 8    1  0.7224924E-009  0.1379656E+03  0.7561462E-02  0.1216093E+00
         -2   -1    0    0    0  501 -0.00000000000E+00  0.00000000000E+00  0.28451808533E+03  0.28451808533E+03  0.00000000000E+00 0.  1.
          2   -1    0    0  501    0  0.00000000000E+00 -0.00000000000E+00 -0.70623921850E+02  0.70623921850E+02  0.00000000000E+00 0. -1.
         25    2    1    2    0    0 -0.45430668234E+02  0.80476918325E+02  0.12305909724E+03  0.19832234145E+03  0.12509088578E+03 0.  0.
         23    2    1    2    0    0  0.45430668234E+02 -0.80476918325E+02  0.90835066246E+02  0.15681966574E+03  0.88322807375E+02 0.  0.
          5    1    3    3  502    0  0.39738272425E+02  0.10872430885E+02  0.14916955611E+02  0.44015088474E+02  0.41800000000E+01 0.  1.
         -5    1    3    3    0  502 -0.85168940659E+02  0.69604487440E+02  0.10814214163E+03  0.15430725297E+03  0.41800000000E+01 0.  1.
        -11    1    4    4    0    0 -0.11653964369E+02 -0.63972696605E+02  0.65263698513E+02  0.92128557679E+02  0.00000000000E+00 0.  1.
         11    1    4    4    0    0  0.57084632602E+02 -0.16504221720E+02  0.25571367733E+02  0.64691108057E+02  0.00000000000E+00 0. -1.
</event>
<event>
 8    1  0.7224924E-009  0.1306064E+03  0.7561462E-02  0.1226559E+00
         -4   -1    0    0    0  501 -0.00000000000E+00  0.00000000000E+00  0.23367463024E+02  0.23367463024E+02  0.00000000000E+00 0.  1.
          4   -1    0    0  501    0  0.00000000000E+00 -0.00000000000E+00 -0.79173198837E+03  0.79173198837E+03  0.00000000000E+00 0. -1.
         25    2    1    2    0    0  0.65663722973E+02  0.44713979491E+02 -0.47659119854E+03  0.49909745283E+03  0.12509209577E+03 0.  0.
         23    2    1    2    0    0 -0.65663722973E+02 -0.44713979491E+02 -0.29177332681E+03  0.31600199856E+03  0.91730716670E+02 0.  0.
          5    1    3    3  502    0  0.97206325761E+02  0.17747284981E+02 -0.25289796265E+03  0.27154905230E+03  0.41800000000E+01 0. -1.
         -5    1    3    3    0  502 -0.31542602788E+02  0.26966694510E+02 -0.22369323589E+03  0.22754840053E+03  0.41800000000E+01 0. -1.
        -11    1    4    4    0    0  0.15619806145E+02  0.13482118690E+02 -0.64336221988E+02  0.67564009118E+02  0.00000000000E+00 0. -1.
         11    1    4    4    0    0 -0.81283529118E+02 -0.58196098181E+02 -0.22743710482E+03  0.24843798944E+03  0.00000000000E+00 0.  1.
</event>
<event>
 8    1  0.7224924E-009  0.1710206E+03  0.7561462E-02  0.1176788E+00
          4   -1    0    0  501    0  0.00000000000E+00  0.00000000000E+00  0.10905903735E+03  0.10905903735E+03  0.00000000000E+00 0. -1.
         -4   -1    0    0    0  501 -0.00000000000E+00 -0.00000000000E+00 -0.31646463212E+03  0.31646463212E+03  0.00000000000E+00 0.  1.
         25    2    1    2    0    0  0.19445217482E+02 -0.14119177381E+03 -0.52937660743E+02  0.19688461582E+03  0.12509165659E+03 0.  0.
         23    2    1    2    0    0 -0.19445217482E+02  0.14119177381E+03 -0.15446793403E+03  0.22863905366E+03  0.90012447682E+02 0.  0.
          5    1    3    3  502    0 -0.13654797923E+02  0.12260669986E+02 -0.33797796633E+02  0.38685152088E+02  0.41800000000E+01 0. -1.
         -5    1    3    3    0  502  0.33100015405E+02 -0.15345244380E+03 -0.19139864109E+02  0.15819946373E+03  0.41800000000E+01 0. -1.
        -11    1    4    4    0    0 -0.52337927031E+02  0.10470925401E+03 -0.90378813875E+02  0.14789055574E+03  0.00000000000E+00 0. -1.
         11    1    4    4    0    0  0.32892709549E+02  0.36482519805E+02 -0.64089120156E+02  0.80748497913E+02  0.00000000000E+00 0.  1.
</event>
<event>
 8    1  0.7224924E-009  0.1386694E+03  0.7561462E-02  0.1215131E+00
          2   -1    0    0  501    0  0.00000000000E+00  0.00000000000E+00  0.58107737756E+03  0.58107737756E+03  0.00000000000E+00 0. -1.
         -2   -1    0    0    0  501 -0.00000000000E+00 -0.00000000000E+00 -0.44333586875E+02  0.44333586875E+02  0.00000000000E+00 0.  1.
         25    2    1    2    0    0  0.67995328043E+02 -0.57631373459E+02  0.43822311708E+03  0.46436111901E+03  0.12508800365E+03 0.  0.
         23    2    1    2    0    0 -0.67995328043E+02  0.57631373459E+02  0.98520673607E+02  0.16104984543E+03  0.91027412045E+02 0.  0.
          5    1    3    3  502    0  0.10035136766E+03 -0.62579791090E+02  0.37205043411E+03  0.39041724497E+03  0.41800000000E+01 0.  1.
         -5    1    3    3    0  502 -0.32356039616E+02  0.49484176308E+01  0.66172682971E+02  0.73943874041E+02  0.41800000000E+01 0.  1.
        -11    1    4    4    0    0 -0.89208976536E+02  0.54549920942E+02  0.90065676667E+02  0.13800638204E+03  0.00000000000E+00 0. -1.
         11    1    4    4    0    0  0.21213648494E+02  0.30814525169E+01  0.84549969397E+01  0.23043463396E+02  0.00000000000E+00 0.  1.
</event>
<event>
 8    1  0.7224924E-009  0.1340473E+03  0.7561462E-02  0.1221571E+00
         -2   -1    0    0    0  501 -0.00000000000E+00  0.00000000000E+00  0.35448499882E+03  0.35448499882E+03  0.00000000000E+00 0.  1.
          2   -1    0    0  501    0  0.00000000000E+00 -0.00000000000E+00 -0.10580412200E+03  0.10580412200E+03  0.00000000000E+00 0. -1.
         25    2    1    2    0    0  0.11633400186E+03 -0.57633054645E+02  0.24744883360E+03  0.30615918140E+03  0.12508936858E+03 0.  0.
         23    2    1    2    0    0 -0.11633400186E+03  0.57633054645E+02  0.12320432134E+01  0.15412993942E+03  0.83062333940E+02 0.  0.
          5    1    3    3  502    0  0.83869181857E+02 -0.16718638315E+02  0.44380482252E+02  0.96439888726E+02  0.41800000000E+01 0. -1.
         -5    1    3    3    0  502  0.32464820000E+02 -0.40914416330E+02  0.20306835135E+03  0.20971929268E+03  0.41800000000E+01 0. -1.
        -11    1    4    4    0    0 -0.74659687212E+02  0.32645745707E+02  0.41111901472E+02  0.91268844903E+02  0.00000000000E+00 0. -1.
         11    1    4    4    0    0 -0.41674314645E+02  0.24987308938E+02 -0.39879858259E+02  0.62861094517E+02  0.00000000000E+00 0.  1.
</event>
<event>
 8    1  0.7224924E-009  0.1426230E+03  0.7561462E-02  0.1209842E+00
         -1   -1    0    0    0  501 -0.00000000000E+00  0.00000000000E+00  0.61331954015E+02  0.61331954015E+02  0.00000000000E+00 0.  1.
          1   -1    0    0  501    0  0.00000000000E+00 -0.00000000000E+00 -0.42640228265E+03  0.42640228265E+03  0.00000000000E+00 0. -1.
         25    2    1    2    0    0  0.16027743495E+02  0.10357144789E+03 -0.10663242308E+03  0.19494687541E+03  0.12509946922E+03 0.  0.
         23    2    1    2    0    0 -0.16027743495E+02 -0.10357144789E+03 -0.25843790555E+03  0.29278736126E+03  0.89164760439E+02 0.  0.
          5    1    3    3  502    0 -0.42715211242E+02  0.87395107327E+02 -0.42040271963E+02  0.10605352857E+03  0.41800000000E+01 0. -1.
         -5    1    3    3    0  502  0.58742954737E+02  0.16176340566E+02 -0.64592151117E+02  0.88893346834E+02  0.41800000000E+01 0. -1.
        -11    1    4    4    0    0 -0.44426872337E+02 -0.57119311473E+02 -0.20107675350E+03  0.21370124830E+03  0.00000000000E+00 0. -1.
         11    1    4    4    0    0  0.28399128842E+02 -0.46452136421E+02 -0.57361152058E+02  0.79086112956E+02  0.00000000000E+00 0.  1.
</event>
<event>
 8    1  0.7224924E-009  0.2435329E+03  0.7561462E-02  0.1117461E+00
          2   -1    0    0  501    0  0.00000000000E+00  0.00000000000E+00  0.11505251125E+04  0.11505251125E+04  0.00000000000E+00 0. -1.
         -2   -1    0    0    0  501 -0.00000000000E+00 -0.00000000000E+00 -0.55000420707E+02  0.55000420707E+02  0.00000000000E+00 0.  1.
         25    2    1    2    0    0 -0.10497098076E+03 -0.19821718262E+03  0.60533598431E+03  0.65756219919E+03  0.12508970228E+03 0.  0.
         23    2    1    2    0    0  0.10497098076E+03  0.19821718262E+03  0.49018870747E+03  0.54796333400E+03  0.98335589649E+02 0.  0.
          5    1    3    3  502    0 -0.62938655713E+02 -0.20026806069E+03  0.54350650888E+03  0.58265372916E+03  0.41800000000E+01 0. -1.
         -5    1    3    3    0  502 -0.42032325046E+02  0.20508780663E+01  0.61829475433E+02  0.74908470028E+02  0.41800000000E+01 0. -1.
        -11    1    4    4    0    0  0.11454993759E+03  0.19137410072E+03  0.48718736523E+03  0.53581457938E+03  0.00000000000E+00 0. -1.
         11    1    4    4    0    0 -0.95789568257E+01  0.68430818993E+01  0.30013422356E+01  0.12148754626E+02  0.00000000000E+00 0.  1.
</event>
<event>
 8    1  0.7224924E-009  0.1470066E+03  0.7561462E-02  0.1204200E+00
          1   -1    0    0  501    0  0.00000000000E+00  0.00000000000E+00  0.19164722696E+03  0.19164722696E+03  0.00000000000E+00 0. -1.
         -1   -1    0    0    0  501 -0.00000000000E+00 -0.00000000000E+00 -0.19768320584E+03  0.19768320584E+03  0.00000000000E+00 0.  1.
         25    2    1    2    0    0  0.44891440259E+02  0.13166842799E+03  0.76769483335E+02  0.20222086495E+03  0.12509159968E+03 0.  0.
         23    2    1    2    0    0 -0.44891440259E+02 -0.13166842799E+03 -0.82805462208E+02  0.18710956786E+03  0.93815934012E+02 0.  0.
          5    1    3    3  502    0  0.46698219304E+01  0.13460818076E+02  0.75844509072E+02  0.77284298642E+02  0.41800000000E+01 0.  1.
         -5    1    3    3    0  502  0.40221618328E+02  0.11820760991E+03  0.92497426306E+00  0.12493656630E+03  0.41800000000E+01 0.  1.
        -11    1    4    4    0    0 -0.59923580542E+02 -0.77203223002E+02 -0.86465934018E+02  0.13048958155E+03  0.00000000000E+00 0.  1.
         11    1    4    4    0    0  0.15032140283E+02 -0.54465204987E+02  0.36604718098E+01  0.56619986309E+02  0.00000000000E+00 0. -1.
</event>
<event>
 8    1  0.7224924E-009  0.4068461E+02  0.7561462E-02  0.1503233E+00
         -3   -1    0    0    0  501 -0.00000000000E+00  0.00000000000E+00  0.31879665356E+03  0.31879665356E+03  0.00000000000E+00 0.  1.
          3   -1    0    0  501    0  0.00000000000E+00 -0.00000000000E+00 -0.48198772803E+02  0.48198772803E+02  0.00000000000E+00 0. -1.
         25    2    1    2    0    0 -0.79755484680E+01 -0.26067201130E+02  0.23161008469E+03  0.26463870930E+03  0.12508919531E+03 0.  0.
         23    2    1    2    0    0  0.79755484680E+01  0.26067201130E+02  0.38987796069E+02  0.10235671706E+03  0.90629691257E+02 0.  0.
          5    1    3    3  502    0 -0.23100287838E+02  0.22528391839E+00  0.23281530773E+03  0.23399596997E+03  0.41800000000E+01 0.  1.
         -5    1    3    3    0  502  0.15124739370E+02 -0.26292485049E+02 -0.12052230387E+01  0.30642739329E+02  0.41800000000E+01 0.  1.
        -11    1    4    4    0    0  0.27594028080E+01  0.10462045343E+02 -0.29760775321E+02  0.31666582455E+02  0.00000000000E+00 0. -1.
         11    1    4    4    0    0  0.52161456600E+01  0.15605155787E+02  0.68748571390E+02  0.70690134608E+02  0.00000000000E+00 0.  1.
</event>
<event>
 8    1  0.7224924E-009  0.1165883E+03  0.7561462E-02  0.1248834E+00
          2   -1    0    0  501    0  0.00000000000E+00  0.00000000000E+00  0.13001997755E+03  0.13001997755E+03  0.00000000000E+00 0.  1.
         -2   -1    0    0    0  501 -0.00000000000E+00 -0.00000000000E+00 -0.11823645256E+03  0.11823645256E+03  0.00000000000E+00 0. -1.
         25    2    1    2    0    0  0.59311056249E+02  0.86959180162E+01 -0.42237368538E+01  0.13877722551E+03  0.12509139852E+03 0.  0.
         23    2    1    2    0    0 -0.59311056249E+02 -0.86959180162E+01  0.16007261843E+02  0.10947920460E+03  0.90200018984E+02 0.  0.
          5    1    3    3  502    0 -0.25451268961E+02 -0.34613191427E+02 -0.53253278008E+01  0.43493351546E+02  0.41800000000E+01 0.  1.
         -5    1    3    3    0  502  0.84762325209E+02  0.43309109443E+02  0.11015909470E+01  0.95283873968E+02  0.41800000000E+01 0.  1.
        -11    1    4    4    0    0 -0.51135352008E+02 -0.38384654064E+02  0.35403000975E+02  0.73086102446E+02  0.00000000000E+00 0.  1.
         11    1    4    4    0    0 -0.81757042404E+01  0.29688736048E+02 -0.19395739132E+02  0.36393102155E+02  0.00000000000E+00 0. -1.
</event>
<event>
 8    1  0.7224924E-009  0.2269623E+03  0.7561462E-02  0.1128796E+00
          1   -1    0    0  501    0  0.00000000000E+00  0.00000000000E+00  0.10473856370E+04  0.10473856370E+04  0.00000000000E+00 0. -1.
         -1   -1    0    0    0  501 -0.00000000000E+00 -0.00000000000E+00 -0.56648018190E+02  0.56648018190E+02  0.00000000000E+00 0.  1.
         25    2    1    2    0    0  0.20081834861E+03 -0.56460058729E+02  0.36916294451E+03  0.44209028554E+03  0.12508714403E+03 0.  0.
         23    2    1    2    0    0 -0.20081834861E+03  0.56460058729E+02  0.62157467430E+03  0.66194336964E+03  0.91094464784E+02 0.  0.
          5    1    3    3  502    0  0.18957584576E+03 -0.16550924300E+02  0.23968130339E+03  0.30606785847E+03  0.41800000000E+01 0.  1.
         -5    1    3    3    0  502  0.11242502852E+02 -0.39909134429E+02  0.12948164111E+03  0.13602242707E+03  0.41800000000E+01 0.  1.
        -11    1    4    4    0    0 -0.51104085084E+02 -0.18661847077E+02  0.22421991399E+03  0.23072594539E+03  0.00000000000E+00 0.  1.
         11    1    4    4    0    0 -0.14971426353E+03  0.75121905806E+02  0.39735476031E+03  0.43121742425E+03  0.00000000000E+00 0. -1.
</event>
<event>
 8    1  0.7224924E-009  0.7953917E+02  0.7561462E-02  0.1330364E+00
         -1   -1    0    0    0  501 -0.00000000000E+00  0.00000000000E+00  0.20576712642E+02  0.20576712642E+02  0.00000000000E+00 0.  1.
          1   -1    0    0  501    0  0.00000000000E+00 -0.00000000000E+00 -0.70272515771E+03  0.70272515771E+03  0.00000000000E+00 0. -1.
         25    2    1    2    0    0  0.21115160059E+02  0.44674780319E+02 -0.33927557804E+03  0.36496169971E+03  0.12508972147E+03 0.  0.
         23    2    1    2    0    0 -0.21115160059E+02 -0.44674780319E+02 -0.34287286702E+03  0.35834017064E+03  0.91674363774E+02 0.  0.
          5    1    3    3  502    0  0.17568345037E+02  0.11661938356E+02  0.24186739911E+01  0.21632612821E+02  0.41800000000E+01 0.  1.
         -5    1    3    3    0  502  0.35468150215E+01  0.33012841963E+02 -0.34169425203E+03  0.34332908689E+03  0.41800000000E+01 0.  1.
        -11    1    4    4    0    0  0.30380279016E+02 -0.42928994504E+02 -0.17727568791E+03  0.18491222093E+03  0.00000000000E+00 0.  1.
         11    1    4    4    0    0 -0.51495439074E+02 -0.17457858155E+01 -0.16559717911E+03  0.17342794972E+03  0.00000000000E+00 0. -1.
</event>
<event>
 8    1  0.7224924E-009  0.1035726E+03  0.7561462E-02  0.1272958E+00
         -1   -1    0    0    0  501 -0.00000000000E+00  0.00000000000E+00  0.21965422158E+03  0.21965422158E+03  0.00000000000E+00 0.  1.
          1   -1    0    0  501    0  0.00000000000E+00 -0.00000000000E+00 -0.57899651556E+02  0.57899651556E+02  0.00000000000E+00 0. -1.
         25    2    1    2    0    0 -0.27234545280E+02  0.10991156794E+02  0.77020335665E+02  0.14980489920E+03  0.12508736840E+03 0.  0.
         23    2    1    2    0    0  0.27234545280E+02 -0.10991156794E+02  0.84734234356E+02  0.12774897394E+03  0.90980129070E+02 0.  0.
          5    1    3    3  502    0 -0.71048244071E+02  0.31225760289E+02  0.33306954898E+02  0.84556056766E+02  0.41800000000E+01 0.  1.
         -5    1    3    3    0  502  0.43813698791E+02 -0.20234603496E+02  0.43713380767E+02  0.65248842430E+02  0.41800000000E+01 0.  1.
        -11    1    4    4    0    0  0.31172839598E+01  0.31753005866E+02  0.25265706159E+01  0.32005537019E+02  0.00000000000E+00 0. -1.
         11    1    4    4    0    0  0.24117261320E+02 -0.42744162660E+02  0.82207663740E+02  0.95743436917E+02  0.00000000000E+00 0.  1.
</event>
<event>
 8    1  0.7224924E-009  0.1087048E+03  0.7561462E-02  0.1262987E+00
         -1   -1    0    0    0  501 -0.00000000000E+00  0.00000000000E+00  0.35391461841E+03  0.35391461841E+03  0.00000000000E+00 0.  1.
          1   -1    0    0  501    0  0.00000000000E+00 -0.00000000000E+00 -0.50760996553E+02  0.50760996553E+02  0.00000000000E+00 0. -1.
         25    2    1    2    0    0 -0.64853256843E+02 -0.27323110868E+02  0.19027591201E+03  0.23833689300E+03  0.12508818714E+03 0.  0.
         23    2    1    2    0    0  0.64853256843E+02  0.27323110868E+02  0.11287770985E+03  0.16633872197E+03  0.99873398534E+02 0.  0.
          5    1    3    3  502    0  0.21119503231E+02 -0.32635943791E+00 -0.59756501536E+01  0.22345485494E+02  0.41800000000E+01 0.  1.
         -5    1    3    3    0  502 -0.85972760074E+02 -0.26996751430E+02  0.19625156217E+03  0.21599140750E+03  0.41800000000E+01 0.  1.
        -11    1    4    4    0    0  0.83229336421E+02  0.18389433863E+02  0.46938428607E+02  0.97306268035E+02  0.00000000000E+00 0. -1.
         11    1    4    4    0    0 -0.18376079578E+02  0.89336770054E+01  0.65939281240E+02  0.69032453932E+02  0.00000000000E+00 0.  1.
</event>
<event>
 8    1  0.7224924E-009  0.6002246E+02  0.7561462E-02  0.1397738E+00
         -1   -1    0    0    0  501 -0.00000000000E+00  0.00000000000E+00  0.11272516436E+02  0.11272516436E+02  0.00000000000E+00 0. -1.
          1   -1    0    0  501    0  0.00000000000E+00 -0.00000000000E+00 -0.10898794006E+04  0.10898794006E+04  0.00000000000E+00 0.  1.
         25    2    1    2    0    0 -0.14550170493E+02  0.20507424761E+02 -0.56818808874E+03  0.58233863812E+03  0.12509325853E+03 0.  0.
         23    2    1    2    0    0  0.14550170493E+02 -0.20507424761E+02 -0.51041879540E+03  0.51881327889E+03  0.89485248652E+02 0.  0.
          5    1    3    3  502    0 -0.70345756973E+01  0.14377452309E+02 -0.57113479098E+03  0.57137432412E+03  0.41800000000E+01 0.  1.
         -5    1    3    3    0  502 -0.75155947956E+01  0.61299724522E+01  0.29467022432E+01  0.10964314001E+02  0.41800000000E+01 0.  1.
        -11    1    4    4    0    0  0.33021856635E+00 -0.55327921102E+02 -0.30014064284E+03  0.30519779387E+03  0.00000000000E+00 0. -1.
         11    1    4    4    0    0  0.14219951927E+02  0.34820496341E+02 -0.21027815256E+03  0.21361548503E+03  0.00000000000E+00 0.  1.
</event>
<event>
 8    1  0.7224924E-009  0.8340364E+02  0.7561462E-02  0.1319661E+00
         -1   -1    0    0    0  501 -0.00000000000E+00  0.00000000000E+00  0.26497778503E+03  0.26497778503E+03  0.00000000000E+00 0.  1.
          1   -1    0    0  501    0  0.00000000000E+00 -0.00000000000E+00 -0.49663353821E+02  0.49663353821E+02  0.00000000000E+00 0. -1.
         25    2    1    2    0    0  0.13379469064E+02  0.34053182095E+02  0.14302248569E+03  0.19349089332E+03  0.12507863520E+03 0.  0.
         23    2    1    2    0    0 -0.13379469064E+02 -0.34053182095E+02  0.72291945518E+02  0.12115024553E+03  0.90070123802E+02 0.  0.
          5    1    3    3  502    0 -0.28346862848E+02  0.91260561108E+01 -0.10928079439E+02  0.31995700550E+02  0.41800000000E+01 0.  1.
         -5    1    3    3    0  502  0.41726331913E+02  0.24927125984E+02  0.15395056513E+03  0.16149519277E+03  0.41800000000E+01 0.  1.
        -11    1    4    4    0    0 -0.68740075490E+01 -0.60411829732E+02  0.71679758935E+02  0.93993771029E+02  0.00000000000E+00 0. -1.
         11    1    4    4    0    0 -0.65054615154E+01  0.26358647638E+02  0.61218658329E+00  0.27156474499E+02  0.00000000000E+00 0.  1.
</event>
<event>
 8    1  0.7224924E-009  0.1865779E+03  0.7561462E-02  0.1161585E+00
          1   -1    0    0  501    0  0.00000000000E+00  0.00000000000E+00  0.12560039940E+03  0.12560039940E+03  0.00000000000E+00 0. -1.
         -1   -1    0    0    0  501 -0.00000000000E+00 -0.00000000000E+00 -0.34740436902E+03  0.34740436902E+03  0.00000000000E+00 0.  1.
         25    2    1    2    0    0  0.17273795564E+03 -0.28850641556E+02 -0.79657396317E+02  0.22948644176E+03  0.12509182757E+03 0.  0.
         23    2    1    2    0    0 -0.17273795564E+03  0.28850641556E+02 -0.14214657330E+03  0.24351832666E+03  0.91786525582E+02 0.  0.
          5    1    3    3  502    0  0.16310267055E+02 -0.98075019760E+01 -0.68765161049E+02  0.71472593912E+02  0.41800000000E+01 0. -1.
         -5    1    3    3    0  502  0.15642768859E+03 -0.19043139580E+02 -0.10892235268E+02  0.15801384785E+03  0.41800000000E+01 0. -1.
        -11    1    4    4    0    0  0.85261772015E+01 -0.72693280790E+01 -0.15894308268E+01  0.11316586002E+02  0.00000000000E+00 0. -1.
         11    1    4    4    0    0 -0.18126413284E+03  0.36119969635E+02 -0.14055714247E+03  0.23220174065E+03  0.00000000000E+00 0.  1.
</event>
<event>
 8    1  0.7224924E-009  0.1283092E+03  0.7561462E-02  0.1229986E+00
          2   -1    0    0  501    0  0.00000000000E+00  0.00000000000E+00  0.78702606687E+03  0.78702606687E+03  0.00000000000E+00 0. -1.
         -2   -1    0    0    0  501 -0.00000000000E+00 -0.00000000000E+00 -0.30559028680E+02  0.30559028680E+02  0.00000000000E+00 0.  1.
         25    2    1    2    0    0  0.12129995572E+02  0.84465733100E+02  0.22150660121E+03  0.26831737964E+03  0.12508974769E+03 0.  0.
         23    2    1    2    0    0 -0.12129995572E+02 -0.84465733100E+02  0.53496043698E+03  0.54926771591E+03  0.90723523667E+02 0.  0.
          5    1    3    3  502    0  0.33857935853E+01  0.10943005386E+03  0.11639857801E+03  0.15985149873E+03  0.41800000000E+01 0.  1.
         -5    1    3    3    0  502  0.87442019871E+01 -0.24964320757E+02  0.10510802320E+03  0.10846588091E+03  0.41800000000E+01 0.  1.
        -11    1    4    4    0    0 -0.21708436568E+02 -0.99834405549E+02  0.49443288703E+03  0.50487824723E+03  0.00000000000E+00 0.  1.
         11    1    4    4    0    0  0.95784409953E+01  0.15368672449E+02  0.40527549955E+02  0.44389468685E+02  0.00000000000E+00 0. -1.
</event>
<event>
 8    1  0.7224924E-009  0.8693825E+02  0.7561462E-02  0.1310440E+00
         -1   -1    0    0    0  501 -0.00000000000E+00  0.00000000000E+00  0.70391699035E+02  0.70391699035E+02  0.00000000000E+00 0.  1.
          1   -1    0    0  501    0  0.00000000000E+00 -0.00000000000E+00 -0.18036442355E+03  0.18036442355E+03  0.00000000000E+00 0. -1.
         25    2    1    2    0    0  0.18754163998E+02  0.30759669554E+01 -0.41305748775E+02  0.13309954668E+03  0.12509254256E+03 0.  0.
         23    2    1    2    0    0 -0.18754163998E+02 -0.30759669554E+01 -0.68666975743E+02  0.11765657591E+03  0.93630849921E+02 0.  0.
          5    1    3    3  502    0  0.47907322989E+02 -0.44136770631E+01 -0.74063756858E+02  0.88416653528E+02  0.41800000000E+01 0.  1.
         -5    1    3    3    0  502 -0.29153158991E+02  0.74896440185E+01  0.32758008083E+02  0.44682893150E+02  0.41800000000E+01 0.  1.
        -11    1    4    4    0    0 -0.51660566813E+02  0.19578027659E+02 -0.44732159047E+02  0.71085015182E+02  0.00000000000E+00 0.  1.
         11    1    4    4    0    0  0.32906402815E+02 -0.22653994615E+02 -0.23934816696E+02  0.46571560727E+02  0.00000000000E+00 0. -1.
</event>
<event>
 8    1  0.7224924E-009  0.1246464E+03  0.7561462E-02  0.1235623E+00
          1   -1    0    0  501    0  0.00000000000E+00  0.00000000000E+00  0.42683677731E+03  0.42683677731E+03  0.00000000000E+00 0. -1.
         -1   -1    0    0    0  501 -0.00000000000E+00 -0.00000000000E+00 -0.59923072132E+02  0.59923072132E+02  0.00000000000E+00 0.  1.
         25    2    1    2    0    0  0.58629555883E+02 -0.10172291730E+03  0.16723991813E+03  0.23958555309E+03  0.12508825008E+03 0.  0.
         23    2    1    2    0    0 -0.58629555883E+02  0.10172291730E+03  0.19967378706E+03  0.24717429635E+03  0.86258534730E+02 0.  0.
          5    1    3    3  502    0  0.54571189128E+02 -0.94624898539E+02  0.46989051521E+02  0.11898457660E+03  0.41800000000E+01 0.  1.
         -5    1    3    3    0  502  0.40583667556E+01 -0.70980187588E+01  0.12025086660E+03  0.12060097649E+03  0.41800000000E+01 0.  1.
        -11    1    4    4    0    0 -0.37447917729E+02  0.10298036948E+03  0.11091664872E+03  0.15591602228E+03  0.00000000000E+00 0.  1.
         11    1    4    4    0    0 -0.21181638154E+02 -0.12574521851E+01  0.88757138334E+02  0.91258274070E+02  0.00000000000E+00 0. -1.
</event>
<event>
 8    1  0.7224924E-009  0.1728261E+03  0.7561462E-02  0.1174932E+00
         -1   -1    0    0    0  501 -0.00000000000E+00  0.00000000000E+00  0.28223993701E+02  0.28223993701E+02  0.00000000000E+00 0.  1.
          1   -1    0    0  501    0  0.00000000000E+00 -0.00000000000E+00 -0.13608413906E+04  0.13608413906E+04  0.00000000000E+00 0. -1.
         25    2    1    2    0    0  0.11070440686E+03  0.10970872470E+03 -0.85380660022E+03  0.87688399189E+03  0.12509338382E+03 0.  0.
         23    2    1    2    0    0 -0.11070440686E+03 -0.10970872470E+03 -0.47881079665E+03  0.51218139238E+03  0.93693808443E+02 0.  0.
          5    1    3    3  502    0  0.94212846363E+01 -0.47694969740E+01 -0.35465391056E+03  0.35483570477E+03  0.41800000000E+01 0. -1.
         -5    1    3    3    0  502  0.10128312223E+03  0.11447822168E+03 -0.49915268966E+03  0.52204828712E+03  0.41800000000E+01 0. -1.
        -11    1    4    4    0    0 -0.12701201783E+03 -0.10383305672E+03 -0.42125415861E+03  0.45207125820E+03  0.00000000000E+00 0.  1.
         11    1    4    4    0    0  0.16307610965E+02 -0.58756679821E+01 -0.57556638034E+02  0.60110134182E+02  0.00000000000E+00 0. -1.
</event>
<event>
 8    1  0.7224924E-009  0.1518228E+03  0.7561462E-02  0.1198251E+00
          1   -1    0    0  501    0  0.00000000000E+00  0.00000000000E+00  0.92568878735E+03  0.92568878735E+03  0.00000000000E+00 0. -1.
         -1   -1    0    0    0  501 -0.00000000000E+00 -0.00000000000E+00 -0.25507430912E+02  0.25507430912E+02  0.00000000000E+00 0.  1.
         25    2    1    2    0    0  0.61044229400E+02 -0.88268516136E+02  0.52342478070E+03  0.54876216195E+03  0.12509468594E+03 0.  0.
         23    2    1    2    0    0 -0.61044229400E+02  0.88268516136E+02  0.37675657574E+03  0.40243405632E+03  0.92140780536E+02 0.  0.
          5    1    3    3  502    0 -0.24868104588E+02 -0.73139158653E+02  0.23528569232E+03  0.24767839745E+03  0.41800000000E+01 0. -1.
         -5    1    3    3    0  502  0.85912333988E+02 -0.15129357482E+02  0.28813908839E+03  0.30108376450E+03  0.41800000000E+01 0. -1.
        -11    1    4    4    0    0 -0.83743327955E+02  0.61797820145E+02  0.24605811940E+03  0.26716383302E+03  0.00000000000E+00 0.  1.
         11    1    4    4    0    0  0.22699098555E+02  0.26470695990E+02  0.13069845633E+03  0.13527022329E+03  0.00000000000E+00 0. -1.
</event>
<event>
 8    1  0.7224924E-009  0.1484722E+03  0.7561462E-02  0.1202363E+00
          2   -1    0    0  501    0  0.00000000000E+00  0.00000000000E+00  0.34266368172E+03  0.34266368172E+03  0.00000000000E+00 0. -1.
         -2   -1    0    0    0  501 -0.00000000000E+00 -0.00000000000E+00 -0.13601621270E+03  0.13601621270E+03  0.00000000000E+00 0.  1.
         25    2    1    2    0    0 -0.93384682587E+02  0.44146660299E+02 -0.64955178014E+02  0.17474729515E+03  0.12509122853E+03 0.  0.
         23    2    1    2    0    0  0.93384682587E+02 -0.44146660299E+02  0.27160264703E+03  0.30393259927E+03  0.89092089812E+02 0.  0.
          5    1    3    3  502    0 -0.10501240426E+03  0.74218472510E+02 -0.59613688410E+02  0.14180003863E+03  0.41800000000E+01 0.  1.
         -5    1    3    3    0  502  0.11627721675E+02 -0.30071812210E+02 -0.53414896041E+01  0.32947256519E+02  0.41800000000E+01 0.  1.
        -11    1    4    4    0    0  0.43120578570E+02 -0.67698143755E+02  0.17473318487E+03  0.19228652802E+03  0.00000000000E+00 0. -1.
         11    1    4    4    0    0  0.50264104018E+02  0.23551483456E+02  0.96869462160E+02  0.11164607125E+03  0.00000000000E+00 0.  1.
</event>
<event>
 8    1  0.7224924E-009  0.1262915E+03  0.7561462E-02  0.1233065E+00
          3   -1    0    0  501    0  0.00000000000E+00  0.00000000000E+00  0.13179749422E+03  0.13179749422E+03  0.00000000000E+00 0. -1.
         -3   -1    0    0    0  501 -0.00000000000E+00 -0.00000000000E+00 -0.29361230951E+03  0.29361230951E+03  0.00000000000E+00 0.  1.
         25    2    1    2    0    0  0.49977920966E+02  0.93813993417E+02 -0.22017073755E+03  0.27462819405E+03  0.12508650346E+03 0.  0.
         23    2    1    2    0    0 -0.49977920966E+02 -0.93813993417E+02  0.58355922264E+02  0.15078160969E+03  0.89614854858E+02 0.  0.
          5    1    3    3  502    0 -0.14910748285E+01  0.39324636333E+02  0.24902959224E+01  0.39652544693E+02  0.41800000000E+01 0.  1.
         -5    1    3    3    0  502  0.51468995794E+02  0.54489357084E+02 -0.22266103348E+03  0.23497564936E+03  0.41800000000E+01 0.  1.
        -11    1    4    4    0    0 -0.53499483409E+02 -0.10463487036E+02  0.13928517096E+02  0.56264401485E+02  0.00000000000E+00 0.  1.
         11    1    4    4    0    0  0.35215624433E+01 -0.83350506382E+02  0.44427405168E+02  0.94517208201E+02  0.00000000000E+00 0. -1.
</event>
<event>
 8    1  0.7224924E-009  0.3976822E+03  0.7561462E-02  0.1044585E+00
         -1   -1    0    0    0  501 -0.00000000000E+00  0.00000000000E+00  0.38830185879E+03  0.38830185879E+03  0.00000000000E+00 0.  1.
          1   -1    0    0  501    0  0.00000000000E+00 -0.00000000000E+00 -0.45755204899E+03  0.45755204899E+03  0.00000000000E+00 0. -1.
         25    2    1    2    0    0  0.29566479484E+03 -0.25570740501E+03 -0.14928406935E+03  0.43673548523E+03  0.12509277684E+03 0.  0.
         23    2    1    2    0    0 -0.29566479484E+03  0.25570740501E+03  0.80033879151E+02  0.40911842255E+03  0.90379831694E+02 0.  0.
          5    1    3    3  502    0  0.12109484550E+02 -0.55040610823E+02  0.47602931774E+01  0.56711914506E+02  0.41800000000E+01 0.  1.
         -5    1    3    3    0  502  0.28355531029E+03 -0.20066679418E+03 -0.15404436252E+03  0.38002357072E+03  0.41800000000E+01 0.  1.
        -11    1    4    4    0    0 -0.12652062843E+03  0.95968410082E+02 -0.11255650635E+02  0.15919828775E+03  0.00000000000E+00 0.  1.
         11    1    4    4    0    0 -0.16914416641E+03  0.15973899493E+03  0.91289529787E+02  0.24992013480E+03  0.00000000000E+00 0. -1.
</event>
<event>
 8    1  0.7224924E-009  0.1330125E+03  0.7561462E-02  0.1223053E+00
          2   -1    0    0  501    0  0.00000000000E+00  0.00000000000E+00  0.34219837146E+03  0.34219837146E+03  0.00000000000E+00 0. -1.
         -2   -1    0    0    0  501 -0.00000000000E+00 -0.00000000000E+00 -0.69665599042E+02  0.69665599042E+02  0.00000000000E+00 0.  1.
         25    2    1    2    0    0  0.98068756145E+02 -0.44879647078E+02  0.17159256439E+03  0.23816707041E+03  0.12509149299E+03 0.  0.
         23    2    1    2    0    0 -0.98068756145E+02  0.44879647078E+02  0.10094020803E+03  0.17369690010E+03  0.91378464924E+02 0.  0.
          5    1    3    3  502    0  0.90164728230E+02 -0.66313149886E+02  0.18121083477E+03  0.21303039948E+03  0.41800000000E+01 0.  1.
         -5    1    3    3    0  502  0.79040279154E+01  0.21433502809E+02 -0.96182703862E+01  0.25136670924E+02  0.41800000000E+01 0.  1.
        -11    1    4    4    0    0  0.11800725458E+02  0.10165777108E+02 -0.58098266421E+01  0.16623905412E+02  0.00000000000E+00 0.  1.
         11    1    4    4    0    0 -0.10986948160E+03  0.34713869969E+02  0.10675003468E+03  0.15707299469E+03  0.00000000000E+00 0. -1.
</event>
<event>
 8    1  0.7224924E-009  0.9587771E+02  0.7561462E-02  0.1289211E+00
         -2   -1    0    0    0  501 -0.00000000000E+00  0.00000000000E+00  0.19846829817E+02  0.19846829817E+02  0.00000000000E+00 0.  1.
          2   -1    0    0  501    0  0.00000000000E+00 -0.00000000000E+00 -0.87703351196E+03  0.87703351196E+03  0.00000000000E+00 0. -1.
         25    2    1    2    0    0 -0.31645030649E+02 -0.40089362886E+02 -0.29400810764E+03  0.32356805095E+03  0.12508777422E+03 0.  0.
         23    2    1    2    0    0  0.31645030649E+02  0.40089362886E+02 -0.56317857450E+03  0.57331229082E+03  0.94383849500E+02 0.  0.
          5    1    3    3  502    0 -0.47481380804E+02 -0.46875554013E+02 -0.29799040997E+03  0.30539737380E+03  0.41800000000E+01 0. -1.
         -5    1    3    3    0  502  0.15836350156E+02  0.67861911266E+01  0.39823023381E+01  0.18170677152E+02  0.41800000000E+01 0. -1.
        -11    1    4    4    0    0  0.22446992558E+02 -0.29449739714E+02 -0.18074986423E+03  0.18450384295E+03  0.00000000000E+00 0. -1.
         11    1    4    4    0    0  0.91980380904E+01  0.69539102601E+02 -0.38242871027E+03  0.38880844787E+03  0.00000000000E+00 0.  1.
</event>
<event>
 8    1  0.7224924E-009  0.1199883E+03  0.7561462E-02  0.1243116E+00
         -3   -1    0    0    0  501 -0.00000000000E+00  0.00000000000E+00  0.24616774579E+03  0.24616774579E+03  0.00000000000E+00 0.  1.
          3   -1    0    0  501    0  0.00000000000E+00 -0.00000000000E+00 -0.72888510827E+02  0.72888510827E+02  0.00000000000E+00 0. -1.
         25    2    1    2    0    0 -0.71067342240E+02 -0.32697742470E+02  0.91980963907E+02  0.17386062261E+03  0.12508920368E+03 0.  0.
         23    2    1    2    0    0  0.71067342240E+02  0.32697742470E+02  0.81298271060E+02  0.14519563401E+03  0.91392854006E+02 0.  0.
          5    1    3    3  502    0 -0.79074487729E+02 -0.60308555859E+02  0.10258297174E+03  0.14293577233E+03  0.41800000000E+01 0.  1.
         -5    1    3    3    0  502  0.80071454893E+01  0.27610813389E+02 -0.10602007833E+02  0.30924850282E+02  0.41800000000E+01 0.  1.
        -11    1    4    4    0    0  0.60877837135E+01  0.44869327272E+02  0.71261980483E+01  0.45837761060E+02  0.00000000000E+00 0. -1.
         11    1    4    4    0    0  0.64979558527E+02 -0.12171584802E+02  0.74172073011E+02  0.99357872953E+02  0.00000000000E+00 0.  1.
</event>
<event>
 8    1  0.7224924E-009  0.8576316E+02  0.7561462E-02  0.1313449E+00
         -1   -1    0    0    0  501 -0.00000000000E+00  0.00000000000E+00  0.91978970935E+02  0.91978970935E+02  0.00000000000E+00 0.  1.
          1   -1    0    0  501    0  0.00000000000E+00 -0.00000000000E+00 -0.16071518580E+03  0.16071518580E+03  0.00000000000E+00 0. -1.
         25    2    1    2    0    0  0.27600466372E+02 -0.47195441461E+02 -0.28034497454E+02  0.13936785642E+03  0.12509304904E+03 0.  0.
         23    2    1    2    0    0 -0.27600466372E+02  0.47195441461E+02 -0.40701717406E+02  0.11332630031E+03  0.90537423774E+02 0.  0.
          5    1    3    3  502    0  0.28616402079E+00  0.27409627029E+02  0.30030739890E+02  0.40874041665E+02  0.41800000000E+01 0. -1.
         -5    1    3    3    0  502  0.27314302351E+02 -0.74605068489E+02 -0.58065237345E+02  0.98493814756E+02  0.41800000000E+01 0. -1.
        -11    1    4    4    0    0 -0.64326360703E+00  0.34390553555E+02 -0.65854693098E+02  0.74296464014E+02  0.00000000000E+00 0. -1.
         11    1    4    4    0    0 -0.26957202765E+02  0.12804887905E+02  0.25152975692E+02  0.39029836296E+02  0.00000000000E+00 0.  1.
</event>
<event>
 8    1  0.7224924E-009  0.1333142E+03  0.7561462E-02  0.1222619E+00
          3   -1    0    0  501    0  0.00000000000E+00  0.00000000000E+00  0.36974498373E+02  0.36974498373E+02  0.00000000000E+00 0. -1.
         -3   -1    0    0    0  501 -0.00000000000E+00 -0.00000000000E+00 -0.67518406390E+03  0.67518406390E+03  0.00000000000E+00 0.  1.
         25    2    1    2    0    0 -0.11140826838E+03  0.24497691530E+02 -0.30944804680E+03  0.35272830667E+03  0.12508887043E+03 0.  0.
         23    2    1    2    0    0  0.11140826838E+03 -0.24497691530E+02 -0.32876151872E+03  0.35943025560E+03  0.89966845518E+02 0.  0.
          5    1    3    3  502    0 -0.83400494507E+02 -0.15403398904E+01 -0.66518527144E+02  0.10677172840E+03  0.41800000000E+01 0.  1.
         -5    1    3    3    0  502 -0.28007773869E+02  0.26038031421E+02 -0.24292951965E+03  0.24595657827E+03  0.41800000000E+01 0.  1.
        -11    1    4    4    0    0 -0.63211029042E+01  0.18309042102E+02 -0.56611683592E+02  0.59833603299E+02  0.00000000000E+00 0.  1.
         11    1    4    4    0    0  0.11772937128E+03 -0.42806733632E+02 -0.27214983513E+03  0.29959665230E+03  0.00000000000E+00 0. -1.
</event>
<event>
 8    1  0.7224924E-009  0.1884529E+03  0.7561462E-02  0.1159864E+00
         -2   -1    0    0    0  501 -0.00000000000E+00  0.00000000000E+00  0.34430690543E+03  0.34430690543E+03  0.00000000000E+00 0.  1.
          2   -1    0    0  501    0  0.00000000000E+00 -0.00000000000E+00 -0.11891003245E+03  0.11891003245E+03  0.00000000000E+00 0. -1.
         25    2    1    2    0    0 -0.47975400274E+02  0.14719337845E+03  0.36310498834E+02  0.20231698927E+03  0.12508469982E+03 0.  0.
         23    2    1    2    0    0  0.47975400274E+02 -0.14719337845E+03  0.18908637414E+03  0.26089994861E+03  0.91365182675E+02 0.  0.
          5    1    3    3  502    0 -0.89569292899E+02  0.11338521340E+03  0.18795839208E+02  0.14577249678E+03  0.41800000000E+01 0.  1.
         -5    1    3    3    0  502  0.41593892625E+02  0.33808165058E+02  0.17514659626E+02  0.56544492482E+02  0.41800000000E+01 0.  1.
        -11    1    4    4    0    0  0.74415399481E+02 -0.10262634549E+03  0.14725083020E+03  0.19430034859E+03  0.00000000000E+00 0.  1.
         11    1    4    4    0    0 -0.26439999208E+02 -0.44567032961E+02  0.41835543942E+02  0.66599600014E+02  0.00000000000E+00 0. -1.
</event>
<event>
 8    1  0.7224924E-009  0.1231572E+03  0.7561462E-02  0.1237978E+00
          2   -1    0    0  501    0  0.00000000000E+00  0.00000000000E+00  0.55498231192E+03  0.55498231192E+03  0.00000000000E+00 0. -1.
         -2   -1    0    0    0  501 -0.00000000000E+00 -0.00000000000E+00 -0.36014934206E+02  0.36014934206E+02  0.00000000000E+00 0.  1.
         25    2    1    2    0    0 -0.89145817872E+02  0.11283800625E+01  0.25236517108E+03  0.29543905565E+03  0.12509119051E+03 0.  0.
         23    2    1    2    0    0  0.89145817872E+02 -0.11283800625E+01  0.26660220663E+03  0.29555819048E+03  0.91266956173E+02 0.  0.
          5    1    3    3  502    0 -0.11495976840E+03 -0.22419538480E+02  0.17730357916E+03  0.21253803340E+03  0.41800000000E+01 0. -1.
         -5    1    3    3    0  502  0.25813950529E+02  0.23547918543E+02  0.75061591911E+02  0.82901022249E+02  0.41800000000E+01 0. -1.
        -11    1    4    4    0    0  0.59463118266E+02  0.13282036114E+02  0.25237548231E+03  0.25962599829E+03  0.00000000000E+00 0. -1.
         11    1    4    4    0    0  0.29682699606E+02 -0.14410416176E+02  0.14226724326E+02  0.35932192187E+02  0.00000000000E+00 0.  1.
</event>
<event>
 8    1  0.7224924E-009  0.1277725E+03  0.7561462E-02  0.1230799E+00
          2   -1    0    0  501    0  0.00000000000E+00  0.00000000000E+00  0.14679409042E+03  0.14679409042E+03  0.00000000000E+00 0. -1.
         -2   -1    0    0    0  501 -0.00000000000E+00 -0.00000000000E+00 -0.13350702095E+03  0.13350702095E+03  0.00000000000E+00 0.  1.
         25    2    1    2    0    0  0.51392462843E+02  0.40834235722E+02 -0.49730836638E+02  0.14976615084E+03  0.12509246092E+03 0.  0.
         23    2    1    2    0    0 -0.51392462843E+02 -0.40834235722E+02  0.63017906110E+02  0.13053496053E+03  0.93592197246E+02 0.  0.
          5    1    3    3  502    0  0.51498412428E+02  0.83607842168E+02 -0.33943434548E+02  0.10398070448E+03  0.41800000000E+01 0. -1.
         -5    1    3    3    0  502 -0.10594958534E+00 -0.42773606446E+02 -0.15787402090E+02  0.45785446361E+02  0.41800000000E+01 0. -1.
        -11    1    4    4    0    0 -0.78396999097E+02 -0.38027048687E+02  0.46704334127E+02  0.98860713762E+02  0.00000000000E+00 0. -1.
         11    1    4    4    0    0  0.27004536254E+02 -0.28071870354E+01  0.16313571983E+02  0.31674246766E+02  0.00000000000E+00 0.  1.
</event>
<event>
 8    1  0.7224924E-009  0.1109230E+03  0.7561462E-02  0.1258870E+00
          2   -1    0    0  501    0  0.00000000000E+00  0.00000000000E+00  0.32103943968E+03  0.32103943968E+03  0.00000000000E+00 0. -1.
         -2   -1    0    0    0  501 -0.00000000000E+00 -0.00000000000E+00 -0.58790411304E+02  0.58790411304E+02  0.00000000000E+00 0.  1.
         25    2    1    2    0    0  0.63122094414E+02  0.15546039924E+02  0.71341225263E+02  0.15799667748E+03  0.12508917424E+03 0.  0.
         23    2    1    2    0    0 -0.63122094414E+02 -0.15546039924E+02  0.19090780312E+03  0.22183317351E+03  0.92401782545E+02 0.  0.
          5    1    3    3  502    0 -0.17724714965E+02  0.46398369171E+02  0.75560007880E+01  0.50413685942E+02  0.41800000000E+01 0. -1.
         -5    1    3    3    0  502  0.80846809379E+02 -0.30852329247E+02  0.63785224475E+02  0.10758299154E+03  0.41800000000E+01 0. -1.
        -11    1    4    4    0    0 -0.26827667081E+02 -0.35070046248E+02  0.16996097254E+03  0.17560285889E+03  0.00000000000E+00 0. -1.
         11    1    4    4    0    0 -0.36294427332E+02  0.19524006324E+02  0.20946830580E+02  0.46230314618E+02  0.00000000000E+00 0.  1.
</event>
<event>
 8    1  0.7224924E-009  0.8455080E+02  0.7561462E-02  0.1316611E+00
          1   -1    0    0  501    0  0.00000000000E+00  0.00000000000E+00  0.36904231352E+03  0.36904231352E+03  0.00000000000E+00 0. -1.
         -1   -1    0    0    0  501 -0.00000000000E+00 -0.00000000000E+00 -0.34761568327E+02  0.34761568327E+02  0.00000000000E+00 0.  1.
         25    2    1    2    0    0 -0.15106292891E+02  0.29082840057E+02  0.17150201386E+03  0.21478478628E+03  0.12508218094E+03 0.  0.
         23    2    1    2    0    0  0.15106292891E+02 -0.29082840057E+02  0.16277873134E+03  0.18901909557E+03  0.90317724974E+02 0.  0.
          5    1    3    3  502    0 -0.66181840850E+02  0.47852758943E+00  0.63224270863E+02  0.91624482935E+02  0.41800000000E+01 0.  1.
         -5    1    3    3    0  502  0.51075547959E+02  0.28604312468E+02  0.10827774299E+03  0.12316030334E+03  0.41800000000E+01 0.  1.
        -11    1    4    4    0    0 -0.85478039832E+01 -0.12757694016E+02 -0.69629737434E+01  0.16861397122E+02  0.00000000000E+00 0.  1.
         11    1    4    4    0    0  0.23654096874E+02 -0.16325146041E+02  0.16974170508E+03  0.17215769845E+03  0.00000000000E+00 0. -1.
</event>
<event>
 8    1  0.7224924E-009  0.2143211E+03  0.7561462E-02  0.1138189E+00
         -3   -1    0    0    0  501 -0.00000000000E+00  0.00000000000E+00  0.31583794287E+03  0.31583794287E+03  0.00000000000E+00 0.  1.
          3   -1    0    0  501    0  0.00000000000E+00 -0.00000000000E+00 -0.15425906452E+03  0.15425906452E+03  0.00000000000E+00 0. -1.
         25    2    1    2    0    0 -0.90292926402E+02  0.16938201637E+03  0.80164611280E+02  0.24272805722E+03  0.12508982706E+03 0.  0.
         23    2    1    2    0    0  0.90292926402E+02 -0.16938201637E+03  0.81414267072E+02  0.22736895017E+03  0.90693310622E+02 0.  0.
          5    1    3    3  502    0  0.29574815222E+02  0.46495919457E+02  0.34110010616E+02  0.64942323994E+02  0.41800000000E+01 0. -1.
         -5    1    3    3    0  502 -0.11986774162E+03  0.12288609692E+03  0.46054600664E+02  0.17778573323E+03  0.41800000000E+01 0. -1.
        -11    1    4    4    0    0  0.66748953333E+02 -0.16462496446E+03  0.93207579190E+02  0.20061020541E+03  0.00000000000E+00 0.  1.
         11    1    4    4    0    0  0.23543973069E+02 -0.47570519104E+01 -0.11793312118E+02  0.26758744766E+02  0.00000000000E+00 0. -1.
</event>
<event>
 8    1  0.7224924E-009  0.1627299E+03  0.7561462E-02  0.1185649E+00
         -3   -1    0    0    0  501 -0.00000000000E+00  0.00000000000E+00  0.39625633262E+03  0.39625633262E+03  0.00000000000E+00 0.  1.
          3   -1    0    0  501    0  0.00000000000E+00 -0.00000000000E+00 -0.85535971344E+02  0.85535971344E+02  0.00000000000E+00 0. -1.
         25    2    1    2    0    0  0.44055000092E+02  0.14033307787E+03  0.19590317625E+03  0.27506488091E+03  0.12509363879E+03 0.  0.
         23    2    1    2    0    0 -0.44055000092E+02 -0.14033307787E+03  0.11481718502E+03  0.20672742305E+03  0.88988907657E+02 0.  0.
          5    1    3    3  502    0 -0.13939332010E+02  0.63884042981E+02  0.10632999757E+02  0.66377774958E+02  0.41800000000E+01 0.  1.
         -5    1    3    3    0  502  0.57994332102E+02  0.76449034893E+02  0.18527017650E+03  0.20868710595E+03  0.41800000000E+01 0.  1.
        -11    1    4    4    0    0 -0.11539782989E+02 -0.12891318615E+03  0.61633672375E+02  0.14335440602E+03  0.00000000000E+00 0. -1.
         11    1    4    4    0    0 -0.32515217103E+02 -0.11419891725E+02  0.53183512645E+02  0.63373017030E+02  0.00000000000E+00 0.  1.
</event>
<event>
 8    1  0.7224924E-009  0.2637664E+03  0.7561462E-02  0.1104901E+00
         -1   -1    0    0    0  501 -0.00000000000E+00  0.00000000000E+00  0.12408341004E+04  0.12408341004E+04  0.00000000000E+00 0.  1.
          1   -1    0    0  501    0  0.00000000000E+00 -0.00000000000E+00 -0.69549132148E+02  0.69549132148E+02  0.00000000000E+00 0. -1.
         25    2    1    2    0    0 -0.13325369530E+02  0.24649837694E+03  0.33899777068E+03  0.43761297366E+03  0.12508641366E+03 0.  0.
         23    2    1    2    0    0  0.13325369530E+02 -0.24649837694E+03  0.83228719758E+03  0.87277025890E+03  0.89927360963E+02 0.  0.
          5    1    3    3  502    0  0.34723906985E+02  0.21414620156E+02  0.24158232343E+02  0.47596515236E+02  0.41800000000E+01 0.  1.
         -5    1    3    3    0  502 -0.48049276515E+02  0.22508375678E+03  0.31483953834E+03  0.39001645842E+03  0.41800000000E+01 0.  1.
        -11    1    4    4    0    0 -0.16458544677E+02 -0.20268165957E+03  0.72700749186E+03  0.75491100935E+03  0.00000000000E+00 0.  1.
         11    1    4    4    0    0  0.29783914208E+02 -0.43816717374E+02  0.10527970572E+03  0.11785924955E+03  0.00000000000E+00 0. -1.
</event>
<event>
 8    1  0.7224924E-009  0.1503482E+03  0.7561462E-02  0.1200046E+00
          1   -1    0    0  501    0  0.00000000000E+00  0.00000000000E+00  0.89175426061E+03  0.89175426061E+03  0.00000000000E+00 0. -1.
         -1   -1    0    0    0  501 -0.00000000000E+00 -0.00000000000E+00 -0.28862197571E+02  0.28862197571E+02  0.00000000000E+00 0.  1.
         25    2    1    2    0    0 -0.60856616291E+02  0.94754186267E+02  0.56389949313E+03  0.58848297411E+03  0.12509072268E+03 0.  0.
         23    2    1    2    0    0  0.60856616291E+02 -0.94754186267E+02  0.29899256991E+03  0.33213348407E+03  0.90742552420E+02 0.  0.
          5    1    3    3  502    0  0.25996733294E+02 -0.54774506496E+01  0.18664288726E+03  0.18857060315E+03  0.41800000000E+01 0.  1.
         -5    1    3    3    0  502 -0.86853349585E+02  0.10023163692E+03  0.37725660587E+03  0.39991237096E+03  0.41800000000E+01 0.  1.
        -11    1    4    4    0    0  0.27325785955E+01  0.15892058199E+02  0.63661867710E+02  0.65672352630E+02  0.00000000000E+00 0. -1.
         11    1    4    4    0    0  0.58124037696E+02 -0.11064624447E+03  0.23533070220E+03  0.26646113145E+03  0.00000000000E+00 0.  1.
</event>
<event>
 8    1  0.7224924E-009  0.1415775E+03  0.7561462E-02  0.1211222E+00
          1   -1    0    0  501    0  0.00000000000E+00  0.00000000000E+00  0.60008329965E+03  0.60008329965E+03  0.00000000000E+00 0. -1.
         -1   -1    0    0    0  501 -0.00000000000E+00 -0.00000000000E+00 -0.40655710713E+02  0.40655710713E+02  0.00000000000E+00 0.  1.
         25    2    1    2    0    0 -0.50090582450E+02  0.88309438521E+02  0.20227985770E+03  0.25859696922E+03  0.12509048036E+03 0.  0.
         23    2    1    2    0    0  0.50090582450E+02 -0.88309438521E+02  0.35714773123E+03  0.38214204114E+03  0.90390344062E+02 0.  0.
          5    1    3    3  502    0 -0.73729643792E+02  0.21445521198E+02  0.53358037045E+02  0.93597667013E+02  0.41800000000E+01 0. -1.
         -5    1    3    3    0  502  0.23639061341E+02  0.66863917323E+02  0.14892182066E+03  0.16499930221E+03  0.41800000000E+01 0. -1.
        -11    1    4    4    0    0  0.21973531815E+02 -0.10171695171E+03  0.25726962475E+03  0.27751906995E+03  0.00000000000E+00 0.  1.
         11    1    4    4    0    0  0.28117050635E+02  0.13407513191E+02  0.99878106476E+02  0.10462297118E+03  0.00000000000E+00 0. -1.
</event>
<event>
 8    1  0.7224924E-009  0.1831477E+03  0.7561462E-02  0.1164791E+00
         -2   -1    0    0    0  501 -0.00000000000E+00  0.00000000000E+00  0.91831148472E+02  0.91831148472E+02  0.00000000000E+00 0. -1.
          2   -1    0    0  501    0  0.00000000000E+00 -0.00000000000E+00 -0.46853424413E+03  0.46853424413E+03  0.00000000000E+00 0.  1.
         25    2    1    2    0    0  0.22386474300E+02 -0.17497443792E+03 -0.18644111473E+03  0.28552091562E+03  0.12507875856E+03 0.  0.
         23    2    1    2    0    0 -0.22386474300E+02  0.17497443792E+03 -0.19026198093E+03  0.27484447697E+03  0.90678867338E+02 0.  0.
          5    1    3    3  502    0  0.12087213384E+02 -0.10829980386E+03 -0.27002795147E+02  0.11234576801E+03  0.41800000000E+01 0. -1.
         -5    1    3    3    0  502  0.10299260916E+02 -0.66674634056E+02 -0.15943831958E+03  0.17317514762E+03  0.41800000000E+01 0. -1.
        -11    1    4    4    0    0  0.24816073007E+02  0.45332197460E+02 -0.91792778265E+02  0.10534115885E+03  0.00000000000E+00 0.  1.
         11    1    4    4    0    0 -0.47202547308E+02  0.12964224045E+03 -0.98469202663E+02  0.16950331813E+03  0.00000000000E+00 0. -1.
</event>
<event>
 8    1  0.7224924E-009  0.1572377E+03  0.7561462E-02  0.1191851E+00
          1   -1    0    0  501    0  0.00000000000E+00  0.00000000000E+00  0.77251268801E+02  0.77251268801E+02  0.00000000000E+00 0. -1.
         -1   -1    0    0    0  501 -0.00000000000E+00 -0.00000000000E+00 -0.35737442916E+03  0.35737442916E+03  0.00000000000E+00 0.  1.
         25    2    1    2    0    0  0.35380278445E+02 -0.10996110563E+03 -0.21384320542E+03  0.27334846286E+03  0.12508899547E+03 0.  0.
         23    2    1    2    0    0 -0.35380278445E+02  0.10996110563E+03 -0.66279954941E+02  0.16127723511E+03  0.90962109050E+02 0.  0.
          5    1    3    3  502    0  0.38398856904E+02  0.16407381817E+02 -0.37091259350E+02  0.56008109322E+02  0.41800000000E+01 0. -1.
         -5    1    3    3    0  502 -0.30185784598E+01 -0.12636848744E+03 -0.17675194607E+03  0.21734035353E+03  0.41800000000E+01 0. -1.
        -11    1    4    4    0    0 -0.67838691658E+01  0.11650318754E+03 -0.60222663258E+02  0.13132319962E+03  0.00000000000E+00 0.  1.
         11    1    4    4    0    0 -0.28596409279E+02 -0.65420819148E+01 -0.60572916835E+01  0.29954035487E+02  0.00000000000E+00 0. -1.
</event>
<event>
 8    1  0.7224924E-009  0.1528738E+03  0.7561462E-02  0.1196986E+00
         -1   -1    0    0    0  501 -0.00000000000E+00  0.00000000000E+00  0.14534623077E+03  0.14534623077E+03  0.00000000000E+00 0.  1.
          1   -1    0    0  501    0  0.00000000000E+00 -0.00000000000E+00 -0.19309171427E+03  0.19309171427E+03  0.00000000000E+00 0. -1.
         25    2    1    2    0    0 -0.20250635103E+02 -0.12535587625E+03 -0.14972079690E+02  0.17887601381E+03  0.12509309019E+03 0.  0.
         23    2    1    2    0    0  0.20250635103E+02  0.12535587625E+03 -0.32773403805E+02  0.15956193123E+03  0.90894059033E+02 0.  0.
          5    1    3    3  502    0  0.32460875735E+02  0.72630181060E+01  0.74808658904E+01  0.34349609022E+02  0.41800000000E+01 0. -1.
         -5    1    3    3    0  502 -0.52711510837E+02 -0.13261889436E+03 -0.22452945580E+02  0.14452640479E+03  0.41800000000E+01 0. -1.
        -11    1    4    4    0    0 -0.28301488153E+01  0.61269310128E+02 -0.60376454831E+02  0.86065407708E+02  0.00000000000E+00 0.  1.
         11    1    4    4    0    0  0.23080783918E+02  0.64086566122E+02  0.27603051026E+02  0.73496523520E+02  0.00000000000E+00 0. -1.
</event>
<event>
 8    1  0.7224924E-009  0.1282532E+03  0.7561462E-02  0.1230071E+00
         -2   -1    0    0    0  501 -0.00000000000E+00  0.00000000000E+00  0.38775123166E+02  0.38775123166E+02  0.00000000000E+00 0.  1.
          2   -1    0    0  501    0  0.00000000000E+00 -0.00000000000E+00 -0.45205692866E+03  0.45205692866E+03  0.00000000000E+00 0. -1.
         25    2    1    2    0    0  0.41446625944E+02 -0.61222654189E+02 -0.24396322854E+03  0.28395702229E+03  0.12508995741E+03 0.  0.
         23    2    1    2    0    0 -0.41446625944E+02  0.61222654189E+02 -0.16931857696E+03  0.20687502954E+03  0.93072343656E+02 0.  0.
          5    1    3    3  502    0  0.78657026951E+02 -0.68101603743E+02 -0.20226290169E+03  0.22749178034E+03  0.41800000000E+01 0.  1.
         -5    1    3    3    0  502 -0.37210401006E+02  0.68789495545E+01 -0.41700326847E+02  0.56465241956E+02  0.41800000000E+01 0.  1.
        -11    1    4    4    0    0 -0.65022063899E+02  0.22180150328E+02 -0.12829381398E+03  0.14553051421E+03  0.00000000000E+00 0. -1.
         11    1    4    4    0    0  0.23575437954E+02  0.39042503861E+02 -0.41024762984E+02  0.61344515324E+02  0.00000000000E+00 0.  1.
</event>
<event>
 8    1  0.7224924E-009  0.1664145E+03  0.7561462E-02  0.1181639E+00
          2   -1    0    0  501    0  0.00000000000E+00  0.00000000000E+00  0.10982573620E+04  0.10982573620E+04  0.00000000000E+00 0.  1.
         -2   -1    0    0    0  501 -0.00000000000E+00 -0.00000000000E+00 -0.36447526229E+02  0.36447526229E+02  0.00000000000E+00 0. -1.
         25    2    1    2    0    0 -0.13229940966E+03  0.66379705733E+02  0.78531573046E+03  0.80887467197E+03  0.12509212333E+03 0.  0.
         23    2    1    2    0    0  0.13229940966E+03 -0.66379705733E+02  0.27649410530E+03  0.32583021625E+03  0.88356892339E+02 0.  0.
          5    1    3    3  502    0 -0.11771447219E+03  0.17861938586E+02  0.33220376277E+03  0.35292004507E+03  0.41800000000E+01 0. -1.
         -5    1    3    3    0  502 -0.14584937471E+02  0.48517767148E+02  0.45311196769E+03  0.45595462690E+03  0.41800000000E+01 0. -1.
        -11    1    4    4    0    0  0.10550479896E+03 -0.80372167885E+02  0.17287212357E+03  0.21788923581E+03  0.00000000000E+00 0. -1.
         11    1    4    4    0    0  0.26794610697E+02  0.13992462152E+02  0.10362198174E+03  0.10794098044E+03  0.00000000000E+00 0.  1.
</event>
<event>
 8    1  0.7224924E-009  0.1488538E+03  0.7561462E-02  0.1201889E+00
         -2   -1    0    0    0  501 -0.00000000000E+00  0.00000000000E+00  0.16725711122E+02  0.16725711122E+02  0.00000000000E+00 0.  1.
          2   -1    0    0  501    0  0.00000000000E+00 -0.00000000000E+00 -0.18233368730E+04  0.18233368730E+04  0.00000000000E+00 0. -1.
         25    2    1    2    0    0 -0.13252135262E+03 -0.15061102296E+02 -0.11358454013E+04  0.11504692325E+04  0.12508370655E+03 0.  0.
         23    2    1    2    0    0  0.13252135262E+03  0.15061102296E+02 -0.67076576056E+03  0.68959335157E+03  0.88450773260E+02 0.  0.
          5    1    3    3  502    0 -0.50272426983E+02  0.13126902854E+02 -0.85161247494E+03  0.85320625430E+03  0.41800000000E+01 0.  1.
         -5    1    3    3    0  502 -0.82248925640E+02 -0.28188005150E+02 -0.28423292636E+03  0.29726297824E+03  0.41800000000E+01 0.  1.
        -11    1    4    4    0    0  0.24662959567E+02 -0.32382179250E+02 -0.13397392818E+03  0.14002100035E+03  0.00000000000E+00 0.  1.
         11    1    4    4    0    0  0.10785839306E+03  0.47443281546E+02 -0.53679183238E+03  0.54957235122E+03  0.00000000000E+00 0. -1.
</event>
<event>
 8    1  0.7224924E-009  0.1372467E+03  0.7561462E-02  0.1217082E+00
         -2   -1    0    0    0  501 -0.00000000000E+00  0.00000000000E+00  0.32572004173E+02  0.32572004173E+02  0.00000000000E+00 0.  1.
          2   -1    0    0  501    0  0.00000000000E+00 -0.00000000000E+00 -0.87803458335E+03  0.87803458335E+03  0.00000000000E+00 0. -1.
         25    2    1    2    0    0 -0.12092817436E+03 -0.48242831397E+02 -0.46257746097E+03  0.49656507494E+03  0.12509185469E+03 0.  0.
         23    2    1    2    0    0  0.12092817436E+03  0.48242831397E+02 -0.38288511820E+03  0.41404151259E+03  0.88760161500E+02 0.  0.
          5    1    3    3  502    0  0.45564663452E+01 -0.48663469129E+00 -0.21336302705E+03  0.21345316093E+03  0.41800000000E+01 0.  1.
         -5    1    3    3    0  502 -0.12548464070E+03 -0.47756196706E+02 -0.24921443392E+03  0.28311191401E+03  0.41800000000E+01 0.  1.
        -11    1    4    4    0    0  0.11707432132E+02 -0.46622300323E+01 -0.23098350226E+00  0.12603718077E+02  0.00000000000E+00 0.  1.
         11    1    4    4    0    0  0.10922074223E+03  0.52905061430E+02 -0.38265413470E+03  0.40143779451E+03  0.00000000000E+00 0. -1.
</event>
<event>
 8    1  0.7224924E-009  0.9566749E+02  0.7561462E-02  0.1289680E+00
          2   -1    0    0  501    0  0.00000000000E+00  0.00000000000E+00  0.52110013945E+02  0.52110013945E+02  0.00000000000E+00 0.  1.
         -2   -1    0    0    0  501 -0.00000000000E+00 -0.00000000000E+00 -0.25291950433E+03  0.25291950433E+03  0.00000000000E+00 0. -1.
         25    2    1    2    0    0 -0.25959709509E+01  0.34981449819E+02 -0.13685202995E+03  0.18869811881E+03  0.12509221017E+03 0.  0.
         23    2    1    2    0    0  0.25959709509E+01 -0.34981449819E+02 -0.63957460441E+02  0.11633139947E+03  0.90620068747E+02 0.  0.
          5    1    3    3  502    0 -0.12126439123E+02  0.66317803864E+02 -0.14008628599E+03  0.15552087178E+03  0.41800000000E+01 0. -1.
         -5    1    3    3    0  502  0.95304681717E+01 -0.31336354045E+02  0.32342560469E+01  0.33177247031E+02  0.41800000000E+01 0. -1.
        -11    1    4    4    0    0 -0.35132822790E+02  0.53539609850E+01 -0.55908545828E+01  0.35975516541E+02  0.00000000000E+00 0.  1.
         11    1    4    4    0    0  0.37728793740E+02 -0.40335410804E+02 -0.58366605858E+02  0.80355882929E+02  0.00000000000E+00 0. -1.
</event>
<event>
 8    1  0.7224924E-009  0.1309881E+03  0.7561462E-02  0.1225997E+00
          1   -1    0    0  501    0  0.00000000000E+00  0.00000000000E+00  0.14456689894E+03  0.14456689894E+03  0.00000000000E+00 0. -1.
         -1   -1    0    0    0  501 -0.00000000000E+00 -0.00000000000E+00 -0.17402524391E+03  0.17402524391E+03  0.00000000000E+00 0.  1.
         25    2    1    2    0    0  0.43028974727E+02  0.72066236030E+02  0.69806783499E+02  0.16602965559E+03  0.12509126456E+03 0.  0.
         23    2    1    2    0    0 -0.43028974727E+02 -0.72066236030E+02 -0.99265128468E+02  0.15256248726E+03  0.79854315782E+02 0.  0.
          5    1    3    3  502    0 -0.37000456959E+02 -0.46826624144E+01  0.30335378742E+02  0.48256281932E+02  0.41800000000E+01 0. -1.
         -5    1    3    3    0  502  0.80029431686E+02  0.76748898444E+02  0.39471404757E+02  0.11777337365E+03  0.41800000000E+01 0. -1.
        -11    1    4    4    0    0  0.14013203418E+02 -0.50653753651E+02 -0.30817644148E+02  0.60925362697E+02  0.00000000000E+00 0. -1.
         11    1    4    4    0    0 -0.57042178145E+02 -0.21412482379E+02 -0.68447484320E+02  0.91637124567E+02  0.00000000000E+00 0.  1.
</event>
<event>
 8    1  0.7224924E-009  0.1448686E+03  0.7561462E-02  0.1206924E+00
         -2   -1    0    0    0  501 -0.00000000000E+00  0.00000000000E+00  0.44277196581E+02  0.44277196581E+02  0.00000000000E+00 0. -1.
          2   -1    0    0  501    0  0.00000000000E+00 -0.00000000000E+00 -0.57358052017E+03  0.57358052017E+03  0.00000000000E+00 0.  1.
         25    2    1    2    0    0 -0.84274752492E+02 -0.79716193007E+02 -0.26128323932E+03  0.31204978850E+03  0.12509689851E+03 0.  0.
         23    2    1    2    0    0  0.84274752492E+02  0.79716193007E+02 -0.26802008427E+03  0.30580792826E+03  0.90701808567E+02 0.  0.
          5    1    3    3  502    0  0.92353773326E+01 -0.39289488902E+02 -0.17136745152E+03  0.17610574089E+03  0.41800000000E+01 0. -1.
         -5    1    3    3    0  502 -0.93510129824E+02 -0.40426704105E+02 -0.89915787798E+02  0.13594404761E+03  0.41800000000E+01 0. -1.
        -11    1    4    4    0    0  0.18052318915E+02  0.78935597277E+02 -0.14332998090E+03  0.16462137820E+03  0.00000000000E+00 0. -1.
         11    1    4    4    0    0  0.66222433576E+02  0.78059573038E+00 -0.12469010337E+03  0.14118655006E+03  0.00000000000E+00 0.  1.
</event>
<event>
 8    1  0.7224924E-009  0.1098299E+03  0.7561462E-02  0.1260885E+00
          2   -1    0    0  501    0  0.00000000000E+00  0.00000000000E+00  0.62890200171E+02  0.62890200171E+02  0.00000000000E+00 0.  1.
         -2   -1    0    0    0  501 -0.00000000000E+00 -0.00000000000E+00 -0.23156323621E+03  0.23156323621E+03  0.00000000000E+00 0. -1.
         25    2    1    2    0    0 -0.47331651742E+02 -0.17275402846E+02 -0.10623383481E+03  0.17167366878E+03  0.12508995201E+03 0.  0.
         23    2    1    2    0    0  0.47331651742E+02  0.17275402846E+02 -0.62439201229E+02  0.12277976760E+03  0.92938112111E+02 0.  0.
          5    1    3    3  502    0 -0.79653306793E+02 -0.41052360861E+02 -0.50731631523E+02  0.10305880095E+03  0.41800000000E+01 0.  1.
         -5    1    3    3    0  502  0.32321655051E+02  0.23776958015E+02 -0.55502203291E+02  0.68614867834E+02  0.41800000000E+01 0.  1.
        -11    1    4    4    0    0  0.18366356043E+02 -0.29407211561E+02 -0.58114353976E+02  0.67671155333E+02  0.00000000000E+00 0.  1.
         11    1    4    4    0    0  0.28965295699E+02  0.46682614406E+02 -0.43248472533E+01  0.55108612272E+02  0.00000000000E+00 0. -1.
</event>
<event>
 8    1  0.7224924E-009  0.1070798E+03  0.7561462E-02  0.1266075E+00
          2   -1    0    0  501    0  0.00000000000E+00  0.00000000000E+00  0.10950055283E+04  0.10950055283E+04  0.00000000000E+00 0. -1.
         -2   -1    0    0    0  501 -0.00000000000E+00 -0.00000000000E+00 -0.22167871756E+02  0.22167871756E+02  0.00000000000E+00 0.  1.
         25    2    1    2    0    0 -0.49752538223E+02 -0.82112893305E+02  0.76881082720E+03  0.78481619673E+03  0.12509409384E+03 0.  0.
         23    2    1    2    0    0  0.49752538223E+02  0.82112893305E+02  0.30402682935E+03  0.33235720334E+03  0.93867754529E+02 0.  0.
          5    1    3    3  502    0 -0.47062860355E+02 -0.49885530976E+02  0.73365649147E+03  0.73686688004E+03  0.41800000000E+01 0. -1.
         -5    1    3    3    0  502 -0.26896778678E+01 -0.32227362330E+02  0.35154335733E+02  0.47949316686E+02  0.41800000000E+01 0. -1.
        -11    1    4    4    0    0 -0.11372999806E+02  0.31472969271E+02  0.23695474003E+02  0.41004492529E+02  0.00000000000E+00 0.  1.
         11    1    4    4    0    0  0.61125538029E+02  0.50639924034E+02  0.28033135535E+03  0.29135271081E+03  0.00000000000E+00 0. -1.
</event>
<event>
 8    1  0.7224924E-009  0.1179175E+03  0.7561462E-02  0.1246573E+00
         -2   -1    0    0    0  501 -0.00000000000E+00  0.00000000000E+00  0.12785680829E+03  0.12785680829E+03  0.00000000000E+00 0.  1.
          2   -1    0    0  501    0  0.00000000000E+00 -0.00000000000E+00 -0.16953419576E+03  0.16953419576E+03  0.00000000000E+00 0. -1.
         25    2    1    2    0    0 -0.33260139575E+02 -0.70779667944E+02  0.38578685898E+02  0.15248599088E+03  0.12509062367E+03 0.  0.
         23    2    1    2    0    0  0.33260139575E+02  0.70779667944E+02 -0.80256073366E+02  0.14490501317E+03  0.91871797904E+02 0.  0.
          5    1    3    3  502    0  0.26763025575E+02 -0.81724955330E+02  0.27106544315E+02  0.90263309303E+02  0.41800000000E+01 0. -1.
         -5    1    3    3    0  502 -0.60023165150E+02  0.10945287386E+02  0.11472141584E+02  0.62222681581E+02  0.41800000000E+01 0. -1.
        -11    1    4    4    0    0  0.36916712572E+02  0.29810916660E+02  0.74514069614E+01  0.48031842407E+02  0.00000000000E+00 0.  1.
         11    1    4    4    0    0 -0.36565729975E+01  0.40968751284E+02 -0.87707480327E+02  0.96873170760E+02  0.00000000000E+00 0. -1.
</event>
<event>
 8    1  0.7224924E-009  0.1047757E+03  0.7561462E-02  0.1270562E+00
         -2   -1    0    0    0  501 -0.00000000000E+00  0.00000000000E+00  0.27444444685E+02  0.27444444685E+02  0.00000000000E+00 0.  1.
          2   -1    0    0  501    0  0.00000000000E+00 -0.00000000000E+00 -0.54351208363E+03  0.54351208363E+03  0.00000000000E+00 0. -1.
         25    2    1    2    0    0  0.47901068915E+02 -0.29232110894E+02 -0.27921349065E+03  0.31105739734E+03  0.12508997711E+03 0.  0.
         23    2    1    2    0    0 -0.47901068915E+02  0.29232110894E+02 -0.23685414830E+03  0.25989913097E+03  0.91096882511E+02 0.  0.
          5    1    3    3  502    0  0.71455231278E+02  0.15586081519E+02 -0.94980014163E+02  0.11994770321E+03  0.41800000000E+01 0.  1.
         -5    1    3    3    0  502 -0.23554162364E+02 -0.44818192413E+02 -0.18423347648E+03  0.19110969414E+03  0.41800000000E+01 0.  1.
        -11    1    4    4    0    0 -0.56269797833E+01  0.41180771962E+02 -0.19444817777E+03  0.19884067169E+03  0.00000000000E+00 0. -1.
         11    1    4    4    0    0 -0.42274089131E+02 -0.11948661068E+02 -0.42405970530E+02  0.61058459281E+02  0.00000000000E+00 0.  1.
</event>
<event>
 8    1  0.7224924E-009  0.2159205E+03  0.7561462E-02  0.1136962E+00
          3   -1    0    0  501    0  0.00000000000E+00  0.00000000000E+00  0.24448043876E+03  0.24448043876E+03  0.00000000000E+00 0. -1.
         -3   -1    0    0    0  501 -0.00000000000E+00 -0.00000000000E+00 -0.24873055471E+03  0.24873055471E+03  0.00000000000E+00 0.  1.
         25    2    1    2    0    0  0.21220747160E+03 -0.22718562662E+01 -0.64226988599E+02  0.25457693953E+03  0.12508852762E+03 0.  0.
         23    2    1    2    0    0 -0.21220747160E+03  0.22718562662E+01  0.59976872649E+02  0.23863405393E+03  0.91169151073E+02 0.  0.
          5    1    3    3  502    0  0.23931735086E+02 -0.21574982955E+01  0.34261384129E+02  0.42055886456E+02  0.41800000000E+01 0.  1.
         -5    1    3    3    0  502  0.18827573652E+03 -0.11435797073E+00 -0.98488372729E+02  0.21252105308E+03  0.41800000000E+01 0.  1.
        -11    1    4    4    0    0 -0.52368176860E+02 -0.23192891839E+02  0.50737440461E+02  0.76515515055E+02  0.00000000000E+00 0. -1.
         11    1    4    4    0    0 -0.15983929474E+03  0.25464748106E+02  0.92394321880E+01  0.16211853888E+03  0.00000000000E+00 0.  1.
</event>
<event>
 8    1  0.7224924E-009  0.1365399E+03  0.7561462E-02  0.1218062E+00
         -1   -1    0    0    0  501 -0.00000000000E+00  0.00000000000E+00  0.11066610742E+03  0.11066610742E+03  0.00000000000E+00 0.  1.
          1   -1    0    0  501    0  0.00000000000E+00 -0.00000000000E+00 -0.36392856457E+03  0.36392856457E+03  0.00000000000E+00 0. -1.
         25    2    1    2    0    0  0.70427904430E+02  0.55218926136E+02  0.36267134348E+02  0.15801462002E+03  0.12507635899E+03 0.  0.
         23    2    1    2    0    0 -0.70427904430E+02 -0.55218926136E+02 -0.28952959150E+03  0.31658005197E+03  0.91576882610E+02 0.  0.
          5    1    3    3  502    0 -0.31502310970E+02 -0.91270218123E+01  0.10380112166E+02  0.34654253017E+02  0.41800000000E+01 0.  1.
         -5    1    3    3    0  502  0.10193021540E+03  0.64345947948E+02  0.25887022183E+02  0.12336036700E+03  0.41800000000E+01 0.  1.
        -11    1    4    4    0    0 -0.87404531171E+02 -0.53162300645E+02 -0.19191702005E+03  0.21748086091E+03  0.00000000000E+00 0.  1.
         11    1    4    4    0    0  0.16976626741E+02 -0.20566254913E+01 -0.97612571450E+02  0.99099191061E+02  0.00000000000E+00 0. -1.
</event>
<event>
 8    1  0.7224924E-009  0.1540925E+03  0.7561462E-02  0.1195532E+00
         -1   -1    0    0    0  501 -0.00000000000E+00  0.00000000000E+00  0.83722171258E+02  0.83722171258E+02  0.00000000000E+00 0.  1.
          1   -1    0    0  501    0  0.00000000000E+00 -0.00000000000E+00 -0.37487860959E+03  0.37487860959E+03  0.00000000000E+00 0. -1.
         25    2    1    2    0    0 -0.13692060500E+03  0.15782878320E+02 -0.12855551792E+03  0.22620720332E+03  0.12508727482E+03 0.  0.
         23    2    1    2    0    0  0.13692060500E+03 -0.15782878320E+02 -0.16260092041E+03  0.23239357753E+03  0.92581662526E+02 0.  0.
          5    1    3    3  502    0 -0.25861559484E+02 -0.11784359918E+02  0.22619028867E+02  0.36562060452E+02  0.41800000000E+01 0.  1.
         -5    1    3    3    0  502 -0.11105904552E+03  0.27567238238E+02 -0.15117454679E+03  0.18964514287E+03  0.41800000000E+01 0.  1.
        -11    1    4    4    0    0  0.62066602270E+02  0.38005494217E+02 -0.58713941123E+02  0.93509398406E+02  0.00000000000E+00 0. -1.
         11    1    4    4    0    0  0.74854002733E+02 -0.53788372537E+02 -0.10388697928E+03  0.13888417912E+03  0.00000000000E+00 0.  1.
</event>
<event>
 8    1  0.7224924E-009  0.1142983E+03  0.7561462E-02  0.1252811E+00
          2   -1    0    0  501    0  0.00000000000E+00  0.00000000000E+00  0.14440956133E+03  0.14440956133E+03  0.00000000000E+00 0. -1.
         -2   -1    0    0    0  501 -0.00000000000E+00 -0.00000000000E+00 -0.12964334514E+03  0.12964334514E+03  0.00000000000E+00 0.  1.
         25    2    1    2    0    0 -0.51509481170E+02 -0.43304950862E+02  0.55825919582E+02  0.15262236947E+03  0.12509400044E+03 0.  0.
         23    2    1    2    0    0  0.51509481170E+02  0.43304950862E+02 -0.41059703395E+02  0.12143053699E+03  0.92363037256E+02 0.  0.
          5    1    3    3  502    0 -0.42341493103E+02 -0.84492227854E+02  0.56550757137E+02  0.11021433273E+03  0.41800000000E+01 0. -1.
         -5    1    3    3    0  502 -0.91679880668E+01  0.41187276991E+02 -0.72483755477E+00  0.42408036746E+02  0.41800000000E+01 0. -1.
        -11    1    4    4    0    0  0.94051687490E+01  0.48288878036E+02  0.14733954755E+02  0.51355256439E+02  0.00000000000E+00 0. -1.
         11    1    4    4    0    0  0.42104312421E+02 -0.49839271734E+01 -0.55793658150E+02  0.70075280551E+02  0.00000000000E+00 0.  1.
</event>
<event>
 8    1  0.7224924E-009  0.1532228E+03  0.7561462E-02  0.1196568E+00
          1   -1    0    0  501    0  0.00000000000E+00  0.00000000000E+00  0.15868425225E+04  0.15868425225E+04  0.00000000000E+00 0. -1.
         -1   -1    0    0    0  501 -0.00000000000E+00 -0.00000000000E+00 -0.37299618771E+02  0.37299618771E+02  0.00000000000E+00 0.  1.
         25    2    1    2    0    0  0.55673309673E+02 -0.97749302061E+02  0.14193892020E+04  0.14293243138E+04  0.12509134213E+03 0.  0.
         23    2    1    2    0    0 -0.55673309673E+02  0.97749302061E+02  0.13015370172E+03  0.19481782744E+03  0.91430609496E+02 0.  0.
          5    1    3    3  502    0 -0.49255639457E+00 -0.10931875029E+03  0.84140912048E+03  0.84849137427E+03  0.41800000000E+01 0.  1.
         -5    1    3    3    0  502  0.56165866068E+02  0.11569448230E+02  0.57798008149E+03  0.58083293953E+03  0.41800000000E+01 0. -1.
        -11    1    4    4    0    0  0.13001711675E+02 -0.66368698418E+01  0.34487228036E+02  0.37449451870E+02  0.00000000000E+00 0. -1.
         11    1    4    4    0    0 -0.68675021348E+02  0.10438617190E+03  0.95666473689E+02  0.15736837557E+03  0.00000000000E+00 0.  1.
</event>
<event>
 8    1  0.7224924E-009  0.1079275E+03  0.7561462E-02  0.1264457E+00
          3   -1    0    0  501    0  0.00000000000E+00  0.00000000000E+00  0.16789886621E+03  0.16789886621E+03  0.00000000000E+00 0. -1.
         -3   -1    0    0    0  501 -0.00000000000E+00 -0.00000000000E+00 -0.14941468093E+03  0.14941468093E+03  0.00000000000E+00 0.  1.
         25    2    1    2    0    0 -0.60665678659E+02  0.51062108707E+01  0.10768696273E+03  0.17592600132E+03  0.12508828099E+03 0.  0.
         23    2    1    2    0    0  0.60665678659E+02 -0.51062108707E+01 -0.89202777452E+02  0.14138754582E+03  0.91251874780E+02 0.  0.
          5    1    3    3  502    0  0.16306070196E+02 -0.19436940269E+02 -0.14398646336E+02  0.29469916671E+02  0.41800000000E+01 0. -1.
         -5    1    3    3    0  502 -0.76971748855E+02  0.24543151140E+02  0.12208560907E+03  0.14645608465E+03  0.41800000000E+01 0. -1.
        -11    1    4    4    0    0  0.65765582840E+02 -0.38001702488E+02 -0.55968974578E+02  0.94349178023E+02  0.00000000000E+00 0.  1.
         11    1    4    4    0    0 -0.50999041810E+01  0.32895491618E+02 -0.33233802874E+02  0.47038367796E+02  0.00000000000E+00 0. -1.
</event>
<event>
 8    1  0.7224924E-009  0.1755670E+03  0.7561462E-02  0.1172164E+00
          2   -1    0    0  501    0  0.00000000000E+00  0.00000000000E+00  0.19814263973E+04  0.19814263973E+04  0.00000000000E+00 0. -1.
         -2   -1    0    0    0  501 -0.00000000000E+00 -0.00000000000E+00 -0.22670554039E+02  0.22670554039E+02  0.00000000000E+00 0.  1.
         25    2    1    2    0    0 -0.13950392330E+03 -0.32952019660E-01  0.15759755032E+04  0.15870754482E+04  0.12509334783E+03 0.  0.
         23    2    1    2    0    0  0.13950392330E+03  0.32952019660E-01  0.38278034000E+03  0.41702150315E+03  0.89021344041E+02 0.  0.
          5    1    3    3  502    0 -0.16302149801E+03  0.16837425133E+01  0.14042373441E+04  0.14136756470E+04  0.41800000000E+01 0. -1.
         -5    1    3    3    0  502  0.23517574704E+02 -0.17166945330E+01  0.17173815909E+03  0.17339980117E+03  0.41800000000E+01 0. -1.
        -11    1    4    4    0    0  0.13156276434E+03  0.28444015495E+02  0.29113155664E+03  0.32074196210E+03  0.00000000000E+00 0.  1.
         11    1    4    4    0    0  0.79411589597E+01 -0.28411063476E+02  0.91648783358E+02  0.96279541048E+02  0.00000000000E+00 0. -1.
</event>
<event>
 8    1  0.7224924E-009  0.1432701E+03  0.7561462E-02  0.1208995E+00
         -2   -1    0    0    0  501 -0.00000000000E+00  0.00000000000E+00  0.17160209651E+02  0.17160209651E+02  0.00000000000E+00 0.  1.
          2   -1    0    0  501    0  0.00000000000E+00 -0.00000000000E+00 -0.17202075676E+04  0.17202075676E+04  0.00000000000E+00 0. -1.
         25    2    1    2    0    0 -0.10638091133E+03 -0.27445783303E+02 -0.12868615315E+04  0.12975853564E+04  0.12507992153E+03 0.  0.
         23    2    1    2    0    0  0.10638091133E+03  0.27445783303E+02 -0.41618582646E+03  0.43978242079E+03  0.90154124535E+02 0.  0.
          5    1    3    3  502    0 -0.96603576391E+02  0.20203586108E+02 -0.11008664661E+04  0.11052895025E+04  0.41800000000E+01 0.  1.
         -5    1    3    3    0  502 -0.97773349357E+01 -0.47649369410E+02 -0.18599506538E+03  0.19229585390E+03  0.41800000000E+01 0.  1.
        -11    1    4    4    0    0  0.41001056606E+02 -0.30874015455E+02 -0.20089542663E+03  0.20734817075E+03  0.00000000000E+00 0.  1.
         11    1    4    4    0    0  0.65379854721E+02  0.58319798758E+02 -0.21529039984E+03  0.23243425004E+03  0.00000000000E+00 0. -1.
</event>
<event>
 8    1  0.7224924E-009  0.9087896E+02  0.7561462E-02  0.1300737E+00
         -1   -1    0    0    0  501 -0.00000000000E+00  0.00000000000E+00  0.40896255999E+02  0.40896255999E+02  0.00000000000E+00 0.  1.
          1   -1    0    0  501    0  0.00000000000E+00 -0.00000000000E+00 -0.42432016802E+03  0.42432016802E+03  0.00000000000E+00 0. -1.
         25    2    1    2    0    0  0.92097461972E+01  0.30510230419E+02 -0.92051760101E+02  0.15854537992E+03  0.12508963735E+03 0.  0.
         23    2    1    2    0    0 -0.92097461972E+01 -0.30510230419E+02 -0.29137215192E+03  0.30667104410E+03  0.90187054440E+02 0.  0.
          5    1    3    3  502    0  0.54377844394E+02  0.26411893483E+02 -0.95245072783E+02  0.11288770689E+03  0.41800000000E+01 0.  1.
         -5    1    3    3    0  502 -0.45168098197E+02  0.40983369361E+01  0.31933126814E+01  0.45657673027E+02  0.41800000000E+01 0.  1.
        -11    1    4    4    0    0 -0.39101636815E+02 -0.20075387938E+02 -0.25361729656E+03  0.25739792602E+03  0.00000000000E+00 0. -1.
         11    1    4    4    0    0  0.29891890618E+02 -0.10434842481E+02 -0.37754855356E+02  0.49273118079E+02  0.00000000000E+00 0.  1.
</event>
<event>
 8    1  0.7224924E-009  0.2675915E+03  0.7561462E-02  0.1102666E+00
         -1   -1    0    0    0  501 -0.00000000000E+00  0.00000000000E+00  0.22851050652E+03  0.22851050652E+03  0.00000000000E+00 0.  1.
          1   -1    0    0  501    0  0.00000000000E+00 -0.00000000000E+00 -0.71275678111E+03  0.71275678111E+03  0.00000000000E+00 0. -1.
         25    2    1    2    0    0  0.14273653245E+03 -0.20672938011E+03  0.10063270002E+03  0.29813481604E+03  0.12508666566E+03 0.  0.
         23    2    1    2    0    0 -0.14273653245E+03  0.20672938011E+03 -0.58487897461E+03  0.64313247159E+03  0.91788925116E+02 0.  0.
          5    1    3    3  502    0  0.29460056711E+02  0.11910053346E+02 -0.10795888346E+00  0.32050403543E+02  0.41800000000E+01 0.  1.
         -5    1    3    3    0  502  0.11327647574E+03 -0.21863943346E+03  0.10074065890E+03  0.26608441250E+03  0.41800000000E+01 0.  1.
        -11    1    4    4    0    0 -0.37807057196E+02  0.20266013996E+02 -0.43896432143E+02  0.61375741559E+02  0.00000000000E+00 0.  1.
         11    1    4    4    0    0 -0.10492947525E+03  0.18646336612E+03 -0.54098254247E+03  0.58175673003E+03  0.00000000000E+00 0. -1.
</event>
<event>
 8    1  0.7224924E-009  0.8229158E+02  0.7561462E-02  0.1322671E+00
         -2   -1    0    0    0  501 -0.00000000000E+00  0.00000000000E+00  0.25347258887E+02  0.25347258887E+02  0.00000000000E+00 0.  1.
          2   -1    0    0  501    0  0.00000000000E+00 -0.00000000000E+00 -0.69948747789E+03  0.69948747789E+03  0.00000000000E+00 0. -1.
         25    2    1    2    0    0  0.32898054848E+02  0.50081613760E+02 -0.51335055727E+03  0.53175807841E+03  0.12508960491E+03 0.  0.
         23    2    1    2    0    0 -0.32898054848E+02 -0.50081613760E+02 -0.16078966174E+03  0.19307665837E+03  0.88514578664E+02 0.  0.
          5    1    3    3  502    0  0.14889010286E+02  0.53300370079E+02 -0.50960991423E+03  0.51262300881E+03  0.41800000000E+01 0.  1.
         -5    1    3    3    0  502  0.18009044562E+02 -0.32187563196E+01 -0.37406430369E+01  0.19135069600E+02  0.41800000000E+01 0.  1.
        -11    1    4    4    0    0  0.13925242183E+02 -0.40092284238E+02 -0.25378298309E+02  0.49450598079E+02  0.00000000000E+00 0.  1.
         11    1    4    4    0    0 -0.46823297032E+02 -0.99893295218E+01 -0.13541136343E+03  0.14362606029E+03  0.00000000000E+00 0. -1.
</event>
<event>
 8    1  0.7224924E-009  0.1145976E+03  0.7561462E-02  0.1252285E+00
          1   -1    0    0  501    0  0.00000000000E+00  0.00000000000E+00  0.59929809615E+03  0.59929809615E+03  0.00000000000E+00 0. -1.
         -1   -1    0    0    0  501 -0.00000000000E+00 -0.00000000000E+00 -0.30082428960E+02  0.30082428960E+02  0.00000000000E+00 0.  1.
         25    2    1    2    0    0 -0.53799305660E+02 -0.35321891034E+02  0.22616903783E+03  0.26634836456E+03  0.12508803442E+03 0.  0.
         23    2    1    2    0    0  0.53799305660E+02  0.35321891034E+02  0.34304662936E+03  0.36303216055E+03  0.99846674477E+02 0.  0.
          5    1    3    3  502    0 -0.34355305936E+01  0.34119325862E+02  0.14183361926E+03  0.14598006446E+03  0.41800000000E+01 0.  1.
         -5    1    3    3    0  502 -0.50363775067E+02 -0.69441216896E+02  0.84335418570E+02  0.12036830010E+03  0.41800000000E+01 0.  1.
        -11    1    4    4    0    0  0.54884125483E+02 -0.16205544546E+02  0.10614139858E+03  0.12058558536E+03  0.00000000000E+00 0.  1.
         11    1    4    4    0    0 -0.10848198228E+01  0.51527435580E+02  0.23690523078E+03  0.24244657519E+03  0.00000000000E+00 0. -1.
</event>
<event>
 8    1  0.7224924E-009  0.1155117E+03  0.7561462E-02  0.1250690E+00
         -1   -1    0    0    0  501 -0.00000000000E+00  0.00000000000E+00  0.61200415943E+02  0.61200415943E+02  0.00000000000E+00 0.  1.
          1   -1    0    0  501    0  0.00000000000E+00 -0.00000000000E+00 -0.23756413202E+03  0.23756413202E+03  0.00000000000E+00 0. -1.
         25    2    1    2    0    0 -0.46515298312E+02  0.34835662663E+02 -0.97371663949E+02  0.16883285450E+03  0.12508435333E+03 0.  0.
         23    2    1    2    0    0  0.46515298312E+02 -0.34835662663E+02 -0.78992052125E+02  0.12993169346E+03  0.85236754378E+02 0.  0.
          5    1    3    3  502    0  0.39891230358E+02  0.78826954934E+01 -0.55727265315E+02  0.69111848820E+02  0.41800000000E+01 0. -1.
         -5    1    3    3    0  502 -0.86406528670E+02  0.26952967169E+02 -0.41644398634E+02  0.99721005679E+02  0.41800000000E+01 0. -1.
        -11    1    4    4    0    0  0.13123329991E+02  0.26573119171E+02 -0.40339604363E+02  0.50056329597E+02  0.00000000000E+00 0.  1.
         11    1    4    4    0    0  0.33391968321E+02 -0.61408781834E+02 -0.38652447762E+02  0.79875363866E+02  0.00000000000E+00 0. -1.
</event>
<event>
 8    1  0.7224924E-009  0.1827885E+03  0.7561462E-02  0.1165131E+00
          1   -1    0    0  501    0  0.00000000000E+00  0.00000000000E+00  0.11412416460E+03  0.11412416460E+03  0.00000000000E+00 0. -1.
         -1   -1    0    0    0  501 -0.00000000000E+00 -0.00000000000E+00 -0.32584983504E+03  0.32584983504E+03  0.00000000000E+00 0.  1.
         25    2    1    2    0    0 -0.15696278086E+03  0.22336177741E+02 -0.10216434285E+03  0.22632130508E+03  0.12509021054E+03 0.  0.
         23    2    1    2    0    0  0.15696278086E+03 -0.22336177741E+02 -0.10956132759E+03  0.21365269456E+03  0.92236489396E+02 0.  0.
          5    1    3    3  502    0  0.47038300185E+01 -0.22284569387E+02 -0.42251050786E+02  0.48180408281E+02  0.41800000000E+01 0.  1.
         -5    1    3    3    0  502 -0.16166661088E+03  0.44620747128E+02 -0.59913292060E+02  0.17814089680E+03  0.41800000000E+01 0.  1.
        -11    1    4    4    0    0  0.56491953507E+02  0.27131046793E+02 -0.93287437336E+01  0.63359766183E+02  0.00000000000E+00 0. -1.
         11    1    4    4    0    0  0.10047082735E+03 -0.49467224534E+02 -0.10023258386E+03  0.15029292837E+03  0.00000000000E+00 0.  1.
</event>
<event>
 8    1  0.7224924E-009  0.1224906E+03  0.7561462E-02  0.1239044E+00
          1   -1    0    0  501    0  0.00000000000E+00  0.00000000000E+00  0.40344785933E+03  0.40344785933E+03  0.00000000000E+00 0. -1.
         -1   -1    0    0    0  501 -0.00000000000E+00 -0.00000000000E+00 -0.45017800528E+02  0.45017800528E+02  0.00000000000E+00 0.  1.
         25    2    1    2    0    0 -0.74112290552E+02 -0.19223580271E+02  0.23177866294E+03  0.27428500989E+03  0.12509492558E+03 0.  0.
         23    2    1    2    0    0  0.74112290552E+02  0.19223580271E+02  0.12665139586E+03  0.17418064997E+03  0.91848489916E+02 0.  0.
          5    1    3    3  502    0 -0.36841328263E+02 -0.69017221511E+02  0.16655865259E+03  0.18406498169E+03  0.41800000000E+01 0.  1.
         -5    1    3    3    0  502 -0.37270962289E+02  0.49793641240E+02  0.65220010352E+02  0.90220028199E+02  0.41800000000E+01 0.  1.
        -11    1    4    4    0    0  0.41962233936E+02  0.46139699848E+02  0.30797308216E+02  0.69556992261E+02  0.00000000000E+00 0.  1.
         11    1    4    4    0    0  0.32150056616E+02 -0.26916119577E+02  0.95854087644E+02  0.10462365771E+03  0.00000000000E+00 0. -1.
</event>
<event>
 8    1  0.7224924E-009  0.1352036E+03  0.7561462E-02  0.1219933E+00
         -2   -1    0    0    0  501 -0.00000000000E+00  0.00000000000E+00  0.17658385457E+03  0.17658385457E+03  0.00000000000E+00 0.  1.
          2   -1    0    0  501    0  0.00000000000E+00 -0.00000000000E+00 -0.12435379736E+03  0.12435379736E+03  0.00000000000E+00 0. -1.
         25    2    1    2    0    0 -0.92515444256E+02  0.32109292604E+02  0.44086927465E+02  0.16486658541E+03  0.12508884728E+03 0.  0.
         23    2    1    2    0    0  0.92515444256E+02 -0.32109292604E+02  0.81431297455E+01  0.13607106652E+03  0.94121785390E+02 0.  0.
          5    1    3    3  502    0  0.68880445226E+01  0.42124126972E+02 -0.18707732640E+02  0.46790371777E+02  0.41800000000E+01 0. -1.
         -5    1    3    3    0  502 -0.99403488778E+02 -0.10014834368E+02  0.62794660105E+02  0.11807621364E+03  0.41800000000E+01 0. -1.
        -11    1    4    4    0    0  0.27650202510E+02  0.27812529174E+02 -0.19148051289E+02  0.43643079017E+02  0.00000000000E+00 0.  1.
         11    1    4    4    0    0  0.64865241745E+02 -0.59921821778E+02  0.27291181035E+02  0.92427987504E+02  0.00000000000E+00 0. -1.
</event>
<event>
 8    1  0.7224924E-009  0.9990291E+02  0.7561462E-02  0.1280500E+00
          1   -1    0    0  501    0  0.00000000000E+00  0.00000000000E+00  0.82983214031E+03  0.82983214031E+03  0.00000000000E+00 0. -1.
         -1   -1    0    0    0  501 -0.00000000000E+00 -0.00000000000E+00 -0.22764473091E+02  0.22764473091E+02  0.00000000000E+00 0.  1.
         25    2    1    2    0    0 -0.69603326949E+02 -0.15785654191E+01  0.29514287721E+03  0.32803125069E+03  0.12509223983E+03 0.  0.
         23    2    1    2    0    0  0.69603326949E+02  0.15785654191E+01  0.51192479000E+03  0.52456536272E+03  0.90855457450E+02 0.  0.
          5    1    3    3  502    0 -0.58787518398E+02 -0.21132615743E+02  0.45601850884E+02  0.77456832956E+02  0.41800000000E+01 0.  1.
         -5    1    3    3    0  502 -0.10815808551E+02  0.19554050324E+02  0.24954102633E+03  0.25057441773E+03  0.41800000000E+01 0.  1.
        -11    1    4    4    0    0  0.84361824609E+02 -0.21508841924E+02  0.38837418757E+03  0.39801263460E+03  0.00000000000E+00 0.  1.
         11    1    4    4    0    0 -0.14758497659E+02  0.23087407343E+02  0.12355060243E+03  0.12655272811E+03  0.00000000000E+00 0. -1.
</event>
<event>
 8    1  0.7224924E-009  0.9977433E+02  0.7561462E-02  0.1280771E+00
          1   -1    0    0  501    0  0.00000000000E+00  0.00000000000E+00  0.94996876964E+02  0.94996876964E+02  0.00000000000E+00 0. -1.
         -1   -1    0    0    0  501 -0.00000000000E+00 -0.00000000000E+00 -0.17490025097E+03  0.17490025097E+03  0.00000000000E+00 0.  1.
         25    2    1    2    0    0 -0.45423708132E+02 -0.67802035340E-01  0.76324890506E+00  0.13307674673E+03  0.12508205353E+03 0.  0.
         23    2    1    2    0    0  0.45423708132E+02  0.67802035340E-01 -0.80666622916E+02  0.13682038121E+03  0.10074420481E+03 0.  0.
          5    1    3    3  502    0  0.14798535722E+02  0.39153860770E+02 -0.33093774778E+02  0.53522815712E+02  0.41800000000E+01 0. -1.
         -5    1    3    3    0  502 -0.60222243854E+02 -0.39221662805E+02  0.33857023683E+02  0.79553931020E+02  0.41800000000E+01 0. -1.
        -11    1    4    4    0    0  0.38784949173E+02  0.33597208891E+02 -0.23466730900E+01  0.51366833679E+02  0.00000000000E+00 0. -1.
         11    1    4    4    0    0  0.66387589597E+01 -0.33529406855E+02 -0.78319949826E+02  0.85453547529E+02  0.00000000000E+00 0.  1.
</event>
<event>
 8    1  0.7224924E-009  0.1532109E+03  0.7561462E-02  0.1196582E+00
          2   -1    0    0  501    0  0.00000000000E+00  0.00000000000E+00  0.29083176932E+02  0.29083176932E+02  0.00000000000E+00 0. -1.
         -2   -1    0    0    0  501 -0.00000000000E+00 -0.00000000000E+00 -0.91897223931E+03  0.91897223931E+03  0.00000000000E+00 0.  1.
         25    2    1    2    0    0  0.10499415314E+03  0.26191256827E+02 -0.31220809190E+03  0.35331495916E+03  0.12509122108E+03 0.  0.
         23    2    1    2    0    0 -0.10499415314E+03 -0.26191256827E+02 -0.57768097049E+03  0.59474045709E+03  0.91055771410E+02 0.  0.
          5    1    3    3  502    0  0.13213978549E+03  0.84218069682E+01 -0.25731476344E+03  0.28941356158E+03  0.41800000000E+01 0.  1.
         -5    1    3    3    0  502 -0.27145632345E+02  0.17769449859E+02 -0.54893328455E+02  0.63901397579E+02  0.41800000000E+01 0.  1.
        -11    1    4    4    0    0  0.10384483102E+02 -0.23649290647E+02 -0.11803164795E+03  0.12082465127E+03  0.00000000000E+00 0.  1.
         11    1    4    4    0    0 -0.11537863624E+03 -0.25419661794E+01 -0.45964932254E+03  0.47391580582E+03  0.00000000000E+00 0. -1.
</event>
<event>
 8    1  0.7224924E-009  0.8809548E+02  0.7561462E-02  0.1307530E+00
          2   -1    0    0  501    0  0.00000000000E+00  0.00000000000E+00  0.23965340011E+03  0.23965340011E+03  0.00000000000E+00 0. -1.
         -2   -1    0    0    0  501 -0.00000000000E+00 -0.00000000000E+00 -0.66830564940E+02  0.66830564940E+02  0.00000000000E+00 0.  1.
         25    2    1    2    0    0  0.36517466173E+01 -0.39649298208E+02  0.14456643984E+03  0.19527480111E+03  0.12508952921E+03 0.  0.
         23    2    1    2    0    0 -0.36517466173E+01  0.39649298208E+02  0.28256395327E+02  0.11120916394E+03  0.99918227391E+02 0.  0.
          5    1    3    3  502    0  0.32361830110E+02 -0.69712391434E+02  0.49717556114E+02  0.91631945049E+02  0.41800000000E+01 0.  1.
         -5    1    3    3    0  502 -0.28710083492E+02  0.30063093225E+02  0.94848883725E+02  0.10364285606E+03  0.41800000000E+01 0.  1.
        -11    1    4    4    0    0 -0.21276848104E+02  0.11386612220E+02 -0.33355794788E+02  0.41169992094E+02  0.00000000000E+00 0.  1.
         11    1    4    4    0    0  0.17625101486E+02  0.28262685989E+02  0.61612190115E+02  0.70039171843E+02  0.00000000000E+00 0. -1.
</event>
<event>
 8    1  0.7224924E-009  0.1193309E+03  0.7561462E-02  0.1244205E+00
         -1   -1    0    0    0  501 -0.00000000000E+00  0.00000000000E+00  0.38856276997E+02  0.38856276997E+02  0.00000000000E+00 0.  1.
          1   -1    0    0  501    0  0.00000000000E+00 -0.00000000000E+00 -0.64840191109E+03  0.64840191109E+03  0.00000000000E+00 0. -1.
         25    2    1    2    0    0  0.90867909720E+02 -0.68273226714E+02 -0.28370399051E+03  0.33023293258E+03  0.12509046739E+03 0.  0.
         23    2    1    2    0    0 -0.90867909720E+02  0.68273226714E+02 -0.32584164358E+03  0.35702525550E+03  0.91520740104E+02 0.  0.
          5    1    3    3  502    0  0.95805888338E+02 -0.68995992651E+02 -0.12721931411E+03  0.17361290713E+03  0.41800000000E+01 0.  1.
         -5    1    3    3    0  502 -0.49379786179E+01  0.72276593719E+00 -0.15648467640E+03  0.15662002545E+03  0.41800000000E+01 0.  1.
        -11    1    4    4    0    0 -0.36359765087E+02  0.21883160171E+02 -0.24667528578E+03  0.25029902483E+03  0.00000000000E+00 0. -1.
         11    1    4    4    0    0 -0.54508144633E+02  0.46390066543E+02 -0.79166357801E+02  0.10672623067E+03  0.00000000000E+00 0.  1.
</event>
<event>
 8    1  0.7224924E-009  0.2564437E+03  0.7561462E-02  0.1109299E+00
          2   -1    0    0  501    0  0.00000000000E+00  0.00000000000E+00  0.47523933624E+03  0.47523933624E+03  0.00000000000E+00 0. -1.
         -2   -1    0    0    0  501 -0.00000000000E+00 -0.00000000000E+00 -0.15795275041E+03  0.15795275041E+03  0.00000000000E+00 0.  1.
         25    2    1    2    0    0  0.24248727746E+03  0.25132780665E+02  0.22826366663E+03  0.35662769686E+03  0.12508907334E+03 0.  0.
         23    2    1    2    0    0 -0.24248727746E+03 -0.25132780665E+02  0.89022919202E+02  0.27656438980E+03  0.95556502498E+02 0.  0.
          5    1    3    3  502    0  0.22793526489E+03  0.44975560483E+02  0.15523265199E+03  0.27944934186E+03  0.41800000000E+01 0. -1.
         -5    1    3    3    0  502  0.14552012569E+02 -0.19842779818E+02  0.73031014643E+02  0.77178355000E+02  0.41800000000E+01 0. -1.
        -11    1    4    4    0    0 -0.22384525875E+03  0.52416501965E+00  0.55928104484E+02  0.23072695439E+03  0.00000000000E+00 0.  1.
         11    1    4    4    0    0 -0.18642018710E+02 -0.25656945685E+02  0.33094814717E+02  0.45837435406E+02  0.00000000000E+00 0. -1.
</event>
<event>
 8    1  0.7224924E-009  0.1400132E+03  0.7561462E-02  0.1213311E+00
          2   -1    0    0  501    0  0.00000000000E+00  0.00000000000E+00  0.40597339814E+03  0.40597339814E+03  0.00000000000E+00 0. -1.
         -2   -1    0    0    0  501 -0.00000000000E+00 -0.00000000000E+00 -0.49592497882E+02  0.49592497882E+02  0.00000000000E+00 0.  1.
         25    2    1    2    0    0  0.67027544872E+02 -0.57707256624E+02  0.16089531947E+03  0.22216676362E+03  0.12509175750E+03 0.  0.
         23    2    1    2    0    0 -0.67027544872E+02  0.57707256624E+02  0.19548558079E+03  0.23339913240E+03  0.91857081756E+02 0.  0.
          5    1    3    3  502    0  0.92118647723E+02 -0.28322394734E+01  0.10550459225E+03  0.14015191124E+03  0.41800000000E+01 0. -1.
         -5    1    3    3    0  502 -0.25091102852E+02 -0.54875017150E+02  0.55390727220E+02  0.82014852384E+02  0.41800000000E+01 0. -1.
        -11    1    4    4    0    0 -0.36301393174E+01  0.63518805574E+02  0.10473525209E+03  0.12254505132E+03  0.00000000000E+00 0.  1.
         11    1    4    4    0    0 -0.63397405554E+02 -0.58115489505E+01  0.90750328704E+02  0.11085408108E+03  0.00000000000E+00 0. -1.
</event>
<event>
 8    1  0.7224924E-009  0.1950897E+03  0.7561462E-02  0.1153949E+00
         -4   -1    0    0    0  501 -0.00000000000E+00  0.00000000000E+00  0.10272583569E+03  0.10272583569E+03  0.00000000000E+00 0.  1.
          4   -1    0    0  501    0  0.00000000000E+00 -0.00000000000E+00 -0.47797686475E+03  0.47797686475E+03  0.00000000000E+00 0. -1.
         25    2    1    2    0    0  0.42080838803E+02  0.16094881045E+03 -0.32185793613E+03  0.38329645277E+03  0.12509325751E+03 0.  0.
         23    2    1    2    0    0 -0.42080838803E+02 -0.16094881045E+03 -0.53393092926E+02  0.19740624767E+03  0.91886275732E+02 0.  0.
          5    1    3    3  502    0  0.39690006051E+01  0.16484137145E+03 -0.28852153075E+03  0.33234105496E+03  0.41800000000E+01 0.  1.
         -5    1    3    3    0  502  0.38111838198E+02 -0.38925609999E+01 -0.33336405381E+02  0.50955397807E+02  0.41800000000E+01 0.  1.
        -11    1    4    4    0    0  0.21898298557E+02 -0.83085072087E+02 -0.62562363409E+01  0.86149899458E+02  0.00000000000E+00 0.  1.
         11    1    4    4    0    0 -0.63979137360E+02 -0.77863738364E+02 -0.47136856585E+02  0.11125634821E+03  0.00000000000E+00 0. -1.
</event>
<event>
 8    1  0.7224924E-009  0.1860009E+03  0.7561462E-02  0.1162119E+00
         -2   -1    0    0    0  501 -0.00000000000E+00  0.00000000000E+00  0.48686644877E+02  0.48686644877E+02  0.00000000000E+00 0. -1.
          2   -1    0    0  501    0  0.00000000000E+00 -0.00000000000E+00 -0.86332268231E+03  0.86332268231E+03  0.00000000000E+00 0.  1.
         25    2    1    2    0    0  0.15177932399E+03  0.53165432363E+02 -0.56970940593E+03  0.60504491316E+03  0.12508802237E+03 0.  0.
         23    2    1    2    0    0 -0.15177932399E+03 -0.53165432363E+02 -0.24492663150E+03  0.30696441403E+03  0.91512678204E+02 0.  0.
          5    1    3    3  502    0  0.12223691888E+03  0.82644345829E+02 -0.32748074347E+03  0.35921172306E+03  0.41800000000E+01 0.  1.
         -5    1    3    3    0  502  0.29542405106E+02 -0.29478913466E+02 -0.24222866246E+03  0.24583319010E+03  0.41800000000E+01 0.  1.
        -11    1    4    4    0    0 -0.13719800029E+03 -0.10777928158E+02 -0.16088281778E+03  0.21171380701E+03  0.00000000000E+00 0.  1.
         11    1    4    4    0    0 -0.14581323696E+02 -0.42387504204E+02 -0.84043813716E+02  0.95250607018E+02  0.00000000000E+00 0. -1.
</event>
<event>
 8    1  0.7224924E-009  0.2280620E+03  0.7561462E-02  0.1128011E+00
          1   -1    0    0  501    0  0.00000000000E+00  0.00000000000E+00  0.98496830744E+03  0.98496830744E+03  0.00000000000E+00 0. -1.
         -1   -1    0    0    0  501 -0.00000000000E+00 -0.00000000000E+00 -0.76425669419E+02  0.76425669419E+02  0.00000000000E+00 0.  1.
         25    2    1    2    0    0 -0.15631330431E+03 -0.16112454306E+03  0.68502861686E+03  0.73164653875E+03  0.12508990476E+03 0.  0.
         23    2    1    2    0    0  0.15631330431E+03  0.16112454306E+03  0.22351402116E+03  0.32974743810E+03  0.91541727099E+02 0.  0.
          5    1    3    3  502    0 -0.48120545411E+02 -0.74202406469E+02  0.11603029513E+03  0.14595234086E+03  0.41800000000E+01 0.  1.
         -5    1    3    3    0  502 -0.10819275890E+03 -0.86922136588E+02  0.56899832173E+03  0.58569419789E+03  0.41800000000E+01 0.  1.
        -11    1    4    4    0    0  0.77693840638E+02  0.11103579679E+03  0.76358609312E+02  0.15555037209E+03  0.00000000000E+00 0.  1.
         11    1    4    4    0    0  0.78619463676E+02  0.50088746268E+02  0.14715541185E+03  0.17419706601E+03  0.00000000000E+00 0. -1.
</event>
<event>
 8    1  0.7224924E-009  0.7505450E+02  0.7561462E-02  0.1343702E+00
         -2   -1    0    0    0  501 -0.00000000000E+00  0.00000000000E+00  0.72943858489E+02  0.72943858489E+02  0.00000000000E+00 0.  1.
          2   -1    0    0  501    0  0.00000000000E+00 -0.00000000000E+00 -0.18719941910E+03  0.18719941910E+03  0.00000000000E+00 0. -1.
         25    2    1    2    0    0  0.39078532587E+02  0.21184082255E+02 -0.76543893706E+02  0.15323976153E+03  0.12509020666E+03 0.  0.
         23    2    1    2    0    0 -0.39078532587E+02 -0.21184082255E+02 -0.37711666904E+02  0.10690351605E+03  0.89611912567E+02 0.  0.
          5    1    3    3  502    0  0.12465245142E+02 -0.36508590908E+02 -0.80583216009E+02  0.89439290297E+02  0.41800000000E+01 0. -1.
         -5    1    3    3    0  502  0.26613287445E+02  0.57692673163E+02  0.40393223033E+01  0.63800471237E+02  0.41800000000E+01 0. -1.
        -11    1    4    4    0    0 -0.27573967286E+02 -0.23098104806E+02  0.24556188480E+02  0.43552870286E+02  0.00000000000E+00 0.  1.
         11    1    4    4    0    0 -0.11504565301E+02  0.19140225506E+01 -0.62267855384E+02  0.63350645767E+02  0.00000000000E+00 0. -1.
</event>
<event>
 8    1  0.7224924E-009  0.1121304E+03  0.7561462E-02  0.1256675E+00
         -2   -1    0    0    0  501 -0.00000000000E+00  0.00000000000E+00  0.32339468959E+02  0.32339468959E+02  0.00000000000E+00 0.  1.
          2   -1    0    0  501    0  0.00000000000E+00 -0.00000000000E+00 -0.63765433932E+03  0.63765433932E+03  0.00000000000E+00 0. -1.
         25    2    1    2    0    0 -0.52065956679E+02 -0.67251968084E+02 -0.42359198976E+03  0.44979114522E+03  0.12509280347E+03 0.  0.
         23    2    1    2    0    0  0.52065956679E+02  0.67251968084E+02 -0.18172288060E+03  0.22020266305E+03  0.90732113531E+02 0.  0.
          5    1    3    3  502    0  0.98942846486E+01 -0.26754284351E+02 -0.11428009442E+02  0.31012262085E+02  0.41800000000E+01 0. -1.
         -5    1    3    3    0  502 -0.61960241328E+02 -0.40497683733E+02 -0.41216398031E+03  0.41877888314E+03  0.41800000000E+01 0. -1.
        -11    1    4    4    0    0  0.40258329377E+02 -0.11334381547E+02 -0.87210434007E+02  0.96720530856E+02  0.00000000000E+00 0. -1.
         11    1    4    4    0    0  0.11807627302E+02  0.78586349631E+02 -0.94512446593E+02  0.12348213220E+03  0.00000000000E+00 0.  1.
</event>
<event>
 8    1  0.7224924E-009  0.1214491E+03  0.7561462E-02  0.1240726E+00
         -2   -1    0    0    0  501 -0.00000000000E+00  0.00000000000E+00  0.37834811245E+02  0.37834811245E+02  0.00000000000E+00 0. -1.
          2   -1    0    0  501    0  0.00000000000E+00 -0.00000000000E+00 -0.49523577227E+03  0.49523577227E+03  0.00000000000E+00 0.  1.
         25    2    1    2    0    0 -0.49260465592E+01  0.69995760348E+02 -0.16144487462E+03  0.21595236456E+03  0.12508918345E+03 0.  0.
         23    2    1    2    0    0  0.49260465592E+01 -0.69995760348E+02 -0.29595608641E+03  0.31711821896E+03  0.89723393344E+02 0.  0.
          5    1    3    3  502    0  0.28382149299E+02 -0.20426190929E+02 -0.87798505941E+02  0.94598233177E+02  0.41800000000E+01 0. -1.
         -5    1    3    3    0  502 -0.33308195859E+02  0.90421951277E+02 -0.73646368682E+02  0.12135413138E+03  0.41800000000E+01 0. -1.
        -11    1    4    4    0    0 -0.31169326276E+02  0.14282695752E+01 -0.55175269642E+02  0.63386727589E+02  0.00000000000E+00 0.  1.
         11    1    4    4    0    0  0.36095372835E+02 -0.71424029923E+02 -0.24078081676E+03  0.25373149137E+03  0.00000000000E+00 0. -1.
</event>
<event>
 8    1  0.7224924E-009  0.1354918E+03  0.7561462E-02  0.1219527E+00
         -3   -1    0    0    0  501 -0.00000000000E+00  0.00000000000E+00  0.27858289787E+02  0.27858289787E+02  0.00000000000E+00 0.  1.
          3   -1    0    0  501    0  0.00000000000E+00 -0.00000000000E+00 -0.95872839948E+03  0.95872839948E+03  0.00000000000E+00 0. -1.
         25    2    1    2    0    0 -0.19846726811E+02  0.11774188876E+03 -0.55766302554E+03  0.58385921369E+03  0.12508591614E+03 0.  0.
         23    2    1    2    0    0  0.19846726811E+02 -0.11774188876E+03 -0.37320708415E+03  0.40272747558E+03  0.92999177368E+02 0.  0.
          5    1    3    3  502    0 -0.19616749981E+02  0.51082825531E+02 -0.58365042463E+02  0.80113809832E+02  0.41800000000E+01 0. -1.
         -5    1    3    3    0  502 -0.22997682993E+00  0.66659063231E+02 -0.49929798308E+03  0.50374540386E+03  0.41800000000E+01 0. -1.
        -11    1    4    4    0    0 -0.35448688946E+02 -0.35155277962E+02 -0.15752502810E+03  0.16524720147E+03  0.00000000000E+00 0. -1.
         11    1    4    4    0    0  0.55295415757E+02 -0.82586610800E+02 -0.21568205605E+03  0.23748027411E+03  0.00000000000E+00 0.  1.
</event>
<event>
 8    1  0.7224924E-009  0.1253655E+03  0.7561462E-02  0.1234499E+00
         -1   -1    0    0    0  501 -0.00000000000E+00  0.00000000000E+00  0.99273531384E+02  0.99273531384E+02  0.00000000000E+00 0.  1.
          1   -1    0    0  501    0  0.00000000000E+00 -0.00000000000E+00 -0.18250749277E+03  0.18250749277E+03  0.00000000000E+00 0. -1.
         25    2    1    2    0    0  0.74589816363E+02 -0.24358954592E+02 -0.37596495156E+02  0.15238265336E+03  0.12509986900E+03 0.  0.
         23    2    1    2    0    0 -0.74589816363E+02  0.24358954592E+02 -0.45637466232E+02  0.12939837079E+03  0.92218006191E+02 0.  0.
          5    1    3    3  502    0  0.44106417481E+02 -0.70150657483E+02  0.43418729812E+01  0.83083181627E+02  0.41800000000E+01 0. -1.
         -5    1    3    3    0  502  0.30483398882E+02  0.45791702890E+02 -0.41938368138E+02  0.69299471737E+02  0.41800000000E+01 0. -1.
        -11    1    4    4    0    0 -0.17063599860E+02 -0.29312062710E+02  0.71398562535E+01  0.34660366527E+02  0.00000000000E+00 0.  1.
         11    1    4    4    0    0 -0.57526216503E+02  0.53671017303E+02 -0.52777322486E+02  0.94738004266E+02  0.00000000000E+00 0. -1.
</event>
<event>
 8    1  0.7224924E-009  0.1144511E+03  0.7561462E-02  0.1252542E+00
         -2   -1    0    0    0  501 -0.00000000000E+00  0.00000000000E+00  0.58204684226E+02  0.58204684226E+02  0.00000000000E+00 0.  1.
          2   -1    0    0  501    0  0.00000000000E+00 -0.00000000000E+00 -0.29691871640E+03  0.29691871640E+03  0.00000000000E+00 0. -1.
         25    2    1    2    0    0  0.12244957871E+02  0.66003168298E+02 -0.90465689622E+02  0.16834243465E+03  0.12509507218E+03 0.  0.
         23    2    1    2    0    0 -0.12244957871E+02 -0.66003168298E+02 -0.14824834255E+03  0.18678096598E+03  0.91668974926E+02 0.  0.
          5    1    3    3  502    0  0.32636413204E+02  0.95614716267E+02 -0.46227441237E+02  0.11118344372E+03  0.41800000000E+01 0.  1.
         -5    1    3    3    0  502 -0.20391455333E+02 -0.29611547969E+02 -0.44238248384E+02  0.57158990927E+02  0.41800000000E+01 0.  1.
        -11    1    4    4    0    0 -0.31689697341E+02 -0.64767796450E+02 -0.15077943568E+03  0.16713330787E+03  0.00000000000E+00 0. -1.
         11    1    4    4    0    0  0.19444739471E+02 -0.12353718475E+01  0.25310931326E+01  0.19647658108E+02  0.00000000000E+00 0.  1.
</event>
<event>
 8    1  0.7224924E-009  0.2241224E+03  0.7561462E-02  0.1130846E+00
          1   -1    0    0  501    0  0.00000000000E+00  0.00000000000E+00  0.15499677929E+03  0.15499677929E+03  0.00000000000E+00 0. -1.
         -1   -1    0    0    0  501 -0.00000000000E+00 -0.00000000000E+00 -0.36064323532E+03  0.36064323532E+03  0.00000000000E+00 0.  1.
         25    2    1    2    0    0 -0.63341643753E+02 -0.19905834856E+03 -0.90837717493E+02  0.25987423878E+03  0.12508692616E+03 0.  0.
         23    2    1    2    0    0  0.63341643753E+02  0.19905834856E+03 -0.11480873853E+03  0.25576577583E+03  0.92729152249E+02 0.  0.
          5    1    3    3  502    0 -0.48113355426E+02 -0.47116669313E+02 -0.82929553867E+02  0.10690958237E+03  0.41800000000E+01 0. -1.
         -5    1    3    3    0  502 -0.15228288328E+02 -0.15194167925E+03 -0.79081636257E+01  0.15296465641E+03  0.41800000000E+01 0. -1.
        -11    1    4    4    0    0  0.87268108781E+02  0.15509599471E+03 -0.96711902690E+02  0.20254303865E+03  0.00000000000E+00 0.  1.
         11    1    4    4    0    0 -0.23926465028E+02  0.43962353860E+02 -0.18096835842E+02  0.53222737181E+02  0.00000000000E+00 0. -1.
</event>
<event>
 8    1  0.7224924E-009  0.1388703E+03  0.7561462E-02  0.1214857E+00
          2   -1    0    0  501    0  0.00000000000E+00  0.00000000000E+00  0.37873814801E+03  0.37873814801E+03  0.00000000000E+00 0. -1.
         -2   -1    0    0    0  501 -0.00000000000E+00 -0.00000000000E+00 -0.58638914993E+02  0.58638914993E+02  0.00000000000E+00 0.  1.
         25    2    1    2    0    0 -0.69333340184E+02  0.62908590571E+02  0.21302621193E+03  0.26417964568E+03  0.12508443305E+03 0.  0.
         23    2    1    2    0    0  0.69333340184E+02 -0.62908590571E+02  0.10707302108E+03  0.17319741732E+03  0.98833752808E+02 0.  0.
          5    1    3    3  502    0  0.51801307175E+01 -0.25314537000E+02  0.96831742612E+02  0.10030711996E+03  0.41800000000E+01 0.  1.
         -5    1    3    3    0  502 -0.74513470902E+02  0.88223127571E+02  0.11619446932E+03  0.16387252571E+03  0.41800000000E+01 0.  1.
        -11    1    4    4    0    0  0.21806522272E+02 -0.81956865530E+02  0.63149772403E+02  0.10573715513E+03  0.00000000000E+00 0.  1.
         11    1    4    4    0    0  0.47526817912E+02  0.19048274959E+02  0.43923248681E+02  0.67460262188E+02  0.00000000000E+00 0. -1.
</event>
<event>
 8    1  0.7224924E-009  0.8924157E+02  0.7561462E-02  0.1304699E+00
         -2   -1    0    0    0  501 -0.00000000000E+00  0.00000000000E+00  0.64234170118E+02  0.64234170118E+02  0.00000000000E+00 0.  1.
          2   -1    0    0  501    0  0.00000000000E+00 -0.00000000000E+00 -0.19232626707E+03  0.19232626707E+03  0.00000000000E+00 0. -1.
         25    2    1    2    0    0 -0.19831321270E+02 -0.69732446333E+01 -0.91146063349E+02  0.15619349453E+03  0.12508755105E+03 0.  0.
         23    2    1    2    0    0  0.19831321270E+02  0.69732446333E+01 -0.36946033602E+02  0.10036694265E+03  0.90920879530E+02 0.  0.
          5    1    3    3  502    0 -0.47598192525E+02 -0.24923719084E+02 -0.10660746158E+03  0.11945460631E+03  0.41800000000E+01 0. -1.
         -5    1    3    3    0  502  0.27766871255E+02  0.17950474451E+02  0.15461398233E+02  0.36738888220E+02  0.41800000000E+01 0. -1.
        -11    1    4    4    0    0 -0.13126261993E+02  0.41504207056E+02 -0.71977181341E+01  0.44121481204E+02  0.00000000000E+00 0. -1.
         11    1    4    4    0    0  0.32957583263E+02 -0.34530962423E+02 -0.29748315468E+02  0.56245461449E+02  0.00000000000E+00 0.  1.
</event>
<event>
 8    1  0.7224924E-009  0.1058064E+03  0.7561462E-02  0.1268539E+00
         -2   -1    0    0    0  501 -0.00000000000E+00  0.00000000000E+00  0.51149240239E+02  0.51149240239E+02  0.00000000000E+00 0.  1.
          2   -1    0    0  501    0  0.00000000000E+00 -0.00000000000E+00 -0.26690933207E+03  0.26690933207E+03  0.00000000000E+00 0. -1.
         25    2    1    2    0    0  0.20173071198E+02  0.17397178355E+02 -0.76734772190E+02  0.14914630118E+03  0.12508708677E+03 0.  0.
         23    2    1    2    0    0 -0.20173071198E+02 -0.17397178355E+02 -0.13902531964E+03  0.16891227113E+03  0.92161278319E+02 0.  0.
          5    1    3    3  502    0  0.26213690219E+02  0.66107558922E+02 -0.69194814574E+02  0.99311437737E+02  0.41800000000E+01 0. -1.
         -5    1    3    3    0  502 -0.60406190213E+01 -0.48710380567E+02 -0.75399576159E+01  0.49834863439E+02  0.41800000000E+01 0. -1.
        -11    1    4    4    0    0  0.13313876060E+02 -0.45493224665E+02 -0.98466272020E+02  0.10928174373E+03  0.00000000000E+00 0. -1.
         11    1    4    4    0    0 -0.33486947258E+02  0.28096046310E+02 -0.40559047622E+02  0.59630527408E+02  0.00000000000E+00 0.  1.
</event>
<event>
 8    1  0.7224924E-009  0.2117185E+03  0.7561462E-02  0.1140212E+00
          1   -1    0    0  501    0  0.00000000000E+00  0.00000000000E+00  0.14559235312E+03  0.14559235312E+03  0.00000000000E+00 0. -1.
         -1   -1    0    0    0  501 -0.00000000000E+00 -0.00000000000E+00 -0.40962088288E+03  0.40962088288E+03  0.00000000000E+00 0.  1.
         25    2    1    2    0    0 -0.19896943561E+03  0.27037126652E+02 -0.23230461895E+03  0.33156110602E+03  0.12508992171E+03 0.  0.
         23    2    1    2    0    0  0.19896943561E+03 -0.27037126652E+02 -0.31723910811E+02  0.22365212999E+03  0.93241762134E+02 0.  0.
          5    1    3    3  502    0 -0.48801809501E+02  0.49583654744E+02 -0.23925214088E+02  0.73688830209E+02  0.41800000000E+01 0.  1.
         -5    1    3    3    0  502 -0.15016762611E+03 -0.22546528092E+02 -0.20837940486E+03  0.25787227581E+03  0.41800000000E+01 0.  1.
        -11    1    4    4    0    0  0.98948376437E+02 -0.31517947915E+01  0.30337236767E+02  0.10354256586E+03  0.00000000000E+00 0. -1.
         11    1    4    4    0    0  0.10002105917E+03 -0.23885331861E+02 -0.62061147579E+02  0.12010956413E+03  0.00000000000E+00 0.  1.
</event>
<event>
 8    1  0.7224924E-009  0.1843858E+03  0.7561462E-02  0.1163625E+00
         -2   -1    0    0    0  501 -0.00000000000E+00  0.00000000000E+00  0.30027543295E+02  0.30027543295E+02  0.00000000000E+00 0.  1.
          2   -1    0    0  501    0  0.00000000000E+00 -0.00000000000E+00 -0.13715834409E+04  0.13715834409E+04  0.00000000000E+00 0. -1.
         25    2    1    2    0    0 -0.15315859460E+02  0.16044442886E+03 -0.89973544299E+03  0.92257714100E+03  0.12509086064E+03 0.  0.
         23    2    1    2    0    0  0.15315859460E+02 -0.16044442886E+03 -0.44182045464E+03  0.47903384322E+03  0.91055579235E+02 0.  0.
          5    1    3    3  502    0  0.41239415062E+02  0.35398093247E+02 -0.42187550870E+03  0.42538233579E+03  0.41800000000E+01 0.  1.
         -5    1    3    3    0  502 -0.56555274522E+02  0.12504633562E+03 -0.47785993429E+03  0.49719480521E+03  0.41800000000E+01 0.  1.
        -11    1    4    4    0    0 -0.22215378535E+02 -0.15137032791E+02 -0.13286286442E+03  0.13555513102E+03  0.00000000000E+00 0. -1.
         11    1    4    4    0    0  0.37531237995E+02 -0.14530739607E+03 -0.30895759022E+03  0.34347871220E+03  0.00000000000E+00 0.  1.
</event>
<event>
 8    1  0.7224924E-009  0.1134025E+03  0.7561462E-02  0.1254396E+00
          1   -1    0    0  501    0  0.00000000000E+00  0.00000000000E+00  0.28878051915E+03  0.28878051915E+03  0.00000000000E+00 0. -1.
         -1   -1    0    0    0  501 -0.00000000000E+00 -0.00000000000E+00 -0.54687430541E+02  0.54687430541E+02  0.00000000000E+00 0.  1.
         25    2    1    2    0    0  0.57826987429E+02 -0.22828942632E+02  0.14744030598E+03  0.20310379734E+03  0.12508951823E+03 0.  0.
         23    2    1    2    0    0 -0.57826987429E+02  0.22828942632E+02  0.86652782629E+02  0.14036415235E+03  0.91259352562E+02 0.  0.
          5    1    3    3  502    0 -0.71310788846E+01  0.33451021485E+02  0.97958454325E+02  0.10384196790E+03  0.41800000000E+01 0.  1.
         -5    1    3    3    0  502  0.64958066313E+02 -0.56279964118E+02  0.49481851652E+02  0.99261829437E+02  0.41800000000E+01 0.  1.
        -11    1    4    4    0    0 -0.49092500506E+02 -0.26783407415E+02  0.26442792381E+02  0.61859888357E+02  0.00000000000E+00 0.  1.
         11    1    4    4    0    0 -0.87344869231E+01  0.49612350047E+02  0.60209990247E+02  0.78504263990E+02  0.00000000000E+00 0. -1.
</event>
<event>
 8    1  0.7224924E-009  0.1641516E+03  0.7561462E-02  0.1184088E+00
         -2   -1    0    0    0  501 -0.00000000000E+00  0.00000000000E+00  0.58004881260E+02  0.58004881260E+02  0.00000000000E+00 0.  1.
          2   -1    0    0  501    0  0.00000000000E+00 -0.00000000000E+00 -0.51748070304E+03  0.51748070304E+03  0.00000000000E+00 0. -1.
         25    2    1    2    0    0 -0.95136927383E+02 -0.88412429078E+02 -0.18200252690E+03  0.25620366520E+03  0.12509039010E+03 0.  0.
         23    2    1    2    0    0  0.95136927383E+02  0.88412429078E+02 -0.27747329487E+03  0.31928191910E+03  0.89898397803E+02 0.  0.
          5    1    3    3  502    0  0.59798979289E+01 -0.66916684437E+02 -0.11401765587E+03  0.13240506065E+03  0.41800000000E+01 0.  1.
         -5    1    3    3    0  502 -0.10111682531E+03 -0.21495744641E+02 -0.67984871029E+02  0.12379860455E+03  0.41800000000E+01 0.  1.
        -11    1    4    4    0    0 -0.16483941738E+02  0.22527041297E+02 -0.40694780150E+02  0.49348283215E+02  0.00000000000E+00 0. -1.
         11    1    4    4    0    0  0.11162086912E+03  0.65885387780E+02 -0.23677851472E+03  0.26993363588E+03  0.00000000000E+00 0.  1.
</event>
<event>
 8    1  0.7224924E-009  0.1323591E+03  0.7561462E-02  0.1223997E+00
         -4   -1    0    0    0  501 -0.00000000000E+00  0.00000000000E+00  0.27516922830E+03  0.27516922830E+03  0.00000000000E+00 0.  1.
          4   -1    0    0  501    0  0.00000000000E+00 -0.00000000000E+00 -0.77357525434E+02  0.77357525434E+02  0.00000000000E+00 0. -1.
         25    2    1    2    0    0 -0.59531671517E+02 -0.68814786684E+02  0.65997172201E+02  0.16817913596E+03  0.12509636387E+03 0.  0.
         23    2    1    2    0    0  0.59531671517E+02  0.68814786684E+02  0.13181453066E+03  0.18434761778E+03  0.91265978905E+02 0.  0.
          5    1    3    3  502    0 -0.51987598261E+02 -0.10058994572E+03  0.72638014305E+02  0.13459123699E+03  0.41800000000E+01 0. -1.
         -5    1    3    3    0  502 -0.75440732557E+01  0.31775159036E+02 -0.66408421044E+01  0.33587898965E+02  0.41800000000E+01 0. -1.
        -11    1    4    4    0    0  0.69466880382E+02  0.25425230195E+02  0.11505705489E+03  0.13678529044E+03  0.00000000000E+00 0.  1.
         11    1    4    4    0    0 -0.99352088650E+01  0.43389556489E+02  0.16757475775E+02  0.47562327338E+02  0.00000000000E+00 0. -1.
</event>
<event>
 8    1  0.7224924E-009  0.7845226E+02  0.7561462E-02  0.1333502E+00
         -1   -1    0    0    0  501 -0.00000000000E+00  0.00000000000E+00  0.58028133243E+03  0.58028133243E+03  0.00000000000E+00 0.  1.
          1   -1    0    0  501    0  0.00000000000E+00 -0.00000000000E+00 -0.39533597516E+02  0.39533597516E+02  0.00000000000E+00 0. -1.
         25    2    1    2    0    0 -0.86837247733E+01  0.82132643586E+01  0.50540572364E+03  0.52079388890E+03  0.12509382253E+03 0.  0.
         23    2    1    2    0    0  0.86837247733E+01 -0.82132643586E+01  0.35342011267E+02  0.99021041045E+02  0.91723737505E+02 0.  0.
          5    1    3    3  502    0  0.41853167126E+02  0.35887703256E+02  0.36185744512E+03  0.36605723300E+03  0.41800000000E+01 0.  1.
         -5    1    3    3    0  502 -0.50536891899E+02 -0.27674438897E+02  0.14354827852E+03  0.15473665590E+03  0.41800000000E+01 0.  1.
        -11    1    4    4    0    0 -0.71759955896E+01 -0.21805986842E+02  0.61442853313E+02  0.65591311910E+02  0.00000000000E+00 0.  1.
         11    1    4    4    0    0  0.15859720363E+02  0.13592722484E+02 -0.26100842046E+02  0.33429729135E+02  0.00000000000E+00 0. -1.
</event>
<event>
 8    1  0.7224924E-009  0.1106164E+03  0.7561462E-02  0.1259433E+00
         -4   -1    0    0    0  501 -0.00000000000E+00  0.00000000000E+00  0.18007902649E+03  0.18007902649E+03  0.00000000000E+00 0.  1.
          4   -1    0    0  501    0  0.00000000000E+00 -0.00000000000E+00 -0.12379218368E+03  0.12379218368E+03  0.00000000000E+00 0. -1.
         25    2    1    2    0    0 -0.43482033318E+02  0.40845653165E+02  0.11453799013E+03  0.17979280596E+03  0.12508975692E+03 0.  0.
         23    2    1    2    0    0  0.43482033318E+02 -0.40845653165E+02 -0.58251147321E+02  0.12407840421E+03  0.91886884932E+02 0.  0.
          5    1    3    3  502    0  0.43393642957E+00 -0.40812388684E+02  0.58240277855E+02  0.71240730874E+02  0.41800000000E+01 0.  1.
         -5    1    3    3    0  502 -0.43915969748E+02  0.81658041848E+02  0.56297712276E+02  0.10855207508E+03  0.41800000000E+01 0.  1.
        -11    1    4    4    0    0  0.71748306586E+01  0.17363956678E+02 -0.51881862099E+02  0.55178916276E+02  0.00000000000E+00 0. -1.
         11    1    4    4    0    0  0.36307202659E+02 -0.58209609843E+02 -0.63692852220E+01  0.68899487932E+02  0.00000000000E+00 0.  1.
</event>
<event>
 8    1  0.7224924E-009  0.1821234E+03  0.7561462E-02  0.1165764E+00
          2   -1    0    0  501    0  0.00000000000E+00  0.00000000000E+00  0.94612305514E+02  0.94612305514E+02  0.00000000000E+00 0. -1.
         -2   -1    0    0    0  501 -0.00000000000E+00 -0.00000000000E+00 -0.39392694917E+03  0.39392694917E+03  0.00000000000E+00 0.  1.
         25    2    1    2    0    0 -0.15386172323E+03 -0.43632304186E+02 -0.16427501836E+03  0.26117447077E+03  0.12509442307E+03 0.  0.
         23    2    1    2    0    0  0.15386172323E+03  0.43632304186E+02 -0.13503962530E+03  0.22736478391E+03  0.88779708937E+02 0.  0.
          5    1    3    3  502    0 -0.93353179950E+02 -0.74763014410E+02 -0.14935380568E+03  0.19138536047E+03  0.41800000000E+01 0.  1.
         -5    1    3    3    0  502 -0.60508543279E+02  0.31130710224E+02 -0.14921212673E+02  0.69789110300E+02  0.41800000000E+01 0.  1.
        -11    1    4    4    0    0  0.36849330420E+02  0.46524116658E+02 -0.75527739228E+02  0.96056264637E+02  0.00000000000E+00 0.  1.
         11    1    4    4    0    0  0.11701239281E+03 -0.28918124723E+01 -0.59511886069E+02  0.13130851927E+03  0.00000000000E+00 0. -1.
</event>
<event>
 8    1  0.7224924E-009  0.1071877E+03  0.7561462E-02  0.1265868E+00
          2   -1    0    0  501    0  0.00000000000E+00  0.00000000000E+00  0.16259735323E+03  0.16259735323E+03  0.00000000000E+00 0.  1.
         -2   -1    0    0    0  501 -0.00000000000E+00 -0.00000000000E+00 -0.11687405696E+03  0.11687405696E+03  0.00000000000E+00 0. -1.
         25    2    1    2    0    0 -0.24225771094E+02  0.34988840877E+02  0.97876849806E+02  0.16443895850E+03  0.12509670808E+03 0.  0.
         23    2    1    2    0    0  0.24225771094E+02 -0.34988840877E+02 -0.52153553530E+02  0.11503245169E+03  0.93281106470E+02 0.  0.
          5    1    3    3  502    0 -0.40754858474E+02 -0.29671393472E+02  0.80957097173E+02  0.95461374715E+02  0.41800000000E+01 0. -1.
         -5    1    3    3    0  502  0.16529087380E+02  0.64660234349E+02  0.16919752633E+02  0.68977583785E+02  0.41800000000E+01 0. -1.
        -11    1    4    4    0    0  0.19780353480E+02 -0.64300142111E+02 -0.52578256495E+02  0.85382924027E+02  0.00000000000E+00 0. -1.
         11    1    4    4    0    0  0.44454176140E+01  0.29311301235E+02  0.42470296523E+00  0.29649527660E+02  0.00000000000E+00 0.  1.
</event>
<event>
 8    1  0.7224924E-009  0.9308845E+02  0.7561462E-02  0.1295540E+00
         -1   -1    0    0    0  501 -0.00000000000E+00  0.00000000000E+00  0.34429989329E+03  0.34429989329E+03  0.00000000000E+00 0.  1.
          1   -1    0    0  501    0  0.00000000000E+00 -0.00000000000E+00 -0.60581239309E+02  0.60581239309E+02  0.00000000000E+00 0. -1.
         25    2    1    2    0    0 -0.34822322946E+02 -0.67598138973E+02  0.75317897794E+02  0.16462759437E+03  0.12508939416E+03 0.  0.
         23    2    1    2    0    0  0.34822322946E+02  0.67598138973E+02  0.20840075618E+03  0.24025353823E+03  0.92243075001E+02 0.  0.
          5    1    3    3  502    0 -0.16113400803E+02  0.19464596599E+01 -0.31529783919E+02  0.35707563129E+02  0.41800000000E+01 0.  1.
         -5    1    3    3    0  502 -0.18708922143E+02 -0.69544598633E+02  0.10684768171E+03  0.12892003124E+03  0.41800000000E+01 0.  1.
        -11    1    4    4    0    0  0.13318452261E+02 -0.10064518033E+02 -0.12963499265E+00  0.16694085752E+02  0.00000000000E+00 0. -1.
         11    1    4    4    0    0  0.21503870685E+02  0.77662657006E+02  0.20853039118E+03  0.22355945248E+03  0.00000000000E+00 0.  1.
</event>
<event>
 8    1  0.7224924E-009  0.9844022E+02  0.7561462E-02  0.1283611E+00
          2   -1    0    0  501    0  0.00000000000E+00  0.00000000000E+00  0.93582685208E+02  0.93582685208E+02  0.00000000000E+00 0. -1.
         -2   -1    0    0    0  501 -0.00000000000E+00 -0.00000000000E+00 -0.14856934838E+03  0.14856934838E+03  0.00000000000E+00 0.  1.
         25    2    1    2    0    0  0.39801301957E+02  0.24405311001E+01 -0.56007267583E+02  0.14273740998E+03  0.12508818631E+03 0.  0.
         23    2    1    2    0    0 -0.39801301957E+02 -0.24405311001E+01  0.10206044128E+01  0.99414623609E+02  0.91061110933E+02 0.  0.
          5    1    3    3  502    0 -0.31872964147E+02 -0.20985082841E+02 -0.55169553983E+02  0.67211692674E+02  0.41800000000E+01 0.  1.
         -5    1    3    3    0  502  0.71674266105E+02  0.23425613941E+02 -0.83771360050E+00  0.75525717304E+02  0.41800000000E+01 0.  1.
        -11    1    4    4    0    0 -0.52103907305E+02  0.21254017122E+02  0.26776603925E+02  0.62318030441E+02  0.00000000000E+00 0. -1.
         11    1    4    4    0    0  0.12302605347E+02 -0.23694548222E+02 -0.25755999512E+02  0.37096593168E+02  0.00000000000E+00 0.  1.
</event>
<event>
 8    1  0.7224924E-009  0.1050608E+03  0.7561462E-02  0.1270000E+00
          2   -1    0    0  501    0  0.00000000000E+00  0.00000000000E+00  0.32123049967E+03  0.32123049967E+03  0.00000000000E+00 0. -1.
         -2   -1    0    0    0  501 -0.00000000000E+00 -0.00000000000E+00 -0.80459004691E+02  0.80459004691E+02  0.00000000000E+00 0.  1.
         25    2    1    2    0    0  0.51759039348E+01  0.67701396717E+02  0.24947015576E+03  0.28721585346E+03  0.12508924320E+03 0.  0.
         23    2    1    2    0    0 -0.51759039348E+01 -0.67701396717E+02 -0.86986607813E+01  0.11447365090E+03  0.91751190469E+02 0.  0.
          5    1    3    3  502    0 -0.59359781167E+02  0.40097838033E+02  0.11735635376E+03  0.13755510315E+03  0.41800000000E+01 0. -1.
         -5    1    3    3    0  502  0.64535685102E+02  0.27603558683E+02  0.13211380200E+03  0.14966075031E+03  0.41800000000E+01 0. -1.
        -11    1    4    4    0    0 -0.58172593359E+01 -0.50022298347E+02  0.38938627022E+02  0.63657580165E+02  0.00000000000E+00 0. -1.
         11    1    4    4    0    0  0.64135540105E+00 -0.17679098369E+02 -0.47637287803E+02  0.50816070737E+02  0.00000000000E+00 0.  1.
</event>
<event>
 8    1  0.7224924E-009  0.1016584E+03  0.7561462E-02  0.1276847E+00
          2   -1    0    0  501    0  0.00000000000E+00  0.00000000000E+00  0.45055462945E+03  0.45055462945E+03  0.00000000000E+00 0. -1.
         -2   -1    0    0    0  501 -0.00000000000E+00 -0.00000000000E+00 -0.11354898982E+03  0.11354898982E+03  0.00000000000E+00 0.  1.
         25    2    1    2    0    0  0.45912252527E+02 -0.15643843818E+02 -0.64288209423E+02  0.14876610555E+03  0.12508283459E+03 0.  0.
         23    2    1    2    0    0 -0.45912252527E+02  0.15643843818E+02  0.40129384904E+03  0.41533751372E+03  0.95476867568E+02 0.  0.
          5    1    3    3  502    0  0.25264223506E+02 -0.49924175511E+02 -0.86274385451E+02  0.10291475246E+03  0.41800000000E+01 0.  1.
         -5    1    3    3    0  502  0.20648029021E+02  0.34280331693E+02  0.21986176028E+02  0.45851353086E+02  0.41800000000E+01 0.  1.
        -11    1    4    4    0    0 -0.51113724746E+02 -0.31171375462E+02  0.23425636443E+03  0.24178567324E+03  0.00000000000E+00 0.  1.
         11    1    4    4    0    0  0.52014722186E+01  0.46815219280E+02  0.16703748461E+03  0.17355184048E+03  0.00000000000E+00 0. -1.
</event>
<event>
 8    1  0.7224924E-009  0.7759129E+02  0.7561462E-02  0.1336029E+00
         -1   -1    0    0    0  501 -0.00000000000E+00  0.00000000000E+00  0.40054389245E+03  0.40054389245E+03  0.00000000000E+00 0.  1.
          1   -1    0    0  501    0  0.00000000000E+00 -0.00000000000E+00 -0.39580224720E+02  0.39580224720E+02  0.00000000000E+00 0. -1.
         25    2    1    2    0    0 -0.93526012247E+01  0.56537621863E+02  0.15369517814E+03  0.20628185849E+03  0.12508406582E+03 0.  0.
         23    2    1    2    0    0  0.93526012247E+01 -0.56537621863E+02  0.20726848959E+03  0.23384225868E+03  0.91858594225E+02 0.  0.
          5    1    3    3  502    0  0.99481633540E+01  0.84455488795E+00  0.14633478380E+03  0.14673452414E+03  0.41800000000E+01 0.  1.
         -5    1    3    3    0  502 -0.19300764579E+02  0.55693066975E+02  0.73603943431E+01  0.59547334343E+02  0.41800000000E+01 0.  1.
        -11    1    4    4    0    0  0.33754550471E+02 -0.14661803764E+02  0.16647100244E+03  0.17049027193E+03  0.00000000000E+00 0.  1.
         11    1    4    4    0    0 -0.24401949246E+02 -0.41875818099E+02  0.40797487149E+02  0.63351986758E+02  0.00000000000E+00 0. -1.
</event>
<event>
 8    1  0.7224924E-009  0.1109781E+03  0.7561462E-02  0.1258769E+00
         -2   -1    0    0    0  501 -0.00000000000E+00  0.00000000000E+00  0.14546265091E+02  0.14546265091E+02  0.00000000000E+00 0. -1.
          2   -1    0    0  501    0  0.00000000000E+00 -0.00000000000E+00 -0.86246275039E+03  0.86246275039E+03  0.00000000000E+00 0.  1.
         25    2    1    2    0    0  0.23691335738E+02  0.39183848183E+01 -0.44192587315E+03  0.45991569528E+03  0.12508931319E+03 0.  0.
         23    2    1    2    0    0 -0.23691335738E+02 -0.39183848183E+01 -0.40599061215E+03  0.41709332021E+03  0.92530143614E+02 0.  0.
          5    1    3    3  502    0  0.62577611036E+02  0.39563861881E+02 -0.24208843769E+03  0.25319071988E+03  0.41800000000E+01 0. -1.
         -5    1    3    3    0  502 -0.38886275298E+02 -0.35645477063E+02 -0.19983743546E+03  0.20672497540E+03  0.41800000000E+01 0. -1.
        -11    1    4    4    0    0 -0.28115156966E+02  0.41019856170E+02 -0.23797240350E+03  0.24311305082E+03  0.00000000000E+00 0.  1.
         11    1    4    4    0    0  0.44238212286E+01 -0.44938240988E+02 -0.16801820865E+03  0.17398026939E+03  0.00000000000E+00 0. -1.
</event>
<event>
 8    1  0.7224924E-009  0.1611357E+03  0.7561462E-02  0.1187420E+00
          2   -1    0    0  501    0  0.00000000000E+00  0.00000000000E+00  0.43604831174E+03  0.43604831174E+03  0.00000000000E+00 0. -1.
         -2   -1    0    0    0  501 -0.00000000000E+00 -0.00000000000E+00 -0.75344509502E+02  0.75344509502E+02  0.00000000000E+00 0.  1.
         25    2    1    2    0    0  0.14114679592E+03  0.10176058956E+02  0.22338147514E+03  0.29252891033E+03  0.12509160550E+03 0.  0.
         23    2    1    2    0    0 -0.14114679592E+03 -0.10176058956E+02  0.13732232709E+03  0.21886391091E+03  0.94963255031E+02 0.  0.
          5    1    3    3  502    0  0.11894808483E+03 -0.37889974292E+02  0.19691726072E+03  0.23319128844E+03  0.41800000000E+01 0.  1.
         -5    1    3    3    0  502  0.22198711096E+02  0.48066033248E+02  0.26464214426E+02  0.59337621891E+02  0.41800000000E+01 0.  1.
        -11    1    4    4    0    0 -0.79440345897E+02 -0.19627147715E+02  0.17388481102E+02  0.83656157924E+02  0.00000000000E+00 0.  1.
         11    1    4    4    0    0 -0.61706450025E+02  0.94510887591E+01  0.11993384599E+03  0.13520775299E+03  0.00000000000E+00 0. -1.
</event>
<event>
 8    1  0.7224924E-009  0.1128795E+03  0.7561462E-02  0.1255329E+00
         -2   -1    0    0    0  501 -0.00000000000E+00  0.00000000000E+00  0.54010319273E+02  0.54010319273E+02  0.00000000000E+00 0.  1.
          2   -1    0    0  501    0  0.00000000000E+00 -0.00000000000E+00 -0.27742191475E+03  0.27742191475E+03  0.00000000000E+00 0. -1.
         25    2    1    2    0    0  0.36522651006E+02  0.43527379668E+02 -0.11634331288E+03  0.18003355137E+03  0.12509107222E+03 0.  0.
         23    2    1    2    0    0 -0.36522651006E+02 -0.43527379668E+02 -0.10706828260E+03  0.15139868266E+03  0.90716079911E+02 0.  0.
          5    1    3    3  502    0  0.14183460838E+02  0.84254774666E+02 -0.97566168796E+02  0.12975618409E+03  0.41800000000E+01 0.  1.
         -5    1    3    3    0  502  0.22339190168E+02 -0.40727394998E+02 -0.18777144082E+02  0.50277367280E+02  0.41800000000E+01 0.  1.
        -11    1    4    4    0    0 -0.73358966926E+01  0.21275525904E+02  0.45465055915E+00  0.22509333396E+02  0.00000000000E+00 0.  1.
         11    1    4    4    0    0 -0.29186754313E+02 -0.64802905573E+02 -0.10752293316E+03  0.12888934926E+03  0.00000000000E+00 0. -1.
</event>
<event>
 8    1  0.7224924E-009  0.9960501E+02  0.7561462E-02  0.1281129E+00
          2   -1    0    0  501    0  0.00000000000E+00  0.00000000000E+00  0.98550621232E+02  0.98550621232E+02  0.00000000000E+00 0. -1.
         -2   -1    0    0    0  501 -0.00000000000E+00 -0.00000000000E+00 -0.15036049774E+03  0.15036049774E+03  0.00000000000E+00 0.  1.
         25    2    1    2    0    0 -0.30458611858E+02 -0.21417780820E+02 -0.66590383771E+02  0.14652044554E+03  0.12509002110E+03 0.  0.
         23    2    1    2    0    0  0.30458611858E+02  0.21417780820E+02  0.14780507263E+02  0.10239067343E+03  0.94228118091E+02 0.  0.
          5    1    3    3  502    0 -0.58191145261E+02  0.12818433350E+02  0.75168365662E+01  0.60203794335E+02  0.41800000000E+01 0. -1.
         -5    1    3    3    0  502  0.27732533402E+02 -0.34236214170E+02 -0.74107220337E+02  0.86316651207E+02  0.41800000000E+01 0. -1.
        -11    1    4    4    0    0 -0.17714165494E+02 -0.23450358882E+02  0.21214134660E+02  0.36245696299E+02  0.00000000000E+00 0. -1.
         11    1    4    4    0    0  0.48172777352E+02  0.44868139702E+02 -0.64336273973E+01  0.66144977131E+02  0.00000000000E+00 0.  1.
</event>
<event>
 8    1  0.7224924E-009  0.1282587E+03  0.7561462E-02  0.1230063E+00
          2   -1    0    0  501    0  0.00000000000E+00  0.00000000000E+00  0.57956033747E+03  0.57956033747E+03  0.00000000000E+00 0. -1.
         -2   -1    0    0    0  501 -0.00000000000E+00 -0.00000000000E+00 -0.30499481362E+02  0.30499481362E+02  0.00000000000E+00 0.  1.
         25    2    1    2    0    0  0.75770267265E+02 -0.89281214054E+01  0.28936331092E+03  0.32434415442E+03  0.12508860878E+03 0.  0.
         23    2    1    2    0    0 -0.75770267265E+02  0.89281214054E+01  0.25969754519E+03  0.28571566441E+03  0.91486508073E+02 0.  0.
          5    1    3    3  502    0  0.85863892047E+01 -0.55000819541E+02  0.65381213573E+02  0.85970877151E+02  0.41800000000E+01 0. -1.
         -5    1    3    3    0  502  0.67183878061E+02  0.46072698136E+02  0.22398209735E+03  0.23837327727E+03  0.41800000000E+01 0. -1.
        -11    1    4    4    0    0  0.47716628246E+01  0.34337702191E+02  0.74878273364E+02  0.82514255616E+02  0.00000000000E+00 0. -1.
         11    1    4    4    0    0 -0.80541930090E+02 -0.25409580786E+02  0.18481927182E+03  0.20320140879E+03  0.00000000000E+00 0.  1.
</event>
<event>
 8    1  0.7224924E-009  0.2658916E+03  0.7561462E-02  0.1103654E+00
          1   -1    0    0  501    0  0.00000000000E+00  0.00000000000E+00  0.13420037819E+03  0.13420037819E+03  0.00000000000E+00 0. -1.
         -1   -1    0    0    0  501 -0.00000000000E+00 -0.00000000000E+00 -0.64809744765E+03  0.64809744765E+03  0.00000000000E+00 0.  1.
         25    2    1    2    0    0  0.23678305702E+03 -0.97883878950E+02 -0.13498986247E+03  0.31546402689E+03  0.12509124448E+03 0.  0.
         23    2    1    2    0    0 -0.23678305702E+03  0.97883878950E+02 -0.37890720699E+03  0.46683379895E+03  0.93357669679E+02 0.  0.
          5    1    3    3  502    0  0.66245564060E+02  0.10667098825E+02  0.81606371337E+01  0.67722449405E+02  0.41800000000E+01 0. -1.
         -5    1    3    3    0  502  0.17053749296E+03 -0.10855097777E+03 -0.14315049960E+03  0.24774157749E+03  0.41800000000E+01 0. -1.
        -11    1    4    4    0    0 -0.30988005315E+02 -0.64085464985E+01 -0.99906227554E+02  0.10479780649E+03  0.00000000000E+00 0.  1.
         11    1    4    4    0    0 -0.20579505170E+03  0.10429242545E+03 -0.27900097943E+03  0.36203599246E+03  0.00000000000E+00 0. -1.
</event>
<event>
 8    1  0.7224924E-009  0.2698153E+03  0.7561462E-02  0.1101385E+00
          2   -1    0    0  501    0  0.00000000000E+00  0.00000000000E+00  0.38452134954E+03  0.38452134954E+03  0.00000000000E+00 0. -1.
         -2   -1    0    0    0  501 -0.00000000000E+00 -0.00000000000E+00 -0.20464138132E+03  0.20464138132E+03  0.00000000000E+00 0.  1.
         25    2    1    2    0    0 -0.23249481721E+03 -0.10825685291E+03  0.77345641581E+02  0.29564327647E+03  0.12509681220E+03 0.  0.
         23    2    1    2    0    0  0.23249481721E+03  0.10825685291E+03  0.10253432663E+03  0.29351945439E+03  0.99332752582E+02 0.  0.
          5    1    3    3  502    0 -0.16293246666E+03 -0.31951583177E+02 -0.78941056891E+00  0.16609030053E+03  0.41800000000E+01 0.  1.
         -5    1    3    3    0  502 -0.69562350548E+02 -0.76305269731E+02  0.78135052150E+02  0.12955297595E+03  0.41800000000E+01 0.  1.
        -11    1    4    4    0    0  0.10318108801E+03  0.25994420598E+01  0.66209768589E+02  0.12262474252E+03  0.00000000000E+00 0. -1.
         11    1    4    4    0    0  0.12931372920E+03  0.10565741085E+03  0.36324558041E+02  0.17089471186E+03  0.00000000000E+00 0.  1.
</event>
<event>
 8    1  0.7224924E-009  0.2446229E+03  0.7561462E-02  0.1116751E+00
          2   -1    0    0  501    0  0.00000000000E+00  0.00000000000E+00  0.93479847780E+03  0.93479847780E+03  0.00000000000E+00 0. -1.
         -2   -1    0    0    0  501 -0.00000000000E+00 -0.00000000000E+00 -0.69471123648E+02  0.69471123648E+02  0.00000000000E+00 0.  1.
         25    2    1    2    0    0 -0.14328059428E+03  0.17605622953E+03  0.51891596408E+03  0.58003988799E+03  0.12508944488E+03 0.  0.
         23    2    1    2    0    0  0.14328059428E+03 -0.17605622953E+03  0.34641139006E+03  0.42422971346E+03  0.91895995341E+02 0.  0.
          5    1    3    3  502    0 -0.61718057533E+02  0.15028779402E+03  0.25325751579E+03  0.30091922730E+03  0.41800000000E+01 0.  1.
         -5    1    3    3    0  502 -0.81562536749E+02  0.25768435507E+02  0.26565844830E+03  0.27912066069E+03  0.41800000000E+01 0.  1.
        -11    1    4    4    0    0  0.10416145905E+03 -0.63653425719E+02  0.21255776195E+03  0.24511664636E+03  0.00000000000E+00 0.  1.
         11    1    4    4    0    0  0.39119135229E+02 -0.11240280381E+03  0.13385362812E+03  0.17911306710E+03  0.00000000000E+00 0. -1.
</event>
<event>
 8    1  0.7224924E-009  0.2550790E+03  0.7561462E-02  0.1110136E+00
         -1   -1    0    0    0  501 -0.00000000000E+00  0.00000000000E+00  0.72864675421E+02  0.72864675421E+02  0.00000000000E+00 0.  1.
          1   -1    0    0  501    0  0.00000000000E+00 -0.00000000000E+00 -0.95648009175E+03  0.95648009175E+03  0.00000000000E+00 0. -1.
         25    2    1    2    0    0  0.16917084177E+02 -0.24047477008E+03 -0.42850207864E+03  0.50732147764E+03  0.12508695971E+03 0.  0.
         23    2    1    2    0    0 -0.16917084177E+02  0.24047477008E+03 -0.45511333768E+03  0.52202328953E+03  0.85240025186E+02 0.  0.
          5    1    3    3  502    0  0.41599076488E+00 -0.24458137107E+03 -0.35077024242E+03  0.42764173731E+03  0.41800000000E+01 0. -1.
         -5    1    3    3    0  502  0.16501093412E+02  0.41066009958E+01 -0.77731836228E+02  0.79679740329E+02  0.41800000000E+01 0. -1.
        -11    1    4    4    0    0  0.69529059100E+01  0.20589081022E+03 -0.32045303230E+03  0.38095867826E+03  0.00000000000E+00 0. -1.
         11    1    4    4    0    0 -0.23869990086E+02  0.34583959860E+02 -0.13466030539E+03  0.14106461127E+03  0.00000000000E+00 0.  1.
</event>
<event>
 8    1  0.7224924E-009  0.1067499E+03  0.7561462E-02  0.1266710E+00
         -2   -1    0    0    0  501 -0.00000000000E+00  0.00000000000E+00  0.30603026654E+02  0.30603026654E+02  0.00000000000E+00 0.  1.
          2   -1    0    0  501    0  0.00000000000E+00 -0.00000000000E+00 -0.43624960389E+03  0.43624960389E+03  0.00000000000E+00 0. -1.
         25    2    1    2    0    0 -0.12595845726E+02 -0.45939622204E+02 -0.23128517750E+03  0.26722622132E+03  0.12509162966E+03 0.  0.
         23    2    1    2    0    0  0.12595845726E+02  0.45939622204E+02 -0.17436139974E+03  0.19962640922E+03  0.84733118223E+02 0.  0.
          5    1    3    3  502    0  0.46280809090E+02  0.58808414462E+01 -0.13542728138E+03  0.14329870386E+03  0.41800000000E+01 0.  1.
         -5    1    3    3    0  502 -0.58876654816E+02 -0.51820463651E+02 -0.95857896125E+02  0.12392751746E+03  0.41800000000E+01 0.  1.
        -11    1    4    4    0    0  0.38692141783E+02  0.42411708636E+01 -0.36924734664E+02  0.53651704503E+02  0.00000000000E+00 0.  1.
         11    1    4    4    0    0 -0.26096296057E+02  0.41698451341E+02 -0.13743666507E+03  0.14597470472E+03  0.00000000000E+00 0. -1.
</event>
<event>
 8    1  0.7224924E-009  0.1113597E+03  0.7561462E-02  0.1258072E+00
          2   -1    0    0  501    0  0.00000000000E+00  0.00000000000E+00  0.20332832575E+03  0.20332832575E+03  0.00000000000E+00 0.  1.
         -2   -1    0    0    0  501 -0.00000000000E+00 -0.00000000000E+00 -0.63449673957E+02  0.63449673957E+02  0.00000000000E+00 0. -1.
         25    2    1    2    0    0  0.24731162927E+02  0.22671445154E+02  0.87420124719E+02  0.15625422078E+03  0.12508988153E+03 0.  0.
         23    2    1    2    0    0 -0.24731162927E+02 -0.22671445154E+02  0.52458527076E+02  0.11052377893E+03  0.91312561020E+02 0.  0.
          5    1    3    3  502    0  0.13707042234E+01  0.73323885402E+02  0.52937058372E+02  0.90543224759E+02  0.41800000000E+01 0. -1.
         -5    1    3    3    0  502  0.23360458704E+02 -0.50652440248E+02  0.34483066347E+02  0.65710996025E+02  0.41800000000E+01 0. -1.
        -11    1    4    4    0    0 -0.35986150984E+02  0.25341191288E+02  0.40429051778E+02  0.59763594823E+02  0.00000000000E+00 0.  1.
         11    1    4    4    0    0  0.11254988056E+02 -0.48012636442E+02  0.12029475298E+02  0.50760184103E+02  0.00000000000E+00 0. -1.
</event>
<event>
 8    1  0.7224924E-009  0.1549339E+03  0.7561462E-02  0.1194538E+00
         -2   -1    0    0    0  501 -0.00000000000E+00  0.00000000000E+00  0.76654195002E+02  0.76654195002E+02  0.00000000000E+00 0.  1.
          2   -1    0    0  501    0  0.00000000000E+00 -0.00000000000E+00 -0.33107600275E+03  0.33107600275E+03  0.00000000000E+00 0. -1.
         25    2    1    2    0    0 -0.11609055888E+03  0.12265811299E+02 -0.13307866248E+03  0.21676508460E+03  0.12509877500E+03 0.  0.
         23    2    1    2    0    0  0.11609055888E+03 -0.12265811299E+02 -0.12134314526E+03  0.19096511315E+03  0.90089108950E+02 0.  0.
          5    1    3    3  502    0 -0.11950083657E+03 -0.34111428723E+02 -0.99515767773E+02  0.15926361777E+03  0.41800000000E+01 0. -1.
         -5    1    3    3    0  502  0.34102776920E+01  0.46377240022E+02 -0.33562894708E+02  0.57501466827E+02  0.41800000000E+01 0. -1.
        -11    1    4    4    0    0 -0.81247165694E+01  0.97403746754E+01 -0.37264122844E+02  0.39363698626E+02  0.00000000000E+00 0. -1.
         11    1    4    4    0    0  0.12421527545E+03 -0.22006185975E+02 -0.84079022419E+02  0.15160141453E+03  0.00000000000E+00 0.  1.
</event>
<event>
 8    1  0.7224924E-009  0.1128589E+03  0.7561462E-02  0.1255365E+00
          1   -1    0    0  501    0  0.00000000000E+00  0.00000000000E+00  0.31143619324E+03  0.31143619324E+03  0.00000000000E+00 0. -1.
         -1   -1    0    0    0  501 -0.00000000000E+00 -0.00000000000E+00 -0.54868446034E+02  0.54868446034E+02  0.00000000000E+00 0.  1.
         25    2    1    2    0    0 -0.61600978560E+02 -0.43646341707E+02  0.11990029078E+03  0.18901020528E+03  0.12509633995E+03 0.  0.
         23    2    1    2    0    0  0.61600978560E+02  0.43646341707E+02  0.13666745643E+03  0.17729443399E+03  0.83997851006E+02 0.  0.
          5    1    3    3  502    0 -0.72929201327E+00  0.39462185365E+02  0.16473304422E+02  0.42972527261E+02  0.41800000000E+01 0. -1.
         -5    1    3    3    0  502 -0.60871686547E+02 -0.83108527072E+02  0.10342698635E+03  0.14603767802E+03  0.41800000000E+01 0. -1.
        -11    1    4    4    0    0  0.41588334417E+02  0.84490322212E+01  0.90286857719E+01  0.43387704155E+02  0.00000000000E+00 0.  1.
         11    1    4    4    0    0  0.20012644143E+02  0.35197309486E+02  0.12763877066E+03  0.13390672984E+03  0.00000000000E+00 0. -1.
</event>
<event>
 8    1  0.7224924E-009  0.1042884E+03  0.7561462E-02  0.1271528E+00
          2   -1    0    0  501    0  0.00000000000E+00  0.00000000000E+00  0.95851781947E+02  0.95851781947E+02  0.00000000000E+00 0. -1.
         -2   -1    0    0    0  501 -0.00000000000E+00 -0.00000000000E+00 -0.21349512981E+03  0.21349512981E+03  0.00000000000E+00 0.  1.
         25    2    1    2    0    0 -0.41795168977E+02  0.47941775152E+02 -0.13881292636E+03  0.19738850228E+03  0.12509173576E+03 0.  0.
         23    2    1    2    0    0  0.41795168977E+02 -0.47941775152E+02  0.21169578489E+02  0.11195840948E+03  0.89673209183E+02 0.  0.
          5    1    3    3  502    0 -0.48367285324E+01  0.67387502371E+02 -0.18805911922E+02  0.70253854997E+02  0.41800000000E+01 0. -1.
         -5    1    3    3    0  502 -0.36958440444E+02 -0.19445727218E+02 -0.12000701443E+03  0.12713464729E+03  0.41800000000E+01 0. -1.
        -11    1    4    4    0    0  0.48707730189E+02  0.17564261227E+01 -0.13968728425E+02  0.50701611283E+02  0.00000000000E+00 0.  1.
         11    1    4    4    0    0 -0.69125612126E+01 -0.49698201275E+02  0.35138306914E+02  0.61256798196E+02  0.00000000000E+00 0. -1.
</event>
<event>
 8    1  0.7224924E-009  0.1156095E+03  0.7561462E-02  0.1250521E+00
          1   -1    0    0  501    0  0.00000000000E+00  0.00000000000E+00  0.38933438858E+03  0.38933438858E+03  0.00000000000E+00 0.  1.
         -1   -1    0    0    0  501 -0.00000000000E+00 -0.00000000000E+00 -0.40663202422E+02  0.40663202422E+02  0.00000000000E+00 0. -1.
         25    2    1    2    0    0  0.57616282386E+02 -0.71197377187E+01  0.21500697479E+03  0.25543752778E+03  0.12509997894E+03 0.  0.
         23    2    1    2    0    0 -0.57616282386E+02  0.71197377187E+01  0.13366421137E+03  0.17456006322E+03  0.96097698253E+02 0.  0.
          5    1    3    3  502    0  0.63357559788E+02  0.47373284193E+02  0.15498683077E+03  0.17405975568E+03  0.41800000000E+01 0.  1.
         -5    1    3    3    0  502 -0.57412774028E+01 -0.54493021911E+02  0.60020144025E+02  0.81377772100E+02  0.41800000000E+01 0.  1.
        -11    1    4    4    0    0 -0.77191811112E+02  0.49726010522E+01  0.58839835020E+02  0.97187595140E+02  0.00000000000E+00 0. -1.
         11    1    4    4    0    0  0.19575528727E+02  0.21471366665E+01  0.74824376347E+02  0.77372468079E+02  0.00000000000E+00 0.  1.
</event>
<event>
 8    1  0.7224924E-009  0.1016500E+03  0.7561462E-02  0.1276864E+00
          2   -1    0    0  501    0  0.00000000000E+00  0.00000000000E+00  0.22531300606E+03  0.22531300606E+03  0.00000000000E+00 0. -1.
         -2   -1    0    0    0  501 -0.00000000000E+00 -0.00000000000E+00 -0.78213210852E+02  0.78213210852E+02  0.00000000000E+00 0.  1.
         25    2    1    2    0    0  0.42206616763E+02  0.59931640598E+02  0.55441837321E+02  0.15522940198E+03  0.12509664213E+03 0.  0.
         23    2    1    2    0    0 -0.42206616763E+02 -0.59931640598E+02  0.91657957891E+02  0.14829681493E+03  0.90650780640E+02 0.  0.
          5    1    3    3  502    0  0.34799867751E+02 -0.61582094592E+01  0.77302307143E+02  0.85100372672E+02  0.41800000000E+01 0. -1.
         -5    1    3    3    0  502  0.74067490121E+01  0.66089850058E+02 -0.21860469822E+02  0.70129029313E+02  0.41800000000E+01 0. -1.
        -11    1    4    4    0    0 -0.41239033289E+02 -0.10030927569E+00  0.30181591044E+01  0.41349452390E+02  0.00000000000E+00 0.  1.
         11    1    4    4    0    0 -0.96758347418E+00 -0.59831331323E+02  0.88639798787E+02  0.10694736254E+03  0.00000000000E+00 0. -1.
</event>
<event>
 8    1  0.7224924E-009  0.1016021E+03  0.7561462E-02  0.1276962E+00
          3   -1    0    0  501    0  0.00000000000E+00  0.00000000000E+00  0.26606976976E+03  0.26606976976E+03  0.00000000000E+00 0. -1.
         -3   -1    0    0    0  501 -0.00000000000E+00 -0.00000000000E+00 -0.67885401238E+02  0.67885401238E+02  0.00000000000E+00 0.  1.
         25    2    1    2    0    0  0.36960844884E+02  0.51270403221E+02  0.66980342424E+02  0.15533371781E+03  0.12508972507E+03 0.  0.
         23    2    1    2    0    0 -0.36960844884E+02 -0.51270403221E+02  0.13120402610E+03  0.17862145319E+03  0.10342325064E+03 0.  0.
          5    1    3    3  502    0  0.69120035725E+02  0.62370358395E+02  0.75586052258E+02  0.11999318581E+03  0.41800000000E+01 0. -1.
         -5    1    3    3    0  502 -0.32159190841E+02 -0.11099955174E+02 -0.86057098340E+01  0.35340532002E+02  0.41800000000E+01 0. -1.
        -11    1    4    4    0    0 -0.13726933040E+02  0.51933408396E+01 -0.14506356902E+02  0.20635742544E+02  0.00000000000E+00 0.  1.
         11    1    4    4    0    0 -0.23233911844E+02 -0.56463744061E+02  0.14571038300E+03  0.15798571064E+03  0.00000000000E+00 0. -1.
</event>
<event>
 8    1  0.7224924E-009  0.1396131E+03  0.7561462E-02  0.1213851E+00
         -1   -1    0    0    0  501 -0.00000000000E+00  0.00000000000E+00  0.44612470515E+03  0.44612470515E+03  0.00000000000E+00 0.  1.
          1   -1    0    0  501    0  0.00000000000E+00 -0.00000000000E+00 -0.64865090350E+02  0.64865090350E+02  0.00000000000E+00 0. -1.
         25    2    1    2    0    0 -0.82286819543E+02 -0.39083388646E+02  0.34827577500E+03  0.38110457197E+03  0.12508416121E+03 0.  0.
         23    2    1    2    0    0  0.82286819543E+02  0.39083388646E+02  0.32983839803E+02  0.12988522353E+03  0.86507835862E+02 0.  0.
          5    1    3    3  502    0 -0.10839420106E+03 -0.11298368521E+01  0.24277685025E+03  0.26591098280E+03  0.41800000000E+01 0. -1.
         -5    1    3    3    0  502  0.26107381513E+02 -0.37953551794E+02  0.10549892475E+03  0.11519358917E+03  0.41800000000E+01 0. -1.
        -11    1    4    4    0    0  0.53503353639E+02  0.66082092889E+02  0.14294720005E+02  0.86219434417E+02  0.00000000000E+00 0.  1.
         11    1    4    4    0    0  0.28783465903E+02 -0.26998704243E+02  0.18689119798E+02  0.43665789115E+02  0.00000000000E+00 0. -1.
</event>
<event>
 8    1  0.7224924E-009  0.1277688E+03  0.7561462E-02  0.1230805E+00
         -1   -1    0    0    0  501 -0.00000000000E+00  0.00000000000E+00  0.20558311059E+03  0.20558311059E+03  0.00000000000E+00 0.  1.
          1   -1    0    0  501    0  0.00000000000E+00 -0.00000000000E+00 -0.17392181829E+03  0.17392181829E+03  0.00000000000E+00 0. -1.
         25    2    1    2    0    0 -0.12058964222E+03  0.32532719310E+02 -0.75667658845E+02  0.19228771058E+03  0.12509488162E+03 0.  0.
         23    2    1    2    0    0  0.12058964222E+03 -0.32532719310E+02  0.10732895114E+03  0.18721721830E+03  0.89053598698E+02 0.  0.
          5    1    3    3  502    0 -0.45365135737E+02 -0.31480034249E+01 -0.96152061808E+02  0.10644527634E+03  0.41800000000E+01 0. -1.
         -5    1    3    3    0  502 -0.75224506481E+02  0.35680722735E+02  0.20484402963E+02  0.85842434233E+02  0.41800000000E+01 0. -1.
        -11    1    4    4    0    0  0.47194437966E+02 -0.26659442553E+01  0.96218487234E+02  0.10720270295E+03  0.00000000000E+00 0.  1.
         11    1    4    4    0    0  0.73395204252E+02 -0.29866775055E+02  0.11110463902E+02  0.80014515355E+02  0.00000000000E+00 0. -1.
</event>
<event>
 8    1  0.7224924E-009  0.1179413E+03  0.7561462E-02  0.1246532E+00
          1   -1    0    0  501    0  0.00000000000E+00  0.00000000000E+00  0.16696940901E+03  0.16696940901E+03  0.00000000000E+00 0. -1.
         -1   -1    0    0    0  501 -0.00000000000E+00 -0.00000000000E+00 -0.99267014213E+02  0.99267014213E+02  0.00000000000E+00 0.  1.
         25    2    1    2    0    0 -0.41860240128E+02 -0.52766141657E+02  0.51984424247E+02  0.15128166977E+03  0.12508883977E+03 0.  0.
         23    2    1    2    0    0  0.41860240128E+02  0.52766141657E+02  0.15717970548E+02  0.11495475346E+03  0.91820451618E+02 0.  0.
          5    1    3    3  502    0  0.37394368348E+02  0.88212872249E+01  0.28759706936E+02  0.48174132431E+02  0.41800000000E+01 0. -1.
         -5    1    3    3    0  502 -0.79254608476E+02 -0.61587428882E+02  0.23224717311E+02  0.10310753733E+03  0.41800000000E+01 0. -1.
        -11    1    4    4    0    0  0.52534066654E+02  0.62973080199E+02 -0.12644224589E+02  0.82977788621E+02  0.00000000000E+00 0.  1.
         11    1    4    4    0    0 -0.10673826527E+02 -0.10206938542E+02  0.28362195138E+02  0.31976964836E+02  0.00000000000E+00 0. -1.
</event>
<event>
 8    1  0.7224924E-009  0.1100686E+03  0.7561462E-02  0.1260443E+00
          2   -1    0    0  501    0  0.00000000000E+00  0.00000000000E+00  0.14641808813E+04  0.14641808813E+04  0.00000000000E+00 0.  1.
         -2   -1    0    0    0  501 -0.00000000000E+00 -0.00000000000E+00 -0.16477053898E+02  0.16477053898E+02  0.00000000000E+00 0. -1.
         25    2    1    2    0    0 -0.16000159096E+02 -0.86106628823E+02  0.10505566059E+04  0.10615964710E+04  0.12509008131E+03 0.  0.
         23    2    1    2    0    0  0.16000159096E+02  0.86106628823E+02  0.39714722148E+03  0.41906146416E+03  0.10107541047E+03 0.  0.
          5    1    3    3  502    0  0.28865621098E+02  0.32068323263E+01  0.56915104525E+03  0.56990691571E+03  0.41800000000E+01 0. -1.
         -5    1    3    3    0  502 -0.44865780194E+02 -0.89313461150E+02  0.48140556064E+03  0.49168955530E+03  0.41800000000E+01 0. -1.
        -11    1    4    4    0    0  0.84067277345E+01  0.60870468482E+01 -0.30927950827E+01  0.10830078114E+02  0.00000000000E+00 0. -1.
         11    1    4    4    0    0  0.75934313618E+01  0.80019581975E+02  0.40024001656E+03  0.40823138605E+03  0.00000000000E+00 0.  1.
</event>
<event>
 8    1  0.7224924E-009  0.1014789E+03  0.7561462E-02  0.1277217E+00
         -2   -1    0    0    0  501 -0.00000000000E+00  0.00000000000E+00  0.10051507602E+03  0.10051507602E+03  0.00000000000E+00 0.  1.
          2   -1    0    0  501    0  0.00000000000E+00 -0.00000000000E+00 -0.18675903362E+03  0.18675903362E+03  0.00000000000E+00 0. -1.
         25    2    1    2    0    0  0.63186194136E+02 -0.53442992161E+02 -0.47273339305E+02  0.15726212049E+03  0.12509179586E+03 0.  0.
         23    2    1    2    0    0 -0.63186194136E+02  0.53442992161E+02 -0.38970618291E+02  0.13001198915E+03  0.92389175188E+02 0.  0.
          5    1    3    3  502    0  0.35751654714E+02 -0.69556190830E+02 -0.79630802565E+02  0.11169056189E+03  0.41800000000E+01 0. -1.
         -5    1    3    3    0  502  0.27434539422E+02  0.16113198669E+02  0.32357463261E+02  0.45571558601E+02  0.41800000000E+01 0. -1.
        -11    1    4    4    0    0 -0.43259745103E+02  0.57757213145E+02  0.13773640187E+02  0.73464374909E+02  0.00000000000E+00 0.  1.
         11    1    4    4    0    0 -0.19926449033E+02 -0.43142209846E+01 -0.52744258479E+02  0.56547614240E+02  0.00000000000E+00 0. -1.
</event>
<event>
 8    1  0.7224924E-009  0.9687237E+02  0.7561462E-02  0.1287014E+00
         -2   -1    0    0    0  501 -0.00000000000E+00  0.00000000000E+00  0.20061325340E+03  0.20061325340E+03  0.00000000000E+00 0.  1.
          2   -1    0    0  501    0  0.00000000000E+00 -0.00000000000E+00 -0.77559645401E+02  0.77559645401E+02  0.00000000000E+00 0. -1.
         25    2    1    2    0    0 -0.30864368448E+02  0.64813415744E+01  0.82969668014E+01  0.12927167210E+03  0.12509080111E+03 0.  0.
         23    2    1    2    0    0  0.30864368448E+02 -0.64813415744E+01  0.11475664120E+03  0.14890122670E+03  0.89486711781E+02 0.  0.
          5    1    3    3  502    0 -0.67012935626E+02 -0.22072862788E+02 -0.21946075187E+02  0.74007076885E+02  0.41800000000E+01 0. -1.
         -5    1    3    3    0  502  0.36148567178E+02  0.28554204362E+02  0.30243041989E+02  0.55264595217E+02  0.41800000000E+01 0. -1.
        -11    1    4    4    0    0  0.37929530622E+02 -0.32439062834E+02  0.11104368660E+03  0.12174416792E+03  0.00000000000E+00 0.  1.
         11    1    4    4    0    0 -0.70651621736E+01  0.25957721260E+02  0.37129546041E+01  0.27157058777E+02  0.00000000000E+00 0. -1.
</event>
<event>
 8    1  0.7224924E-009  0.1154955E+03  0.7561462E-02  0.1250719E+00
         -2   -1    0    0    0  501 -0.00000000000E+00  0.00000000000E+00  0.24355120783E+02  0.24355120783E+02  0.00000000000E+00 0.  1.
          2   -1    0    0  501    0  0.00000000000E+00 -0.00000000000E+00 -0.59577726879E+03  0.59577726879E+03  0.00000000000E+00 0. -1.
         25    2    1    2    0    0 -0.47659931986E+02 -0.21006288214E+02 -0.34735331480E+03  0.37284694602E+03  0.12509111317E+03 0.  0.
         23    2    1    2    0    0  0.47659931986E+02  0.21006288214E+02 -0.22406883321E+03  0.24728544356E+03  0.90722187567E+02 0.  0.
          5    1    3    3  502    0 -0.46740978535E+02 -0.69883983932E+02 -0.18519827910E+03  0.20343147561E+03  0.41800000000E+01 0. -1.
         -5    1    3    3    0  502 -0.91895345121E+00  0.48877695717E+02 -0.16215503569E+03  0.16941547041E+03  0.41800000000E+01 0. -1.
        -11    1    4    4    0    0  0.18908912211E+02  0.52084436719E+02 -0.81419436842E+02  0.98485837586E+02  0.00000000000E+00 0.  1.
         11    1    4    4    0    0  0.28751019776E+02 -0.31078148504E+02 -0.14264939637E+03  0.14879960597E+03  0.00000000000E+00 0. -1.
</event>
<event>
 8    1  0.7224924E-009  0.1300307E+03  0.7561462E-02  0.1227410E+00
         -1   -1    0    0    0  501 -0.00000000000E+00  0.00000000000E+00  0.50961033857E+03  0.50961033857E+03  0.00000000000E+00 0.  1.
          1   -1    0    0  501    0  0.00000000000E+00 -0.00000000000E+00 -0.39983580875E+02  0.39983580875E+02  0.00000000000E+00 0. -1.
         25    2    1    2    0    0 -0.71319453338E+02  0.29710764764E+02  0.15823248557E+03  0.21599586097E+03  0.12508996162E+03 0.  0.
         23    2    1    2    0    0  0.71319453338E+02 -0.29710764764E+02  0.31139427212E+03  0.33359805847E+03  0.91389703678E+02 0.  0.
          5    1    3    3  502    0 -0.26912058504E+02 -0.48818299986E+02  0.49677839162E+02  0.74785328844E+02  0.41800000000E+01 0. -1.
         -5    1    3    3    0  502 -0.44407394834E+02  0.78529064751E+02  0.10855464641E+03  0.14121053213E+03  0.41800000000E+01 0. -1.
        -11    1    4    4    0    0  0.23767847577E+02 -0.55053208741E+02  0.11189098938E+03  0.12694628737E+03  0.00000000000E+00 0. -1.
         11    1    4    4    0    0  0.47551605761E+02  0.25342443977E+02  0.19950328274E+03  0.20665177110E+03  0.00000000000E+00 0.  1.
</event>
<event>
 8    1  0.7224924E-009  0.1395358E+03  0.7561462E-02  0.1213955E+00
         -2   -1    0    0    0  501 -0.00000000000E+00  0.00000000000E+00  0.11563502781E+03  0.11563502781E+03  0.00000000000E+00 0.  1.
          2   -1    0    0  501    0  0.00000000000E+00 -0.00000000000E+00 -0.21154993189E+03  0.21154993189E+03  0.00000000000E+00 0. -1.
         25    2    1    2    0    0 -0.11130420662E+03  0.99795438631E+01 -0.54620407700E+02  0.17640640868E+03  0.12509042480E+03 0.  0.
         23    2    1    2    0    0  0.11130420662E+03 -0.99795438631E+01 -0.41294496382E+02  0.15077855102E+03  0.92416006778E+02 0.  0.
          5    1    3    3  502    0 -0.52178131287E+02  0.67004859638E+02 -0.21243277106E+02  0.87641073829E+02  0.41800000000E+01 0.  1.
         -5    1    3    3    0  502 -0.59126075335E+02 -0.57025315775E+02 -0.33377130594E+02  0.88765334847E+02  0.41800000000E+01 0.  1.
        -11    1    4    4    0    0  0.27820079975E+02 -0.11609108910E+01  0.29790028233E+02  0.40776835900E+02  0.00000000000E+00 0.  1.
         11    1    4    4    0    0  0.83484126647E+02 -0.88186329721E+01 -0.71084524615E+02  0.11000171512E+03  0.00000000000E+00 0. -1.
</event>
<event>
 8    1  0.7224924E-009  0.1104728E+03  0.7561462E-02  0.1259697E+00
         -2   -1    0    0    0  501 -0.00000000000E+00  0.00000000000E+00  0.49827814101E+02  0.49827814101E+02  0.00000000000E+00 0.  1.
          2   -1    0    0  501    0  0.00000000000E+00 -0.00000000000E+00 -0.33661958646E+03  0.33661958646E+03  0.00000000000E+00 0. -1.
         25    2    1    2    0    0  0.46448720653E+02  0.45778587355E+02 -0.11656853246E+03  0.18299235644E+03  0.12507924307E+03 0.  0.
         23    2    1    2    0    0 -0.46448720653E+02 -0.45778587355E+02 -0.17022323990E+03  0.20345504412E+03  0.90359508989E+02 0.  0.
          5    1    3    3  502    0  0.97349321679E+01 -0.27207001236E+02 -0.93563085100E+02  0.98012821171E+02  0.41800000000E+01 0.  1.
         -5    1    3    3    0  502  0.36713788485E+02  0.72985588590E+02 -0.23005447359E+02  0.84979535272E+02  0.41800000000E+01 0.  1.
        -11    1    4    4    0    0 -0.17935489364E+02 -0.70166202941E+02 -0.95646302575E+02  0.11997163419E+03  0.00000000000E+00 0.  1.
         11    1    4    4    0    0 -0.28513231289E+02  0.24387615587E+02 -0.74576937323E+02  0.83483409927E+02  0.00000000000E+00 0. -1.
</event>
<event>
 8    1  0.7224924E-009  0.1415274E+03  0.7561462E-02  0.1211288E+00
          2   -1    0    0  501    0  0.00000000000E+00  0.00000000000E+00  0.62266804374E+03  0.62266804374E+03  0.00000000000E+00 0. -1.
         -2   -1    0    0    0  501 -0.00000000000E+00 -0.00000000000E+00 -0.33683206835E+02  0.33683206835E+02  0.00000000000E+00 0.  1.
         25    2    1    2    0    0 -0.32275283577E+02  0.88346200212E+02  0.35607818274E+03  0.38895525481E+03  0.12509105885E+03 0.  0.
         23    2    1    2    0    0  0.32275283577E+02 -0.88346200212E+02  0.23290665417E+03  0.26739599576E+03  0.91697131748E+02 0.  0.
          5    1    3    3  502    0 -0.40132202132E+02 -0.18650403268E+02  0.15187978612E+03  0.15825098111E+03  0.41800000000E+01 0.  1.
         -5    1    3    3    0  502  0.78569185556E+01  0.10699660348E+03  0.20419839662E+03  0.23070427370E+03  0.41800000000E+01 0.  1.
        -11    1    4    4    0    0  0.16947606966E+02  0.17456681235E+02  0.47778476743E+02  0.53616601361E+02  0.00000000000E+00 0.  1.
         11    1    4    4    0    0  0.15327676610E+02 -0.10580288145E+03  0.18512817743E+03  0.21377939440E+03  0.00000000000E+00 0. -1.
</event>
<event>
 8    1  0.7224924E-009  0.7675059E+02  0.7561462E-02  0.1338534E+00
          1   -1    0    0  501    0  0.00000000000E+00  0.00000000000E+00  0.60109531900E+02  0.60109531900E+02  0.00000000000E+00 0. -1.
         -1   -1    0    0    0  501 -0.00000000000E+00 -0.00000000000E+00 -0.22150982244E+03  0.22150982244E+03  0.00000000000E+00 0.  1.
         25    2    1    2    0    0 -0.12552161780E+02  0.34843959456E+02 -0.84774817788E+02  0.15557630014E+03  0.12508220161E+03 0.  0.
         23    2    1    2    0    0  0.12552161780E+02 -0.34843959456E+02 -0.76625472756E+02  0.12604305420E+03  0.92971663216E+02 0.  0.
          5    1    3    3  502    0 -0.48748814333E+02 -0.10594862549E+02  0.30934914346E+01  0.50157154032E+02  0.41800000000E+01 0.  1.
         -5    1    3    3    0  502  0.36196652554E+02  0.45438822006E+02 -0.87868309223E+02  0.10541914611E+03  0.41800000000E+01 0.  1.
        -11    1    4    4    0    0 -0.79836143159E+01 -0.71417400329E+01  0.20416690481E+02  0.23056101111E+02  0.00000000000E+00 0. -1.
         11    1    4    4    0    0  0.20535776095E+02 -0.27702219423E+02 -0.97042163238E+02  0.10298695309E+03  0.00000000000E+00 0.  1.
</event>
<event>
 8    1  0.7224924E-009  0.2086798E+03  0.7561462E-02  0.1142616E+00
          4   -1    0    0  501    0  0.00000000000E+00  0.00000000000E+00  0.60391018914E+03  0.60391018914E+03  0.00000000000E+00 0.  1.
         -4   -1    0    0    0  501 -0.00000000000E+00 -0.00000000000E+00 -0.10860217770E+03  0.10860217770E+03  0.00000000000E+00 0. -1.
         25    2    1    2    0    0  0.14847546283E+03 -0.10772702519E+03  0.44980939832E+03  0.50162350704E+03  0.12509025934E+03 0.  0.
         23    2    1    2    0    0 -0.14847546283E+03  0.10772702519E+03  0.45498613125E+02  0.21088885980E+03  0.93562344826E+02 0.  0.
          5    1    3    3  502    0 -0.17663174848E+02  0.12702579762E+01  0.77285142646E+02  0.79398154732E+02  0.41800000000E+01 0. -1.
         -5    1    3    3    0  502  0.16613863768E+03 -0.10899728317E+03  0.37252425567E+03  0.42222535231E+03  0.41800000000E+01 0. -1.
        -11    1    4    4    0    0 -0.46537822718E+01 -0.12262555869E+02  0.16936411522E+02  0.21421251157E+02  0.00000000000E+00 0.  1.
         11    1    4    4    0    0 -0.14382168056E+03  0.11998958106E+03  0.28562201603E+02  0.18946760864E+03  0.00000000000E+00 0. -1.
</event>
<event>
 8    1  0.7224924E-009  0.1210882E+03  0.7561462E-02  0.1241313E+00
          2   -1    0    0  501    0  0.00000000000E+00  0.00000000000E+00  0.15649721309E+04  0.15649721309E+04  0.00000000000E+00 0. -1.
         -2   -1    0    0    0  501 -0.00000000000E+00 -0.00000000000E+00 -0.15367339475E+02  0.15367339475E+02  0.00000000000E+00 0.  1.
         25    2    1    2    0    0 -0.57672250311E+02 -0.35744276871E+02  0.12541275636E+04  0.12621757352E+04  0.12509156238E+03 0.  0.
         23    2    1    2    0    0  0.57672250311E+02  0.35744276871E+02  0.29547722775E+03  0.31816373509E+03  0.96527863463E+02 0.  0.
          5    1    3    3  502    0 -0.87399879617E+02 -0.57189969822E+01  0.56726913873E+03  0.57400626655E+03  0.41800000000E+01 0. -1.
         -5    1    3    3    0  502  0.29727629305E+02 -0.30025279889E+02  0.68685842491E+03  0.68816946869E+03  0.41800000000E+01 0. -1.
        -11    1    4    4    0    0 -0.22717734467E+02  0.19670331748E+02  0.13081299727E+03  0.13422018352E+03  0.00000000000E+00 0.  1.
         11    1    4    4    0    0  0.80389984778E+02  0.16073945123E+02  0.16466423048E+03  0.18394355157E+03  0.00000000000E+00 0. -1.
</event>
<event>
 8    1  0.7224924E-009  0.9706808E+02  0.7561462E-02  0.1286585E+00
          1   -1    0    0  501    0  0.00000000000E+00  0.00000000000E+00  0.11290535074E+04  0.11290535074E+04  0.00000000000E+00 0. -1.
         -1   -1    0    0    0  501 -0.00000000000E+00 -0.00000000000E+00 -0.10579760741E+02  0.10579760741E+02  0.00000000000E+00 0.  1.
         25    2    1    2    0    0 -0.12707876741E+02  0.30221614396E+01  0.64036494925E+03  0.65259879579E+03  0.12508915398E+03 0.  0.
         23    2    1    2    0    0  0.12707876741E+02 -0.30221614396E+01  0.47810879744E+03  0.48703447239E+03  0.91890867395E+02 0.  0.
          5    1    3    3  502    0 -0.53950873564E+02 -0.15206436797E+02  0.53459986650E+03  0.53754666973E+03  0.41800000000E+01 0.  1.
         -5    1    3    3    0  502  0.41242996823E+02  0.18228598236E+02  0.10576508275E+03  0.11505212606E+03  0.41800000000E+01 0.  1.
        -11    1    4    4    0    0 -0.37106486169E+02 -0.17128944263E+02  0.22574377443E+03  0.22941347768E+03  0.00000000000E+00 0. -1.
         11    1    4    4    0    0  0.49814362910E+02  0.14106782823E+02  0.25236502302E+03  0.25762099471E+03  0.00000000000E+00 0.  1.
</event>
<event>
 8    1  0.7224924E-009  0.1462317E+03  0.7561462E-02  0.1205181E+00
          1   -1    0    0  501    0  0.00000000000E+00  0.00000000000E+00  0.47587338478E+03  0.47587338478E+03  0.00000000000E+00 0. -1.
         -1   -1    0    0    0  501 -0.00000000000E+00 -0.00000000000E+00 -0.52913019812E+02  0.52913019812E+02  0.00000000000E+00 0.  1.
         25    2    1    2    0    0  0.65060126506E+02 -0.84111388325E+02  0.15010471041E+03  0.22246565486E+03  0.12510794457E+03 0.  0.
         23    2    1    2    0    0 -0.65060126506E+02  0.84111388325E+02  0.27285565456E+03  0.30632074974E+03  0.89859044007E+02 0.  0.
          5    1    3    3  502    0 -0.47196141649E-01  0.30540971431E+02  0.40887658363E+02  0.51205723995E+02  0.41800000000E+01 0. -1.
         -5    1    3    3    0  502  0.65107322648E+02 -0.11465235976E+03  0.10921705205E+03  0.17125993086E+03  0.41800000000E+01 0. -1.
        -11    1    4    4    0    0 -0.18277547818E+02  0.80779518477E+02  0.22294424674E+03  0.23783089899E+03  0.00000000000E+00 0. -1.
         11    1    4    4    0    0 -0.46782578689E+02  0.33318698480E+01  0.49911407818E+02  0.68489850750E+02  0.00000000000E+00 0.  1.
</event>
<event>
 8    1  0.7224924E-009  0.1809942E+03  0.7561462E-02  0.1166844E+00
          1   -1    0    0  501    0  0.00000000000E+00  0.00000000000E+00  0.62067894271E+03  0.62067894271E+03  0.00000000000E+00 0. -1.
         -1   -1    0    0    0  501 -0.00000000000E+00 -0.00000000000E+00 -0.95313892393E+02  0.95313892393E+02  0.00000000000E+00 0.  1.
         25    2    1    2    0    0  0.25111133652E+01  0.16009916185E+03  0.48206968311E+03  0.52314135340E+03  0.12509056300E+03 0.  0.
         23    2    1    2    0    0 -0.25111133652E+01 -0.16009916185E+03  0.43295367208E+02  0.19285148170E+03  0.98382711172E+02 0.  0.
          5    1    3    3  502    0  0.13515203760E+01  0.17680282434E+03  0.37407048805E+03  0.41377199969E+03  0.41800000000E+01 0.  1.
         -5    1    3    3    0  502  0.11595929891E+01 -0.16703662492E+02  0.10799919506E+03  0.10936935371E+03  0.41800000000E+01 0.  1.
        -11    1    4    4    0    0 -0.16619131698E+02 -0.15947862022E+02  0.42120211310E+02  0.48006687475E+02  0.00000000000E+00 0. -1.
         11    1    4    4    0    0  0.14108018333E+02 -0.14415129983E+03  0.11751558981E+01  0.14484479423E+03  0.00000000000E+00 0.  1.
</event>
<event>
 8    1  0.7224924E-009  0.9774607E+02  0.7561462E-02  0.1285108E+00
         -1   -1    0    0    0  501 -0.00000000000E+00  0.00000000000E+00  0.45889541965E+02  0.45889541965E+02  0.00000000000E+00 0.  1.
          1   -1    0    0  501    0  0.00000000000E+00 -0.00000000000E+00 -0.26740521482E+03  0.26740521482E+03  0.00000000000E+00 0. -1.
         25    2    1    2    0    0  0.12029628218E+01  0.18099440083E+02 -0.13567366566E+03  0.18542658653E+03  0.12508652440E+03 0.  0.
         23    2    1    2    0    0 -0.12029628218E+01 -0.18099440083E+02 -0.85842007192E+02  0.12786817025E+03  0.93018180556E+02 0.  0.
          5    1    3    3  502    0  0.23688283871E+02 -0.41656402423E+02 -0.17768488388E+02  0.51279452368E+02  0.41800000000E+01 0. -1.
         -5    1    3    3    0  502 -0.22485321049E+02  0.59755842506E+02 -0.11790517727E+03  0.13414713416E+03  0.41800000000E+01 0. -1.
        -11    1    4    4    0    0 -0.39380294363E+02  0.35121529962E+01 -0.10869301265E+02  0.41003469521E+02  0.00000000000E+00 0.  1.
         11    1    4    4    0    0  0.38177331542E+02 -0.21611593079E+02 -0.74972705927E+02  0.86864700731E+02  0.00000000000E+00 0. -1.
</event>
<event>
 8    1  0.7224924E-009  0.1467294E+03  0.7561462E-02  0.1204551E+00
          2   -1    0    0  501    0  0.00000000000E+00  0.00000000000E+00  0.52233481778E+02  0.52233481778E+02  0.00000000000E+00 0.  1.
         -2   -1    0    0    0  501 -0.00000000000E+00 -0.00000000000E+00 -0.71552700771E+03  0.71552700771E+03  0.00000000000E+00 0. -1.
         25    2    1    2    0    0  0.11188895515E+03  0.60206358327E+02 -0.53891047293E+03  0.56764066870E+03  0.12508991593E+03 0.  0.
         23    2    1    2    0    0 -0.11188895515E+03 -0.60206358327E+02 -0.12438305300E+03  0.20011982078E+03  0.91830577302E+02 0.  0.
          5    1    3    3  502    0  0.88146565920E+02 -0.85362624837E+01 -0.41088248788E+03  0.42033864455E+03  0.41800000000E+01 0. -1.
         -5    1    3    3    0  502  0.23742389234E+02  0.68742620811E+02 -0.12802798505E+03  0.14730202415E+03  0.41800000000E+01 0. -1.
        -11    1    4    4    0    0 -0.60075589749E+02 -0.52079831977E+02 -0.18011971984E+02  0.81521877537E+02  0.00000000000E+00 0.  1.
         11    1    4    4    0    0 -0.51813365405E+02 -0.81265263507E+01 -0.10637108102E+03  0.11859794325E+03  0.00000000000E+00 0. -1.
</event>
<event>
 8    1  0.7224924E-009  0.1635783E+03  0.7561462E-02  0.1184715E+00
         -4   -1    0    0    0  501 -0.00000000000E+00  0.00000000000E+00  0.44697903882E+02  0.44697903882E+02  0.00000000000E+00 0.  1.
          4   -1    0    0  501    0  0.00000000000E+00 -0.00000000000E+00 -0.66683616626E+03  0.66683616626E+03  0.00000000000E+00 0. -1.
         25    2    1    2    0    0 -0.73329526813E+02  0.10856192549E+03 -0.38662958195E+03  0.42695715047E+03  0.12508822299E+03 0.  0.
         23    2    1    2    0    0  0.73329526813E+02 -0.10856192549E+03 -0.23550868043E+03  0.28457691968E+03  0.91415389754E+02 0.  0.
          5    1    3    3  502    0 -0.99361451568E+02  0.98636910950E+02 -0.36644005337E+03  0.39229800327E+03  0.41800000000E+01 0. -1.
         -5    1    3    3    0  502  0.26031924755E+02  0.99250145415E+01 -0.20189528581E+02  0.34659147197E+02  0.41800000000E+01 0. -1.
        -11    1    4    4    0    0  0.18609075868E+02  0.14920338404E+02 -0.25786208165E+02  0.35126097624E+02  0.00000000000E+00 0. -1.
         11    1    4    4    0    0  0.54720450945E+02 -0.12348226390E+03 -0.20972247227E+03  0.24945082205E+03  0.00000000000E+00 0.  1.
</event>
<event>
 8    1  0.7224924E-009  0.1433413E+03  0.7561462E-02  0.1208902E+00
         -1   -1    0    0    0  501 -0.00000000000E+00  0.00000000000E+00  0.59813658036E+03  0.59813658036E+03  0.00000000000E+00 0.  1.
          1   -1    0    0  501    0  0.00000000000E+00 -0.00000000000E+00 -0.50114848117E+02  0.50114848117E+02  0.00000000000E+00 0. -1.
         25    2    1    2    0    0  0.11595620244E+03  0.63380972142E+02  0.33620641651E+03  0.38228912263E+03  0.12508888947E+03 0.  0.
         23    2    1    2    0    0 -0.11595620244E+03 -0.63380972142E+02  0.21181531574E+03  0.26596230585E+03  0.91690957231E+02 0.  0.
          5    1    3    3  502    0 -0.71962559628E+01  0.79554880675E+00 -0.78772415827E+01  0.11486615373E+02  0.41800000000E+01 0.  1.
         -5    1    3    3    0  502  0.12315245840E+03  0.62585423335E+02  0.34408365809E+03  0.37080250726E+03  0.41800000000E+01 0.  1.
        -11    1    4    4    0    0 -0.57071345039E+02 -0.57374741731E+02  0.18307446825E+03  0.20016308436E+03  0.00000000000E+00 0. -1.
         11    1    4    4    0    0 -0.58884857398E+02 -0.60062304107E+01  0.28740847482E+02  0.65799221489E+02  0.00000000000E+00 0.  1.
</event>
<event>
 8    1  0.7224924E-009  0.1532479E+03  0.7561462E-02  0.1196538E+00
          2   -1    0    0  501    0  0.00000000000E+00  0.00000000000E+00  0.72968218487E+03  0.72968218487E+03  0.00000000000E+00 0. -1.
         -2   -1    0    0    0  501 -0.00000000000E+00 -0.00000000000E+00 -0.38144641641E+02  0.38144641641E+02  0.00000000000E+00 0.  1.
         25    2    1    2    0    0 -0.86363256317E+02  0.83345573119E+02  0.45661353499E+03  0.48841090722E+03  0.12507676585E+03 0.  0.
         23    2    1    2    0    0  0.86363256317E+02 -0.83345573119E+02  0.23492400824E+03  0.27941591929E+03  0.92080778156E+02 0.  0.
          5    1    3    3  502    0 -0.59232495818E+02  0.11018909590E+03  0.40615921566E+03  0.42500930141E+03  0.41800000000E+01 0.  1.
         -5    1    3    3    0  502 -0.27130760499E+02 -0.26843522780E+02  0.50454319323E+02  0.63401605806E+02  0.41800000000E+01 0.  1.
        -11    1    4    4    0    0  0.74933802599E+02 -0.98617061185E+02  0.16133344981E+03  0.20339341572E+03  0.00000000000E+00 0.  1.
         11    1    4    4    0    0  0.11429453718E+02  0.15271488066E+02  0.73590558427E+02  0.76022503574E+02  0.00000000000E+00 0. -1.
</event>
<event>
 8    1  0.7224924E-009  0.1078613E+03  0.7561462E-02  0.1264582E+00
         -4   -1    0    0    0  501 -0.00000000000E+00  0.00000000000E+00  0.94112669881E+02  0.94112669881E+02  0.00000000000E+00 0.  1.
          4   -1    0    0  501    0  0.00000000000E+00 -0.00000000000E+00 -0.22972173301E+03  0.22972173301E+03  0.00000000000E+00 0. -1.
         25    2    1    2    0    0 -0.71124163178E+02  0.41797841547E+02 -0.13474693333E+03  0.20151864161E+03  0.12508925106E+03 0.  0.
         23    2    1    2    0    0  0.71124163178E+02 -0.41797841547E+02 -0.86212979318E+00  0.12231576127E+03  0.90303355652E+02 0.  0.
          5    1    3    3  502    0 -0.17033676012E+02 -0.34416449674E+02 -0.14319032382E+01  0.38654377159E+02  0.41800000000E+01 0. -1.
         -5    1    3    3    0  502 -0.54090487166E+02  0.76214291221E+02 -0.13331503009E+03  0.16286426446E+03  0.41800000000E+01 0. -1.
        -11    1    4    4    0    0  0.29168871806E+02 -0.97737022683E+01  0.43561304979E+02  0.53328562984E+02  0.00000000000E+00 0.  1.
         11    1    4    4    0    0  0.41955291373E+02 -0.32024139279E+02 -0.44423434772E+02  0.68987198288E+02  0.00000000000E+00 0. -1.
</event>
<event>
 8    1  0.7224924E-009  0.2309479E+03  0.7561462E-02  0.1125974E+00
         -1   -1    0    0    0  501 -0.00000000000E+00  0.00000000000E+00  0.10188519293E+03  0.10188519293E+03  0.00000000000E+00 0.  1.
          1   -1    0    0  501    0  0.00000000000E+00 -0.00000000000E+00 -0.86175882493E+03  0.86175882493E+03  0.00000000000E+00 0. -1.
         25    2    1    2    0    0  0.20251563466E+03 -0.10901217077E+03 -0.63635056535E+03  0.68810273852E+03  0.12508837303E+03 0.  0.
         23    2    1    2    0    0 -0.20251563466E+03  0.10901217077E+03 -0.12352306665E+03  0.27554127934E+03  0.88140870020E+02 0.  0.
          5    1    3    3  502    0  0.15559860664E+03 -0.74801873643E+02 -0.58670444684E+03  0.61159286052E+03  0.41800000000E+01 0.  1.
         -5    1    3    3    0  502  0.46917028023E+02 -0.34210297132E+02 -0.49646118511E+02  0.76509878000E+02  0.41800000000E+01 0. -1.
        -11    1    4    4    0    0 -0.83710547492E+02  0.33211782139E+02 -0.30031083247E+01  0.90108250976E+02  0.00000000000E+00 0.  1.
         11    1    4    4    0    0 -0.11880508717E+03  0.75800388635E+02 -0.12051995832E+03  0.18543302837E+03  0.00000000000E+00 0. -1.
</event>
<event>
 8    1  0.7224924E-009  0.1232159E+03  0.7561462E-02  0.1237884E+00
          1   -1    0    0  501    0  0.00000000000E+00  0.00000000000E+00  0.48702656301E+03  0.48702656301E+03  0.00000000000E+00 0. -1.
         -1   -1    0    0    0  501 -0.00000000000E+00 -0.00000000000E+00 -0.43745130328E+02  0.43745130328E+02  0.00000000000E+00 0.  1.
         25    2    1    2    0    0  0.93521268805E+02  0.24247368068E+02  0.26031006307E+03  0.30453448888E+03  0.12508302602E+03 0.  0.
         23    2    1    2    0    0 -0.93521268805E+02 -0.24247368068E+02  0.18297136960E+03  0.22623720446E+03  0.91490917635E+02 0.  0.
          5    1    3    3  502    0  0.10550164012E+03  0.93736062406E+01  0.26413719776E+03  0.28461270563E+03  0.41800000000E+01 0. -1.
         -5    1    3    3    0  502 -0.11980371319E+02  0.14873761828E+02 -0.38271346882E+01  0.19921783248E+02  0.41800000000E+01 0. -1.
        -11    1    4    4    0    0 -0.25584359714E+02 -0.43326401850E+02  0.32112569982E+02  0.59690482576E+02  0.00000000000E+00 0.  1.
         11    1    4    4    0    0 -0.67936909091E+02  0.19079033782E+02  0.15085879962E+03  0.16654672188E+03  0.00000000000E+00 0. -1.
</event>
<event>
 8    1  0.7224924E-009  0.2441124E+03  0.7561462E-02  0.1117083E+00
          1   -1    0    0  501    0  0.00000000000E+00  0.00000000000E+00  0.43145107809E+03  0.43145107809E+03  0.00000000000E+00 0. -1.
         -1   -1    0    0    0  501 -0.00000000000E+00 -0.00000000000E+00 -0.16985861528E+03  0.16985861528E+03  0.00000000000E+00 0.  1.
         25    2    1    2    0    0 -0.18650380419E+03  0.12813039177E+03  0.25194216689E+03  0.36100418711E+03  0.12509237141E+03 0.  0.
         23    2    1    2    0    0  0.18650380419E+03 -0.12813039177E+03  0.96502959171E+01  0.24030550625E+03  0.80327715336E+02 0.  0.
          5    1    3    3  502    0 -0.17080645352E+03  0.14544648166E+03  0.25178926728E+03  0.33726077612E+03  0.41800000000E+01 0.  1.
         -5    1    3    3    0  502 -0.15697350667E+02 -0.17316089894E+02  0.15289960988E+00  0.23743410991E+02  0.41800000000E+01 0.  1.
        -11    1    4    4    0    0  0.17173252210E+02  0.11463915211E+02  0.18259882863E+00  0.20648856766E+02  0.00000000000E+00 0.  1.
         11    1    4    4    0    0  0.16933055198E+03 -0.13959430698E+03  0.94676970885E+01  0.21965664948E+03  0.00000000000E+00 0. -1.
</event>
<event>
 8    1  0.7224924E-009  0.7745179E+02  0.7561462E-02  0.1336442E+00
          1   -1    0    0  501    0  0.00000000000E+00  0.00000000000E+00  0.35997601088E+02  0.35997601088E+02  0.00000000000E+00 0. -1.
         -1   -1    0    0    0  501 -0.00000000000E+00 -0.00000000000E+00 -0.34310609369E+03  0.34310609369E+03  0.00000000000E+00 0.  1.
         25    2    1    2    0    0  0.17337476877E+02  0.11418044622E+02 -0.14762473135E+03  0.19460569104E+03  0.12508938337E+03 0.  0.
         23    2    1    2    0    0 -0.17337476877E+02 -0.11418044622E+02 -0.15948376125E+03  0.18449800373E+03  0.90407319571E+02 0.  0.
          5    1    3    3  502    0  0.31579330836E+02  0.26203986569E+02 -0.16330716048E+03  0.16843575664E+03  0.41800000000E+01 0. -1.
         -5    1    3    3    0  502 -0.14241853959E+02 -0.14785941947E+02  0.15682429131E+02  0.26169934408E+02  0.41800000000E+01 0. -1.
        -11    1    4    4    0    0 -0.15077964905E+02  0.39219141790E+02 -0.69134353511E+02  0.80901452050E+02  0.00000000000E+00 0.  1.
         11    1    4    4    0    0 -0.22595119715E+01 -0.50637186412E+02 -0.90349407739E+02  0.10359655168E+03  0.00000000000E+00 0. -1.
</event>
<event>
 8    1  0.7224924E-009  0.3151959E+03  0.7561462E-02  0.1077882E+00
         -1   -1    0    0    0  501 -0.00000000000E+00  0.00000000000E+00  0.11853523119E+03  0.11853523119E+03  0.00000000000E+00 0.  1.
          1   -1    0    0  501    0  0.00000000000E+00 -0.00000000000E+00 -0.91466026991E+03  0.91466026991E+03  0.00000000000E+00 0. -1.
         25    2    1    2    0    0 -0.69491954846E+02  0.29200693364E+03 -0.27847044666E+03  0.42812440294E+03  0.12509010212E+03 0.  0.
         23    2    1    2    0    0  0.69491954846E+02 -0.29200693364E+03 -0.51765459207E+03  0.60507109816E+03  0.89708283118E+02 0.  0.
          5    1    3    3  502    0  0.13761736622E+02  0.17465716253E+03 -0.11167595178E+03  0.20780640131E+03  0.41800000000E+01 0. -1.
         -5    1    3    3    0  502 -0.83253691467E+02  0.11734977111E+03 -0.16679449488E+03  0.22031800163E+03  0.41800000000E+01 0. -1.
        -11    1    4    4    0    0  0.11371317064E+02 -0.21203301243E+03 -0.31951336161E+03  0.38363536523E+03  0.00000000000E+00 0.  1.
         11    1    4    4    0    0  0.58120637782E+02 -0.79973921216E+02 -0.19814123046E+03  0.22143573293E+03  0.00000000000E+00 0. -1.
</event>
<event>
 8    1  0.7224924E-009  0.2253295E+03  0.7561462E-02  0.1129971E+00
          1   -1    0    0  501    0  0.00000000000E+00  0.00000000000E+00  0.40913171309E+03  0.40913171309E+03  0.00000000000E+00 0. -1.
         -1   -1    0    0    0  501 -0.00000000000E+00 -0.00000000000E+00 -0.14426945673E+03  0.14426945673E+03  0.00000000000E+00 0.  1.
         25    2    1    2    0    0  0.17118458918E+03  0.12210053447E+03  0.19726261333E+03  0.31428173351E+03  0.12509102809E+03 0.  0.
         23    2    1    2    0    0 -0.17118458918E+03 -0.12210053447E+03  0.67599643030E+02  0.23911943632E+03  0.91627992426E+02 0.  0.
          5    1    3    3  502    0 -0.29632930297E+01  0.44344083056E+02  0.76061811113E+01  0.45282504334E+02  0.41800000000E+01 0.  1.
         -5    1    3    3    0  502  0.17414788221E+03  0.77756451414E+02  0.18965643222E+03  0.26899922918E+03  0.41800000000E+01 0.  1.
        -11    1    4    4    0    0 -0.12484265965E+03 -0.11223304464E+03  0.15333259789E+02  0.16857358878E+03  0.00000000000E+00 0.  1.
         11    1    4    4    0    0 -0.46341929532E+02 -0.98674898325E+01  0.52266383241E+02  0.70545847542E+02  0.00000000000E+00 0. -1.
</event>
<event>
 8    1  0.7224924E-009  0.1718073E+03  0.7561462E-02  0.1175976E+00
          1   -1    0    0  501    0  0.00000000000E+00  0.00000000000E+00  0.18555616691E+03  0.18555616691E+03  0.00000000000E+00 0. -1.
         -1   -1    0    0    0  501 -0.00000000000E+00 -0.00000000000E+00 -0.18758562947E+03  0.18758562947E+03  0.00000000000E+00 0.  1.
         25    2    1    2    0    0 -0.55918644033E+02  0.13525586876E+03  0.36342486877E+02  0.19593064379E+03  0.12508795322E+03 0.  0.
         23    2    1    2    0    0  0.55918644033E+02 -0.13525586876E+03 -0.38371949440E+02  0.17721115259E+03  0.92251511181E+02 0.  0.
          5    1    3    3  502    0  0.36566179109E+02  0.12735649010E+02  0.84998384029E+01  0.39862286226E+02  0.41800000000E+01 0.  1.
         -5    1    3    3    0  502 -0.92484823142E+02  0.12252021975E+03  0.27842648474E+02  0.15606835756E+03  0.41800000000E+01 0.  1.
        -11    1    4    4    0    0  0.29347267278E+02 -0.11203922822E+03 -0.65177237425E+02  0.13289892037E+03  0.00000000000E+00 0.  1.
         11    1    4    4    0    0  0.26571376755E+02 -0.23216640535E+02  0.26805287986E+02  0.44312232220E+02  0.00000000000E+00 0. -1.
</event>
<event>
 8    1  0.7224924E-009  0.1047289E+03  0.7561462E-02  0.1270655E+00
          1   -1    0    0  501    0  0.00000000000E+00  0.00000000000E+00  0.24740912845E+03  0.24740912845E+03  0.00000000000E+00 0. -1.
         -1   -1    0    0    0  501 -0.00000000000E+00 -0.00000000000E+00 -0.74682408608E+02  0.74682408608E+02  0.00000000000E+00 0.  1.
         25    2    1    2    0    0 -0.13379079027E+02  0.79378259546E+02  0.88310337121E+02  0.17299610480E+03  0.12509607823E+03 0.  0.
         23    2    1    2    0    0  0.13379079027E+02 -0.79378259546E+02  0.84416382726E+02  0.14909543226E+03  0.92862341158E+02 0.  0.
          5    1    3    3  502    0 -0.41299758514E+01  0.10047793040E+03  0.10406491447E+03  0.14477517060E+03  0.41800000000E+01 0.  1.
         -5    1    3    3    0  502 -0.92491031756E+01 -0.21099670853E+02 -0.15754577351E+02  0.28220934201E+02  0.41800000000E+01 0.  1.
        -11    1    4    4    0    0 -0.78624196009E+01 -0.38841779245E+02 -0.12800274124E+02  0.41645509657E+02  0.00000000000E+00 0.  1.
         11    1    4    4    0    0  0.21241498628E+02 -0.40536480300E+02  0.97216656851E+02  0.10744992261E+03  0.00000000000E+00 0. -1.
</event>
<event>
 8    1  0.7224924E-009  0.1549669E+03  0.7561462E-02  0.1194499E+00
         -2   -1    0    0    0  501 -0.00000000000E+00  0.00000000000E+00  0.61790274455E+02  0.61790274455E+02  0.00000000000E+00 0.  1.
          2   -1    0    0  501    0  0.00000000000E+00 -0.00000000000E+00 -0.51001998268E+03  0.51001998268E+03  0.00000000000E+00 0. -1.
         25    2    1    2    0    0 -0.38681030426E+02 -0.11783065313E+03 -0.13145298165E+03  0.21978940446E+03  0.12508881244E+03 0.  0.
         23    2    1    2    0    0  0.38681030426E+02  0.11783065313E+03 -0.31677672658E+03  0.35202085268E+03  0.90503598186E+02 0.  0.
          5    1    3    3  502    0  0.20573250706E+02  0.41637718882E+01 -0.65527160370E+02  0.68933858061E+02  0.41800000000E+01 0. -1.
         -5    1    3    3    0  502 -0.59254281132E+02 -0.12199442502E+03 -0.65925821282E+02  0.15085554640E+03  0.41800000000E+01 0. -1.
        -11    1    4    4    0    0  0.63435232888E+02  0.50422173061E+02 -0.15127545564E+03  0.17161202693E+03  0.00000000000E+00 0. -1.
         11    1    4    4    0    0 -0.24754202462E+02  0.67408480073E+02 -0.16550127093E+03  0.18040882574E+03  0.00000000000E+00 0.  1.
</event>
<event>
 8    1  0.7224924E-009  0.1085752E+03  0.7561462E-02  0.1263231E+00
          2   -1    0    0  501    0  0.00000000000E+00  0.00000000000E+00  0.87078044734E+03  0.87078044734E+03  0.00000000000E+00 0. -1.
         -2   -1    0    0    0  501 -0.00000000000E+00 -0.00000000000E+00 -0.16125574789E+02  0.16125574789E+02  0.00000000000E+00 0.  1.
         25    2    1    2    0    0 -0.23834992831E+02 -0.13143760373E+02  0.61733428795E+03  0.63046861990E+03  0.12509273471E+03 0.  0.
         23    2    1    2    0    0  0.23834992831E+02  0.13143760373E+02  0.23732058460E+03  0.25643740223E+03  0.93264227160E+02 0.  0.
          5    1    3    3  502    0  0.34049768219E+02  0.34196435121E+02  0.32990562055E+03  0.33344260940E+03  0.41800000000E+01 0. -1.
         -5    1    3    3    0  502 -0.57884761050E+02 -0.47340195494E+02  0.28742866740E+03  0.29702601050E+03  0.41800000000E+01 0. -1.
        -11    1    4    4    0    0 -0.34428609296E+02  0.78633590281E+01  0.12366819372E+03  0.12861175565E+03  0.00000000000E+00 0. -1.
         11    1    4    4    0    0  0.58263602127E+02  0.52804013453E+01  0.11365239089E+03  0.12782564659E+03  0.00000000000E+00 0.  1.
</event>
<event>
 8    1  0.7224924E-009  0.1009170E+03  0.7561462E-02  0.1278379E+00
          2   -1    0    0  501    0  0.00000000000E+00  0.00000000000E+00  0.13549399558E+04  0.13549399558E+04  0.00000000000E+00 0. -1.
         -2   -1    0    0    0  501 -0.00000000000E+00 -0.00000000000E+00 -0.13132443335E+02  0.13132443335E+02  0.00000000000E+00 0.  1.
         25    2    1    2    0    0  0.32592955961E+02  0.33959309047E+02  0.10565320422E+04  0.10649516334E+04  0.12508593008E+03 0.  0.
         23    2    1    2    0    0 -0.32592955961E+02 -0.33959309047E+02  0.28527547026E+03  0.30312076569E+03  0.91019608963E+02 0.  0.
          5    1    3    3  502    0  0.38763748661E+02 -0.38391992017E+02  0.30155925015E+03  0.30648332256E+03  0.41800000000E+01 0. -1.
         -5    1    3    3    0  502 -0.61707926995E+01  0.72351301064E+02  0.75497279204E+03  0.75846831085E+03  0.41800000000E+01 0. -1.
        -11    1    4    4    0    0 -0.42413681068E+02 -0.43453883461E+02  0.28279096016E+03  0.28923673259E+03  0.00000000000E+00 0. -1.
         11    1    4    4    0    0  0.98207251069E+01  0.94945744140E+01  0.24845100982E+01  0.13884033108E+02  0.00000000000E+00 0.  1.
</event>
<event>
 8    1  0.7224924E-009  0.9651292E+02  0.7561462E-02  0.1287805E+00
          1   -1    0    0  501    0  0.00000000000E+00  0.00000000000E+00  0.74022755934E+03  0.74022755934E+03  0.00000000000E+00 0. -1.
         -1   -1    0    0    0  501 -0.00000000000E+00 -0.00000000000E+00 -0.26781496377E+02  0.26781496377E+02  0.00000000000E+00 0.  1.
         25    2    1    2    0    0  0.72953612150E+02 -0.55046580793E+01  0.25033461436E+03  0.28925388971E+03  0.12509141768E+03 0.  0.
         23    2    1    2    0    0 -0.72953612150E+02  0.55046580793E+01  0.46311144860E+03  0.47775516601E+03  0.91789182564E+02 0.  0.
          5    1    3    3  502    0  0.88245955423E+00 -0.93995969075E+01 -0.12755692221E+02  0.16410705071E+02  0.41800000000E+01 0. -1.
         -5    1    3    3    0  502  0.72071152596E+02  0.38949388283E+01  0.26309030659E+03  0.27284318464E+03  0.41800000000E+01 0. -1.
        -11    1    4    4    0    0 -0.44654779427E+02  0.43957410082E+02  0.17877250682E+03  0.18943577386E+03  0.00000000000E+00 0. -1.
         11    1    4    4    0    0 -0.28298832723E+02 -0.38452752002E+02  0.28433894178E+03  0.28831939214E+03  0.00000000000E+00 0.  1.
</event>
<event>
 8    1  0.7224924E-009  0.6759795E+02  0.7561462E-02  0.1368457E+00
          1   -1    0    0  501    0  0.00000000000E+00  0.00000000000E+00  0.11983538980E+03  0.11983538980E+03  0.00000000000E+00 0. -1.
         -1   -1    0    0    0  501 -0.00000000000E+00 -0.00000000000E+00 -0.13619549941E+03  0.13619549941E+03  0.00000000000E+00 0.  1.
         25    2    1    2    0    0  0.21134267840E+02  0.54644377022E+02 -0.47447072146E+02  0.14605043330E+03  0.12508732627E+03 0.  0.
         23    2    1    2    0    0 -0.21134267840E+02 -0.54644377022E+02  0.31086962532E+02  0.10998045591E+03  0.87730474894E+02 0.  0.
          5    1    3    3  502    0 -0.10276228050E+02  0.22654745904E+02 -0.84219310004E+02  0.87915885666E+02  0.41800000000E+01 0.  1.
         -5    1    3    3    0  502  0.31410495890E+02  0.31989631118E+02  0.36772237858E+02  0.58134547631E+02  0.41800000000E+01 0.  1.
        -11    1    4    4    0    0  0.69393309033E+01 -0.12682365936E+02 -0.28454023464E+02  0.31915954794E+02  0.00000000000E+00 0.  1.
         11    1    4    4    0    0 -0.28073598743E+02 -0.41962011086E+02  0.59540985996E+02  0.78064501114E+02  0.00000000000E+00 0. -1.
</event>
<event>
 8    1  0.7224924E-009  0.1600199E+03  0.7561462E-02  0.1188674E+00
          2   -1    0    0  501    0  0.00000000000E+00  0.00000000000E+00  0.11156743336E+04  0.11156743336E+04  0.00000000000E+00 0. -1.
         -2   -1    0    0    0  501 -0.00000000000E+00 -0.00000000000E+00 -0.32630943005E+02  0.32630943005E+02  0.00000000000E+00 0.  1.
         25    2    1    2    0    0  0.12786902232E+03  0.11695363974E+02  0.84308154286E+03  0.86192873403E+03  0.12508951284E+03 0.  0.
         23    2    1    2    0    0 -0.12786902232E+03 -0.11695363974E+02  0.23996184770E+03  0.28637654254E+03  0.89121082575E+02 0.  0.
          5    1    3    3  502    0  0.14629902030E+03  0.94604547902E+01  0.58347542348E+03  0.60162608466E+03  0.41800000000E+01 0.  1.
         -5    1    3    3    0  502 -0.18429997979E+02  0.22349091834E+01  0.25960611939E+03  0.26030264937E+03  0.41800000000E+01 0.  1.
        -11    1    4    4    0    0 -0.89010193761E+02 -0.48033657471E+02  0.17780747081E+03  0.20456183300E+03  0.00000000000E+00 0.  1.
         11    1    4    4    0    0 -0.38858828558E+02  0.36338293497E+02  0.62154376883E+02  0.81814709539E+02  0.00000000000E+00 0. -1.
</event>
<event>
 8    1  0.7224924E-009  0.1099047E+03  0.7561462E-02  0.1260746E+00
          2   -1    0    0  501    0  0.00000000000E+00  0.00000000000E+00  0.25774921765E+03  0.25774921765E+03  0.00000000000E+00 0. -1.
         -2   -1    0    0    0  501 -0.00000000000E+00 -0.00000000000E+00 -0.61762465437E+02  0.61762465437E+02  0.00000000000E+00 0.  1.
         25    2    1    2    0    0 -0.32195329294E+02 -0.23940271926E+02  0.17007494886E+03  0.21490476147E+03  0.12509553320E+03 0.  0.
         23    2    1    2    0    0  0.32195329294E+02  0.23940271926E+02  0.25911803357E+02  0.10460692162E+03  0.93067237247E+02 0.  0.
          5    1    3    3  502    0 -0.73024847757E+02 -0.43731579624E+02  0.12025459054E+03  0.14738968211E+03  0.41800000000E+01 0.  1.
         -5    1    3    3    0  502  0.40829518463E+02  0.19791307698E+02  0.49820358319E+02  0.67515079362E+02  0.41800000000E+01 0.  1.
        -11    1    4    4    0    0  0.40918199053E+02  0.48209911925E+02  0.40388945906E+02  0.75031737105E+02  0.00000000000E+00 0. -1.
         11    1    4    4    0    0 -0.87228697590E+01 -0.24269640000E+02 -0.14477142549E+02  0.29575184512E+02  0.00000000000E+00 0.  1.
</event>
<event>
 8    1  0.7224924E-009  0.1250677E+03  0.7561462E-02  0.1234964E+00
         -1   -1    0    0    0  501 -0.00000000000E+00  0.00000000000E+00  0.80279568879E+02  0.80279568879E+02  0.00000000000E+00 0.  1.
          1   -1    0    0  501    0  0.00000000000E+00 -0.00000000000E+00 -0.23873770135E+03  0.23873770135E+03  0.00000000000E+00 0. -1.
         25    2    1    2    0    0  0.54200715245E+02  0.47379678400E+02 -0.29845602287E+02  0.14737838037E+03  0.12508827110E+03 0.  0.
         23    2    1    2    0    0 -0.54200715245E+02 -0.47379678400E+02 -0.12861253019E+03  0.17163888986E+03  0.87955523602E+02 0.  0.
          5    1    3    3  502    0  0.87394726232E+02  0.53385974607E+02 -0.42704674497E+02  0.11103630975E+03  0.41800000000E+01 0. -1.
         -5    1    3    3    0  502 -0.33194010987E+02 -0.60062962066E+01  0.12859072210E+02  0.36342070629E+02  0.41800000000E+01 0. -1.
        -11    1    4    4    0    0 -0.36665890447E+02  0.21545702407E+02 -0.46923419033E+02  0.63327814333E+02  0.00000000000E+00 0.  1.
         11    1    4    4    0    0 -0.17534824799E+02 -0.68925380807E+02 -0.81689111153E+02  0.10831107552E+03  0.00000000000E+00 0. -1.
</event>
<event>
 8    1  0.7224924E-009  0.2043899E+03  0.7561462E-02  0.1146087E+00
         -2   -1    0    0    0  501 -0.00000000000E+00  0.00000000000E+00  0.89061081147E+02  0.89061081147E+02  0.00000000000E+00 0.  1.
          2   -1    0    0  501    0  0.00000000000E+00 -0.00000000000E+00 -0.50661204501E+03  0.50661204501E+03  0.00000000000E+00 0. -1.
         25    2    1    2    0    0  0.15913214728E+03 -0.88962638330E+02 -0.20535210434E+03  0.30175484095E+03  0.12509638669E+03 0.  0.
         23    2    1    2    0    0 -0.15913214728E+03  0.88962638330E+02 -0.21219885953E+03  0.29391828521E+03  0.90123310423E+02 0.  0.
          5    1    3    3  502    0  0.49026111366E+02 -0.98565011036E+02 -0.11078718911E+03  0.15623666237E+03  0.41800000000E+01 0. -1.
         -5    1    3    3    0  502  0.11010603591E+03  0.96023727064E+01 -0.94564915228E+02  0.14551817858E+03  0.41800000000E+01 0. -1.
        -11    1    4    4    0    0 -0.88790000293E+02  0.75158298083E+02 -0.18228940916E+03  0.21624491350E+03  0.00000000000E+00 0. -1.
         11    1    4    4    0    0 -0.70342146985E+02  0.13804340247E+02 -0.29909450370E+02  0.77673371715E+02  0.00000000000E+00 0.  1.
</event>
<event>
 8    1  0.7224924E-009  0.1806682E+03  0.7561462E-02  0.1167158E+00
          1   -1    0    0  501    0  0.00000000000E+00  0.00000000000E+00  0.10025969721E+04  0.10025969721E+04  0.00000000000E+00 0. -1.
         -1   -1    0    0    0  501 -0.00000000000E+00 -0.00000000000E+00 -0.47383153600E+02  0.47383153600E+02  0.00000000000E+00 0.  1.
         25    2    1    2    0    0 -0.48046779533E+02  0.16110865102E+03  0.70242425138E+03  0.73301611001E+03  0.12509315793E+03 0.  0.
         23    2    1    2    0    0  0.48046779533E+02 -0.16110865102E+03  0.25278956711E+03  0.31696401568E+03  0.91099569344E+02 0.  0.
          5    1    3    3  502    0 -0.63800506297E+02  0.15506780880E+03  0.69346299127E+03  0.71345982549E+03  0.41800000000E+01 0.  1.
         -5    1    3    3    0  502  0.15753726763E+02  0.60408422185E+01  0.89612601089E+01  0.19556284524E+02  0.41800000000E+01 0.  1.
        -11    1    4    4    0    0  0.54660355661E+02 -0.93608842082E+02  0.90995033406E+02  0.14152902848E+03  0.00000000000E+00 0.  1.
         11    1    4    4    0    0 -0.66135761274E+01 -0.67499808939E+02  0.16179453371E+03  0.17543498720E+03  0.00000000000E+00 0. -1.
</event>
<event>
 8    1  0.7224924E-009  0.1180808E+03  0.7561462E-02  0.1246297E+00
         -2   -1    0    0    0  501 -0.00000000000E+00  0.00000000000E+00  0.94532938814E+02  0.94532938814E+02  0.00000000000E+00 0.  1.
          2   -1    0    0  501    0  0.00000000000E+00 -0.00000000000E+00 -0.54570097146E+03  0.54570097146E+03  0.00000000000E+00 0. -1.
         25    2    1    2    0    0  0.95224877701E+02 -0.37031109994E+02 -0.47519881776E+03  0.50189614997E+03  0.12508696382E+03 0.  0.
         23    2    1    2    0    0 -0.95224877701E+02  0.37031109994E+02  0.24030785110E+02  0.13833776030E+03  0.90115353035E+02 0.  0.
          5    1    3    3  502    0  0.84970528083E+01 -0.73926494503E+00 -0.32173729645E+03  0.32187747164E+03  0.41800000000E+01 0. -1.
         -5    1    3    3    0  502  0.86727824893E+02 -0.36291845049E+02 -0.15346152130E+03  0.18001867833E+03  0.41800000000E+01 0. -1.
        -11    1    4    4    0    0  0.56523403000E+01  0.30985916010E+02  0.19774165723E+02  0.37189966011E+02  0.00000000000E+00 0.  1.
         11    1    4    4    0    0 -0.10087721800E+03  0.60451939844E+01  0.42566193863E+01  0.10114779429E+03  0.00000000000E+00 0. -1.
</event>
<event>
 8    1  0.7224924E-009  0.1190823E+03  0.7561462E-02  0.1244619E+00
          2   -1    0    0  501    0  0.00000000000E+00  0.00000000000E+00  0.33304476062E+03  0.33304476062E+03  0.00000000000E+00 0.  1.
         -2   -1    0    0    0  501 -0.00000000000E+00 -0.00000000000E+00 -0.45212364904E+02  0.45212364904E+02  0.00000000000E+00 0. -1.
         25    2    1    2    0    0 -0.52896194273E+00 -0.53357405821E+02  0.15963018079E+03  0.20970084939E+03  0.12508140973E+03 0.  0.
         23    2    1    2    0    0  0.52896194273E+00  0.53357405821E+02  0.12820221492E+03  0.16855627613E+03  0.95541183554E+02 0.  0.
          5    1    3    3  502    0  0.41756861062E+02  0.21854208485E+02  0.75613782823E+02  0.89197300559E+02  0.41800000000E+01 0.  1.
         -5    1    3    3    0  502 -0.42285823005E+02 -0.75211614306E+02  0.84016397967E+02  0.12050354883E+03  0.41800000000E+01 0.  1.
        -11    1    4    4    0    0  0.88164789013E+01  0.77984105114E+02  0.71429235530E+02  0.10611968073E+03  0.00000000000E+00 0. -1.
         11    1    4    4    0    0 -0.82875169585E+01 -0.24626699294E+02  0.56772979393E+02  0.62436595396E+02  0.00000000000E+00 0.  1.
</event>
<event>
 8    1  0.7224924E-009  0.8558315E+02  0.7561462E-02  0.1313915E+00
          1   -1    0    0  501    0  0.00000000000E+00  0.00000000000E+00  0.59282323736E+03  0.59282323736E+03  0.00000000000E+00 0.  1.
         -1   -1    0    0    0  501 -0.00000000000E+00 -0.00000000000E+00 -0.26765111054E+02  0.26765111054E+02  0.00000000000E+00 0. -1.
         25    2    1    2    0    0 -0.38057074425E+02 -0.47031450532E+02  0.26285919941E+03  0.29732586053E+03  0.12508960939E+03 0.  0.
         23    2    1    2    0    0  0.38057074425E+02  0.47031450532E+02  0.30319892690E+03  0.32226248788E+03  0.90902274822E+02 0.  0.
          5    1    3    3  502    0 -0.12781803495E+01 -0.44247448573E+02  0.25568065994E+03  0.25951790442E+03  0.41800000000E+01 0. -1.
         -5    1    3    3    0  502 -0.36778894076E+02 -0.27840019593E+01  0.71785394680E+01  0.37807956110E+02  0.41800000000E+01 0. -1.
        -11    1    4    4    0    0  0.11032130047E+02  0.59002939787E+02  0.27477642310E+03  0.28125635546E+03  0.00000000000E+00 0.  1.
         11    1    4    4    0    0  0.27024944378E+02 -0.11971489255E+02  0.28422503807E+02  0.41006132422E+02  0.00000000000E+00 0. -1.
</event>
<event>
 8    1  0.7224924E-009  0.1116221E+03  0.7561462E-02  0.1257595E+00
         -2   -1    0    0    0  501 -0.00000000000E+00  0.00000000000E+00  0.38858594070E+02  0.38858594070E+02  0.00000000000E+00 0.  1.
          2   -1    0    0  501    0  0.00000000000E+00 -0.00000000000E+00 -0.40269359652E+03  0.40269359652E+03  0.00000000000E+00 0. -1.
         25    2    1    2    0    0 -0.56957080263E+02  0.18421366491E+02 -0.24149618339E+03  0.27848098594E+03  0.12509115557E+03 0.  0.
         23    2    1    2    0    0  0.56957080263E+02 -0.18421366491E+02 -0.12233881906E+03  0.16307120465E+03  0.89677061735E+02 0.  0.
          5    1    3    3  502    0  0.34011257371E+01 -0.41810792158E+02 -0.13811661696E+03  0.14440700218E+03  0.41800000000E+01 0.  1.
         -5    1    3    3    0  502 -0.60358206000E+02  0.60232158649E+02 -0.10337956643E+03  0.13407398377E+03  0.41800000000E+01 0.  1.
        -11    1    4    4    0    0 -0.17769344906E+02 -0.10324634433E+02 -0.12987401907E+01  0.20592096072E+02  0.00000000000E+00 0.  1.
         11    1    4    4    0    0  0.74726425169E+02 -0.80967320583E+01 -0.12104007887E+03  0.14247910858E+03  0.00000000000E+00 0. -1.
</event>
<event>
 8    1  0.7224924E-009  0.1708043E+03  0.7561462E-02  0.1177012E+00
         -3   -1    0    0    0  501 -0.00000000000E+00  0.00000000000E+00  0.17043342591E+03  0.17043342591E+03  0.00000000000E+00 0.  1.
          3   -1    0    0  501    0  0.00000000000E+00 -0.00000000000E+00 -0.33429481904E+03  0.33429481904E+03  0.00000000000E+00 0. -1.
         25    2    1    2    0    0 -0.10641666612E+03 -0.11469133945E+03 -0.23553981409E+03  0.30919990615E+03  0.12508784021E+03 0.  0.
         23    2    1    2    0    0  0.10641666612E+03  0.11469133945E+03  0.71678420962E+02  0.19552833881E+03  0.92816620672E+02 0.  0.
          5    1    3    3  502    0 -0.20077650919E+02 -0.51291770707E+02 -0.18036800238E+03  0.18863734119E+03  0.41800000000E+01 0.  1.
         -5    1    3    3    0  502 -0.86339015197E+02 -0.63399568743E+02 -0.55171811715E+02  0.12056256496E+03  0.41800000000E+01 0. -1.
        -11    1    4    4    0    0  0.37996977753E+02 -0.78715746646E+01  0.30170386780E+02  0.49152662639E+02  0.00000000000E+00 0.  1.
         11    1    4    4    0    0  0.68419688363E+02  0.12256291411E+03  0.41508034182E+02  0.14637567617E+03  0.00000000000E+00 0. -1.
</event>
<event>
 8    1  0.7224924E-009  0.1019514E+03  0.7561462E-02  0.1276245E+00
         -1   -1    0    0    0  501 -0.00000000000E+00  0.00000000000E+00  0.13972843186E+03  0.13972843186E+03  0.00000000000E+00 0.  1.
          1   -1    0    0  501    0  0.00000000000E+00 -0.00000000000E+00 -0.12773344016E+03  0.12773344016E+03  0.00000000000E+00 0. -1.
         25    2    1    2    0    0  0.80340082754E+01  0.78846144700E+02  0.91480449846E+01  0.14836078099E+03  0.12508387101E+03 0.  0.
         23    2    1    2    0    0 -0.80340082754E+01 -0.78846144700E+02  0.28469467140E+01  0.11910109102E+03  0.88857779367E+02 0.  0.
          5    1    3    3  502    0  0.29707398762E+02  0.92756360624E+02 -0.29390651717E+02  0.10182119026E+03  0.41800000000E+01 0. -1.
         -5    1    3    3    0  502 -0.21673390486E+02 -0.13910215924E+02  0.38538696702E+02  0.46539590734E+02  0.41800000000E+01 0. -1.
        -11    1    4    4    0    0  0.30821552939E+01 -0.33301124514E+02 -0.42361996345E+02  0.53972245733E+02  0.00000000000E+00 0. -1.
         11    1    4    4    0    0 -0.11116163569E+02 -0.45545020186E+02  0.45208943059E+02  0.65128845289E+02  0.00000000000E+00 0.  1.
</event>
<event>
 8    1  0.7224924E-009  0.1165098E+03  0.7561462E-02  0.1248968E+00
         -1   -1    0    0    0  501 -0.00000000000E+00  0.00000000000E+00  0.14147238244E+02  0.14147238244E+02  0.00000000000E+00 0.  1.
          1   -1    0    0  501    0  0.00000000000E+00 -0.00000000000E+00 -0.12341555433E+04  0.12341555433E+04  0.00000000000E+00 0. -1.
         25    2    1    2    0    0  0.63477832490E+02 -0.19985542683E+02 -0.83918015768E+03  0.85105759818E+03  0.12508733446E+03 0.  0.
         23    2    1    2    0    0 -0.63477832490E+02  0.19985542683E+02 -0.38082814741E+03  0.39724518339E+03  0.91349880893E+02 0.  0.
          5    1    3    3  502    0 -0.12437476930E+02 -0.40720229004E+02 -0.53933421288E+03  0.54102836660E+03  0.41800000000E+01 0.  1.
         -5    1    3    3    0  502  0.75915309420E+02  0.20734686321E+02 -0.29984594480E+03  0.31002923158E+03  0.41800000000E+01 0.  1.
        -11    1    4    4    0    0 -0.16186355382E+02 -0.35206294035E+02 -0.10238162046E+03  0.10946907074E+03  0.00000000000E+00 0.  1.
         11    1    4    4    0    0 -0.47291477108E+02  0.55191836717E+02 -0.27844652694E+03  0.28777611265E+03  0.00000000000E+00 0. -1.
</event>
<event>
 8    1  0.7224924E-009  0.1149838E+03  0.7561462E-02  0.1251609E+00
         -2   -1    0    0    0  501 -0.00000000000E+00  0.00000000000E+00  0.21085683856E+02  0.21085683856E+02  0.00000000000E+00 0.  1.
          2   -1    0    0  501    0  0.00000000000E+00 -0.00000000000E+00 -0.69312291757E+03  0.69312291757E+03  0.00000000000E+00 0. -1.
         25    2    1    2    0    0  0.27755611403E+02  0.29811934307E+02 -0.27918197153E+03  0.30862761278E+03  0.12509718123E+03 0.  0.
         23    2    1    2    0    0 -0.27755611403E+02 -0.29811934307E+02 -0.39285526218E+03  0.40558098865E+03  0.92203882425E+02 0.  0.
          5    1    3    3  502    0  0.51031250412E+02 -0.34125654606E+02 -0.15846050593E+03  0.16998809711E+03  0.41800000000E+01 0.  1.
         -5    1    3    3    0  502 -0.23275639008E+02  0.63937588913E+02 -0.12072146560E+03  0.13863951567E+03  0.41800000000E+01 0.  1.
        -11    1    4    4    0    0 -0.51090574669E+02 -0.48441908261E+02 -0.25590429927E+03  0.26541265169E+03  0.00000000000E+00 0. -1.
         11    1    4    4    0    0  0.23334963266E+02  0.18629973953E+02 -0.13695096292E+03  0.14016833695E+03  0.00000000000E+00 0.  1.
</event>
<event>
 8    1  0.7224924E-009  0.2236382E+03  0.7561462E-02  0.1131199E+00
         -2   -1    0    0    0  501 -0.00000000000E+00  0.00000000000E+00  0.16293054675E+03  0.16293054675E+03  0.00000000000E+00 0. -1.
          2   -1    0    0  501    0  0.00000000000E+00 -0.00000000000E+00 -0.33852095472E+03  0.33852095472E+03  0.00000000000E+00 0.  1.
         25    2    1    2    0    0  0.11270699090E+02 -0.20737348286E+03 -0.10343353932E+03  0.26358464932E+03  0.12509028841E+03 0.  0.
         23    2    1    2    0    0 -0.11270699090E+02  0.20737348286E+03 -0.72156868649E+02  0.23786685215E+03  0.90792266239E+02 0.  0.
          5    1    3    3  502    0 -0.14925430116E+02  0.33862788783E+01 -0.38212112792E+02  0.41374790789E+02  0.41800000000E+01 0.  1.
         -5    1    3    3    0  502  0.26196129206E+02 -0.21075976173E+03 -0.65221426524E+02  0.22220985853E+03  0.41800000000E+01 0.  1.
        -11    1    4    4    0    0 -0.37229418245E+02  0.16617022588E+03 -0.80667837541E+02  0.18843002299E+03  0.00000000000E+00 0.  1.
         11    1    4    4    0    0  0.25958719155E+02  0.41203256974E+02  0.85109688911E+01  0.49436829155E+02  0.00000000000E+00 0. -1.
</event>
<event>
 8    1  0.7224924E-009  0.1927526E+03  0.7561462E-02  0.1156002E+00
         -2   -1    0    0    0  501 -0.00000000000E+00  0.00000000000E+00  0.32998045176E+03  0.32998045176E+03  0.00000000000E+00 0.  1.
          2   -1    0    0  501    0  0.00000000000E+00 -0.00000000000E+00 -0.11471414628E+03  0.11471414628E+03  0.00000000000E+00 0. -1.
         25    2    1    2    0    0 -0.53586317397E+02 -0.15346877729E+03  0.11194592302E+03  0.23367538089E+03  0.12509250552E+03 0.  0.
         23    2    1    2    0    0  0.53586317397E+02  0.15346877729E+03  0.10332038246E+03  0.21101921715E+03  0.86196575104E+02 0.  0.
          5    1    3    3  502    0 -0.61632699950E+02 -0.14456186567E+02  0.19075606507E+02  0.66248941099E+02  0.41800000000E+01 0.  1.
         -5    1    3    3    0  502  0.80463825531E+01 -0.13901259072E+03  0.92870316512E+02  0.16742643979E+03  0.41800000000E+01 0.  1.
        -11    1    4    4    0    0  0.30356247775E+02  0.15641896484E+03  0.97809579075E+02  0.18696285219E+03  0.00000000000E+00 0.  1.
         11    1    4    4    0    0  0.23230069621E+02 -0.29501875458E+01  0.55108033805E+01  0.24056364959E+02  0.00000000000E+00 0. -1.
</event>
<event>
 8    1  0.7224924E-009  0.1777008E+03  0.7561462E-02  0.1170047E+00
         -3   -1    0    0    0  501 -0.00000000000E+00  0.00000000000E+00  0.19919925545E+03  0.19919925545E+03  0.00000000000E+00 0.  1.
          3   -1    0    0  501    0  0.00000000000E+00 -0.00000000000E+00 -0.25925939507E+03  0.25925939507E+03  0.00000000000E+00 0. -1.
         25    2    1    2    0    0 -0.11203371266E+03  0.10390174382E+03  0.97999661165E+02  0.22045299968E+03  0.12509383013E+03 0.  0.
         23    2    1    2    0    0  0.11203371266E+03 -0.10390174382E+03 -0.15805980079E+03  0.23800565085E+03  0.91195745885E+02 0.  0.
          5    1    3    3  502    0  0.99056096594E+01  0.43471076183E+02 -0.10917815968E+02  0.46092588045E+02  0.41800000000E+01 0.  1.
         -5    1    3    3    0  502 -0.12193932232E+03  0.60430667642E+02  0.10891747713E+03  0.17436041163E+03  0.41800000000E+01 0.  1.
        -11    1    4    4    0    0  0.81733557021E+02 -0.18436779848E+02 -0.99428197405E+02  0.13002405790E+03  0.00000000000E+00 0.  1.
         11    1    4    4    0    0  0.30300155638E+02 -0.85464963976E+02 -0.58631603386E+02  0.10798159294E+03  0.00000000000E+00 0. -1.
</event>
<event>
 8    1  0.7224924E-009  0.1035255E+03  0.7561462E-02  0.1273052E+00
         -2   -1    0    0    0  501 -0.00000000000E+00  0.00000000000E+00  0.22684439314E+03  0.22684439314E+03  0.00000000000E+00 0.  1.
          2   -1    0    0  501    0  0.00000000000E+00 -0.00000000000E+00 -0.88670195913E+02  0.88670195913E+02  0.00000000000E+00 0. -1.
         25    2    1    2    0    0  0.23342617738E+02 -0.55579628599E+02  0.15238422759E+03  0.20616108283E+03  0.12508983307E+03 0.  0.
         23    2    1    2    0    0 -0.23342617738E+02  0.55579628599E+02 -0.14210030366E+02  0.10935350622E+03  0.90123756254E+02 0.  0.
          5    1    3    3  502    0  0.35950278306E+02  0.53068989872E+01  0.13723672392E+03  0.14202808342E+03  0.41800000000E+01 0. -1.
         -5    1    3    3    0  502 -0.12607660568E+02 -0.60886527586E+02  0.15147503673E+02  0.64132999415E+02  0.41800000000E+01 0. -1.
        -11    1    4    4    0    0  0.80328211002E+01  0.72201311366E+02 -0.13176988398E+02  0.73832165084E+02  0.00000000000E+00 0. -1.
         11    1    4    4    0    0 -0.31375438839E+02 -0.16621682767E+02 -0.10330419683E+01  0.35521341135E+02  0.00000000000E+00 0.  1.
</event>
<event>
 8    1  0.7224924E-009  0.1277787E+03  0.7561462E-02  0.1230789E+00
          4   -1    0    0  501    0  0.00000000000E+00  0.00000000000E+00  0.10611643750E+03  0.10611643750E+03  0.00000000000E+00 0. -1.
         -4   -1    0    0    0  501 -0.00000000000E+00 -0.00000000000E+00 -0.17225127617E+03  0.17225127617E+03  0.00000000000E+00 0.  1.
         25    2    1    2    0    0 -0.75257232927E+02  0.11760230140E+02 -0.12435150979E+01  0.14646136923E+03  0.12508969672E+03 0.  0.
         23    2    1    2    0    0  0.75257232927E+02 -0.11760230140E+02 -0.64891323568E+02  0.13190634444E+03  0.85944433838E+02 0.  0.
          5    1    3    3  502    0 -0.90060297527E+02  0.50287010887E+02 -0.11082967949E+02  0.10382651508E+03  0.41800000000E+01 0.  1.
         -5    1    3    3    0  502  0.14803064600E+02 -0.38526780747E+02  0.98394528509E+01  0.42634854154E+02  0.41800000000E+01 0.  1.
        -11    1    4    4    0    0  0.72099957164E+02  0.23197717782E+02 -0.27387796517E+02  0.80539613429E+02  0.00000000000E+00 0.  1.
         11    1    4    4    0    0  0.31572757628E+01 -0.34957947922E+02 -0.37503527051E+02  0.51366731008E+02  0.00000000000E+00 0. -1.
</event>
<event>
 8    1  0.7224924E-009  0.6032859E+02  0.7561462E-02  0.1396458E+00
         -2   -1    0    0    0  501 -0.00000000000E+00  0.00000000000E+00  0.28589035155E+02  0.28589035155E+02  0.00000000000E+00 0.  1.
          2   -1    0    0  501    0  0.00000000000E+00 -0.00000000000E+00 -0.46829107895E+03  0.46829107895E+03  0.00000000000E+00 0. -1.
         25    2    1    2    0    0  0.13032961180E+02 -0.32238955634E+02 -0.19557404895E+03  0.23474794741E+03  0.12509269304E+03 0.  0.
         23    2    1    2    0    0 -0.13032961180E+02  0.32238955634E+02 -0.24412799484E+03  0.26213216669E+03  0.88913365767E+02 0.  0.
          5    1    3    3  502    0  0.31431390422E+01 -0.36483102663E+01  0.17950972414E+02  0.19049916048E+02  0.41800000000E+01 0. -1.
         -5    1    3    3    0  502  0.98898221378E+01 -0.28590645368E+02 -0.21352502137E+03  0.21569803136E+03  0.41800000000E+01 0. -1.
        -11    1    4    4    0    0 -0.18655727441E+02 -0.22207869332E+02 -0.32589801141E+02  0.43627064593E+02  0.00000000000E+00 0.  1.
         11    1    4    4    0    0  0.56227662613E+01  0.54446824966E+02 -0.21153819370E+03  0.21850510210E+03  0.00000000000E+00 0. -1.
</event>
<event>
 8    1  0.7224924E-009  0.1131966E+03  0.7561462E-02  0.1254762E+00
          1   -1    0    0  501    0  0.00000000000E+00  0.00000000000E+00  0.56100304224E+02  0.56100304224E+02  0.00000000000E+00 0. -1.
         -1   -1    0    0    0  501 -0.00000000000E+00 -0.00000000000E+00 -0.35455794631E+03  0.35455794631E+03  0.00000000000E+00 0.  1.
         25    2    1    2    0    0 -0.62285519516E+02 -0.62818832174E+02 -0.15519417606E+03  0.21807954089E+03  0.12509101589E+03 0.  0.
         23    2    1    2    0    0  0.62285519516E+02  0.62818832174E+02 -0.14326346603E+03  0.19257870965E+03  0.93468963252E+02 0.  0.
          5    1    3    3  502    0 -0.69175330393E+02 -0.83919500328E+01 -0.14662681858E+03  0.16239626686E+03  0.41800000000E+01 0. -1.
         -5    1    3    3    0  502  0.68898108766E+01 -0.54426882141E+02 -0.85673574715E+01  0.55683274038E+02  0.41800000000E+01 0. -1.
        -11    1    4    4    0    0  0.65058081469E+02  0.35514273871E+02 -0.14724336786E+03  0.16484667722E+03  0.00000000000E+00 0.  1.
         11    1    4    4    0    0 -0.27725619523E+01  0.27304558303E+02  0.39799018223E+01  0.27732032425E+02  0.00000000000E+00 0. -1.
</event>
<event>
 8    1  0.7224924E-009  0.1324428E+03  0.7561462E-02  0.1223875E+00
         -3   -1    0    0    0  501 -0.00000000000E+00  0.00000000000E+00  0.40442743897E+03  0.40442743897E+03  0.00000000000E+00 0.  1.
          3   -1    0    0  501    0  0.00000000000E+00 -0.00000000000E+00 -0.61332726321E+02  0.61332726321E+02  0.00000000000E+00 0. -1.
         25    2    1    2    0    0 -0.68715672422E+01 -0.10651658345E+03  0.23964418731E+03  0.29063523146E+03  0.12508597151E+03 0.  0.
         23    2    1    2    0    0  0.68715672422E+01  0.10651658345E+03  0.10345052533E+03  0.17512493383E+03  0.92594439735E+02 0.  0.
          5    1    3    3  502    0 -0.32846458860E+01  0.18920642254E+02 -0.48723745418E+00  0.19659333718E+02  0.41800000000E+01 0. -1.
         -5    1    3    3    0  502 -0.35869213563E+01 -0.12543722570E+03  0.24013142477E+03  0.27097589774E+03  0.41800000000E+01 0. -1.
        -11    1    4    4    0    0  0.27266327038E+02  0.30236599429E+02  0.84688239852E+02  0.93967028815E+02  0.00000000000E+00 0.  1.
         11    1    4    4    0    0 -0.20394759796E+02  0.76279984021E+02  0.18762285481E+02  0.81157905011E+02  0.00000000000E+00 0. -1.
</event>
<event>
 8    1  0.7224924E-009  0.1238305E+03  0.7561462E-02  0.1236908E+00
          1   -1    0    0  501    0  0.00000000000E+00  0.00000000000E+00  0.33438226284E+03  0.33438226284E+03  0.00000000000E+00 0. -1.
         -1   -1    0    0    0  501 -0.00000000000E+00 -0.00000000000E+00 -0.86603015921E+02  0.86603015921E+02  0.00000000000E+00 0.  1.
         25    2    1    2    0    0  0.56617419810E+02 -0.27362605506E+02  0.27376943523E+03  0.30749166047E+03  0.12508866130E+03 0.  0.
         23    2    1    2    0    0 -0.56617419810E+02  0.27362605506E+02 -0.25990188310E+02  0.11349361829E+03  0.90835384616E+02 0.  0.
          5    1    3    3  502    0  0.14051148914E+02  0.49402235235E+02  0.87798285410E+02  0.10180386512E+03  0.41800000000E+01 0. -1.
         -5    1    3    3    0  502  0.42566270896E+02 -0.76764840740E+02  0.18597114982E+03  0.20568779535E+03  0.41800000000E+01 0. -1.
        -11    1    4    4    0    0  0.18028846324E+02  0.28354339697E+02  0.22544895498E+01  0.33676261707E+02  0.00000000000E+00 0. -1.
         11    1    4    4    0    0 -0.74646266134E+02 -0.99173419128E+00 -0.28244677860E+02  0.79817356583E+02  0.00000000000E+00 0.  1.
</event>
<event>
 8    1  0.7224924E-009  0.1039689E+03  0.7561462E-02  0.1272165E+00
         -1   -1    0    0    0  501 -0.00000000000E+00  0.00000000000E+00  0.23257244028E+03  0.23257244028E+03  0.00000000000E+00 0.  1.
          1   -1    0    0  501    0  0.00000000000E+00 -0.00000000000E+00 -0.54888983312E+02  0.54888983312E+02  0.00000000000E+00 0. -1.
         25    2    1    2    0    0  0.51432519467E+01 -0.31612975015E+02  0.14263762653E+03  0.19241179892E+03  0.12510385539E+03 0.  0.
         23    2    1    2    0    0 -0.51432519467E+01  0.31612975015E+02  0.35045830440E+02  0.95049624664E+02  0.82343109534E+02 0.  0.
          5    1    3    3  502    0 -0.38071957329E+02 -0.64124741696E+02  0.87957509820E+02  0.11539260100E+03  0.41800000000E+01 0.  1.
         -5    1    3    3    0  502  0.43215209276E+02  0.32511766681E+02  0.54680116705E+02  0.77019197921E+02  0.41800000000E+01 0.  1.
        -11    1    4    4    0    0 -0.17866031594E+02 -0.19432829644E+02 -0.74430432215E+01  0.27426790649E+02  0.00000000000E+00 0. -1.
         11    1    4    4    0    0  0.12722779648E+02  0.51045804659E+02  0.42488873661E+02  0.67622834016E+02  0.00000000000E+00 0.  1.
</event>
<event>
 8    1  0.7224924E-009  0.1044203E+03  0.7561462E-02  0.1271266E+00
         -2   -1    0    0    0  501 -0.00000000000E+00  0.00000000000E+00  0.47713303196E+02  0.47713303196E+02  0.00000000000E+00 0.  1.
          2   -1    0    0  501    0  0.00000000000E+00 -0.00000000000E+00 -0.42277530016E+03  0.42277530016E+03  0.00000000000E+00 0. -1.
         25    2    1    2    0    0 -0.87601437117E+02  0.15916474394E+02 -0.23497365112E+03  0.28068967446E+03  0.12508689254E+03 0.  0.
         23    2    1    2    0    0  0.87601437117E+02 -0.15916474394E+02 -0.14008834584E+03  0.18979892889E+03  0.92040984494E+02 0.  0.
          5    1    3    3  502    0 -0.35495742652E+02  0.42357759375E+02 -0.21702716990E+02  0.59519810572E+02  0.41800000000E+01 0.  1.
         -5    1    3    3    0  502 -0.52105694465E+02 -0.26441284981E+02 -0.21327093413E+03  0.22116986389E+03  0.41800000000E+01 0.  1.
        -11    1    4    4    0    0  0.72414899796E+02  0.57845687449E+00 -0.14900429192E+03  0.16566994699E+03  0.00000000000E+00 0. -1.
         11    1    4    4    0    0  0.15186537322E+02 -0.16494931269E+02  0.89159460775E+01  0.24128981906E+02  0.00000000000E+00 0.  1.
</event>
<event>
 8    1  0.7224924E-009  0.1349010E+03  0.7561462E-02  0.1220359E+00
         -2   -1    0    0    0  501 -0.00000000000E+00  0.00000000000E+00  0.65598529273E+02  0.65598529273E+02  0.00000000000E+00 0. -1.
          2   -1    0    0  501    0  0.00000000000E+00 -0.00000000000E+00 -0.27929126700E+03  0.27929126700E+03  0.00000000000E+00 0.  1.
         25    2    1    2    0    0 -0.49715673136E+02 -0.57463335755E+02 -0.12524887019E+03  0.19263573067E+03  0.12509021598E+03 0.  0.
         23    2    1    2    0    0  0.49715673136E+02  0.57463335755E+02 -0.88443867532E+02  0.15225406561E+03  0.97904543703E+02 0.  0.
          5    1    3    3  502    0 -0.91401629825E+02 -0.31199806408E+02 -0.88048696540E+02  0.13075829311E+03  0.41800000000E+01 0. -1.
         -5    1    3    3    0  502  0.41685956689E+02 -0.26263529347E+02 -0.37200173654E+02  0.61877437558E+02  0.41800000000E+01 0. -1.
        -11    1    4    4    0    0 -0.69265319568E+01 -0.23711131761E+02 -0.21608802539E+02  0.32819734331E+02  0.00000000000E+00 0.  1.
         11    1    4    4    0    0  0.56642205093E+02  0.81174467516E+02 -0.66835064993E+02  0.11943433127E+03  0.00000000000E+00 0. -1.
</event>
<event>
 8    1  0.7224924E-009  0.1337841E+03  0.7561462E-02  0.1221946E+00
          2   -1    0    0  501    0  0.00000000000E+00  0.00000000000E+00  0.46294509561E+03  0.46294509561E+03  0.00000000000E+00 0. -1.
         -2   -1    0    0    0  501 -0.00000000000E+00 -0.00000000000E+00 -0.61008359052E+02  0.61008359052E+02  0.00000000000E+00 0.  1.
         25    2    1    2    0    0 -0.72317096227E+02  0.72099951768E+02  0.32931475521E+03  0.36677443241E+03  0.12508841201E+03 0.  0.
         23    2    1    2    0    0  0.72317096227E+02 -0.72099951768E+02  0.72621981344E+02  0.15717902225E+03  0.94884811264E+02 0.  0.
          5    1    3    3  502    0  0.13506989234E+02 -0.11670750374E+02  0.23502826311E+01  0.18483544057E+02  0.41800000000E+01 0. -1.
         -5    1    3    3    0  502 -0.85824085460E+02  0.83770702142E+02  0.32696447258E+03  0.34829088836E+03  0.41800000000E+01 0. -1.
        -11    1    4    4    0    0 -0.13117052467E+02 -0.32536794049E+02  0.48730895698E+02  0.60044985035E+02  0.00000000000E+00 0. -1.
         11    1    4    4    0    0  0.85434148693E+02 -0.39563157719E+02  0.23891085646E+02  0.97134037212E+02  0.00000000000E+00 0.  1.
</event>
<event>
 8    1  0.7224924E-009  0.1199103E+03  0.7561462E-02  0.1243245E+00
         -2   -1    0    0    0  501 -0.00000000000E+00  0.00000000000E+00  0.19297446226E+02  0.19297446226E+02  0.00000000000E+00 0.  1.
          2   -1    0    0  501    0  0.00000000000E+00 -0.00000000000E+00 -0.10410909345E+04  0.10410909345E+04  0.00000000000E+00 0. -1.
         25    2    1    2    0    0 -0.68366938672E+02  0.64000262410E+01 -0.77687679047E+03  0.78987362713E+03  0.12509116926E+03 0.  0.
         23    2    1    2    0    0  0.68366938672E+02 -0.64000262410E+01 -0.24491669779E+03  0.27051475358E+03  0.92081726791E+02 0.  0.
          5    1    3    3  502    0 -0.95484248917E+02 -0.75897843376E+01 -0.70751489257E+03  0.71398154194E+03  0.41800000000E+01 0.  1.
         -5    1    3    3    0  502  0.27117310245E+02  0.13989810579E+02 -0.69361897893E+02  0.75892085189E+02  0.41800000000E+01 0.  1.
        -11    1    4    4    0    0  0.35780346258E+02 -0.48272631647E+02 -0.10656687212E+03  0.12233960266E+03  0.00000000000E+00 0.  1.
         11    1    4    4    0    0  0.32586592414E+02  0.41872605406E+02 -0.13834982567E+03  0.14817515092E+03  0.00000000000E+00 0. -1.
</event>
<event>
 8    1  0.7224924E-009  0.9647377E+02  0.7561462E-02  0.1287891E+00
         -1   -1    0    0    0  501 -0.00000000000E+00  0.00000000000E+00  0.42012663936E+02  0.42012663936E+02  0.00000000000E+00 0.  1.
          1   -1    0    0  501    0  0.00000000000E+00 -0.00000000000E+00 -0.48133511460E+03  0.48133511460E+03  0.00000000000E+00 0. -1.
         25    2    1    2    0    0 -0.20777920562E+02 -0.37331242675E+02 -0.38703810224E+03  0.40898849025E+03  0.12509096253E+03 0.  0.
         23    2    1    2    0    0  0.20777920562E+02  0.37331242675E+02 -0.52284348420E+02  0.11435928829E+03  0.92298700235E+02 0.  0.
          5    1    3    3  502    0  0.19285870386E+02 -0.47561593982E+02 -0.34858580813E+03  0.35236854009E+03  0.41800000000E+01 0. -1.
         -5    1    3    3    0  502 -0.40063790948E+02  0.10230351307E+02 -0.38452294114E+02  0.56619950156E+02  0.41800000000E+01 0. -1.
        -11    1    4    4    0    0  0.48895957858E+02  0.49208689943E+02 -0.26016298369E+02  0.74088849644E+02  0.00000000000E+00 0.  1.
         11    1    4    4    0    0 -0.28118037296E+02 -0.11877447268E+02 -0.26268050051E+02  0.40270438643E+02  0.00000000000E+00 0. -1.
</event>
<event>
 8    1  0.7224924E-009  0.6813376E+02  0.7561462E-02  0.1366557E+00
         -1   -1    0    0    0  501 -0.00000000000E+00  0.00000000000E+00  0.37795902169E+02  0.37795902169E+02  0.00000000000E+00 0.  1.
          1   -1    0    0  501    0  0.00000000000E+00 -0.00000000000E+00 -0.40773619078E+03  0.40773619078E+03  0.00000000000E+00 0. -1.
         25    2    1    2    0    0  0.36195620656E+02 -0.29754695296E+02 -0.27137697702E+03  0.30247048046E+03  0.12508981991E+03 0.  0.
         23    2    1    2    0    0 -0.36195620656E+02  0.29754695296E+02 -0.98563311594E+02  0.14306161249E+03  0.92500993130E+02 0.  0.
          5    1    3    3  502    0  0.32771704653E+02 -0.29883093798E+02 -0.16451905180E+02  0.47488119618E+02  0.41800000000E+01 0. -1.
         -5    1    3    3    0  502  0.34239160030E+01  0.12839850184E+00 -0.25492507184E+03  0.25498236084E+03  0.41800000000E+01 0. -1.
        -11    1    4    4    0    0 -0.56661621479E+01  0.49587114527E+02 -0.15324134723E+02  0.52209351898E+02  0.00000000000E+00 0.  1.
         11    1    4    4    0    0 -0.30529458508E+02 -0.19832419230E+02 -0.83239176871E+02  0.90852260596E+02  0.00000000000E+00 0. -1.
</event>
<event>
 8    1  0.7224924E-009  0.1298871E+03  0.7561462E-02  0.1227623E+00
         -1   -1    0    0    0  501 -0.00000000000E+00  0.00000000000E+00  0.90401681956E+02  0.90401681956E+02  0.00000000000E+00 0.  1.
          1   -1    0    0  501    0  0.00000000000E+00 -0.00000000000E+00 -0.29955116254E+03  0.29955116254E+03  0.00000000000E+00 0. -1.
         25    2    1    2    0    0 -0.62789813301E+02 -0.10602517717E+03 -0.10684912638E+03  0.20554254040E+03  0.12508837379E+03 0.  0.
         23    2    1    2    0    0  0.62789813301E+02  0.10602517717E+03 -0.10230035420E+03  0.18441030410E+03  0.91421545261E+02 0.  0.
          5    1    3    3  502    0  0.11047082842E+02 -0.13012516521E+02 -0.82360910350E+02  0.84214936794E+02  0.41800000000E+01 0. -1.
         -5    1    3    3    0  502 -0.73836896143E+02 -0.93012660648E+02 -0.24488216031E+02  0.12132760361E+03  0.41800000000E+01 0. -1.
        -11    1    4    4    0    0  0.42248485699E+02  0.65645149807E+02 -0.11348773458E+03  0.13774500404E+03  0.00000000000E+00 0. -1.
         11    1    4    4    0    0  0.20541327602E+02  0.40380027362E+02  0.11187380380E+02  0.46665300055E+02  0.00000000000E+00 0.  1.
</event>
<event>
 8    1  0.7224924E-009  0.9107390E+02  0.7561462E-02  0.1300272E+00
         -2   -1    0    0    0  501 -0.00000000000E+00  0.00000000000E+00  0.25455939931E+02  0.25455939931E+02  0.00000000000E+00 0.  1.
          2   -1    0    0  501    0  0.00000000000E+00 -0.00000000000E+00 -0.59354421960E+03  0.59354421960E+03  0.00000000000E+00 0. -1.
         25    2    1    2    0    0 -0.75225202994E+01  0.84433616657E+01 -0.45546059976E+03  0.47246398957E+03  0.12509989946E+03 0.  0.
         23    2    1    2    0    0  0.75225202994E+01 -0.84433616657E+01 -0.11262767991E+03  0.14653616996E+03  0.93058992878E+02 0.  0.
          5    1    3    3  502    0  0.57870267940E+02  0.13601330281E+02 -0.23257658720E+03  0.24009020265E+03  0.41800000000E+01 0.  1.
         -5    1    3    3    0  502 -0.65392788240E+02 -0.51579686150E+01 -0.22288401256E+03  0.23237378692E+03  0.41800000000E+01 0.  1.
        -11    1    4    4    0    0  0.21908378138E+02 -0.26082829226E+02 -0.11827651481E+03  0.12308381278E+03  0.00000000000E+00 0. -1.
         11    1    4    4    0    0 -0.14385857838E+02  0.17639467560E+02  0.56488348960E+01  0.23452357178E+02  0.00000000000E+00 0.  1.
</event>
<event>
 8    1  0.7224924E-009  0.9400848E+02  0.7561462E-02  0.1293425E+00
         -1   -1    0    0    0  501 -0.00000000000E+00  0.00000000000E+00  0.46759592458E+02  0.46759592458E+02  0.00000000000E+00 0.  1.
          1   -1    0    0  501    0  0.00000000000E+00 -0.00000000000E+00 -0.30935808214E+03  0.30935808214E+03  0.00000000000E+00 0. -1.
         25    2    1    2    0    0  0.14826381095E+02 -0.13456693003E+02 -0.22630658443E+03  0.25935185971E+03  0.12509121798E+03 0.  0.
         23    2    1    2    0    0 -0.14826381095E+02  0.13456693003E+02 -0.36291905249E+02  0.96765814887E+02  0.87439215351E+02 0.  0.
          5    1    3    3  502    0  0.49517292954E+01 -0.62351533934E+02 -0.64352766530E+02  0.89838657420E+02  0.41800000000E+01 0.  1.
         -5    1    3    3    0  502  0.98746518001E+01  0.48894840931E+02 -0.16195381790E+03  0.16951320229E+03  0.41800000000E+01 0.  1.
        -11    1    4    4    0    0  0.22775607595E+02 -0.15724077695E+02 -0.40423702732E+02  0.48990311933E+02  0.00000000000E+00 0. -1.
         11    1    4    4    0    0 -0.37601988690E+02  0.29180770699E+02  0.41317974836E+01  0.47775502954E+02  0.00000000000E+00 0.  1.
</event>
<event>
 8    1  0.7224924E-009  0.1299986E+03  0.7561462E-02  0.1227458E+00
          3   -1    0    0  501    0  0.00000000000E+00  0.00000000000E+00  0.21789613994E+03  0.21789613994E+03  0.00000000000E+00 0. -1.
         -3   -1    0    0    0  501 -0.00000000000E+00 -0.00000000000E+00 -0.95689900514E+02  0.95689900514E+02  0.00000000000E+00 0.  1.
         25    2    1    2    0    0  0.47205787527E+02  0.66388497401E+02  0.11931845125E+03  0.19110330792E+03  0.12509101697E+03 0.  0.
         23    2    1    2    0    0 -0.47205787527E+02 -0.66388497401E+02  0.28877881822E+01  0.12248273254E+03  0.91421340433E+02 0.  0.
          5    1    3    3  502    0  0.83511749968E+02  0.13262908252E+02  0.63717109591E+02  0.10595970731E+03  0.41800000000E+01 0. -1.
         -5    1    3    3    0  502 -0.36305962440E+02  0.53125589148E+02  0.55601341654E+02  0.85143600610E+02  0.41800000000E+01 0. -1.
        -11    1    4    4    0    0  0.13443307153E+02 -0.44320441205E+02  0.26972379066E+02  0.53596018959E+02  0.00000000000E+00 0. -1.
         11    1    4    4    0    0 -0.60649094681E+02 -0.22068056195E+02 -0.24084590884E+02  0.68886713580E+02  0.00000000000E+00 0.  1.
</event>
<event>
 8    1  0.7224924E-009  0.1288386E+03  0.7561462E-02  0.1229189E+00
         -1   -1    0    0    0  501 -0.00000000000E+00  0.00000000000E+00  0.67675116242E+02  0.67675116242E+02  0.00000000000E+00 0.  1.
          1   -1    0    0  501    0  0.00000000000E+00 -0.00000000000E+00 -0.60012089188E+03  0.60012089188E+03  0.00000000000E+00 0. -1.
         25    2    1    2    0    0  0.94236288513E+02  0.10588796029E+02 -0.51106914711E+03  0.53463089297E+03  0.12508364368E+03 0.  0.
         23    2    1    2    0    0 -0.94236288513E+02 -0.10588796029E+02 -0.21376628535E+02  0.13316511516E+03  0.91013114295E+02 0.  0.
          5    1    3    3  502    0  0.11789270251E+03  0.95007123983E+01 -0.48471620804E+03  0.49895513584E+03  0.41800000000E+01 0.  1.
         -5    1    3    3    0  502 -0.23656414000E+02  0.10880836307E+01 -0.26352939065E+02  0.35675757128E+02  0.41800000000E+01 0.  1.
        -11    1    4    4    0    0 -0.68285979993E+02  0.23697686726E+02  0.18402918742E+02  0.74587015211E+02  0.00000000000E+00 0.  1.
         11    1    4    4    0    0 -0.25950308519E+02 -0.34286482755E+02 -0.39779547276E+02  0.58578099948E+02  0.00000000000E+00 0. -1.
</event>
<event>
 8    1  0.7224924E-009  0.1804456E+03  0.7561462E-02  0.1167372E+00
         -2   -1    0    0    0  501 -0.00000000000E+00  0.00000000000E+00  0.25256300502E+02  0.25256300502E+02  0.00000000000E+00 0.  1.
          2   -1    0    0  501    0  0.00000000000E+00 -0.00000000000E+00 -0.22047223336E+04  0.22047223336E+04  0.00000000000E+00 0. -1.
         25    2    1    2    0    0  0.10151030777E+02 -0.14825672216E+03 -0.18114232416E+04  0.18218083654E+04  0.12509380872E+03 0.  0.
         23    2    1    2    0    0 -0.10151030777E+02  0.14825672216E+03 -0.36804279152E+03  0.40817026871E+03  0.95206999650E+02 0.  0.
          5    1    3    3  502    0 -0.24180464058E+01 -0.16595958988E+03 -0.14034855552E+04  0.14132719514E+04  0.41800000000E+01 0. -1.
         -5    1    3    3    0  502  0.12569077183E+02  0.17702867722E+02 -0.40793768638E+03  0.40853641404E+03  0.41800000000E+01 0. -1.
        -11    1    4    4    0    0 -0.44300743189E+02  0.41637060809E+02 -0.17177818151E+03  0.18221949490E+03  0.00000000000E+00 0.  1.
         11    1    4    4    0    0  0.34149712412E+02  0.10661966135E+03 -0.19626461001E+03  0.22595077381E+03  0.00000000000E+00 0. -1.
</event>
<event>
 8    1  0.7224924E-009  0.1199291E+03  0.7561462E-02  0.1243214E+00
          2   -1    0    0  501    0  0.00000000000E+00  0.00000000000E+00  0.45939014562E+03  0.45939014562E+03  0.00000000000E+00 0. -1.
         -2   -1    0    0    0  501 -0.00000000000E+00 -0.00000000000E+00 -0.36929136573E+02  0.36929136573E+02  0.00000000000E+00 0.  1.
         25    2    1    2    0    0 -0.65997159259E+02 -0.15557409821E+02  0.18842134737E+03  0.23610664360E+03  0.12508431147E+03 0.  0.
         23    2    1    2    0    0  0.65997159259E+02  0.15557409821E+02  0.23403966168E+03  0.26021263860E+03  0.91314818162E+02 0.  0.
          5    1    3    3  502    0  0.24422627293E+02 -0.41307962369E+02  0.63038089217E+02  0.79335273183E+02  0.41800000000E+01 0.  1.
         -5    1    3    3    0  502 -0.90419786552E+02  0.25750552548E+02  0.12538325815E+03  0.15677137042E+03  0.41800000000E+01 0.  1.
        -11    1    4    4    0    0  0.55798118382E+02  0.41608876281E+02  0.21596667199E+03  0.22690599818E+03  0.00000000000E+00 0. -1.
         11    1    4    4    0    0  0.10199040877E+02 -0.26051466460E+02  0.18072989691E+02  0.33306640417E+02  0.00000000000E+00 0.  1.
</event>
<event>
 8    1  0.7224924E-009  0.8535774E+02  0.7561462E-02  0.1314500E+00
          2   -1    0    0  501    0  0.00000000000E+00  0.00000000000E+00  0.45411280614E+03  0.45411280614E+03  0.00000000000E+00 0.  1.
         -2   -1    0    0    0  501 -0.00000000000E+00 -0.00000000000E+00 -0.36176308220E+02  0.36176308220E+02  0.00000000000E+00 0. -1.
         25    2    1    2    0    0 -0.50547729110E+02  0.37420212265E+02  0.27058070844E+03  0.30465817611E+03  0.12508932524E+03 0.  0.
         23    2    1    2    0    0  0.50547729110E+02 -0.37420212265E+02  0.14735578949E+03  0.18563093825E+03  0.93753780391E+02 0.  0.
          5    1    3    3  502    0  0.21380454287E+02  0.15993354536E+02  0.35600955272E+01  0.27259088300E+02  0.41800000000E+01 0. -1.
         -5    1    3    3    0  502 -0.71928183396E+02  0.21426857729E+02  0.26702061291E+03  0.27739908781E+03  0.41800000000E+01 0. -1.
        -11    1    4    4    0    0  0.29697206212E+02 -0.52082186180E+01  0.14398946448E+03  0.14711225468E+03  0.00000000000E+00 0.  1.
         11    1    4    4    0    0  0.20850522898E+02 -0.32211993647E+02  0.33663250090E+01  0.38518683569E+02  0.00000000000E+00 0. -1.
</event>
<event>
 8    1  0.7224924E-009  0.1692430E+03  0.7561462E-02  0.1178640E+00
         -2   -1    0    0    0  501 -0.00000000000E+00  0.00000000000E+00  0.44802537986E+02  0.44802537986E+02  0.00000000000E+00 0.  1.
          2   -1    0    0  501    0  0.00000000000E+00 -0.00000000000E+00 -0.11147070551E+04  0.11147070551E+04  0.00000000000E+00 0. -1.
         25    2    1    2    0    0  0.15000273643E+03  0.21713063527E+02 -0.87327983664E+03  0.89511865344E+03  0.12508977812E+03 0.  0.
         23    2    1    2    0    0 -0.15000273643E+03 -0.21713063527E+02 -0.19662468048E+03  0.26439093965E+03  0.90934184609E+02 0.  0.
          5    1    3    3  502    0  0.21117596160E+01  0.28758414058E+02 -0.35200285008E+03  0.35320671677E+03  0.41800000000E+01 0.  1.
         -5    1    3    3    0  502  0.14789097682E+03 -0.70453505309E+01 -0.52127698656E+03  0.54191193667E+03  0.41800000000E+01 0.  1.
        -11    1    4    4    0    0 -0.12403970511E+03 -0.39015430344E+02 -0.10354590762E+03  0.16622216228E+03  0.00000000000E+00 0.  1.
         11    1    4    4    0    0 -0.25963031322E+02  0.17302366817E+02 -0.93078772860E+02  0.98168777369E+02  0.00000000000E+00 0. -1.
</event>
<event>
 8    1  0.7224924E-009  0.1619196E+03  0.7561462E-02  0.1186546E+00
          2   -1    0    0  501    0  0.00000000000E+00  0.00000000000E+00  0.50795475197E+03  0.50795475197E+03  0.00000000000E+00 0. -1.
         -2   -1    0    0    0  501 -0.00000000000E+00 -0.00000000000E+00 -0.85440476728E+02  0.85440476728E+02  0.00000000000E+00 0.  1.
         25    2    1    2    0    0 -0.50734827311E+02  0.12343953587E+03  0.53949943194E+02  0.19070563452E+03  0.12508677368E+03 0.  0.
         23    2    1    2    0    0  0.50734827311E+02 -0.12343953587E+03  0.36856433205E+03  0.40268959417E+03  0.92238282084E+02 0.  0.
          5    1    3    3  502    0 -0.62464336710E+02  0.40395700799E+01  0.21989939237E+02  0.66476622317E+02  0.41800000000E+01 0.  1.
         -5    1    3    3    0  502  0.11729509399E+02  0.11939996579E+03  0.31960003957E+02  0.12422901221E+03  0.41800000000E+01 0.  1.
        -11    1    4    4    0    0  0.17672056445E+02 -0.97349326118E+02  0.33356185816E+03  0.34792629405E+03  0.00000000000E+00 0. -1.
         11    1    4    4    0    0  0.33062770866E+02 -0.26090209750E+02  0.35002473891E+02  0.54763300125E+02  0.00000000000E+00 0.  1.
</event>
<event>
 8    1  0.7224924E-009  0.2215448E+03  0.7561462E-02  0.1132737E+00
         -1   -1    0    0    0  501 -0.00000000000E+00  0.00000000000E+00  0.34721433035E+02  0.34721433035E+02  0.00000000000E+00 0.  1.
          1   -1    0    0  501    0  0.00000000000E+00 -0.00000000000E+00 -0.17122880476E+04  0.17122880476E+04  0.00000000000E+00 0. -1.
         25    2    1    2    0    0  0.14564073915E+03  0.15643500626E+03 -0.95756007330E+03  0.98906625126E+03  0.12509044458E+03 0.  0.
         23    2    1    2    0    0 -0.14564073915E+03 -0.15643500626E+03 -0.72000654124E+03  0.75794322935E+03  0.10190870131E+03 0.  0.
          5    1    3    3  502    0  0.27936394088E+02  0.73594282676E+02 -0.57363832901E+03  0.57902933041E+03  0.41800000000E+01 0.  1.
         -5    1    3    3    0  502  0.11770434506E+03  0.82840723581E+02 -0.38392174428E+03  0.41003692085E+03  0.41800000000E+01 0.  1.
        -11    1    4    4    0    0 -0.35656061279E+02 -0.98205399505E+01 -0.43739096604E+02  0.57279195897E+02  0.00000000000E+00 0.  1.
         11    1    4    4    0    0 -0.10998467787E+03 -0.14661446631E+03 -0.67626744464E+03  0.70066403345E+03  0.00000000000E+00 0. -1.
</event>
<event>
 8    1  0.7224924E-009  0.1641368E+03  0.7561462E-02  0.1184104E+00
          2   -1    0    0  501    0  0.00000000000E+00  0.00000000000E+00  0.29777498352E+02  0.29777498352E+02  0.00000000000E+00 0. -1.
         -2   -1    0    0    0  501 -0.00000000000E+00 -0.00000000000E+00 -0.99709120666E+03  0.99709120666E+03  0.00000000000E+00 0.  1.
         25    2    1    2    0    0  0.43045373067E+02  0.12235948379E+03 -0.61213746492E+03  0.63811043032E+03  0.12509155811E+03 0.  0.
         23    2    1    2    0    0 -0.43045373067E+02 -0.12235948379E+03 -0.35517624339E+03  0.38875827469E+03  0.90322117210E+02 0.  0.
          5    1    3    3  502    0  0.84568549924E+02  0.56180860012E+02 -0.36535515002E+03  0.37922287209E+03  0.41800000000E+01 0. -1.
         -5    1    3    3    0  502 -0.41523176857E+02  0.66178623778E+02 -0.24678231490E+03  0.25888755823E+03  0.41800000000E+01 0. -1.
        -11    1    4    4    0    0 -0.24133421986E+02  0.47517846686E+00 -0.12364805809E+03  0.12598210238E+03  0.00000000000E+00 0.  1.
         11    1    4    4    0    0 -0.18911951081E+02 -0.12283466226E+03 -0.23152818530E+03  0.26277617231E+03  0.00000000000E+00 0. -1.
</event>
<event>
 8    1  0.7224924E-009  0.1102129E+03  0.7561462E-02  0.1260176E+00
          2   -1    0    0  501    0  0.00000000000E+00  0.00000000000E+00  0.43444036800E+03  0.43444036800E+03  0.00000000000E+00 0. -1.
         -2   -1    0    0    0  501 -0.00000000000E+00 -0.00000000000E+00 -0.37946499408E+02  0.37946499408E+02  0.00000000000E+00 0.  1.
         25    2    1    2    0    0  0.95315637490E+01 -0.63237589260E+02  0.26086367187E+03  0.29628929130E+03  0.12509054894E+03 0.  0.
         23    2    1    2    0    0 -0.95315637490E+01  0.63237589260E+02  0.13563019672E+03  0.17609757611E+03  0.92330724277E+02 0.  0.
          5    1    3    3  502    0 -0.38074989806E+02 -0.87975727017E+01  0.19322206912E+03  0.19717845352E+03  0.41800000000E+01 0.  1.
         -5    1    3    3    0  502  0.47606553555E+02 -0.54440016558E+02  0.67641602744E+02  0.99110837783E+02  0.41800000000E+01 0.  1.
        -11    1    4    4    0    0  0.39371039776E+02  0.25405903541E+02  0.37058534637E+02  0.59740051031E+02  0.00000000000E+00 0.  1.
         11    1    4    4    0    0 -0.48902603525E+02  0.37831685719E+02  0.98571662087E+02  0.11635752508E+03  0.00000000000E+00 0. -1.
</event>
<event>
 8    1  0.7224924E-009  0.9625509E+02  0.7561462E-02  0.1288374E+00
          1   -1    0    0  501    0  0.00000000000E+00  0.00000000000E+00  0.40543755854E+03  0.40543755854E+03  0.00000000000E+00 0.  1.
         -1   -1    0    0    0  501 -0.00000000000E+00 -0.00000000000E+00 -0.38990793945E+02  0.38990793945E+02  0.00000000000E+00 0. -1.
         25    2    1    2    0    0  0.45956136085E+02 -0.13271527048E+02  0.26074234161E+03  0.29312450713E+03  0.12508920057E+03 0.  0.
         23    2    1    2    0    0 -0.45956136085E+02  0.13271527048E+02  0.10570442299E+03  0.15130384536E+03  0.97115028218E+02 0.  0.
          5    1    3    3  502    0  0.35561797337E+01  0.42519184209E+02  0.31023836759E+02  0.52919545419E+02  0.41800000000E+01 0.  1.
         -5    1    3    3    0  502  0.42399956351E+02 -0.55790711257E+02  0.22971850485E+03  0.24020496171E+03  0.41800000000E+01 0.  1.
        -11    1    4    4    0    0  0.94887163955E+00  0.29719366011E+02  0.96209823896E+02  0.10069990709E+03  0.00000000000E+00 0.  1.
         11    1    4    4    0    0 -0.46905007725E+02 -0.16447838964E+02  0.94945990934E+01  0.50603938267E+02  0.00000000000E+00 0. -1.
</event>
<event>
 8    1  0.7224924E-009  0.1026253E+03  0.7561462E-02  0.1274870E+00
          2   -1    0    0  501    0  0.00000000000E+00  0.00000000000E+00  0.59835119212E+03  0.59835119212E+03  0.00000000000E+00 0. -1.
         -2   -1    0    0    0  501 -0.00000000000E+00 -0.00000000000E+00 -0.30481675959E+02  0.30481675959E+02  0.00000000000E+00 0.  1.
         25    2    1    2    0    0  0.18699911411E+02 -0.78401323357E+02  0.32496258107E+03  0.35741511544E+03  0.12509369072E+03 0.  0.
         23    2    1    2    0    0 -0.18699911411E+02  0.78401323357E+02  0.24290693509E+03  0.27141775264E+03  0.90373464811E+02 0.  0.
          5    1    3    3  502    0 -0.45885470067E+01 -0.31206673947E+02  0.39175078896E+01  0.32058236547E+02  0.41800000000E+01 0. -1.
         -5    1    3    3    0  502  0.23288458418E+02 -0.47194649410E+02  0.32104507318E+03  0.32535687889E+03  0.41800000000E+01 0. -1.
        -11    1    4    4    0    0 -0.41684798981E+02  0.86701189723E+02  0.18368986463E+03  0.20735642052E+03  0.00000000000E+00 0. -1.
         11    1    4    4    0    0  0.22984887570E+02 -0.82998663660E+01  0.59217070461E+02  0.64061332115E+02  0.00000000000E+00 0.  1.
</event>
<event>
 8    1  0.7224924E-009  0.1264268E+03  0.7561462E-02  0.1232856E+00
         -1   -1    0    0    0  501 -0.00000000000E+00  0.00000000000E+00  0.31677247122E+02  0.31677247122E+02  0.00000000000E+00 0.  1.
          1   -1    0    0  501    0  0.00000000000E+00 -0.00000000000E+00 -0.67346647065E+03  0.67346647065E+03  0.00000000000E+00 0. -1.
         25    2    1    2    0    0  0.16556409307E+02  0.92061190571E+02 -0.28309229431E+03  0.32332754512E+03  0.12510026714E+03 0.  0.
         23    2    1    2    0    0 -0.16556409307E+02 -0.92061190571E+02 -0.35869692922E+03  0.38181617265E+03  0.91491667214E+02 0.  0.
          5    1    3    3  502    0 -0.33613951828E+02  0.67979673957E+02 -0.24305067159E+03  0.25464138546E+03  0.41800000000E+01 0. -1.
         -5    1    3    3    0  502  0.50170361135E+02  0.24081516614E+02 -0.40041622720E+02  0.68686159661E+02  0.41800000000E+01 0. -1.
        -11    1    4    4    0    0 -0.14535136590E+02  0.10866088095E+02 -0.16705817014E+02  0.24666300660E+02  0.00000000000E+00 0.  1.
         11    1    4    4    0    0 -0.20212727169E+01 -0.10292727867E+03 -0.34199111220E+03  0.35714987199E+03  0.00000000000E+00 0. -1.
</event>
<event>
 8    1  0.7224924E-009  0.8566184E+02  0.7561462E-02  0.1313711E+00
          2   -1    0    0  501    0  0.00000000000E+00  0.00000000000E+00  0.46058127061E+02  0.46058127061E+02  0.00000000000E+00 0. -1.
         -2   -1    0    0    0  501 -0.00000000000E+00 -0.00000000000E+00 -0.32841395229E+03  0.32841395229E+03  0.00000000000E+00 0.  1.
         25    2    1    2    0    0  0.52890738455E+02  0.79467537088E+01 -0.18630083680E+03  0.23068363525E+03  0.12508539751E+03 0.  0.
         23    2    1    2    0    0 -0.52890738455E+02 -0.79467537088E+01 -0.96054988429E+02  0.14378844411E+03  0.92671326458E+02 0.  0.
          5    1    3    3  502    0  0.88146423620E+01  0.35865829327E+02 -0.17263004949E+03  0.17658613202E+03  0.41800000000E+01 0. -1.
         -5    1    3    3    0  502  0.44076096093E+02 -0.27919075618E+02 -0.13670787312E+02  0.54097503232E+02  0.41800000000E+01 0. -1.
        -11    1    4    4    0    0 -0.66412329384E+02 -0.12434251816E+02 -0.10649873788E+03  0.12612370626E+03  0.00000000000E+00 0.  1.
         11    1    4    4    0    0  0.13521590929E+02  0.44874981068E+01  0.10443749448E+02  0.17664737842E+02  0.00000000000E+00 0. -1.
</event>
<event>
 8    1  0.7224924E-009  0.1316150E+03  0.7561462E-02  0.1225079E+00
         -2   -1    0    0    0  501 -0.00000000000E+00  0.00000000000E+00  0.17461277361E+02  0.17461277361E+02  0.00000000000E+00 0. -1.
          2   -1    0    0  501    0  0.00000000000E+00 -0.00000000000E+00 -0.10152815579E+04  0.10152815579E+04  0.00000000000E+00 0.  1.
         25    2    1    2    0    0 -0.70908942222E+02 -0.30968182712E+02 -0.53726900259E+03  0.55703980506E+03  0.12509299279E+03 0.  0.
         23    2    1    2    0    0  0.70908942222E+02  0.30968182712E+02 -0.46055127799E+03  0.47570303024E+03  0.90547152897E+02 0.  0.
          5    1    3    3  502    0 -0.10593132987E+03 -0.34818312691E+02 -0.41191654330E+03  0.42676278257E+03  0.41800000000E+01 0. -1.
         -5    1    3    3    0  502  0.35022387644E+02  0.38501299789E+01 -0.12535245929E+03  0.13027702248E+03  0.41800000000E+01 0. -1.
        -11    1    4    4    0    0  0.62324506484E+02 -0.19240690248E+02 -0.30936423775E+03  0.31616574746E+03  0.00000000000E+00 0.  1.
         11    1    4    4    0    0  0.85844357373E+01  0.50208872961E+02 -0.15118704024E+03  0.15953728278E+03  0.00000000000E+00 0. -1.
</event>
<event>
 8    1  0.7224924E-009  0.1437837E+03  0.7561462E-02  0.1208327E+00
          1   -1    0    0  501    0  0.00000000000E+00  0.00000000000E+00  0.48697109883E+02  0.48697109883E+02  0.00000000000E+00 0. -1.
         -1   -1    0    0    0  501 -0.00000000000E+00 -0.00000000000E+00 -0.54306101073E+03  0.54306101073E+03  0.00000000000E+00 0.  1.
         25    2    1    2    0    0  0.73746272874E+02 -0.69153006757E+02 -0.14453294760E+03  0.21623896484E+03  0.12509542704E+03 0.  0.
         23    2    1    2    0    0 -0.73746272874E+02  0.69153006757E+02 -0.34983095325E+03  0.37551915578E+03  0.91718533570E+02 0.  0.
          5    1    3    3  502    0 -0.37625196562E+01 -0.76361786428E+02 -0.10166775368E+03  0.12727562029E+03  0.41800000000E+01 0. -1.
         -5    1    3    3    0  502  0.77508792531E+02  0.72087796713E+01 -0.42865193920E+02  0.88963344551E+02  0.41800000000E+01 0. -1.
        -11    1    4    4    0    0 -0.70461716386E+02  0.70055540153E+01 -0.22754376151E+03  0.23830672392E+03  0.00000000000E+00 0.  1.
         11    1    4    4    0    0 -0.32845564888E+01  0.62147452741E+02 -0.12228719173E+03  0.13721243185E+03  0.00000000000E+00 0. -1.
</event>
<event>
 8    1  0.7224924E-009  0.7803932E+02  0.7561462E-02  0.1334709E+00
          2   -1    0    0  501    0  0.00000000000E+00  0.00000000000E+00  0.48256359706E+03  0.48256359706E+03  0.00000000000E+00 0. -1.
         -2   -1    0    0    0  501 -0.00000000000E+00 -0.00000000000E+00 -0.25099696435E+02  0.25099696435E+02  0.00000000000E+00 0.  1.
         25    2    1    2    0    0  0.19542322790E+02  0.44732372513E+01  0.24187564920E+03  0.27304585125E+03  0.12509314521E+03 0.  0.
         23    2    1    2    0    0 -0.19542322790E+02 -0.44732372513E+01  0.21558825143E+03  0.23461744225E+03  0.90361152167E+02 0.  0.
          5    1    3    3  502    0  0.25352924473E+02  0.30827347008E+02  0.24243206868E+03  0.24573130942E+03  0.41800000000E+01 0. -1.
         -5    1    3    3    0  502 -0.58106016833E+01 -0.26354109756E+02 -0.55641948233E+00  0.27314541834E+02  0.41800000000E+01 0. -1.
        -11    1    4    4    0    0  0.28720520707E+02 -0.23148366954E+02  0.12456037447E+03  0.12990766756E+03  0.00000000000E+00 0. -1.
         11    1    4    4    0    0 -0.48262843497E+02  0.18675129703E+02  0.91027876960E+02  0.10470977469E+03  0.00000000000E+00 0.  1.
</event>
<event>
 8    1  0.7224924E-009  0.1090209E+03  0.7561462E-02  0.1262394E+00
         -2   -1    0    0    0  501 -0.00000000000E+00  0.00000000000E+00  0.60755650197E+02  0.60755650197E+02  0.00000000000E+00 0.  1.
          2   -1    0    0  501    0  0.00000000000E+00 -0.00000000000E+00 -0.23648887394E+03  0.23648887394E+03  0.00000000000E+00 0. -1.
         25    2    1    2    0    0 -0.45148730121E+02  0.18508784821E+02 -0.12581776310E+03  0.18400561055E+03  0.12508785814E+03 0.  0.
         23    2    1    2    0    0  0.45148730121E+02 -0.18508784821E+02 -0.49915460647E+02  0.11323891359E+03  0.89165662636E+02 0.  0.
          5    1    3    3  502    0 -0.13531319777E+02  0.62448411645E+02 -0.23565420455E+02  0.68232706037E+02  0.41800000000E+01 0.  1.
         -5    1    3    3    0  502 -0.31617410344E+02 -0.43939626824E+02 -0.10225234264E+03  0.11577290451E+03  0.41800000000E+01 0.  1.
        -11    1    4    4    0    0 -0.26055836049E+02  0.33521467041E+00 -0.23195452982E+02  0.34886215045E+02  0.00000000000E+00 0. -1.
         11    1    4    4    0    0  0.71204566171E+02 -0.18843999491E+02 -0.26720007664E+02  0.78352698549E+02  0.00000000000E+00 0.  1.
</event>
<event>
 8    1  0.7224924E-009  0.1402954E+03  0.7561462E-02  0.1212932E+00
         -2   -1    0    0    0  501 -0.00000000000E+00  0.00000000000E+00  0.26673713892E+02  0.26673713892E+02  0.00000000000E+00 0.  1.
          2   -1    0    0  501    0  0.00000000000E+00 -0.00000000000E+00 -0.14651363794E+04  0.14651363794E+04  0.00000000000E+00 0. -1.
         25    2    1    2    0    0 -0.93143553834E+02  0.97999207616E+02 -0.11071469607E+04  0.11223644823E+04  0.12509225514E+03 0.  0.
         23    2    1    2    0    0  0.93143553834E+02 -0.97999207616E+02 -0.33131570484E+03  0.36944561099E+03  0.91871632694E+02 0.  0.
          5    1    3    3  502    0 -0.94861020401E+02  0.88708883404E+02 -0.55075759122E+03  0.56587920608E+03  0.41800000000E+01 0. -1.
         -5    1    3    3    0  502  0.17174665665E+01  0.92903242122E+01 -0.55638936947E+03  0.55648527624E+03  0.41800000000E+01 0. -1.
        -11    1    4    4    0    0  0.46767196485E+02 -0.22952422800E+02 -0.41815797996E+02  0.66802285451E+02  0.00000000000E+00 0.  1.
         11    1    4    4    0    0  0.46376357349E+02 -0.75046784816E+02 -0.28949990684E+03  0.30264332554E+03  0.00000000000E+00 0. -1.
</event>
<event>
 8    1  0.7224924E-009  0.2636974E+03  0.7561462E-02  0.1104942E+00
          2   -1    0    0  501    0  0.00000000000E+00  0.00000000000E+00  0.88608071076E+02  0.88608071076E+02  0.00000000000E+00 0. -1.
         -2   -1    0    0    0  501 -0.00000000000E+00 -0.00000000000E+00 -0.12849325355E+04  0.12849325355E+04  0.00000000000E+00 0.  1.
         25    2    1    2    0    0 -0.87484438297E+02  0.24173319394E+03 -0.98964759748E+03  0.10301157158E+04  0.12509019449E+03 0.  0.
         23    2    1    2    0    0  0.87484438297E+02 -0.24173319394E+03 -0.20667686697E+03  0.34342489079E+03  0.95586946169E+02 0.  0.
          5    1    3    3  502    0 -0.77606690914E+02  0.11518148798E+03 -0.32523767266E+03  0.35367582582E+03  0.41800000000E+01 0. -1.
         -5    1    3    3    0  502 -0.98777473835E+01  0.12655170597E+03 -0.66440992481E+03  0.67643988999E+03  0.41800000000E+01 0. -1.
        -11    1    4    4    0    0  0.78926735746E+02 -0.15172989763E+03 -0.82676992764E+02  0.18996546155E+03  0.00000000000E+00 0. -1.
         11    1    4    4    0    0  0.85577025509E+01 -0.90003296318E+02 -0.12399987421E+03  0.15345942924E+03  0.00000000000E+00 0.  1.
</event>
<event>
 8    1  0.7224924E-009  0.8475271E+02  0.7561462E-02  0.1316080E+00
          1   -1    0    0  501    0  0.00000000000E+00  0.00000000000E+00  0.23454427480E+03  0.23454427480E+03  0.00000000000E+00 0. -1.
         -1   -1    0    0    0  501 -0.00000000000E+00 -0.00000000000E+00 -0.66200665206E+02  0.66200665206E+02  0.00000000000E+00 0.  1.
         25    2    1    2    0    0 -0.46831876723E+02 -0.91634257974E+01  0.14352339494E+03  0.19628080189E+03  0.12509994103E+03 0.  0.
         23    2    1    2    0    0  0.46831876723E+02  0.91634257974E+01  0.24820214654E+02  0.10446413812E+03  0.89551772999E+02 0.  0.
          5    1    3    3  502    0  0.23216044163E+02  0.44745366352E+01  0.11793396931E+03  0.12035322888E+03  0.41800000000E+01 0. -1.
         -5    1    3    3    0  502 -0.70047920885E+02 -0.13637962433E+02  0.25589425638E+02  0.75927573017E+02  0.41800000000E+01 0. -1.
        -11    1    4    4    0    0 -0.10060578639E+02 -0.97955719602E+01 -0.23550726874E+02  0.27419066520E+02  0.00000000000E+00 0.  1.
         11    1    4    4    0    0  0.56892455361E+02  0.18958997758E+02  0.48370941528E+02  0.77045071596E+02  0.00000000000E+00 0. -1.
</event>
<event>
 8    1  0.7224924E-009  0.8753185E+02  0.7561462E-02  0.1308941E+00
          2   -1    0    0  501    0  0.00000000000E+00  0.00000000000E+00  0.76822298491E+03  0.76822298491E+03  0.00000000000E+00 0. -1.
         -2   -1    0    0    0  501 -0.00000000000E+00 -0.00000000000E+00 -0.19102093036E+02  0.19102093036E+02  0.00000000000E+00 0.  1.
         25    2    1    2    0    0  0.13106311528E+02  0.48793384633E+01  0.59494186720E+03  0.60811022701E+03  0.12508652805E+03 0.  0.
         23    2    1    2    0    0 -0.13106311528E+02 -0.48793384633E+01  0.15417902467E+03  0.17921485093E+03  0.90284039569E+02 0.  0.
          5    1    3    3  502    0 -0.34393305801E+02  0.47938951316E+02  0.22576842226E+03  0.23338786478E+03  0.41800000000E+01 0. -1.
         -5    1    3    3    0  502  0.47499617329E+02 -0.43059612852E+02  0.36917344495E+03  0.37472236224E+03  0.41800000000E+01 0. -1.
        -11    1    4    4    0    0  0.18517449520E+02 -0.74044287043E+01 -0.18170962022E+01  0.20025567152E+02  0.00000000000E+00 0.  1.
         11    1    4    4    0    0 -0.31623761048E+02  0.25250902410E+01  0.15599612087E+03  0.15918928378E+03  0.00000000000E+00 0. -1.
</event>
<event>
 8    1  0.7224924E-009  0.1050907E+03  0.7561462E-02  0.1269941E+00
         -2   -1    0    0    0  501 -0.00000000000E+00  0.00000000000E+00  0.19202657833E+03  0.19202657833E+03  0.00000000000E+00 0.  1.
          2   -1    0    0  501    0  0.00000000000E+00 -0.00000000000E+00 -0.78993228875E+02  0.78993228875E+02  0.00000000000E+00 0. -1.
         25    2    1    2    0    0  0.33184566976E+02  0.43822207607E+02  0.83605108487E+02  0.16017358779E+03  0.12507662729E+03 0.  0.
         23    2    1    2    0    0 -0.33184566976E+02 -0.43822207607E+02  0.29428240966E+02  0.11084621941E+03  0.91647485655E+02 0.  0.
          5    1    3    3  502    0  0.51879041055E+02  0.79914150915E+02  0.64002142004E+02  0.11485405086E+03  0.41800000000E+01 0. -1.
         -5    1    3    3    0  502 -0.18694474079E+02 -0.36091943307E+02  0.19602966483E+02  0.45319536932E+02  0.41800000000E+01 0. -1.
        -11    1    4    4    0    0 -0.85837251060E+01 -0.48205701498E+02  0.55988690057E+02  0.74378783318E+02  0.00000000000E+00 0.  1.
         11    1    4    4    0    0 -0.24600841870E+02  0.43834938904E+01 -0.26560449091E+02  0.36467436095E+02  0.00000000000E+00 0. -1.
</event>
<event>
 8    1  0.7224924E-009  0.1008874E+03  0.7561462E-02  0.1278441E+00
         -2   -1    0    0    0  501 -0.00000000000E+00  0.00000000000E+00  0.24061112802E+02  0.24061112802E+02  0.00000000000E+00 0.  1.
          2   -1    0    0  501    0  0.00000000000E+00 -0.00000000000E+00 -0.57757164872E+03  0.57757164872E+03  0.00000000000E+00 0. -1.
         25    2    1    2    0    0 -0.23461544215E+02 -0.35280741483E+02 -0.26149373330E+03  0.29295306388E+03  0.12508936928E+03 0.  0.
         23    2    1    2    0    0  0.23461544215E+02  0.35280741483E+02 -0.29201680262E+03  0.30867969764E+03  0.90632047012E+02 0.  0.
          5    1    3    3  502    0 -0.57962661305E+02 -0.40911034413E+02 -0.24301064872E+03  0.25318971274E+03  0.41800000000E+01 0. -1.
         -5    1    3    3    0  502  0.34501117090E+02  0.56302929294E+01 -0.18483084571E+02  0.39763351144E+02  0.41800000000E+01 0. -1.
        -11    1    4    4    0    0 -0.29939509761E+01 -0.27348220938E+02 -0.13169426881E+03  0.13453724156E+03  0.00000000000E+00 0. -1.
         11    1    4    4    0    0  0.26455495191E+02  0.62628962421E+02 -0.16032253381E+03  0.17414245607E+03  0.00000000000E+00 0.  1.
</event>
<event>
 8    1  0.7224924E-009  0.3808783E+03  0.7561462E-02  0.1050610E+00
          1   -1    0    0  501    0  0.00000000000E+00  0.00000000000E+00  0.16906641945E+04  0.16906641945E+04  0.00000000000E+00 0. -1.
         -1   -1    0    0    0  501 -0.00000000000E+00 -0.00000000000E+00 -0.90643558785E+02  0.90643558785E+02  0.00000000000E+00 0.  1.
         25    2    1    2    0    0 -0.83496405023E+02 -0.35735737555E+03  0.99456270808E+03  0.10674632112E+04  0.12508710316E+03 0.  0.
         23    2    1    2    0    0  0.83496405023E+02  0.35735737555E+03  0.60545792763E+03  0.71384454211E+03  0.91207371780E+02 0.  0.
          5    1    3    3  502    0 -0.10650265482E+03 -0.22196763343E+03  0.56119894098E+03  0.61284106384E+03  0.41800000000E+01 0.  1.
         -5    1    3    3    0  502  0.23006249800E+02 -0.13538974212E+03  0.43336376710E+03  0.45462214733E+03  0.41800000000E+01 0.  1.
        -11    1    4    4    0    0  0.10346916691E+03  0.29199628954E+03  0.49353832446E+03  0.58270728442E+03  0.00000000000E+00 0. -1.
         11    1    4    4    0    0 -0.19972761891E+02  0.65361086008E+02  0.11191960317E+03  0.13113725769E+03  0.00000000000E+00 0.  1.
</event>
<event>
 8    1  0.7224924E-009  0.7378667E+02  0.7561462E-02  0.1347670E+00
         -1   -1    0    0    0  501 -0.00000000000E+00  0.00000000000E+00  0.37804927197E+02  0.37804927197E+02  0.00000000000E+00 0.  1.
          1   -1    0    0  501    0  0.00000000000E+00 -0.00000000000E+00 -0.44358076798E+03  0.44358076798E+03  0.00000000000E+00 0. -1.
         25    2    1    2    0    0 -0.51044353717E+02  0.80617828283E+01 -0.13454206747E+03  0.19084060471E+03  0.12509216641E+03 0.  0.
         23    2    1    2    0    0  0.51044353717E+02 -0.80617828283E+01 -0.27123377331E+03  0.29054509046E+03  0.90433242898E+02 0.  0.
          5    1    3    3  502    0 -0.22361606332E+02 -0.31931995879E+00  0.21862074258E+02  0.31552592506E+02  0.41800000000E+01 0.  1.
         -5    1    3    3    0  502 -0.28682747386E+02  0.83811027871E+01 -0.15640414173E+03  0.15928801220E+03  0.41800000000E+01 0.  1.
        -11    1    4    4    0    0  0.69365028524E+02 -0.20705049992E+02 -0.14177526085E+03  0.15918677981E+03  0.00000000000E+00 0.  1.
         11    1    4    4    0    0 -0.18320674807E+02  0.12643267163E+02 -0.12945851246E+03  0.13135831065E+03  0.00000000000E+00 0. -1.
</event>
<event>
 8    1  0.7224924E-009  0.9563609E+02  0.7561462E-02  0.1289750E+00
         -2   -1    0    0    0  501 -0.00000000000E+00  0.00000000000E+00  0.70350159691E+02  0.70350159691E+02  0.00000000000E+00 0.  1.
          2   -1    0    0  501    0  0.00000000000E+00 -0.00000000000E+00 -0.19539363151E+03  0.19539363151E+03  0.00000000000E+00 0. -1.
         25    2    1    2    0    0 -0.27435231654E+02 -0.35189220076E+02 -0.63005210888E+02  0.14699569896E+03  0.12508839182E+03 0.  0.
         23    2    1    2    0    0  0.27435231654E+02  0.35189220076E+02 -0.62038260935E+02  0.11874809224E+03  0.90892191338E+02 0.  0.
          5    1    3    3  502    0  0.46100958948E+02  0.76136504435E-01 -0.44370050582E+01  0.46502297004E+02  0.41800000000E+01 0. -1.
         -5    1    3    3    0  502 -0.73536190602E+02 -0.35265356581E+02 -0.58568205830E+02  0.10049340196E+03  0.41800000000E+01 0. -1.
        -11    1    4    4    0    0 -0.11403087610E+02  0.16908936141E+02  0.18467481486E+02  0.27513458541E+02  0.00000000000E+00 0.  1.
         11    1    4    4    0    0  0.38838319264E+02  0.18280283936E+02 -0.80505742421E+02  0.91234633703E+02  0.00000000000E+00 0. -1.
</event>
<event>
 8    1  0.7224924E-009  0.1120001E+03  0.7561462E-02  0.1256910E+00
          2   -1    0    0  501    0  0.00000000000E+00  0.00000000000E+00  0.16079308005E+03  0.16079308005E+03  0.00000000000E+00 0. -1.
         -2   -1    0    0    0  501 -0.00000000000E+00 -0.00000000000E+00 -0.16489321045E+03  0.16489321045E+03  0.00000000000E+00 0.  1.
         25    2    1    2    0    0 -0.94278553485E+01 -0.62729841704E+02  0.10122764827E+03  0.17296771420E+03  0.12508747293E+03 0.  0.
         23    2    1    2    0    0  0.94278553485E+01  0.62729841704E+02 -0.10532777867E+03  0.15271857630E+03  0.90582035145E+02 0.  0.
          5    1    3    3  502    0 -0.25004960788E+02  0.31626000215E+02  0.12422274833E+02  0.42393835231E+02  0.41800000000E+01 0.  1.
         -5    1    3    3    0  502  0.15577105440E+02 -0.94355841919E+02  0.88805373432E+02  0.13057387897E+03  0.41800000000E+01 0.  1.
        -11    1    4    4    0    0 -0.22172535577E+02  0.48009117941E+02 -0.10532771781E+03  0.11785764667E+03  0.00000000000E+00 0.  1.
         11    1    4    4    0    0  0.31600390925E+02  0.14720723763E+02 -0.60860849896E-04  0.34860929631E+02  0.00000000000E+00 0. -1.
</event>
<event>
 8    1  0.7224924E-009  0.9371665E+02  0.7561462E-02  0.1294093E+00
         -2   -1    0    0    0  501 -0.00000000000E+00  0.00000000000E+00  0.36663271288E+02  0.36663271288E+02  0.00000000000E+00 0.  1.
          2   -1    0    0  501    0  0.00000000000E+00 -0.00000000000E+00 -0.42857127629E+03  0.42857127629E+03  0.00000000000E+00 0. -1.
         25    2    1    2    0    0  0.11941624084E+02  0.29867152298E+02 -0.31958368697E+03  0.34469952035E+03  0.12509747073E+03 0.  0.
         23    2    1    2    0    0 -0.11941624084E+02 -0.29867152298E+02 -0.72324318033E+02  0.12053502722E+03  0.90902346706E+02 0.  0.
          5    1    3    3  502    0 -0.31586127100E+02 -0.37165489912E+02 -0.11259389637E+03  0.12277546565E+03  0.41800000000E+01 0.  1.
         -5    1    3    3    0  502  0.43527751184E+02  0.67032642210E+02 -0.20698979060E+03  0.22192405471E+03  0.41800000000E+01 0.  1.
        -11    1    4    4    0    0 -0.15475568766E+02 -0.42551387442E+02 -0.88660448706E+02  0.99552945545E+02  0.00000000000E+00 0. -1.
         11    1    4    4    0    0  0.35339446818E+01  0.12684235144E+02  0.16336130673E+02  0.20982081679E+02  0.00000000000E+00 0.  1.
</event>
<event>
 8    1  0.7224924E-009  0.1267920E+03  0.7561462E-02  0.1232295E+00
         -1   -1    0    0    0  501 -0.00000000000E+00  0.00000000000E+00  0.18061500294E+03  0.18061500294E+03  0.00000000000E+00 0.  1.
          1   -1    0    0  501    0  0.00000000000E+00 -0.00000000000E+00 -0.15548151095E+03  0.15548151095E+03  0.00000000000E+00 0. -1.
         25    2    1    2    0    0  0.69553142993E+02  0.71018327297E+02 -0.66845864243E+02  0.17319743140E+03  0.12509091959E+03 0.  0.
         23    2    1    2    0    0 -0.69553142993E+02 -0.71018327297E+02  0.91979356229E+02  0.16289908250E+03  0.90524397784E+02 0.  0.
          5    1    3    3  502    0  0.13608753436E+02 -0.15997793107E+02 -0.66289856369E+02  0.69663082130E+02  0.41800000000E+01 0. -1.
         -5    1    3    3    0  502  0.55944389557E+02  0.87016120404E+02 -0.55600787368E+00  0.10353434927E+03  0.41800000000E+01 0. -1.
        -11    1    4    4    0    0  0.14711644865E+02 -0.33121552795E+02  0.49133082911E+02  0.61053497775E+02  0.00000000000E+00 0.  1.
         11    1    4    4    0    0 -0.84264787857E+02 -0.37896774502E+02  0.42846273317E+02  0.10184558472E+03  0.00000000000E+00 0. -1.
</event>
<event>
 8    1  0.7224924E-009  0.1275471E+03  0.7561462E-02  0.1231141E+00
         -1   -1    0    0    0  501 -0.00000000000E+00  0.00000000000E+00  0.35977708095E+02  0.35977708095E+02  0.00000000000E+00 0.  1.
          1   -1    0    0  501    0  0.00000000000E+00 -0.00000000000E+00 -0.49132820027E+03  0.49132820027E+03  0.00000000000E+00 0. -1.
         25    2    1    2    0    0  0.30922119217E+02  0.71913653144E+02 -0.23283787441E+03  0.27566009259E+03  0.12508900798E+03 0.  0.
         23    2    1    2    0    0 -0.30922119217E+02 -0.71913653144E+02 -0.22251261776E+03  0.25164581578E+03  0.87669838430E+02 0.  0.
          5    1    3    3  502    0  0.73954485660E+02  0.55979688633E+02 -0.10708331783E+03  0.14172967525E+03  0.41800000000E+01 0. -1.
         -5    1    3    3    0  502 -0.43032366443E+02  0.15933964511E+02 -0.12575455659E+03  0.13393041734E+03  0.41800000000E+01 0. -1.
        -11    1    4    4    0    0 -0.56040235779E+02 -0.21832411746E+02 -0.13419376019E+03  0.14705484522E+03  0.00000000000E+00 0. -1.
         11    1    4    4    0    0  0.25118116562E+02 -0.50081241398E+02 -0.88318857573E+02  0.10459097056E+03  0.00000000000E+00 0.  1.
</event>
<event>
 8    1  0.7224924E-009  0.7140055E+02  0.7561462E-02  0.1355394E+00
          1   -1    0    0  501    0  0.00000000000E+00  0.00000000000E+00  0.11744556491E+03  0.11744556491E+03  0.00000000000E+00 0. -1.
         -1   -1    0    0    0  501 -0.00000000000E+00 -0.00000000000E+00 -0.12644804395E+03  0.12644804395E+03  0.00000000000E+00 0.  1.
         25    2    1    2    0    0 -0.19577607671E+02 -0.45949647793E+02 -0.35245543874E+02  0.13922727114E+03  0.12508929535E+03 0.  0.
         23    2    1    2    0    0  0.19577607671E+02  0.45949647793E+02  0.26243064835E+02  0.10466633772E+03  0.88157194516E+02 0.  0.
          5    1    3    3  502    0 -0.17372401256E+02 -0.61561044870E+02 -0.73568553090E+02  0.97577492152E+02  0.41800000000E+01 0.  1.
         -5    1    3    3    0  502 -0.22052064149E+01  0.15611397077E+02  0.38323009216E+02  0.41649778984E+02  0.41800000000E+01 0.  1.
        -11    1    4    4    0    0  0.22594598824E+02  0.74800672043E+01 -0.28852102837E+02  0.37402020527E+02  0.00000000000E+00 0.  1.
         11    1    4    4    0    0 -0.30169911524E+01  0.38469580589E+02  0.55095167672E+02  0.67264317191E+02  0.00000000000E+00 0. -1.
</event>
<event>
 8    1  0.7224924E-009  0.1119831E+03  0.7561462E-02  0.1256941E+00
         -1   -1    0    0    0  501 -0.00000000000E+00  0.00000000000E+00  0.19248432969E+03  0.19248432969E+03  0.00000000000E+00 0.  1.
          1   -1    0    0  501    0  0.00000000000E+00 -0.00000000000E+00 -0.13736188132E+03  0.13736188132E+03  0.00000000000E+00 0. -1.
         25    2    1    2    0    0 -0.81485267142E+02 -0.61007421217E+02  0.95905300745E+02  0.18762852463E+03  0.12507950408E+03 0.  0.
         23    2    1    2    0    0  0.81485267142E+02  0.61007421217E+02 -0.40782852366E+02  0.14221768638E+03  0.90558682999E+02 0.  0.
          5    1    3    3  502    0 -0.37116273267E+02 -0.82246563360E+01 -0.26878310226E+02  0.46745894726E+02  0.41800000000E+01 0.  1.
         -5    1    3    3    0  502 -0.44368993875E+02 -0.52782764881E+02  0.12278361097E+03  0.14088262991E+03  0.41800000000E+01 0.  1.
        -11    1    4    4    0    0 -0.15472533951E+01  0.26788052432E+02 -0.44910133819E+02  0.52315522227E+02  0.00000000000E+00 0. -1.
         11    1    4    4    0    0  0.83032520537E+02  0.34219368785E+02  0.41272814529E+01  0.89902164151E+02  0.00000000000E+00 0.  1.
</event>
<event>
 8    1  0.7224924E-009  0.9279552E+02  0.7561462E-02  0.1296220E+00
         -2   -1    0    0    0  501 -0.00000000000E+00  0.00000000000E+00  0.27994869696E+02  0.27994869696E+02  0.00000000000E+00 0.  1.
          2   -1    0    0  501    0  0.00000000000E+00 -0.00000000000E+00 -0.42645603182E+03  0.42645603182E+03  0.00000000000E+00 0. -1.
         25    2    1    2    0    0 -0.19958311131E+02  0.28786072211E+01 -0.22296180137E+03  0.25644872466E+03  0.12508941982E+03 0.  0.
         23    2    1    2    0    0  0.19958311131E+02 -0.28786072211E+01 -0.17549936076E+03  0.19800217685E+03  0.89432744838E+02 0.  0.
          5    1    3    3  502    0 -0.12145803336E+02 -0.46322350829E+02 -0.28983584122E+02  0.56131998660E+02  0.41800000000E+01 0.  1.
         -5    1    3    3    0  502 -0.78125077950E+01  0.49200958051E+02 -0.19397821724E+03  0.20031672600E+03  0.41800000000E+01 0.  1.
        -11    1    4    4    0    0  0.47476318579E+02  0.20218074535E+02 -0.13108881535E+03  0.14087955449E+03  0.00000000000E+00 0. -1.
         11    1    4    4    0    0 -0.27518007448E+02 -0.23096681756E+02 -0.44410545407E+02  0.57122622361E+02  0.00000000000E+00 0.  1.
</event>
<event>
 8    1  0.7224924E-009  0.1062445E+03  0.7561462E-02  0.1267687E+00
         -1   -1    0    0    0  501 -0.00000000000E+00  0.00000000000E+00  0.46980068545E+03  0.46980068545E+03  0.00000000000E+00 0.  1.
          1   -1    0    0  501    0  0.00000000000E+00 -0.00000000000E+00 -0.32177236906E+02  0.32177236906E+02  0.00000000000E+00 0. -1.
         25    2    1    2    0    0  0.18190155890E+02 -0.50885808476E+02  0.20033874982E+03  0.24228913127E+03  0.12509261040E+03 0.  0.
         23    2    1    2    0    0 -0.18190155890E+02  0.50885808476E+02  0.23728469873E+03  0.25968879108E+03  0.90631080154E+02 0.  0.
          5    1    3    3  502    0 -0.47982187620E+01 -0.80347727905E+02  0.18478287324E+03  0.20159603896E+03  0.41800000000E+01 0.  1.
         -5    1    3    3    0  502  0.22988374652E+02  0.29461919430E+02  0.15555876582E+02  0.40693092311E+02  0.41800000000E+01 0.  1.
        -11    1    4    4    0    0  0.23433890024E+02  0.46955135047E+02  0.71366143064E+02  0.88583623118E+02  0.00000000000E+00 0. -1.
         11    1    4    4    0    0 -0.41624045913E+02  0.39306734290E+01  0.16591855566E+03  0.17110516797E+03  0.00000000000E+00 0.  1.
</event>
<event>
 8    1  0.7224924E-009  0.1693992E+03  0.7561462E-02  0.1178476E+00
          1   -1    0    0  501    0  0.00000000000E+00  0.00000000000E+00  0.15782221999E+04  0.15782221999E+04  0.00000000000E+00 0. -1.
         -1   -1    0    0    0  501 -0.00000000000E+00 -0.00000000000E+00 -0.23631510490E+02  0.23631510490E+02  0.00000000000E+00 0.  1.
         25    2    1    2    0    0 -0.12033515439E+03  0.10312717312E+03  0.90223154319E+03  0.92454492700E+03  0.12508317752E+03 0.  0.
         23    2    1    2    0    0  0.12033515439E+03 -0.10312717312E+03  0.65235914625E+03  0.67730878342E+03  0.89771761630E+02 0.  0.
          5    1    3    3  502    0 -0.22626903480E+01  0.46757398714E+01 -0.22845664661E+01  0.70479752337E+01  0.41800000000E+01 0.  1.
         -5    1    3    3    0  502 -0.11807246404E+03  0.98451433249E+02  0.90451610966E+03  0.91749695177E+03  0.41800000000E+01 0.  1.
        -11    1    4    4    0    0  0.73341565412E+01 -0.55052609127E+02  0.27216968823E+03  0.27777854275E+03  0.00000000000E+00 0. -1.
         11    1    4    4    0    0  0.11300099785E+03 -0.48074563993E+02  0.38018945803E+03  0.39953024067E+03  0.00000000000E+00 0.  1.
</event>
<event>
 8    1  0.7224924E-009  0.1613772E+03  0.7561462E-02  0.1187151E+00
         -2   -1    0    0    0  501 -0.00000000000E+00  0.00000000000E+00  0.33500617788E+03  0.33500617788E+03  0.00000000000E+00 0.  1.
          2   -1    0    0  501    0  0.00000000000E+00 -0.00000000000E+00 -0.87975220403E+02  0.87975220403E+02  0.00000000000E+00 0. -1.
         25    2    1    2    0    0  0.50071755147E+02  0.12259143387E+03  0.14258578002E+03  0.23133273631E+03  0.12509312493E+03 0.  0.
         23    2    1    2    0    0 -0.50071755147E+02 -0.12259143387E+03  0.10444517746E+03  0.19164866197E+03  0.91019636441E+02 0.  0.
          5    1    3    3  502    0  0.81339889574E+02  0.81149667864E+02  0.50578339179E+02  0.12560687491E+03  0.41800000000E+01 0.  1.
         -5    1    3    3    0  502 -0.31268134427E+02  0.41441766005E+02  0.92007440838E+02  0.10572586140E+03  0.41800000000E+01 0.  1.
        -11    1    4    4    0    0 -0.68833788802E+02 -0.63319618336E+02  0.38860262143E+02  0.10127973401E+03  0.00000000000E+00 0. -1.
         11    1    4    4    0    0  0.18762033655E+02 -0.59271815532E+02  0.65584915313E+02  0.90368927957E+02  0.00000000000E+00 0.  1.
</event>
<event>
 8    1  0.7224924E-009  0.1112918E+03  0.7561462E-02  0.1258196E+00
         -1   -1    0    0    0  501 -0.00000000000E+00  0.00000000000E+00  0.17338232016E+02  0.17338232016E+02  0.00000000000E+00 0.  1.
          1   -1    0    0  501    0  0.00000000000E+00 -0.00000000000E+00 -0.10073632790E+04  0.10073632790E+04  0.00000000000E+00 0. -1.
         25    2    1    2    0    0  0.69312881214E+02 -0.18552059540E+02 -0.61559406675E+03  0.63226009310E+03  0.12509322883E+03 0.  0.
         23    2    1    2    0    0 -0.69312881214E+02  0.18552059540E+02 -0.37443098021E+03  0.39244141788E+03  0.93076598120E+02 0.  0.
          5    1    3    3  502    0  0.74328548819E+02 -0.50731969803E+02 -0.56367765375E+03  0.57083135484E+03  0.41800000000E+01 0. -1.
         -5    1    3    3    0  502 -0.50156676048E+01  0.32179910263E+02 -0.51916412998E+02  0.61428738263E+02  0.41800000000E+01 0. -1.
        -11    1    4    4    0    0 -0.42281868535E+02 -0.24468655391E+02 -0.28855462941E+03  0.29266063223E+03  0.00000000000E+00 0. -1.
         11    1    4    4    0    0 -0.27031012679E+02  0.43020714931E+02 -0.85876350796E+02  0.99780785654E+02  0.00000000000E+00 0.  1.
</event>
<event>
 8    1  0.7224924E-009  0.1284749E+03  0.7561462E-02  0.1229736E+00
         -1   -1    0    0    0  501 -0.00000000000E+00  0.00000000000E+00  0.99320221334E+02  0.99320221334E+02  0.00000000000E+00 0.  1.
          1   -1    0    0  501    0  0.00000000000E+00 -0.00000000000E+00 -0.21407481965E+03  0.21407481965E+03  0.00000000000E+00 0. -1.
         25    2    1    2    0    0  0.36813618874E+02 -0.83252925555E+02 -0.30419794512E+02  0.15767056414E+03  0.12509336814E+03 0.  0.
         23    2    1    2    0    0 -0.36813618874E+02  0.83252925555E+02 -0.84334803801E+02  0.15572447684E+03  0.94082205574E+02 0.  0.
          5    1    3    3  502    0  0.79952937605E+02 -0.38360255572E+02 -0.12441021080E+01  0.88786269373E+02  0.41800000000E+01 0.  1.
         -5    1    3    3    0  502 -0.43139318731E+02 -0.44892669983E+02 -0.29175692404E+02  0.68884294771E+02  0.41800000000E+01 0.  1.
        -11    1    4    4    0    0 -0.50448178924E+02  0.72893667645E+02 -0.22356000323E+02  0.91423718421E+02  0.00000000000E+00 0.  1.
         11    1    4    4    0    0  0.13634560050E+02  0.10359257909E+02 -0.61978803478E+02  0.64300758415E+02  0.00000000000E+00 0. -1.
</event>
<event>
 8    1  0.7224924E-009  0.7436669E+02  0.7561462E-02  0.1345843E+00
          1   -1    0    0  501    0  0.00000000000E+00  0.00000000000E+00  0.20094500826E+02  0.20094500826E+02  0.00000000000E+00 0. -1.
         -1   -1    0    0    0  501 -0.00000000000E+00 -0.00000000000E+00 -0.60970763664E+03  0.60970763664E+03  0.00000000000E+00 0.  1.
         25    2    1    2    0    0 -0.88847613967E+01 -0.46373516771E+01 -0.36492407258E+03  0.38589720424E+03  0.12508648798E+03 0.  0.
         23    2    1    2    0    0  0.88847613967E+01  0.46373516771E+01 -0.22468906323E+03  0.24390493323E+03  0.94360994592E+02 0.  0.
          5    1    3    3  502    0 -0.38469101781E+01  0.25165629208E+02 -0.70774659770E+01  0.26752019289E+02  0.41800000000E+01 0. -1.
         -5    1    3    3    0  502 -0.50378512187E+01 -0.29802980885E+02 -0.35784660660E+03  0.35914518495E+03  0.41800000000E+01 0. -1.
        -11    1    4    4    0    0 -0.18266747352E+02 -0.37833799716E+02 -0.13020224386E+03  0.13681262648E+03  0.00000000000E+00 0.  1.
         11    1    4    4    0    0  0.27151508749E+02  0.42471151393E+02 -0.94486819376E+02  0.10709230674E+03  0.00000000000E+00 0. -1.
</event>
<event>
 8    1  0.7224924E-009  0.8001926E+02  0.7561462E-02  0.1328997E+00
          4   -1    0    0  501    0  0.00000000000E+00  0.00000000000E+00  0.65870549751E+03  0.65870549751E+03  0.00000000000E+00 0. -1.
         -4   -1    0    0    0  501 -0.00000000000E+00 -0.00000000000E+00 -0.30869751006E+02  0.30869751006E+02  0.00000000000E+00 0.  1.
         25    2    1    2    0    0 -0.30712655453E+02  0.21936876381E+02  0.54099548065E+03  0.55655036414E+03  0.12509078301E+03 0.  0.
         23    2    1    2    0    0  0.30712655453E+02 -0.21936876381E+02  0.86840265850E+02  0.13302488437E+03  0.93433903580E+02 0.  0.
          5    1    3    3  502    0 -0.71652175065E+02  0.26761580244E+02  0.22132876049E+03  0.23420954077E+03  0.41800000000E+01 0. -1.
         -5    1    3    3    0  502  0.40939519611E+02 -0.48247038631E+01  0.31966672016E+03  0.32234082337E+03  0.41800000000E+01 0. -1.
        -11    1    4    4    0    0  0.13141368759E+02  0.91955232173E+00 -0.19116481738E+02  0.23215964838E+02  0.00000000000E+00 0.  1.
         11    1    4    4    0    0  0.17571286694E+02 -0.22856428703E+02  0.10595674759E+03  0.10980891953E+03  0.00000000000E+00 0. -1.
</event>
<event>
 8    1  0.7224924E-009  0.9540938E+02  0.7561462E-02  0.1290257E+00
          2   -1    0    0  501    0  0.00000000000E+00  0.00000000000E+00  0.34251165347E+03  0.34251165347E+03  0.00000000000E+00 0.  1.
         -2   -1    0    0    0  501 -0.00000000000E+00 -0.00000000000E+00 -0.58828374372E+02  0.58828374372E+02  0.00000000000E+00 0. -1.
         25    2    1    2    0    0  0.28063738439E+02 -0.59459817232E+02  0.24453097866E+03  0.28242822564E+03  0.12508900764E+03 0.  0.
         23    2    1    2    0    0 -0.28063738439E+02  0.59459817232E+02  0.39152300441E+02  0.11891180221E+03  0.91016870929E+02 0.  0.
          5    1    3    3  502    0 -0.29370763253E+02 -0.60598413168E+02  0.64244247072E+02  0.93164398213E+02  0.41800000000E+01 0. -1.
         -5    1    3    3    0  502  0.57434501692E+02  0.11385959358E+01  0.18028673158E+03  0.18926382742E+03  0.41800000000E+01 0. -1.
        -11    1    4    4    0    0 -0.18219224144E+02  0.38926088066E+02  0.69047843027E+02  0.81331329063E+02  0.00000000000E+00 0.  1.
         11    1    4    4    0    0 -0.98445142951E+01  0.20533729166E+02 -0.29895542586E+02  0.37580473143E+02  0.00000000000E+00 0. -1.
</event>
<event>
 8    1  0.7224924E-009  0.2530109E+03  0.7561462E-02  0.1111417E+00
         -1   -1    0    0    0  501 -0.00000000000E+00  0.00000000000E+00  0.12547412288E+03  0.12547412288E+03  0.00000000000E+00 0.  1.
          1   -1    0    0  501    0  0.00000000000E+00 -0.00000000000E+00 -0.73643737481E+03  0.73643737481E+03  0.00000000000E+00 0. -1.
         25    2    1    2    0    0  0.13656208908E+03 -0.20221831345E+03 -0.51276276526E+03  0.58147522310E+03  0.12508529560E+03 0.  0.
         23    2    1    2    0    0 -0.13656208908E+03  0.20221831345E+03 -0.98200486664E+02  0.28043627459E+03  0.97261081922E+02 0.  0.
          5    1    3    3  502    0  0.11401720661E+03 -0.18529797846E+03 -0.32224105009E+03  0.38883419473E+03  0.41800000000E+01 0.  1.
         -5    1    3    3    0  502  0.22544882467E+02 -0.16920334984E+02 -0.19052171517E+03  0.19264102838E+03  0.41800000000E+01 0.  1.
        -11    1    4    4    0    0 -0.81857250456E+02  0.44905580465E+02 -0.55041649978E+02  0.10838221183E+03  0.00000000000E+00 0.  1.
         11    1    4    4    0    0 -0.54704838626E+02  0.15731273298E+03 -0.43158836685E+02  0.17205406276E+03  0.00000000000E+00 0. -1.
</event>
<event>
 8    1  0.7224924E-009  0.1337236E+03  0.7561462E-02  0.1222033E+00
         -2   -1    0    0    0  501 -0.00000000000E+00  0.00000000000E+00  0.61198238134E+03  0.61198238134E+03  0.00000000000E+00 0. -1.
          2   -1    0    0  501    0  0.00000000000E+00 -0.00000000000E+00 -0.30407450100E+02  0.30407450100E+02  0.00000000000E+00 0.  1.
         25    2    1    2    0    0  0.25903284186E+02 -0.77983377113E+02  0.30465594725E+03  0.33943306540E+03  0.12508865836E+03 0.  0.
         23    2    1    2    0    0 -0.25903284186E+02  0.77983377113E+02  0.27691898399E+03  0.30295676605E+03  0.91358038301E+02 0.  0.
          5    1    3    3  502    0 -0.22694778966E+02 -0.91497881391E+02  0.15516142188E+03  0.18160246290E+03  0.41800000000E+01 0.  1.
         -5    1    3    3    0  502  0.48598063152E+02  0.13514504279E+02  0.14949452537E+03  0.15783060250E+03  0.41800000000E+01 0.  1.
        -11    1    4    4    0    0 -0.50321440370E+01 -0.20853769845E+02  0.39707932571E+02  0.45132273368E+02  0.00000000000E+00 0.  1.
         11    1    4    4    0    0 -0.20871140149E+02  0.98837146957E+02  0.23721105142E+03  0.25782449268E+03  0.00000000000E+00 0. -1.
</event>
<event>
 8    1  0.7224924E-009  0.1389018E+03  0.7561462E-02  0.1214814E+00
          1   -1    0    0  501    0  0.00000000000E+00  0.00000000000E+00  0.92303840289E+03  0.92303840289E+03  0.00000000000E+00 0. -1.
         -1   -1    0    0    0  501 -0.00000000000E+00 -0.00000000000E+00 -0.21595266258E+02  0.21595266258E+02  0.00000000000E+00 0.  1.
         25    2    1    2    0    0 -0.50164445273E+02  0.73938298555E+02  0.56071640644E+03  0.58140691372E+03  0.12509103609E+03 0.  0.
         23    2    1    2    0    0  0.50164445273E+02 -0.73938298555E+02  0.34072673019E+03  0.36322675543E+03  0.88631978582E+02 0.  0.
          5    1    3    3  502    0  0.28778516894E+02  0.66587753113E+02  0.31088697390E+03  0.31926527347E+03  0.41800000000E+01 0. -1.
         -5    1    3    3    0  502 -0.78942962167E+02  0.73505454422E+01  0.24982943254E+03  0.26214164025E+03  0.41800000000E+01 0. -1.
        -11    1    4    4    0    0  0.35333356396E+02  0.12928479272E+02  0.95271542712E+02  0.10243172605E+03  0.00000000000E+00 0.  1.
         11    1    4    4    0    0  0.14831088877E+02 -0.86866777827E+02  0.24545518748E+03  0.26079502938E+03  0.00000000000E+00 0. -1.
</event>
<event>
 8    1  0.7224924E-009  0.1989838E+03  0.7561462E-02  0.1150599E+00
          1   -1    0    0  501    0  0.00000000000E+00  0.00000000000E+00  0.33100139568E+03  0.33100139568E+03  0.00000000000E+00 0. -1.
         -1   -1    0    0    0  501 -0.00000000000E+00 -0.00000000000E+00 -0.13064130209E+03  0.13064130209E+03  0.00000000000E+00 0.  1.
         25    2    1    2    0    0  0.67722725994E+02 -0.16130926892E+03  0.14242864779E+03  0.25795686442E+03  0.12509506917E+03 0.  0.
         23    2    1    2    0    0 -0.67722725994E+02  0.16130926892E+03  0.57931445798E+02  0.20368583335E+03  0.86745711355E+02 0.  0.
          5    1    3    3  502    0  0.80658047108E+02 -0.42906737341E+02  0.36381979303E+02  0.98426772225E+02  0.41800000000E+01 0.  1.
         -5    1    3    3    0  502 -0.12935321114E+02 -0.11840253158E+03  0.10604666849E+03  0.15953009219E+03  0.41800000000E+01 0.  1.
        -11    1    4    4    0    0 -0.13697988374E+02  0.11604513017E+03  0.76364929253E+01  0.11710005613E+03  0.00000000000E+00 0.  1.
         11    1    4    4    0    0 -0.54024737620E+02  0.45264138752E+02  0.50294952873E+02  0.86585777217E+02  0.00000000000E+00 0. -1.
</event>
<event>
 8    1  0.7224924E-009  0.1146433E+03  0.7561462E-02  0.1252205E+00
         -1   -1    0    0    0  501 -0.00000000000E+00  0.00000000000E+00  0.19795531218E+02  0.19795531218E+02  0.00000000000E+00 0.  1.
          1   -1    0    0  501    0  0.00000000000E+00 -0.00000000000E+00 -0.83599335367E+03  0.83599335367E+03  0.00000000000E+00 0. -1.
         25    2    1    2    0    0  0.57547532677E+02  0.37152907712E+02 -0.44137478646E+03  0.46384429220E+03  0.12509103970E+03 0.  0.
         23    2    1    2    0    0 -0.57547532677E+02 -0.37152907712E+02 -0.37482303598E+03  0.39194459268E+03  0.91848779854E+02 0.  0.
          5    1    3    3  502    0  0.59231240819E+02 -0.19741635139E+02 -0.10170399916E+03  0.11941209274E+03  0.41800000000E+01 0.  1.
         -5    1    3    3    0  502 -0.16837081427E+01  0.56894542851E+02 -0.33967078730E+03  0.34443219946E+03  0.41800000000E+01 0.  1.
        -11    1    4    4    0    0 -0.51912585586E+02  0.17434523413E+02 -0.13031284712E+03  0.14135175016E+03  0.00000000000E+00 0. -1.
         11    1    4    4    0    0 -0.56349470911E+01 -0.54587431124E+02 -0.24451018886E+03  0.25059284252E+03  0.00000000000E+00 0.  1.
</event>
<event>
 8    1  0.7224924E-009  0.9599917E+02  0.7561462E-02  0.1288941E+00
          2   -1    0    0  501    0  0.00000000000E+00  0.00000000000E+00  0.84100335805E+03  0.84100335805E+03  0.00000000000E+00 0. -1.
         -2   -1    0    0    0  501 -0.00000000000E+00 -0.00000000000E+00 -0.25400679835E+02  0.25400679835E+02  0.00000000000E+00 0.  1.
         25    2    1    2    0    0 -0.93572990175E+02 -0.15767034855E+02  0.47139941410E+03  0.49686108665E+03  0.12509607481E+03 0.  0.
         23    2    1    2    0    0  0.93572990175E+02  0.15767034855E+02  0.34420326411E+03  0.36954295123E+03  0.95297439120E+02 0.  0.
          5    1    3    3  502    0 -0.22800331167E+02 -0.30337823333E+01  0.37258778280E+01  0.23673054348E+02  0.41800000000E+01 0.  1.
         -5    1    3    3    0  502 -0.70772659008E+02 -0.12733252522E+02  0.46767353628E+03  0.47318803230E+03  0.41800000000E+01 0.  1.
        -11    1    4    4    0    0  0.25519830878E+02 -0.37489080422E+01  0.95844741125E+01  0.27516871617E+02  0.00000000000E+00 0.  1.
         11    1    4    4    0    0  0.68053159296E+02  0.19515942898E+02  0.33461878999E+03  0.34202607961E+03  0.00000000000E+00 0. -1.
</event>
<event>
 8    1  0.7224924E-009  0.2101511E+03  0.7561462E-02  0.1141446E+00
         -2   -1    0    0    0  501 -0.00000000000E+00  0.00000000000E+00  0.14503451353E+04  0.14503451353E+04  0.00000000000E+00 0.  1.
          2   -1    0    0  501    0  0.00000000000E+00 -0.00000000000E+00 -0.37515654298E+02  0.37515654298E+02  0.00000000000E+00 0. -1.
         25    2    1    2    0    0 -0.11563870348E+03 -0.16873196562E+03  0.63450737185E+03  0.67829876379E+03  0.12508725777E+03 0.  0.
         23    2    1    2    0    0  0.11563870348E+03  0.16873196562E+03  0.77832210913E+03  0.80956202579E+03  0.88105516739E+02 0.  0.
          5    1    3    3  502    0 -0.27366568587E+02 -0.72691478216E+02  0.92783464034E+02  0.12107528104E+03  0.41800000000E+01 0.  1.
         -5    1    3    3    0  502 -0.88272134889E+02 -0.96040487405E+02  0.54172390782E+03  0.55722348274E+03  0.41800000000E+01 0.  1.
        -11    1    4    4    0    0  0.37716186390E+02  0.10425212976E+03  0.52926327965E+03  0.54075006838E+03  0.00000000000E+00 0.  1.
         11    1    4    4    0    0  0.77922517086E+02  0.64479835859E+02  0.24905882948E+03  0.26881195740E+03  0.00000000000E+00 0. -1.
</event>
<event>
 8    1  0.7224924E-009  0.3302561E+03  0.7561462E-02  0.1071024E+00
         -1   -1    0    0    0  501 -0.00000000000E+00  0.00000000000E+00  0.12916424440E+03  0.12916424440E+03  0.00000000000E+00 0.  1.
          1   -1    0    0  501    0  0.00000000000E+00 -0.00000000000E+00 -0.90033683114E+03  0.90033683114E+03  0.00000000000E+00 0. -1.
         25    2    1    2    0    0  0.18249077558E+03 -0.25981744656E+03 -0.47694764913E+03  0.58645967604E+03  0.12509157805E+03 0.  0.
         23    2    1    2    0    0 -0.18249077558E+03  0.25981744656E+03 -0.29422493760E+03  0.44304139950E+03  0.94389507114E+02 0.  0.
          5    1    3    3  502    0  0.11510229126E+03 -0.61121505570E+02 -0.16117321809E+03  0.20731293864E+03  0.41800000000E+01 0.  1.
         -5    1    3    3    0  502  0.67388484324E+02 -0.19869594099E+03 -0.31577443104E+03  0.37914673740E+03  0.41800000000E+01 0.  1.
        -11    1    4    4    0    0 -0.13089124910E+03  0.15098889261E+03 -0.23608989156E+03  0.30930341362E+03  0.00000000000E+00 0. -1.
         11    1    4    4    0    0 -0.51599526485E+02  0.10882855395E+03 -0.58135046047E+02  0.13373798588E+03  0.00000000000E+00 0.  1.
</event>
<event>
 8    1  0.7224924E-009  0.1528896E+03  0.7561462E-02  0.1196967E+00
          2   -1    0    0  501    0  0.00000000000E+00  0.00000000000E+00  0.91632784098E+03  0.91632784098E+03  0.00000000000E+00 0. -1.
         -2   -1    0    0    0  501 -0.00000000000E+00 -0.00000000000E+00 -0.27716018300E+02  0.27716018300E+02  0.00000000000E+00 0.  1.
         25    2    1    2    0    0  0.20817227110E+01  0.11566873025E+03  0.50522003507E+03  0.53317787615E+03  0.12509106702E+03 0.  0.
         23    2    1    2    0    0 -0.20817227110E+01 -0.11566873025E+03  0.38339178761E+03  0.41086598314E+03  0.91858611817E+02 0.  0.
          5    1    3    3  502    0  0.60443341806E+02  0.34237559086E+02  0.18676957387E+03  0.19931370787E+03  0.41800000000E+01 0.  1.
         -5    1    3    3    0  502 -0.58361619095E+02  0.81431171160E+02  0.31845046121E+03  0.33386416828E+03  0.41800000000E+01 0.  1.
        -11    1    4    4    0    0  0.32876438735E+02 -0.77341044486E+02  0.30864471168E+03  0.31988131460E+03  0.00000000000E+00 0. -1.
         11    1    4    4    0    0 -0.34958161446E+02 -0.38327685760E+02  0.74747075934E+02  0.90984668533E+02  0.00000000000E+00 0.  1.
</event>
<event>
 8    1  0.7224924E-009  0.1007664E+03  0.7561462E-02  0.1278693E+00
         -2   -1    0    0    0  501 -0.00000000000E+00  0.00000000000E+00  0.23845508644E+02  0.23845508644E+02  0.00000000000E+00 0.  1.
          2   -1    0    0  501    0  0.00000000000E+00 -0.00000000000E+00 -0.11668167559E+04  0.11668167559E+04  0.00000000000E+00 0. -1.
         25    2    1    2    0    0  0.67743328751E+02 -0.61584689076E+02 -0.90589890864E+03  0.91906514654E+03  0.12508428516E+03 0.  0.
         23    2    1    2    0    0 -0.67743328751E+02  0.61584689076E+02 -0.23707233858E+03  0.27159711796E+03  0.95811628986E+02 0.  0.
          5    1    3    3  502    0  0.42015600340E+00 -0.23893945317E+02 -0.67780146406E+03  0.67823550058E+03  0.41800000000E+01 0.  1.
         -5    1    3    3    0  502  0.67323172748E+02 -0.37690743760E+02 -0.22809744458E+03  0.24082964597E+03  0.41800000000E+01 0.  1.
        -11    1    4    4    0    0 -0.24179368984E+02  0.49027693890E+02 -0.35948775193E+02  0.65426837693E+02  0.00000000000E+00 0.  1.
         11    1    4    4    0    0 -0.43563959767E+02  0.12556995187E+02 -0.20112356338E+03  0.20617028027E+03  0.00000000000E+00 0. -1.
</event>
<event>
 8    1  0.7224924E-009  0.8512895E+02  0.7561462E-02  0.1315096E+00
          2   -1    0    0  501    0  0.00000000000E+00  0.00000000000E+00  0.45215655319E+03  0.45215655319E+03  0.00000000000E+00 0.  1.
         -2   -1    0    0    0  501 -0.00000000000E+00 -0.00000000000E+00 -0.39056377471E+02  0.39056377471E+02  0.00000000000E+00 0. -1.
         25    2    1    2    0    0 -0.52037235602E+02 -0.31435204889E+02  0.31521019345E+03  0.34453260851E+03  0.12509678764E+03 0.  0.
         23    2    1    2    0    0  0.52037235602E+02  0.31435204889E+02  0.97889982269E+02  0.14668032215E+03  0.90755838828E+02 0.  0.
          5    1    3    3  502    0 -0.23634283193E+02  0.84667671091E+01  0.28645473400E+03  0.28758312280E+03  0.41800000000E+01 0.  1.
         -5    1    3    3    0  502 -0.28402952409E+02 -0.39901971998E+02  0.28755459449E+02  0.56949485713E+02  0.41800000000E+01 0.  1.
        -11    1    4    4    0    0 -0.78759144726E+01  0.34764089751E+02  0.48571080656E+01  0.35974483509E+02  0.00000000000E+00 0. -1.
         11    1    4    4    0    0  0.59913150075E+02 -0.33288848615E+01  0.93032874203E+02  0.11070583864E+03  0.00000000000E+00 0.  1.
</event>
<event>
 8    1  0.7224924E-009  0.1114076E+03  0.7561462E-02  0.1257985E+00
          1   -1    0    0  501    0  0.00000000000E+00  0.00000000000E+00  0.39969192184E+02  0.39969192184E+02  0.00000000000E+00 0. -1.
         -1   -1    0    0    0  501 -0.00000000000E+00 -0.00000000000E+00 -0.62242828107E+03  0.62242828107E+03  0.00000000000E+00 0.  1.
         25    2    1    2    0    0 -0.38804627646E+02 -0.96731181604E+02 -0.37040584853E+03  0.40461322352E+03  0.12509455385E+03 0.  0.
         23    2    1    2    0    0  0.38804627646E+02  0.96731181604E+02 -0.21205324037E+03  0.25778424974E+03  0.10306998615E+03 0.  0.
          5    1    3    3  502    0  0.27430671404E+01 -0.58120612936E+02 -0.32933464173E+03  0.33446122153E+03  0.41800000000E+01 0. -1.
         -5    1    3    3    0  502 -0.41547694787E+02 -0.38610568667E+02 -0.41071206795E+02  0.70152001985E+02  0.41800000000E+01 0. -1.
        -11    1    4    4    0    0  0.15587518974E+02  0.72072816455E+02 -0.42976964515E+02  0.85349171632E+02  0.00000000000E+00 0. -1.
         11    1    4    4    0    0  0.23217108672E+02  0.24658365149E+02 -0.16907627585E+03  0.17243507811E+03  0.00000000000E+00 0.  1.
</event>
<event>
 8    1  0.7224924E-009  0.1402544E+03  0.7561462E-02  0.1212987E+00
         -1   -1    0    0    0  501 -0.00000000000E+00  0.00000000000E+00  0.51937204274E+03  0.51937204274E+03  0.00000000000E+00 0.  1.
          1   -1    0    0  501    0  0.00000000000E+00 -0.00000000000E+00 -0.53485240785E+02  0.53485240785E+02  0.00000000000E+00 0. -1.
         25    2    1    2    0    0 -0.34133152683E+02  0.12181884999E+03  0.24567307476E+03  0.30332598378E+03  0.12508592425E+03 0.  0.
         23    2    1    2    0    0  0.34133152683E+02 -0.12181884999E+03  0.22021372719E+03  0.26953129975E+03  0.90267001576E+02 0.  0.
          5    1    3    3  502    0  0.25015763108E+02  0.66825274598E+02  0.39068090512E+02  0.81456699081E+02  0.41800000000E+01 0. -1.
         -5    1    3    3    0  502 -0.59148915790E+02  0.54993575397E+02  0.20660498425E+03  0.22186928469E+03  0.41800000000E+01 0. -1.
        -11    1    4    4    0    0  0.36908546628E+01 -0.50254043423E+02  0.16914764414E+03  0.17649367356E+03  0.00000000000E+00 0.  1.
         11    1    4    4    0    0  0.30442298020E+02 -0.71564806571E+02  0.51066083051E+02  0.93037626187E+02  0.00000000000E+00 0. -1.
</event>
<event>
 8    1  0.7224924E-009  0.1299880E+03  0.7561462E-02  0.1227473E+00
          1   -1    0    0  501    0  0.00000000000E+00  0.00000000000E+00  0.14406801068E+03  0.14406801068E+03  0.00000000000E+00 0. -1.
         -1   -1    0    0    0  501 -0.00000000000E+00 -0.00000000000E+00 -0.19138318596E+03  0.19138318596E+03  0.00000000000E+00 0.  1.
         25    2    1    2    0    0  0.45876068260E+01  0.98007081252E+02 -0.10444774823E+03  0.19022268284E+03  0.12509557484E+03 0.  0.
         23    2    1    2    0    0 -0.45876068260E+01 -0.98007081252E+02  0.57132572950E+02  0.14522851379E+03  0.90558026780E+02 0.  0.
          5    1    3    3  502    0 -0.43349289499E+02  0.50381735402E+02 -0.10157013345E+01  0.66603184694E+02  0.41800000000E+01 0.  1.
         -5    1    3    3    0  502  0.47936896325E+02  0.47625345851E+02 -0.10343204690E+03  0.12361949815E+03  0.41800000000E+01 0.  1.
        -11    1    4    4    0    0 -0.24867256999E+02 -0.10201879041E+03  0.26542936441E+02  0.10830854788E+03  0.00000000000E+00 0.  1.
         11    1    4    4    0    0  0.20279650173E+02  0.40117091607E+01  0.30589636508E+02  0.36919965916E+02  0.00000000000E+00 0. -1.
</event>
<event>
 8    1  0.7224924E-009  0.1583462E+03  0.7561462E-02  0.1190577E+00
          1   -1    0    0  501    0  0.00000000000E+00  0.00000000000E+00  0.56849739525E+03  0.56849739525E+03  0.00000000000E+00 0. -1.
         -1   -1    0    0    0  501 -0.00000000000E+00 -0.00000000000E+00 -0.47385863822E+02  0.47385863822E+02  0.00000000000E+00 0.  1.
         25    2    1    2    0    0  0.11575055566E+03  0.26668919501E+02  0.20788133207E+03  0.27013261994E+03  0.12509021436E+03 0.  0.
         23    2    1    2    0    0 -0.11575055566E+03 -0.26668919501E+02  0.31323019936E+03  0.34575063913E+03  0.85562399838E+02 0.  0.
          5    1    3    3  502    0  0.13663397021E+03 -0.16920769309E+01  0.15810381069E+03  0.20901194295E+03  0.41800000000E+01 0. -1.
         -5    1    3    3    0  502 -0.20883414546E+02  0.28360996432E+02  0.49777521374E+02  0.61120676991E+02  0.41800000000E+01 0. -1.
        -11    1    4    4    0    0 -0.94298473251E+02  0.17041402451E+02  0.18028916441E+03  0.20417344161E+03  0.00000000000E+00 0.  1.
         11    1    4    4    0    0 -0.21452082409E+02 -0.43710321952E+02  0.13294103495E+03  0.14157719752E+03  0.00000000000E+00 0. -1.
</event>
<event>
 8    1  0.7224924E-009  0.1714317E+03  0.7561462E-02  0.1176363E+00
          2   -1    0    0  501    0  0.00000000000E+00  0.00000000000E+00  0.10885935369E+03  0.10885935369E+03  0.00000000000E+00 0. -1.
         -2   -1    0    0    0  501 -0.00000000000E+00 -0.00000000000E+00 -0.27719120099E+03  0.27719120099E+03  0.00000000000E+00 0.  1.
         25    2    1    2    0    0  0.13354264280E+03  0.96266150996E+01 -0.83119817230E+02  0.20120359965E+03  0.12509066844E+03 0.  0.
         23    2    1    2    0    0 -0.13354264280E+03 -0.96266150996E+01 -0.85212030061E+02  0.18484695503E+03  0.94768125188E+02 0.  0.
          5    1    3    3  502    0  0.12667870103E+03 -0.40006853595E+02 -0.58410556589E+02  0.14518025744E+03  0.41800000000E+01 0. -1.
         -5    1    3    3    0  502  0.68639417747E+01  0.49633468695E+02 -0.24709260641E+02  0.56023342214E+02  0.41800000000E+01 0. -1.
        -11    1    4    4    0    0 -0.67598919318E+02 -0.48431468442E+02 -0.65442193130E+02  0.10582013830E+03  0.00000000000E+00 0.  1.
         11    1    4    4    0    0 -0.65943723484E+02  0.38804853343E+02 -0.19769836930E+02  0.79026816728E+02  0.00000000000E+00 0. -1.
</event>
<event>
 8    1  0.7224924E-009  0.1953358E+03  0.7561462E-02  0.1153735E+00
         -2   -1    0    0    0  501 -0.00000000000E+00  0.00000000000E+00  0.10584029871E+03  0.10584029871E+03  0.00000000000E+00 0.  1.
          2   -1    0    0  501    0  0.00000000000E+00 -0.00000000000E+00 -0.43406969027E+03  0.43406969027E+03  0.00000000000E+00 0. -1.
         25    2    1    2    0    0 -0.14746482783E+03 -0.85616914871E+02 -0.25861124858E+03  0.33406966685E+03  0.12508650150E+03 0.  0.
         23    2    1    2    0    0  0.14746482783E+03  0.85616914871E+02 -0.69618142979E+02  0.20584032214E+03  0.91909851636E+02 0.  0.
          5    1    3    3  502    0 -0.16035716533E+03 -0.66768822573E+02 -0.25774121728E+03  0.31083838827E+03  0.41800000000E+01 0. -1.
         -5    1    3    3    0  502  0.12892337506E+02 -0.18848092298E+02 -0.87003130256E+00  0.23231278573E+02  0.41800000000E+01 0. -1.
        -11    1    4    4    0    0  0.33675672968E+02  0.71511491978E+02 -0.29201840910E+02  0.84265603584E+02  0.00000000000E+00 0.  1.
         11    1    4    4    0    0  0.11378915486E+03  0.14105422893E+02 -0.40416302069E+02  0.12157471855E+03  0.00000000000E+00 0. -1.
</event>
<event>
 8    1  0.7224924E-009  0.1372084E+03  0.7561462E-02  0.1217135E+00
         -1   -1    0    0    0  501 -0.00000000000E+00  0.00000000000E+00  0.14912489512E+03  0.14912489512E+03  0.00000000000E+00 0.  1.
          1   -1    0    0  501    0  0.00000000000E+00 -0.00000000000E+00 -0.21240488059E+03  0.21240488059E+03  0.00000000000E+00 0. -1.
         25    2    1    2    0    0 -0.32784705500E+02  0.11032308725E+03 -0.11560152106E+03  0.20556818613E+03  0.12509415247E+03 0.  0.
         23    2    1    2    0    0  0.32784705500E+02 -0.11032308725E+03  0.52321535595E+02  0.15596158958E+03  0.91326085223E+02 0.  0.
          5    1    3    3  502    0 -0.50374924603E+02  0.59746797844E+01 -0.29981935431E+01  0.50988149523E+02  0.41800000000E+01 0. -1.
         -5    1    3    3    0  502  0.17590219103E+02  0.10434840747E+03 -0.11260332752E+03  0.15458003661E+03  0.41800000000E+01 0. -1.
        -11    1    4    4    0    0  0.11022058557E+02 -0.77187550384E+02  0.76740992168E+02  0.10940102188E+03  0.00000000000E+00 0.  1.
         11    1    4    4    0    0  0.21762646943E+02 -0.33135536871E+02 -0.24419456573E+02  0.46560567705E+02  0.00000000000E+00 0. -1.
</event>
<event>
 8    1  0.7224924E-009  0.8509764E+02  0.7561462E-02  0.1315177E+00
         -3   -1    0    0    0  501 -0.00000000000E+00  0.00000000000E+00  0.17481729210E+03  0.17481729210E+03  0.00000000000E+00 0.  1.
          3   -1    0    0  501    0  0.00000000000E+00 -0.00000000000E+00 -0.10820694690E+03  0.10820694690E+03  0.00000000000E+00 0. -1.
         25    2    1    2    0    0  0.38157809634E+02 -0.36073160574E+02  0.10413152655E+03  0.17102298202E+03  0.12509274243E+03 0.  0.
         23    2    1    2    0    0 -0.38157809634E+02  0.36073160574E+02 -0.37521181341E+02  0.11200125698E+03  0.91537703523E+02 0.  0.
          5    1    3    3  502    0 -0.93566444701E+01  0.29374881468E+01  0.10871229402E+03  0.10923374434E+03  0.41800000000E+01 0.  1.
         -5    1    3    3    0  502  0.47514454104E+02 -0.39010648720E+02 -0.45807674680E+01  0.61789237679E+02  0.41800000000E+01 0.  1.
        -11    1    4    4    0    0  0.24478549633E+02  0.23693845553E+02 -0.33884950622E+02  0.48049844827E+02  0.00000000000E+00 0. -1.
         11    1    4    4    0    0 -0.62636359267E+02  0.12379315021E+02 -0.36362307188E+01  0.63951412154E+02  0.00000000000E+00 0.  1.
</event>
<event>
 8    1  0.7224924E-009  0.2708824E+03  0.7561462E-02  0.1100776E+00
          2   -1    0    0  501    0  0.00000000000E+00  0.00000000000E+00  0.10473335338E+04  0.10473335338E+04  0.00000000000E+00 0. -1.
         -2   -1    0    0    0  501 -0.00000000000E+00 -0.00000000000E+00 -0.81519700911E+02  0.81519700911E+02  0.00000000000E+00 0.  1.
         25    2    1    2    0    0 -0.26035452524E+03 -0.15086454468E+02  0.35050372500E+03  0.45443514990E+03  0.12508542805E+03 0.  0.
         23    2    1    2    0    0  0.26035452524E+03  0.15086454468E+02  0.61531010786E+03  0.67441808477E+03  0.90670526137E+02 0.  0.
          5    1    3    3  502    0 -0.11158441847E+03 -0.38661499725E+02  0.73674409747E+02  0.13925223538E+03  0.41800000000E+01 0.  1.
         -5    1    3    3    0  502 -0.14877010678E+03  0.23575045257E+02  0.27682931525E+03  0.31518291453E+03  0.41800000000E+01 0.  1.
        -11    1    4    4    0    0  0.62513012700E+02  0.38925381264E+02  0.12377372739E+03  0.14402429537E+03  0.00000000000E+00 0. -1.
         11    1    4    4    0    0  0.19784151254E+03 -0.23838926796E+02  0.49153638047E+03  0.53039378940E+03  0.00000000000E+00 0.  1.
</event>
<event>
 8    1  0.7224924E-009  0.1739404E+03  0.7561462E-02  0.1173800E+00
         -2   -1    0    0    0  501 -0.00000000000E+00  0.00000000000E+00  0.12844237688E+04  0.12844237688E+04  0.00000000000E+00 0.  1.
          2   -1    0    0  501    0  0.00000000000E+00 -0.00000000000E+00 -0.26855415433E+02  0.26855415433E+02  0.00000000000E+00 0. -1.
         25    2    1    2    0    0  0.72382594882E+02  0.12860219109E+03  0.76388136770E+03  0.78799532326E+03  0.12507646441E+03 0.  0.
         23    2    1    2    0    0 -0.72382594882E+02 -0.12860219109E+03  0.49368698565E+03  0.52328386096E+03  0.91221684648E+02 0.  0.
          5    1    3    3  502    0 -0.23714159475E+02  0.80632672767E+01  0.36617392170E+02  0.44561008158E+02  0.41800000000E+01 0.  1.
         -5    1    3    3    0  502  0.96096754356E+02  0.12053892382E+03  0.72726397553E+03  0.74343431510E+03  0.41800000000E+01 0.  1.
        -11    1    4    4    0    0 -0.54512890432E+01 -0.91664337381E+02  0.33149853439E+03  0.34398160649E+03  0.00000000000E+00 0.  1.
         11    1    4    4    0    0 -0.66931305838E+02 -0.36937853714E+02  0.16218845126E+03  0.17930225448E+03  0.00000000000E+00 0. -1.
</event>
<event>
 8    1  0.7224924E-009  0.1072585E+03  0.7561462E-02  0.1265733E+00
          1   -1    0    0  501    0  0.00000000000E+00  0.00000000000E+00  0.99677151692E+02  0.99677151692E+02  0.00000000000E+00 0. -1.
         -1   -1    0    0    0  501 -0.00000000000E+00 -0.00000000000E+00 -0.15136039347E+03  0.15136039347E+03  0.00000000000E+00 0.  1.
         25    2    1    2    0    0  0.32309718387E+02 -0.41682285084E+02 -0.84276291253E+01  0.13601197949E+03  0.12508758067E+03 0.  0.
         23    2    1    2    0    0 -0.32309718387E+02  0.41682285084E+02 -0.43255612654E+02  0.11502556568E+03  0.92620202661E+02 0.  0.
          5    1    3    3  502    0 -0.31685283797E+02 -0.34105880734E+02 -0.42345049543E+02  0.63069358097E+02  0.41800000000E+01 0. -1.
         -5    1    3    3    0  502  0.63995002184E+02 -0.75764043496E+01  0.33917420418E+02  0.72942621389E+02  0.41800000000E+01 0. -1.
        -11    1    4    4    0    0 -0.25469010049E+02 -0.25282065344E+02 -0.29189288851E+02  0.46258706041E+02  0.00000000000E+00 0.  1.
         11    1    4    4    0    0 -0.68407083378E+01  0.66964350428E+02 -0.14066323803E+02  0.68766859635E+02  0.00000000000E+00 0. -1.
</event>
<event>
 8    1  0.7224924E-009  0.2618835E+03  0.7561462E-02  0.1106017E+00
          1   -1    0    0  501    0  0.00000000000E+00  0.00000000000E+00  0.13320849117E+04  0.13320849117E+04  0.00000000000E+00 0. -1.
         -1   -1    0    0    0  501 -0.00000000000E+00 -0.00000000000E+00 -0.74839987612E+02  0.74839987612E+02  0.00000000000E+00 0.  1.
         25    2    1    2    0    0 -0.13155798963E+03  0.21310835604E+03  0.99179602887E+03  0.10305489636E+04  0.12509647221E+03 0.  0.
         23    2    1    2    0    0  0.13155798963E+03 -0.21310835604E+03  0.26544889520E+03  0.37637593574E+03  0.92049187875E+02 0.  0.
          5    1    3    3  502    0  0.32596333262E+01  0.24528364030E+02  0.29764672733E+03  0.29870271600E+03  0.41800000000E+01 0.  1.
         -5    1    3    3    0  502 -0.13481762296E+03  0.18857999201E+03  0.69414930154E+03  0.73184624757E+03  0.41800000000E+01 0.  1.
        -11    1    4    4    0    0  0.12654444537E+03 -0.12266986514E+03  0.17419049743E+03  0.24779774386E+03  0.00000000000E+00 0.  1.
         11    1    4    4    0    0  0.50135442590E+01 -0.90438490899E+02  0.91258397774E+02  0.12857819188E+03  0.00000000000E+00 0. -1.
</event>
<event>
 8    1  0.7224924E-009  0.2233705E+03  0.7561462E-02  0.1131395E+00
          2   -1    0    0  501    0  0.00000000000E+00  0.00000000000E+00  0.83116109787E+03  0.83116109787E+03  0.00000000000E+00 0. -1.
         -2   -1    0    0    0  501 -0.00000000000E+00 -0.00000000000E+00 -0.69681900820E+02  0.69681900820E+02  0.00000000000E+00 0.  1.
         25    2    1    2    0    0 -0.73178627649E+02 -0.19351988974E+03  0.27945794415E+03  0.36952619721E+03  0.12509120118E+03 0.  0.
         23    2    1    2    0    0  0.73178627649E+02  0.19351988974E+03  0.48202125290E+03  0.53131680147E+03  0.84545821961E+02 0.  0.
          5    1    3    3  502    0 -0.63509983153E+02 -0.20257144860E+03  0.28427896479E+03  0.35482490325E+03  0.41800000000E+01 0. -1.
         -5    1    3    3    0  502 -0.96686444960E+01  0.90515588617E+01 -0.48210206382E+01  0.14701293964E+02  0.41800000000E+01 0. -1.
        -11    1    4    4    0    0  0.10316393686E+01  0.11059846011E+03  0.28501080230E+03  0.30571921936E+03  0.00000000000E+00 0. -1.
         11    1    4    4    0    0  0.72146988281E+02  0.82921429629E+02  0.19701045060E+03  0.22559758212E+03  0.00000000000E+00 0.  1.
</event>
<event>
 8    1  0.7224924E-009  0.8056854E+02  0.7561462E-02  0.1327446E+00
         -2   -1    0    0    0  501 -0.00000000000E+00  0.00000000000E+00  0.34478106946E+02  0.34478106946E+02  0.00000000000E+00 0.  1.
          2   -1    0    0  501    0  0.00000000000E+00 -0.00000000000E+00 -0.46697973288E+03  0.46697973288E+03  0.00000000000E+00 0. -1.
         25    2    1    2    0    0 -0.36164130835E+02  0.35539904971E+02 -0.15915565297E+03  0.20868283516E+03  0.12508826729E+03 0.  0.
         23    2    1    2    0    0  0.36164130835E+02 -0.35539904971E+02 -0.27334597297E+03  0.29277500467E+03  0.91805518448E+02 0.  0.
          5    1    3    3  502    0 -0.39430935163E+02  0.33056501900E+02 -0.22550208140E+01  0.51672898937E+02  0.41800000000E+01 0. -1.
         -5    1    3    3    0  502  0.32668043284E+01  0.24834030709E+01 -0.15690063216E+03  0.15700993622E+03  0.41800000000E+01 0. -1.
        -11    1    4    4    0    0  0.16570211527E+02  0.30532602576E+02 -0.11371077989E+03  0.11889892007E+03  0.00000000000E+00 0. -1.
         11    1    4    4    0    0  0.19593919307E+02 -0.66072507548E+02 -0.15963519307E+03  0.17387608460E+03  0.00000000000E+00 0.  1.
</event>
<event>
 8    1  0.7224924E-009  0.1014117E+03  0.7561462E-02  0.1277355E+00
         -1   -1    0    0    0  501 -0.00000000000E+00  0.00000000000E+00  0.48785107593E+03  0.48785107593E+03  0.00000000000E+00 0.  1.
          1   -1    0    0  501    0  0.00000000000E+00 -0.00000000000E+00 -0.24899750005E+02  0.24899750005E+02  0.00000000000E+00 0. -1.
         25    2    1    2    0    0 -0.67092429571E+01  0.18088356959E+02  0.23508648288E+03  0.26698825031E+03  0.12507944984E+03 0.  0.
         23    2    1    2    0    0  0.67092429571E+01 -0.18088356959E+02  0.22786484304E+03  0.24576257562E+03  0.90025853421E+02 0.  0.
          5    1    3    3  502    0 -0.53505902135E+02 -0.21868213354E+02  0.15782246137E+03  0.16812644655E+03  0.41800000000E+01 0. -1.
         -5    1    3    3    0  502  0.46796659178E+02  0.39956570313E+02  0.77264021512E+02  0.98861803755E+02  0.41800000000E+01 0. -1.
        -11    1    4    4    0    0  0.32722810529E+02  0.19040571524E+02  0.15803911446E+03  0.16251057625E+03  0.00000000000E+00 0.  1.
         11    1    4    4    0    0 -0.26013567572E+02 -0.37128928483E+02  0.69825728578E+02  0.83251999372E+02  0.00000000000E+00 0. -1.
</event>
<event>
 8    1  0.7224924E-009  0.1161923E+03  0.7561462E-02  0.1249514E+00
         -2   -1    0    0    0  501 -0.00000000000E+00  0.00000000000E+00  0.39625451900E+03  0.39625451900E+03  0.00000000000E+00 0.  1.
          2   -1    0    0  501    0  0.00000000000E+00 -0.00000000000E+00 -0.64303171289E+02  0.64303171289E+02  0.00000000000E+00 0. -1.
         25    2    1    2    0    0 -0.62208313932E+02  0.28778042615E+02  0.41699377427E+02  0.14860828824E+03  0.12509010831E+03 0.  0.
         23    2    1    2    0    0  0.62208313932E+02 -0.28778042615E+02  0.29025197029E+03  0.31194940205E+03  0.91477719286E+02 0.  0.
          5    1    3    3  502    0 -0.92460846110E+02  0.45657897164E+02  0.14192038006E+02  0.10417551526E+03  0.41800000000E+01 0.  1.
         -5    1    3    3    0  502  0.30252532178E+02 -0.16879854549E+02  0.27507339421E+02  0.44432772981E+02  0.41800000000E+01 0.  1.
        -11    1    4    4    0    0  0.22403776823E+02  0.20892745444E+02  0.26125460093E+02  0.40261342417E+02  0.00000000000E+00 0. -1.
         11    1    4    4    0    0  0.39804537109E+02 -0.49670788059E+02  0.26412651019E+03  0.27168805963E+03  0.00000000000E+00 0.  1.
</event>
<event>
 8    1  0.7224924E-009  0.4623119E+03  0.7561462E-02  0.1024113E+00
          3   -1    0    0  501    0  0.00000000000E+00  0.00000000000E+00  0.17048435811E+03  0.17048435811E+03  0.00000000000E+00 0. -1.
         -3   -1    0    0    0  501 -0.00000000000E+00 -0.00000000000E+00 -0.13812078481E+04  0.13812078481E+04  0.00000000000E+00 0.  1.
         25    2    1    2    0    0  0.44475027364E+03  0.11394850715E+03 -0.42847174086E+03  0.64033093887E+03  0.12509440583E+03 0.  0.
         23    2    1    2    0    0 -0.44475027364E+03 -0.11394850715E+03 -0.78225174916E+03  0.91136126737E+03  0.88738336832E+02 0.  0.
          5    1    3    3  502    0  0.34120877650E+03  0.53212306762E+02 -0.37201944206E+03  0.50761295927E+03  0.41800000000E+01 0. -1.
         -5    1    3    3    0  502  0.10354149713E+03  0.60736200393E+02 -0.56452298805E+02  0.13271797959E+03  0.41800000000E+01 0. -1.
        -11    1    4    4    0    0 -0.93911465035E+02 -0.21627534272E+02 -0.24323753509E+03  0.26163258967E+03  0.00000000000E+00 0.  1.
         11    1    4    4    0    0 -0.35083880860E+03 -0.92320972883E+02 -0.53901421407E+03  0.64972867770E+03  0.00000000000E+00 0. -1.
</event>
<event>
 8    1  0.7224924E-009  0.1638901E+03  0.7561462E-02  0.1184374E+00
         -2   -1    0    0    0  501 -0.00000000000E+00  0.00000000000E+00  0.23578698259E+02  0.23578698259E+02  0.00000000000E+00 0.  1.
          2   -1    0    0  501    0  0.00000000000E+00 -0.00000000000E+00 -0.16458911212E+04  0.16458911212E+04  0.00000000000E+00 0. -1.
         25    2    1    2    0    0 -0.13553570898E+03  0.78609142933E+02 -0.10769403489E+04  0.10954436736E+04  0.12508797310E+03 0.  0.
         23    2    1    2    0    0  0.13553570898E+03 -0.78609142933E+02 -0.54537207397E+03  0.57402614587E+03  0.86752471495E+02 0.  0.
          5    1    3    3  502    0 -0.77910043296E+02  0.79105585232E+02 -0.94365360224E+03  0.95017222749E+03  0.41800000000E+01 0.  1.
         -5    1    3    3    0  502 -0.57625665681E+02 -0.49644229834E+00 -0.13328674670E+03  0.14527144608E+03  0.41800000000E+01 0.  1.
        -11    1    4    4    0    0  0.10282350168E+03 -0.71982733784E+02 -0.51070707172E+03  0.52590483889E+03  0.00000000000E+00 0. -1.
         11    1    4    4    0    0  0.32712207294E+02 -0.66264091498E+01 -0.34665002252E+02  0.48121306979E+02  0.00000000000E+00 0.  1.
</event>
<event>
 8    1  0.7224924E-009  0.1034647E+03  0.7561462E-02  0.1273174E+00
         -1   -1    0    0    0  501 -0.00000000000E+00  0.00000000000E+00  0.44110405748E+03  0.44110405748E+03  0.00000000000E+00 0.  1.
          1   -1    0    0  501    0  0.00000000000E+00 -0.00000000000E+00 -0.34768288151E+02  0.34768288151E+02  0.00000000000E+00 0. -1.
         25    2    1    2    0    0  0.35513049531E+02 -0.47521160162E+02  0.24141865188E+03  0.27830017868E+03  0.12509431092E+03 0.  0.
         23    2    1    2    0    0 -0.35513049531E+02  0.47521160162E+02  0.16491711744E+03  0.19757216695E+03  0.91201250968E+02 0.  0.
          5    1    3    3  502    0 -0.49819277511E+01 -0.65438645019E+02  0.21866493895E+03  0.22833936102E+03  0.41800000000E+01 0. -1.
         -5    1    3    3    0  502  0.40494977282E+02  0.17917484856E+02  0.22753712936E+02  0.49960817657E+02  0.41800000000E+01 0. -1.
        -11    1    4    4    0    0 -0.51148482443E+02  0.50085373271E+01  0.41344709257E+02  0.65959363899E+02  0.00000000000E+00 0. -1.
         11    1    4    4    0    0  0.15635432912E+02  0.42512622835E+02  0.12357240818E+03  0.13161280305E+03  0.00000000000E+00 0.  1.
</event>
<event>
 8    1  0.7224924E-009  0.4302718E+03  0.7561462E-02  0.1033774E+00
         -1   -1    0    0    0  501 -0.00000000000E+00  0.00000000000E+00  0.22818349011E+03  0.22818349011E+03  0.00000000000E+00 0.  1.
          1   -1    0    0  501    0  0.00000000000E+00 -0.00000000000E+00 -0.89562567906E+03  0.89562567906E+03  0.00000000000E+00 0. -1.
         25    2    1    2    0    0  0.34863450868E+03 -0.23272175145E+03 -0.49764909005E+03  0.66257652565E+03  0.12509037243E+03 0.  0.
         23    2    1    2    0    0 -0.34863450868E+03  0.23272175145E+03 -0.16979309890E+03  0.46123264352E+03  0.90556174666E+02 0.  0.
          5    1    3    3  502    0  0.14460178146E+03 -0.16951548524E+03 -0.23225390475E+03  0.32187656580E+03  0.41800000000E+01 0.  1.
         -5    1    3    3    0  502  0.20403272721E+03 -0.63206266218E+02 -0.26539518530E+03  0.34069995985E+03  0.41800000000E+01 0.  1.
        -11    1    4    4    0    0 -0.23544030354E+03  0.11980949913E+03 -0.13865105837E+03  0.29834639030E+03  0.00000000000E+00 0. -1.
         11    1    4    4    0    0 -0.11319420513E+03  0.11291225232E+03 -0.31142040532E+02  0.16288625322E+03  0.00000000000E+00 0.  1.
</event>
<event>
 8    1  0.7224924E-009  0.8165726E+02  0.7561462E-02  0.1324413E+00
         -2   -1    0    0    0  501 -0.00000000000E+00  0.00000000000E+00  0.22483339141E+02  0.22483339141E+02  0.00000000000E+00 0.  1.
          2   -1    0    0  501    0  0.00000000000E+00 -0.00000000000E+00 -0.67760397423E+03  0.67760397423E+03  0.00000000000E+00 0. -1.
         25    2    1    2    0    0 -0.14065353724E+02  0.90649180966E+01 -0.20595647828E+03  0.24155265353E+03  0.12509838754E+03 0.  0.
         23    2    1    2    0    0  0.14065353724E+02 -0.90649180966E+01 -0.44916415681E+03  0.45853465984E+03  0.90695025218E+02 0.  0.
          5    1    3    3  502    0  0.19554664322E+02 -0.18690176158E+02  0.34749605061E+01  0.27590855951E+02  0.41800000000E+01 0.  1.
         -5    1    3    3    0  502 -0.33620018046E+02  0.27755094254E+02 -0.20943143879E+03  0.21396179758E+03  0.41800000000E+01 0.  1.
        -11    1    4    4    0    0 -0.20422793862E+02 -0.40579339995E+02 -0.23091926089E+03  0.23534544481E+03  0.00000000000E+00 0.  1.
         11    1    4    4    0    0  0.34488147586E+02  0.31514421898E+02 -0.21824489592E+03  0.22318921503E+03  0.00000000000E+00 0. -1.
</event>
<event>
 8    1  0.7224924E-009  0.1208075E+03  0.7561462E-02  0.1241771E+00
          2   -1    0    0  501    0  0.00000000000E+00  0.00000000000E+00  0.69523254201E+02  0.69523254201E+02  0.00000000000E+00 0. -1.
         -2   -1    0    0    0  501 -0.00000000000E+00 -0.00000000000E+00 -0.22374474307E+03  0.22374474307E+03  0.00000000000E+00 0.  1.
         25    2    1    2    0    0 -0.56501555583E+02  0.15570287942E+02 -0.11110367328E+03  0.17727642379E+03  0.12509214430E+03 0.  0.
         23    2    1    2    0    0  0.56501555583E+02 -0.15570287942E+02 -0.43117815594E+02  0.11599157349E+03  0.90332936674E+02 0.  0.
          5    1    3    3  502    0 -0.23905464278E+02  0.69933720444E+02 -0.51585427431E+02  0.90225967442E+02  0.41800000000E+01 0.  1.
         -5    1    3    3    0  502 -0.32596091305E+02 -0.54363432502E+02 -0.59518245848E+02  0.87050456349E+02  0.41800000000E+01 0.  1.
        -11    1    4    4    0    0 -0.10504512489E+02 -0.33164393932E+02 -0.28999601766E+02  0.45290161295E+02  0.00000000000E+00 0.  1.
         11    1    4    4    0    0  0.67006068072E+02  0.17594105990E+02 -0.14118213828E+02  0.70701412191E+02  0.00000000000E+00 0. -1.
</event>
<event>
 8    1  0.7224924E-009  0.1180325E+03  0.7561462E-02  0.1246379E+00
          2   -1    0    0  501    0  0.00000000000E+00  0.00000000000E+00  0.42045713789E+02  0.42045713789E+02  0.00000000000E+00 0.  1.
         -2   -1    0    0    0  501 -0.00000000000E+00 -0.00000000000E+00 -0.57541212560E+03  0.57541212560E+03  0.00000000000E+00 0. -1.
         25    2    1    2    0    0 -0.99821995230E+02 -0.48029974952E+02 -0.27396232693E+03  0.32089436770E+03  0.12508608803E+03 0.  0.
         23    2    1    2    0    0  0.99821995230E+02  0.48029974952E+02 -0.25940408488E+03  0.29656347169E+03  0.91586594332E+02 0.  0.
          5    1    3    3  502    0 -0.33447934931E+02 -0.44650579750E+02 -0.21726295533E+02  0.60016188989E+02  0.41800000000E+01 0.  1.
         -5    1    3    3    0  502 -0.66374060299E+02 -0.33793952019E+01 -0.25223603140E+03  0.26087817872E+03  0.41800000000E+01 0.  1.
        -11    1    4    4    0    0  0.95330632613E+02  0.38160583672E+02 -0.26511629223E+03  0.28430759411E+03  0.00000000000E+00 0. -1.
         11    1    4    4    0    0  0.44913626168E+01  0.98693912802E+01  0.57122073525E+01  0.12255877579E+02  0.00000000000E+00 0.  1.
</event>
<event>
 8    1  0.7224924E-009  0.1107436E+03  0.7561462E-02  0.1259199E+00
          1   -1    0    0  501    0  0.00000000000E+00  0.00000000000E+00  0.50993485565E+02  0.50993485565E+02  0.00000000000E+00 0. -1.
         -1   -1    0    0    0  501 -0.00000000000E+00 -0.00000000000E+00 -0.26446946497E+03  0.26446946497E+03  0.00000000000E+00 0.  1.
         25    2    1    2    0    0 -0.27706511631E+02  0.19055131896E+02 -0.86792186273E+02  0.15590532532E+03  0.12507133175E+03 0.  0.
         23    2    1    2    0    0  0.27706511631E+02 -0.19055131896E+02 -0.12668379313E+03  0.15955762521E+03  0.90989578986E+02 0.  0.
          5    1    3    3  502    0  0.45133527819E+02 -0.98159467257E+01 -0.53131913085E+02  0.70525603376E+02  0.41800000000E+01 0.  1.
         -5    1    3    3    0  502 -0.72840039450E+02  0.28871078622E+02 -0.33660273188E+02  0.85379721942E+02  0.41800000000E+01 0.  1.
        -11    1    4    4    0    0  0.50730780483E+02  0.17311249095E+02 -0.77029941115E+02  0.93845102493E+02  0.00000000000E+00 0.  1.
         11    1    4    4    0    0 -0.23024268853E+02 -0.36366380991E+02 -0.49653852014E+02  0.65712522721E+02  0.00000000000E+00 0. -1.
</event>
<event>
 8    1  0.7224924E-009  0.1185718E+03  0.7561462E-02  0.1245472E+00
         -2   -1    0    0    0  501 -0.00000000000E+00  0.00000000000E+00  0.68178862020E+02  0.68178862020E+02  0.00000000000E+00 0.  1.
          2   -1    0    0  501    0  0.00000000000E+00 -0.00000000000E+00 -0.25171856724E+03  0.25171856724E+03  0.00000000000E+00 0. -1.
         25    2    1    2    0    0  0.59605045540E+02  0.38220448862E+02 -0.79190159447E+02  0.16411001821E+03  0.12508977800E+03 0.  0.
         23    2    1    2    0    0 -0.59605045540E+02 -0.38220448862E+02 -0.10434954577E+03  0.15578741105E+03  0.91473086606E+02 0.  0.
          5    1    3    3  502    0 -0.51337002203E+01  0.69452310391E+02 -0.25443867475E+02  0.74261976063E+02  0.41800000000E+01 0.  1.
         -5    1    3    3    0  502  0.64738745761E+02 -0.31231861530E+02 -0.53746291972E+02  0.89848042149E+02  0.41800000000E+01 0.  1.
        -11    1    4    4    0    0 -0.44037296578E+02  0.96121527463E+01 -0.62000627172E+01  0.45498546658E+02  0.00000000000E+00 0.  1.
         11    1    4    4    0    0 -0.15567748962E+02 -0.47832601608E+02 -0.98149483057E+02  0.11028886439E+03  0.00000000000E+00 0. -1.
</event>
<event>
 8    1  0.7224924E-009  0.2220139E+03  0.7561462E-02  0.1132390E+00
          2   -1    0    0  501    0  0.00000000000E+00  0.00000000000E+00  0.14329168806E+04  0.14329168806E+04  0.00000000000E+00 0. -1.
         -2   -1    0    0    0  501 -0.00000000000E+00 -0.00000000000E+00 -0.35928552589E+02  0.35928552589E+02  0.00000000000E+00 0.  1.
         25    2    1    2    0    0  0.95240026287E+02 -0.17406593920E+03  0.76005230596E+03  0.79542328576E+03  0.12509629068E+03 0.  0.
         23    2    1    2    0    0 -0.95240026287E+02  0.17406593920E+03  0.63693602203E+03  0.67342214741E+03  0.91870989225E+02 0.  0.
          5    1    3    3  502    0 -0.29367403429E+02 -0.52658307429E+02  0.18600422258E+03  0.19557705628E+03  0.41800000000E+01 0.  1.
         -5    1    3    3    0  502  0.12460742972E+03 -0.12140763177E+03  0.57404808338E+03  0.59984622948E+03  0.41800000000E+01 0.  1.
        -11    1    4    4    0    0 -0.24902618041E+02  0.11515441627E+03  0.25946964338E+03  0.28496521859E+03  0.00000000000E+00 0.  1.
         11    1    4    4    0    0 -0.70337408245E+02  0.58911522931E+02  0.37746637865E+03  0.38845692882E+03  0.00000000000E+00 0. -1.
</event>
<event>
 8    1  0.7224924E-009  0.9136806E+02  0.7561462E-02  0.1299572E+00
         -1   -1    0    0    0  501 -0.00000000000E+00  0.00000000000E+00  0.60245328207E+03  0.60245328207E+03  0.00000000000E+00 0.  1.
          1   -1    0    0  501    0  0.00000000000E+00 -0.00000000000E+00 -0.24661852974E+02  0.24661852974E+02  0.00000000000E+00 0. -1.
         25    2    1    2    0    0 -0.90128138686E+01 -0.17990348473E+02  0.46116224728E+03  0.47825162198E+03  0.12509641145E+03 0.  0.
         23    2    1    2    0    0  0.90128138686E+01  0.17990348473E+02  0.11662918181E+03  0.14886351306E+03  0.90294496060E+02 0.  0.
          5    1    3    3  502    0  0.46186319986E+02 -0.20098565378E+02  0.35426932417E+03  0.35785661225E+03  0.41800000000E+01 0.  1.
         -5    1    3    3    0  502 -0.55199133854E+02  0.21082169041E+01  0.10689292312E+03  0.12039500973E+03  0.41800000000E+01 0.  1.
        -11    1    4    4    0    0 -0.73079988034E+01 -0.27506178409E+02  0.73835735241E+01  0.29402616468E+02  0.00000000000E+00 0. -1.
         11    1    4    4    0    0  0.16320812672E+02  0.45496526882E+02  0.10924560829E+03  0.11946089659E+03  0.00000000000E+00 0.  1.
</event>
<event>
 8    1  0.7224924E-009  0.8851194E+02  0.7561462E-02  0.1306496E+00
          2   -1    0    0  501    0  0.00000000000E+00  0.00000000000E+00  0.12310327151E+03  0.12310327151E+03  0.00000000000E+00 0. -1.
         -2   -1    0    0    0  501 -0.00000000000E+00 -0.00000000000E+00 -0.15427749910E+03  0.15427749910E+03  0.00000000000E+00 0.  1.
         25    2    1    2    0    0 -0.76322114532E+02  0.35586803595E+02 -0.14237826251E+02  0.15146035560E+03  0.12508412315E+03 0.  0.
         23    2    1    2    0    0  0.76322114532E+02 -0.35586803595E+02 -0.16936401338E+02  0.12592041501E+03  0.92074010823E+02 0.  0.
          5    1    3    3  502    0 -0.29277205864E+02  0.34670200231E+02 -0.66753149360E+02  0.80824704866E+02  0.41800000000E+01 0. -1.
         -5    1    3    3    0  502 -0.47044908668E+02  0.91660336404E+00  0.52515323108E+02  0.70635650733E+02  0.41800000000E+01 0. -1.
        -11    1    4    4    0    0  0.54194006502E+02 -0.25653156278E+02 -0.54618653959E+02  0.81106547997E+02  0.00000000000E+00 0.  1.
         11    1    4    4    0    0  0.22128108030E+02 -0.99336473174E+01  0.37682252621E+02  0.44813867012E+02  0.00000000000E+00 0. -1.
</event>
<event>
 8    1  0.7224924E-009  0.1134137E+03  0.7561462E-02  0.1254376E+00
          2   -1    0    0  501    0  0.00000000000E+00  0.00000000000E+00  0.24237757997E+02  0.24237757997E+02  0.00000000000E+00 0. -1.
         -2   -1    0    0    0  501 -0.00000000000E+00 -0.00000000000E+00 -0.54375524383E+03  0.54375524383E+03  0.00000000000E+00 0.  1.
         25    2    1    2    0    0  0.16814971172E+02  0.30189579936E+02 -0.33589134790E+03  0.36008975044E+03  0.12508987484E+03 0.  0.
         23    2    1    2    0    0 -0.16814971172E+02 -0.30189579936E+02 -0.18362613793E+03  0.20790325138E+03  0.91164957147E+02 0.  0.
          5    1    3    3  502    0  0.14054515044E+02 -0.48406044819E+02 -0.14609966050E+03  0.15460678435E+03  0.41800000000E+01 0. -1.
         -5    1    3    3    0  502  0.27604561279E+01  0.78595624756E+02 -0.18979168740E+03  0.20548296610E+03  0.41800000000E+01 0. -1.
        -11    1    4    4    0    0  0.34217459140E+02  0.62548847481E+01 -0.65824236359E+02  0.74449903864E+02  0.00000000000E+00 0.  1.
         11    1    4    4    0    0 -0.51032430312E+02 -0.36444464685E+02 -0.11780190157E+03  0.13345334752E+03  0.00000000000E+00 0. -1.
</event>
<event>
 8    1  0.7224924E-009  0.1558423E+03  0.7561462E-02  0.1193472E+00
          1   -1    0    0  501    0  0.00000000000E+00  0.00000000000E+00  0.29629666156E+03  0.29629666156E+03  0.00000000000E+00 0. -1.
         -1   -1    0    0    0  501 -0.00000000000E+00 -0.00000000000E+00 -0.14168514130E+03  0.14168514130E+03  0.00000000000E+00 0.  1.
         25    2    1    2    0    0  0.27727576835E+02  0.11822601613E+03  0.21279837583E+03  0.27509521214E+03  0.12509203643E+03 0.  0.
         23    2    1    2    0    0 -0.27727576835E+02 -0.11822601613E+03 -0.58186855562E+02  0.16288659072E+03  0.91652178751E+02 0.  0.
          5    1    3    3  502    0 -0.35063473876E+02  0.88168133262E+02  0.16554195180E+03  0.19085250097E+03  0.41800000000E+01 0.  1.
         -5    1    3    3    0  502  0.62791050711E+02  0.30057882871E+02  0.47256424031E+02  0.84242711164E+02  0.41800000000E+01 0.  1.
        -11    1    4    4    0    0  0.19623496931E+02 -0.89409871194E+02 -0.15311917971E+02  0.92809813763E+02  0.00000000000E+00 0. -1.
         11    1    4    4    0    0 -0.47351073766E+02 -0.28816144939E+02 -0.42874937591E+02  0.70076776962E+02  0.00000000000E+00 0.  1.
</event>
<event>
 8    1  0.7224924E-009  0.1115383E+03  0.7561462E-02  0.1257747E+00
         -2   -1    0    0    0  501 -0.00000000000E+00  0.00000000000E+00  0.61625432577E+02  0.61625432577E+02  0.00000000000E+00 0.  1.
          2   -1    0    0  501    0  0.00000000000E+00 -0.00000000000E+00 -0.22934278584E+03  0.22934278584E+03  0.00000000000E+00 0. -1.
         25    2    1    2    0    0  0.25754447261E+02 -0.40951784294E+02 -0.83452222522E+02  0.15796192184E+03  0.12508938850E+03 0.  0.
         23    2    1    2    0    0 -0.25754447261E+02  0.40951784294E+02 -0.84265130741E+02  0.13300629658E+03  0.90827982920E+02 0.  0.
          5    1    3    3  502    0 -0.37767153026E+02 -0.48721612653E+02 -0.13852566960E+02  0.63320765935E+02  0.41800000000E+01 0. -1.
         -5    1    3    3    0  502  0.63521600287E+02  0.77698283581E+01 -0.69599655562E+02  0.94641155900E+02  0.41800000000E+01 0. -1.
        -11    1    4    4    0    0  0.26111605351E+02  0.36805063294E+02 -0.17594938353E+02  0.48435632274E+02  0.00000000000E+00 0.  1.
         11    1    4    4    0    0 -0.51866052612E+02  0.41467210002E+01 -0.66670192388E+02  0.84570664309E+02  0.00000000000E+00 0. -1.
</event>
<event>
 8    1  0.7224924E-009  0.1323244E+03  0.7561462E-02  0.1224047E+00
          1   -1    0    0  501    0  0.00000000000E+00  0.00000000000E+00  0.99292562291E+02  0.99292562291E+02  0.00000000000E+00 0. -1.
         -1   -1    0    0    0  501 -0.00000000000E+00 -0.00000000000E+00 -0.27702315267E+03  0.27702315267E+03  0.00000000000E+00 0.  1.
         25    2    1    2    0    0 -0.84583735656E+02 -0.92463707629E+02 -0.98712345308E+02  0.20272473544E+03  0.12509694512E+03 0.  0.
         23    2    1    2    0    0  0.84583735656E+02  0.92463707629E+02 -0.79018245066E+02  0.17359097951E+03  0.90476513799E+02 0.  0.
          5    1    3    3  502    0  0.29735182884E+01 -0.11113556140E+02 -0.80894600824E+02  0.81815412873E+02  0.41800000000E+01 0. -1.
         -5    1    3    3    0  502 -0.87557253945E+02 -0.81350151489E+02 -0.17817744484E+02  0.12090932257E+03  0.41800000000E+01 0. -1.
        -11    1    4    4    0    0  0.71856779183E+01  0.36771172942E+02  0.14366125250E+02  0.40126533384E+02  0.00000000000E+00 0. -1.
         11    1    4    4    0    0  0.77398057738E+02  0.55692534687E+02 -0.93384370317E+02  0.13346444613E+03  0.00000000000E+00 0.  1.
</event>
<event>
 8    1  0.7224924E-009  0.1073192E+03  0.7561462E-02  0.1265616E+00
         -2   -1    0    0    0  501 -0.00000000000E+00  0.00000000000E+00  0.17526256946E+02  0.17526256946E+02  0.00000000000E+00 0.  1.
          2   -1    0    0  501    0  0.00000000000E+00 -0.00000000000E+00 -0.96881392464E+03  0.96881392464E+03  0.00000000000E+00 0. -1.
         25    2    1    2    0    0  0.59236997226E+02 -0.13974743895E+02 -0.69357450143E+03  0.70738746086E+03  0.12508843048E+03 0.  0.
         23    2    1    2    0    0 -0.59236997226E+02  0.13974743895E+02 -0.25771316626E+03  0.27895272073E+03  0.87716754548E+02 0.  0.
          5    1    3    3  502    0 -0.12658839179E+02 -0.31384769279E+02 -0.56305311427E+02  0.65825606316E+02  0.41800000000E+01 0. -1.
         -5    1    3    3    0  502  0.71895836404E+02  0.17410025385E+02 -0.63726919000E+03  0.64156185454E+03  0.41800000000E+01 0. -1.
        -11    1    4    4    0    0  0.21370412447E+02 -0.81299096526E+01 -0.46969401481E+02  0.52239014487E+02  0.00000000000E+00 0. -1.
         11    1    4    4    0    0 -0.80607409672E+02  0.22104653547E+02 -0.21074376478E+03  0.22671370624E+03  0.00000000000E+00 0.  1.
</event>
<event>
 8    1  0.7224924E-009  0.7738706E+02  0.7561462E-02  0.1336634E+00
         -1   -1    0    0    0  501 -0.00000000000E+00  0.00000000000E+00  0.80592544195E+02  0.80592544195E+02  0.00000000000E+00 0.  1.
          1   -1    0    0  501    0  0.00000000000E+00 -0.00000000000E+00 -0.15772987660E+03  0.15772987660E+03  0.00000000000E+00 0. -1.
         25    2    1    2    0    0 -0.40332222365E+00 -0.23862995857E+02 -0.21660043685E+02  0.12917336457E+03  0.12508795059E+03 0.  0.
         23    2    1    2    0    0  0.40332222365E+00  0.23862995857E+02 -0.55477288725E+02  0.10914905623E+03  0.90918544155E+02 0.  0.
          5    1    3    3  502    0 -0.18262606158E+02 -0.35052826104E+02 -0.67621970659E+02  0.78437406366E+02  0.41800000000E+01 0. -1.
         -5    1    3    3    0  502  0.17859283934E+02  0.11189830247E+02  0.45961926975E+02  0.50735958204E+02  0.41800000000E+01 0. -1.
        -11    1    4    4    0    0  0.35497215348E+02 -0.17268446776E+02 -0.18149592982E+02  0.43447201025E+02  0.00000000000E+00 0. -1.
         11    1    4    4    0    0 -0.35093893125E+02  0.41131442633E+02 -0.37327695743E+02  0.65701855203E+02  0.00000000000E+00 0.  1.
</event>
<event>
 8    1  0.7224924E-009  0.1284976E+03  0.7561462E-02  0.1229702E+00
         -1   -1    0    0    0  501 -0.00000000000E+00  0.00000000000E+00  0.15061374335E+04  0.15061374335E+04  0.00000000000E+00 0.  1.
          1   -1    0    0  501    0  0.00000000000E+00 -0.00000000000E+00 -0.11604003766E+02  0.11604003766E+02  0.00000000000E+00 0. -1.
         25    2    1    2    0    0 -0.34322302357E+02  0.65511122478E+02  0.95197396120E+03  0.96300142383E+03  0.12509033490E+03 0.  0.
         23    2    1    2    0    0  0.34322302357E+02 -0.65511122478E+02  0.54255946857E+03  0.55474001347E+03  0.88859315807E+02 0.  0.
          5    1    3    3  502    0 -0.73724268661E+02  0.69994779055E+02  0.77113412819E+03  0.77781736478E+03  0.41800000000E+01 0.  1.
         -5    1    3    3    0  502  0.39401966303E+02 -0.44836565761E+01  0.18083983301E+03  0.18518405905E+03  0.41800000000E+01 0.  1.
        -11    1    4    4    0    0  0.51271554671E+02 -0.38384147634E+01  0.22430463945E+03  0.23012187429E+03  0.00000000000E+00 0. -1.
         11    1    4    4    0    0 -0.16949252314E+02 -0.61672707715E+02  0.31825482912E+03  0.32461813918E+03  0.00000000000E+00 0.  1.
</event>
<event>
 8    1  0.7224924E-009  0.1220906E+03  0.7561462E-02  0.1239687E+00
          1   -1    0    0  501    0  0.00000000000E+00  0.00000000000E+00  0.93711090481E+03  0.93711090481E+03  0.00000000000E+00 0. -1.
         -1   -1    0    0    0  501 -0.00000000000E+00 -0.00000000000E+00 -0.23489306316E+02  0.23489306316E+02  0.00000000000E+00 0.  1.
         25    2    1    2    0    0 -0.28950161617E+01  0.92901200538E+02  0.60230109517E+03  0.62213739856E+03  0.12509723927E+03 0.  0.
         23    2    1    2    0    0  0.28950161617E+01 -0.92901200538E+02  0.31132050332E+03  0.33846281256E+03  0.94855708925E+02 0.  0.
          5    1    3    3  502    0  0.20369791981E+02  0.11112596142E+03  0.55353477156E+03  0.56496205488E+03  0.41800000000E+01 0. -1.
         -5    1    3    3    0  502 -0.23264808143E+02 -0.18224760886E+02  0.48766323603E+02  0.57175343681E+02  0.41800000000E+01 0. -1.
        -11    1    4    4    0    0 -0.18081855673E+02 -0.55821929656E+02  0.61369719769E+02  0.84907501669E+02  0.00000000000E+00 0.  1.
         11    1    4    4    0    0  0.20976871835E+02 -0.37079270882E+02  0.24995078355E+03  0.25355531089E+03  0.00000000000E+00 0. -1.
</event>
<event>
 8    1  0.7224924E-009  0.1563424E+03  0.7561462E-02  0.1192889E+00
         -1   -1    0    0    0  501 -0.00000000000E+00  0.00000000000E+00  0.36107004838E+02  0.36107004838E+02  0.00000000000E+00 0.  1.
          1   -1    0    0  501    0  0.00000000000E+00 -0.00000000000E+00 -0.96874432038E+03  0.96874432038E+03  0.00000000000E+00 0. -1.
         25    2    1    2    0    0 -0.94918407936E+02  0.11539497332E+03 -0.55927548807E+03  0.59225202090E+03  0.12509148922E+03 0.  0.
         23    2    1    2    0    0  0.94918407936E+02 -0.11539497332E+03 -0.37336182747E+03  0.41259930431E+03  0.92269321405E+02 0.  0.
          5    1    3    3  502    0 -0.39595285628E+02  0.17805801640E+02 -0.34518840634E+02  0.55622441287E+02  0.41800000000E+01 0.  1.
         -5    1    3    3    0  502 -0.55323122309E+02  0.97589171684E+02 -0.52475664743E+03  0.53662957962E+03  0.41800000000E+01 0.  1.
        -11    1    4    4    0    0  0.22777448201E+02 -0.64829040795E+02 -0.75982053194E+02  0.10244456591E+03  0.00000000000E+00 0.  1.
         11    1    4    4    0    0  0.72140959736E+02 -0.50565932530E+02 -0.29737977428E+03  0.31015473840E+03  0.00000000000E+00 0. -1.
</event>
<event>
 8    1  0.7224924E-009  0.1136575E+03  0.7561462E-02  0.1253943E+00
         -3   -1    0    0    0  501 -0.00000000000E+00  0.00000000000E+00  0.24016540663E+03  0.24016540663E+03  0.00000000000E+00 0.  1.
          3   -1    0    0  501    0  0.00000000000E+00 -0.00000000000E+00 -0.65306439588E+02  0.65306439588E+02  0.00000000000E+00 0. -1.
         25    2    1    2    0    0  0.52228505643E+02 -0.36587395168E+02  0.12403871127E+03  0.18735671752E+03  0.12510189215E+03 0.  0.
         23    2    1    2    0    0 -0.52228505643E+02  0.36587395168E+02  0.50820255769E+02  0.11811512869E+03  0.85451921821E+02 0.  0.
          5    1    3    3  502    0  0.75656178456E+02 -0.55461904310E+02  0.47961743269E+02  0.10544041628E+03  0.41800000000E+01 0.  1.
         -5    1    3    3    0  502 -0.23427672813E+02  0.18874509142E+02  0.76076968002E+02  0.81916301242E+02  0.41800000000E+01 0.  1.
        -11    1    4    4    0    0 -0.73279823473E+02  0.19242949623E+02  0.50097495372E+02  0.90829415285E+02  0.00000000000E+00 0.  1.
         11    1    4    4    0    0  0.21051317830E+02  0.17344445545E+02  0.72276039703E+00  0.27285713409E+02  0.00000000000E+00 0. -1.
</event>
<event>
 8    1  0.7224924E-009  0.9788539E+02  0.7561462E-02  0.1284807E+00
         -2   -1    0    0    0  501 -0.00000000000E+00  0.00000000000E+00  0.31700178772E+03  0.31700178772E+03  0.00000000000E+00 0.  1.
          2   -1    0    0  501    0  0.00000000000E+00 -0.00000000000E+00 -0.59945592733E+02  0.59945592733E+02  0.00000000000E+00 0. -1.
         25    2    1    2    0    0 -0.66729694108E+00  0.82617488113E+02  0.11758265689E+03  0.19052321184E+03  0.12508924183E+03 0.  0.
         23    2    1    2    0    0  0.66729694108E+00 -0.82617488113E+02  0.13947353810E+03  0.18642416861E+03  0.92059807650E+02 0.  0.
          5    1    3    3  502    0 -0.79211428976E+01 -0.15330626900E+01  0.10456747190E+03  0.10496153279E+03  0.41800000000E+01 0. -1.
         -5    1    3    3    0  502  0.72538459565E+01  0.84150550803E+02  0.13015184985E+02  0.85561679050E+02  0.41800000000E+01 0. -1.
        -11    1    4    4    0    0 -0.28779409779E+02 -0.53254180157E+02  0.13053749180E+03  0.14388988462E+03  0.00000000000E+00 0.  1.
         11    1    4    4    0    0  0.29446706720E+02 -0.29363307956E+02  0.89360462986E+01  0.42534283986E+02  0.00000000000E+00 0. -1.
</event>
<event>
 8    1  0.7224924E-009  0.7320194E+02  0.7561462E-02  0.1349531E+00
         -2   -1    0    0    0  501 -0.00000000000E+00  0.00000000000E+00  0.65146192109E+02  0.65146192109E+02  0.00000000000E+00 0.  1.
          2   -1    0    0  501    0  0.00000000000E+00 -0.00000000000E+00 -0.33245270436E+03  0.33245270436E+03  0.00000000000E+00 0. -1.
         25    2    1    2    0    0 -0.22994821252E+02 -0.37383247080E+02 -0.26905416676E+03  0.29994126897E+03  0.12509336999E+03 0.  0.
         23    2    1    2    0    0  0.22994821252E+02  0.37383247080E+02  0.17476545088E+01  0.97657627499E+02  0.87222066850E+02 0.  0.
          5    1    3    3  502    0  0.11037077278E+01  0.24454926127E+02 -0.22059399229E+01  0.24931910347E+02  0.41800000000E+01 0.  1.
         -5    1    3    3    0  502 -0.24098528980E+02 -0.61838173207E+02 -0.26684822684E+03  0.27500935863E+03  0.41800000000E+01 0.  1.
        -11    1    4    4    0    0  0.16225850345E+02 -0.84460699578E+00 -0.38469185168E+02  0.41759666999E+02  0.00000000000E+00 0. -1.
         11    1    4    4    0    0  0.67689709071E+01  0.38227854076E+02  0.40216839677E+02  0.55897960499E+02  0.00000000000E+00 0.  1.
</event>
<event>
 8    1  0.7224924E-009  0.2019557E+03  0.7561462E-02  0.1148099E+00
         -2   -1    0    0    0  501 -0.00000000000E+00  0.00000000000E+00  0.16775698627E+03  0.16775698627E+03  0.00000000000E+00 0.  1.
          2   -1    0    0  501    0  0.00000000000E+00 -0.00000000000E+00 -0.24689054091E+03  0.24689054091E+03  0.00000000000E+00 0. -1.
         25    2    1    2    0    0 -0.99209044502E+02  0.14044372198E+03 -0.41163746105E+02  0.21658418845E+03  0.12508950051E+03 0.  0.
         23    2    1    2    0    0  0.99209044502E+02 -0.14044372198E+03 -0.37969808541E+02  0.19806333873E+03  0.90667007416E+02 0.  0.
          5    1    3    3  502    0 -0.87458764810E+02  0.18515771272E+02 -0.95117141129E+01  0.89998969068E+02  0.41800000000E+01 0.  1.
         -5    1    3    3    0  502 -0.11750279692E+02  0.12192795071E+03 -0.31652031992E+02  0.12658521938E+03  0.41800000000E+01 0.  1.
        -11    1    4    4    0    0  0.52195070741E+02 -0.13473674713E+03 -0.14532858433E+02  0.14522231375E+03  0.00000000000E+00 0.  1.
         11    1    4    4    0    0  0.47013973761E+02 -0.57069748520E+01 -0.23436950108E+02  0.52841024982E+02  0.00000000000E+00 0. -1.
</event>
<event>
 8    1  0.7224924E-009  0.1220001E+03  0.7561462E-02  0.1239834E+00
          1   -1    0    0  501    0  0.00000000000E+00  0.00000000000E+00  0.57001932837E+02  0.57001932837E+02  0.00000000000E+00 0.  1.
         -1   -1    0    0    0  501 -0.00000000000E+00 -0.00000000000E+00 -0.48184235288E+03  0.48184235288E+03  0.00000000000E+00 0. -1.
         25    2    1    2    0    0 -0.69493361337E+02  0.10478734738E+02 -0.39466941881E+03  0.41994235979E+03  0.12509398167E+03 0.  0.
         23    2    1    2    0    0  0.69493361337E+02 -0.10478734738E+02 -0.30171001240E+02  0.11890192594E+03  0.91039812850E+02 0.  0.
          5    1    3    3  502    0  0.29402198926E+02 -0.56984876131E+00 -0.31217994246E+02  0.43091177682E+02  0.41800000000E+01 0.  1.
         -5    1    3    3    0  502 -0.98895560263E+02  0.11048583499E+02 -0.36345142456E+03  0.37685118210E+03  0.41800000000E+01 0.  1.
        -11    1    4    4    0    0 -0.12813445502E+02 -0.27780077092E+02 -0.42118397037E+01  0.30881331942E+02  0.00000000000E+00 0.  1.
         11    1    4    4    0    0  0.82306806838E+02  0.17301342354E+02 -0.25959161536E+02  0.88020593993E+02  0.00000000000E+00 0. -1.
</event>
<event>
 8    1  0.7224924E-009  0.9913809E+02  0.7561462E-02  0.1282119E+00
          2   -1    0    0  501    0  0.00000000000E+00  0.00000000000E+00  0.28639499189E+02  0.28639499189E+02  0.00000000000E+00 0. -1.
         -2   -1    0    0    0  501 -0.00000000000E+00 -0.00000000000E+00 -0.49690122215E+03  0.49690122215E+03  0.00000000000E+00 0.  1.
         25    2    1    2    0    0  0.34820140031E+02 -0.35226992214E+02 -0.21819672455E+03  0.25633944644E+03  0.12508684209E+03 0.  0.
         23    2    1    2    0    0 -0.34820140031E+02  0.35226992214E+02 -0.25006499841E+03  0.26920127490E+03  0.86506877453E+02 0.  0.
          5    1    3    3  502    0 -0.17570143022E+02 -0.59093184108E+02 -0.53201399536E+02  0.81538798411E+02  0.41800000000E+01 0.  1.
         -5    1    3    3    0  502  0.52390283054E+02  0.23866191893E+02 -0.16499532501E+03  0.17480064803E+03  0.41800000000E+01 0.  1.
        -11    1    4    4    0    0 -0.31761487908E+02  0.52424575145E+02 -0.24256848346E+03  0.25019312013E+03  0.00000000000E+00 0.  1.
         11    1    4    4    0    0 -0.30586521234E+01 -0.17197582931E+02 -0.74965149556E+01  0.19008154775E+02  0.00000000000E+00 0. -1.
</event>
<event>
 8    1  0.7224924E-009  0.1221430E+03  0.7561462E-02  0.1239603E+00
          2   -1    0    0  501    0  0.00000000000E+00  0.00000000000E+00  0.68589104103E+03  0.68589104103E+03  0.00000000000E+00 0. -1.
         -2   -1    0    0    0  501 -0.00000000000E+00 -0.00000000000E+00 -0.29003542828E+02  0.29003542828E+02  0.00000000000E+00 0.  1.
         25    2    1    2    0    0 -0.51093487842E+02 -0.63111761920E+02  0.45134911250E+03  0.47534774539E+03  0.12508324709E+03 0.  0.
         23    2    1    2    0    0  0.51093487842E+02  0.63111761920E+02  0.20553838570E+03  0.23954683847E+03  0.92428463311E+02 0.  0.
          5    1    3    3  502    0  0.18419288042E+02 -0.60899835758E+02  0.11162146337E+03  0.12854914878E+03  0.41800000000E+01 0. -1.
         -5    1    3    3    0  502 -0.69512775883E+02 -0.22119261621E+01  0.33972764912E+03  0.34679859660E+03  0.41800000000E+01 0. -1.
        -11    1    4    4    0    0  0.68634940746E+02  0.33359566509E+02  0.18308241164E+03  0.19835015810E+03  0.00000000000E+00 0. -1.
         11    1    4    4    0    0 -0.17541452904E+02  0.29752195411E+02  0.22455974065E+02  0.41196680363E+02  0.00000000000E+00 0.  1.
</event>
<event>
 8    1  0.7224924E-009  0.9938321E+02  0.7561462E-02  0.1281598E+00
          1   -1    0    0  501    0  0.00000000000E+00  0.00000000000E+00  0.76192676692E+03  0.76192676692E+03  0.00000000000E+00 0. -1.
         -1   -1    0    0    0  501 -0.00000000000E+00 -0.00000000000E+00 -0.26723062527E+02  0.26723062527E+02  0.00000000000E+00 0.  1.
         25    2    1    2    0    0  0.53038140276E+02 -0.43595926374E+02  0.57157612311E+03  0.58911874515E+03  0.12509189524E+03 0.  0.
         23    2    1    2    0    0 -0.53038140276E+02  0.43595926374E+02  0.16362758128E+03  0.19953108430E+03  0.91241542756E+02 0.  0.
          5    1    3    3  502    0 -0.23628088429E+02  0.12061510428E+02  0.34427657493E+02  0.43663515629E+02  0.41800000000E+01 0. -1.
         -5    1    3    3    0  502  0.76666228705E+02 -0.55657436802E+02  0.53714846562E+03  0.54545522952E+03  0.41800000000E+01 0. -1.
        -11    1    4    4    0    0 -0.31632938848E+02  0.45690347084E+02  0.16854370284E+03  0.17746895617E+03  0.00000000000E+00 0. -1.
         11    1    4    4    0    0 -0.21405201428E+02 -0.20944207104E+01 -0.49161215601E+01  0.22062128126E+02  0.00000000000E+00 0.  1.
</event>
<event>
 8    1  0.7224924E-009  0.1127683E+03  0.7561462E-02  0.1255528E+00
         -1   -1    0    0    0  501 -0.00000000000E+00  0.00000000000E+00  0.30779369562E+03  0.30779369562E+03  0.00000000000E+00 0.  1.
          1   -1    0    0  501    0  0.00000000000E+00 -0.00000000000E+00 -0.49964450467E+02  0.49964450467E+02  0.00000000000E+00 0. -1.
         25    2    1    2    0    0 -0.55769224371E+02 -0.18560128489E+02  0.16357864974E+03  0.21415227246E+03  0.12509411015E+03 0.  0.
         23    2    1    2    0    0  0.55769224371E+02  0.18560128489E+02  0.94250595420E+02  0.14360587363E+03  0.91020807772E+02 0.  0.
          5    1    3    3  502    0 -0.58227977644E+02  0.35285772708E+02  0.13885099448E+03  0.15470182353E+03  0.41800000000E+01 0.  1.
         -5    1    3    3    0  502  0.24587532732E+01 -0.53845901197E+02  0.24727655258E+02  0.59450448929E+02  0.41800000000E+01 0.  1.
        -11    1    4    4    0    0  0.50703512878E+02 -0.26982416526E+02  0.73561507322E+02  0.93328411426E+02  0.00000000000E+00 0.  1.
         11    1    4    4    0    0  0.50657114932E+01  0.45542545015E+02  0.20689088098E+02  0.50277462205E+02  0.00000000000E+00 0. -1.
</event>
<event>
 8    1  0.7224924E-009  0.9541727E+02  0.7561462E-02  0.1290239E+00
         -4   -1    0    0    0  501 -0.00000000000E+00  0.00000000000E+00  0.14582085089E+03  0.14582085089E+03  0.00000000000E+00 0.  1.
          4   -1    0    0  501    0  0.00000000000E+00 -0.00000000000E+00 -0.10396683945E+03  0.10396683945E+03  0.00000000000E+00 0. -1.
         25    2    1    2    0    0  0.22876486908E+02  0.46594382826E+02  0.49349613163E+02  0.14414323251E+03  0.12509003555E+03 0.  0.
         23    2    1    2    0    0 -0.22876486908E+02 -0.46594382826E+02 -0.74956017231E+01  0.10564445783E+03  0.91707127650E+02 0.  0.
          5    1    3    3  502    0 -0.25499239944E+02  0.30210829548E+02 -0.29917488452E+02  0.49753733277E+02  0.41800000000E+01 0.  1.
         -5    1    3    3    0  502  0.48375726852E+02  0.16383553278E+02  0.79267101615E+02  0.94389499230E+02  0.41800000000E+01 0.  1.
        -11    1    4    4    0    0 -0.17090303751E+02  0.23746245248E+02  0.13196766459E+02  0.32095440340E+02  0.00000000000E+00 0.  1.
         11    1    4    4    0    0 -0.57861831566E+01 -0.70340628074E+02 -0.20692368182E+02  0.73549017494E+02  0.00000000000E+00 0. -1.
</event>
<event>
 8    1  0.7224924E-009  0.1371555E+03  0.7561462E-02  0.1217208E+00
         -1   -1    0    0    0  501 -0.00000000000E+00  0.00000000000E+00  0.25366262707E+03  0.25366262707E+03  0.00000000000E+00 0.  1.
          1   -1    0    0  501    0  0.00000000000E+00 -0.00000000000E+00 -0.10802244590E+03  0.10802244590E+03  0.00000000000E+00 0. -1.
         25    2    1    2    0    0  0.11818731869E+03 -0.31519575535E+02  0.10166414267E+03  0.20234718988E+03  0.12508821449E+03 0.  0.
         23    2    1    2    0    0 -0.11818731869E+03  0.31519575535E+02  0.43976038499E+02  0.15933788308E+03  0.92157165117E+02 0.  0.
          5    1    3    3  502    0 -0.14045559924E+02  0.71535335063E+00  0.57276545701E+02  0.59125836751E+02  0.41800000000E+01 0.  1.
         -5    1    3    3    0  502  0.13223287861E+03 -0.32234928885E+02  0.44387596970E+02  0.14322135313E+03  0.41800000000E+01 0.  1.
        -11    1    4    4    0    0 -0.10262273457E+03  0.21184629936E+02 -0.70256464411E+01  0.10502177823E+03  0.00000000000E+00 0. -1.
         11    1    4    4    0    0 -0.15564584125E+02  0.10334945598E+02  0.51001684940E+02  0.54316104851E+02  0.00000000000E+00 0.  1.
</event>
<event>
 8    1  0.7224924E-009  0.1746840E+03  0.7561462E-02  0.1173049E+00
         -2   -1    0    0    0  501 -0.00000000000E+00  0.00000000000E+00  0.40648515177E+02  0.40648515177E+02  0.00000000000E+00 0.  1.
          2   -1    0    0  501    0  0.00000000000E+00 -0.00000000000E+00 -0.99155076245E+03  0.99155076245E+03  0.00000000000E+00 0. -1.
         25    2    1    2    0    0  0.12854926238E+03  0.10027227206E+03 -0.61187933644E+03  0.64546299976E+03  0.12508685101E+03 0.  0.
         23    2    1    2    0    0 -0.12854926238E+03 -0.10027227206E+03 -0.33902291083E+03  0.38673627787E+03  0.89716069601E+02 0.  0.
          5    1    3    3  502    0  0.12242128684E+03  0.11605268341E+03 -0.41759684600E+03  0.45039959479E+03  0.41800000000E+01 0. -1.
         -5    1    3    3    0  502  0.61279755421E+01 -0.15780411353E+02 -0.19428249044E+03  0.19506340497E+03  0.41800000000E+01 0. -1.
        -11    1    4    4    0    0 -0.10841976774E+03 -0.87799760857E+02 -0.33477005940E+03  0.36267704189E+03  0.00000000000E+00 0. -1.
         11    1    4    4    0    0 -0.20129494646E+02 -0.12472511204E+02 -0.42528514314E+01  0.24059235976E+02  0.00000000000E+00 0.  1.
</event>
<event>
 8    1  0.7224924E-009  0.3251060E+03  0.7561462E-02  0.1073323E+00
          2   -1    0    0  501    0  0.00000000000E+00  0.00000000000E+00  0.44700046866E+03  0.44700046866E+03  0.00000000000E+00 0. -1.
         -2   -1    0    0    0  501 -0.00000000000E+00 -0.00000000000E+00 -0.27611138546E+03  0.27611138546E+03  0.00000000000E+00 0.  1.
         25    2    1    2    0    0  0.30455472585E+03  0.58048018502E+02 -0.40683973868E+02  0.33678782969E+03  0.12509077906E+03 0.  0.
         23    2    1    2    0    0 -0.30455472585E+03 -0.58048018502E+02  0.21157305707E+03  0.38632402444E+03  0.91432706899E+02 0.  0.
          5    1    3    3  502    0  0.15767999510E+02 -0.25490943891E+02 -0.18149115053E+02  0.35288536471E+02  0.41800000000E+01 0. -1.
         -5    1    3    3    0  502  0.28878672634E+03  0.83538962393E+02 -0.22534858815E+02  0.30149929322E+03  0.41800000000E+01 0. -1.
        -11    1    4    4    0    0 -0.11508914324E+03 -0.60055982342E+02  0.56926418347E+02  0.14174924695E+03  0.00000000000E+00 0.  1.
         11    1    4    4    0    0 -0.18946558262E+03  0.20079638405E+01  0.15464663872E+03  0.24457477749E+03  0.00000000000E+00 0. -1.
</event>
<event>
 8    1  0.7224924E-009  0.1050202E+03  0.7561462E-02  0.1270080E+00
          2   -1    0    0  501    0  0.00000000000E+00  0.00000000000E+00  0.37600135204E+03  0.37600135204E+03  0.00000000000E+00 0. -1.
         -2   -1    0    0    0  501 -0.00000000000E+00 -0.00000000000E+00 -0.38032379142E+02  0.38032379142E+02  0.00000000000E+00 0.  1.
         25    2    1    2    0    0  0.30101921048E+02 -0.28946323625E+02  0.14841070079E+03  0.19853719510E+03  0.12508903400E+03 0.  0.
         23    2    1    2    0    0 -0.30101921048E+02  0.28946323625E+02  0.18955827211E+03  0.21549653608E+03  0.93607709280E+02 0.  0.
          5    1    3    3  502    0 -0.31047397966E+02 -0.34957842192E+02  0.12347095723E+03  0.13209292687E+03  0.41800000000E+01 0. -1.
         -5    1    3    3    0  502  0.61149319014E+02  0.60115185676E+01  0.24939743562E+02  0.66444268227E+02  0.41800000000E+01 0. -1.
        -11    1    4    4    0    0 -0.18072247352E+02  0.62924504971E+02  0.13601770307E+03  0.15095335372E+03  0.00000000000E+00 0. -1.
         11    1    4    4    0    0 -0.12029673696E+02 -0.33978181346E+02  0.53540569038E+02  0.64543182365E+02  0.00000000000E+00 0.  1.
</event>
<event>
 8    1  0.7224924E-009  0.1689384E+03  0.7561462E-02  0.1178959E+00
         -1   -1    0    0    0  501 -0.00000000000E+00  0.00000000000E+00  0.23039740336E+03  0.23039740336E+03  0.00000000000E+00 0.  1.
          1   -1    0    0  501    0  0.00000000000E+00 -0.00000000000E+00 -0.15126359862E+03  0.15126359862E+03  0.00000000000E+00 0. -1.
         25    2    1    2    0    0  0.11169410656E+03  0.10113495761E+03  0.29623179988E+02  0.19806310543E+03  0.12509039871E+03 0.  0.
         23    2    1    2    0    0 -0.11169410656E+03 -0.10113495761E+03  0.49510624761E+02  0.18359789655E+03  0.92482606809E+02 0.  0.
          5    1    3    3  502    0  0.13275033745E+03  0.72515803643E+02  0.46776451960E+02  0.15838782380E+03  0.41800000000E+01 0. -1.
         -5    1    3    3    0  502 -0.21056230888E+02  0.28619153967E+02 -0.17153271973E+02  0.39675281629E+02  0.41800000000E+01 0. -1.
        -11    1    4    4    0    0 -0.83328816381E+02 -0.72164363588E+02 -0.10977171029E+02  0.11077854167E+03  0.00000000000E+00 0. -1.
         11    1    4    4    0    0 -0.28365290179E+02 -0.28970594022E+02  0.60487795791E+02  0.72819354876E+02  0.00000000000E+00 0.  1.
</event>
<event>
 8    1  0.7224924E-009  0.9006028E+02  0.7561462E-02  0.1302706E+00
         -2   -1    0    0    0  501 -0.00000000000E+00  0.00000000000E+00  0.10383972331E+03  0.10383972331E+03  0.00000000000E+00 0.  1.
          2   -1    0    0  501    0  0.00000000000E+00 -0.00000000000E+00 -0.14563089447E+03  0.14563089447E+03  0.00000000000E+00 0. -1.
         25    2    1    2    0    0  0.50992747529E+02 -0.86010490324E+01 -0.48831164977E+02  0.14389510788E+03  0.12508829303E+03 0.  0.
         23    2    1    2    0    0 -0.50992747529E+02  0.86010490324E+01  0.70399938257E+01  0.10557550990E+03  0.91773571535E+02 0.  0.
          5    1    3    3  502    0 -0.16617598035E+02 -0.30723583318E+02  0.23540729575E+02  0.42328731203E+02  0.41800000000E+01 0.  1.
         -5    1    3    3    0  502  0.67610345564E+02  0.22122534285E+02 -0.72371894551E+02  0.10156637668E+03  0.41800000000E+01 0.  1.
        -11    1    4    4    0    0 -0.60864578794E+02  0.13965270835E+02  0.37684812092E+02  0.72936073404E+02  0.00000000000E+00 0.  1.
         11    1    4    4    0    0  0.98718312647E+01 -0.53642218027E+01 -0.30644818267E+02  0.32639436494E+02  0.00000000000E+00 0. -1.
</event>
<event>
 8    1  0.7224924E-009  0.1177446E+03  0.7561462E-02  0.1246865E+00
          2   -1    0    0  501    0  0.00000000000E+00  0.00000000000E+00  0.17250724651E+04  0.17250724651E+04  0.00000000000E+00 0. -1.
         -2   -1    0    0    0  501 -0.00000000000E+00 -0.00000000000E+00 -0.10318910334E+02  0.10318910334E+02  0.00000000000E+00 0.  1.
         25    2    1    2    0    0 -0.14175179346E+02  0.61373790245E+02  0.11774325049E+04  0.11857325569E+04  0.12508683029E+03 0.  0.
         23    2    1    2    0    0  0.14175179346E+02 -0.61373790245E+02  0.53732104986E+03  0.54965881851E+03  0.97176274361E+02 0.  0.
          5    1    3    3  502    0  0.38608833493E+01 -0.31601744422E+02  0.12571129672E+03  0.12974736681E+03  0.41800000000E+01 0.  1.
         -5    1    3    3    0  502 -0.18036062696E+02  0.92975534668E+02  0.10517212081E+04  0.10559851901E+04  0.41800000000E+01 0.  1.
        -11    1    4    4    0    0  0.13962130523E+02  0.21537240281E+02  0.61069664808E+02  0.66244228182E+02  0.00000000000E+00 0.  1.
         11    1    4    4    0    0  0.21304882357E+00 -0.82911030527E+02  0.47625138506E+03  0.48341459033E+03  0.00000000000E+00 0. -1.
</event>
<event>
 8    1  0.7224924E-009  0.1790248E+03  0.7561462E-02  0.1168750E+00
         -3   -1    0    0    0  501 -0.00000000000E+00  0.00000000000E+00  0.65258176698E+02  0.65258176698E+02  0.00000000000E+00 0.  1.
          3   -1    0    0  501    0  0.00000000000E+00 -0.00000000000E+00 -0.53692369515E+03  0.53692369515E+03  0.00000000000E+00 0. -1.
         25    2    1    2    0    0 -0.52073606874E+02 -0.13917194698E+03 -0.20104500996E+03  0.27954916465E+03  0.12509255799E+03 0.  0.
         23    2    1    2    0    0  0.52073606874E+02  0.13917194698E+03 -0.27062050848E+03  0.32263270719E+03  0.93679841903E+02 0.  0.
          5    1    3    3  502    0  0.35695852201E+02 -0.56713133094E+02 -0.10857232081E+03  0.12765576593E+03  0.41800000000E+01 0. -1.
         -5    1    3    3    0  502 -0.87769459074E+02 -0.82458813889E+02 -0.92472689152E+02  0.15189339872E+03  0.41800000000E+01 0. -1.
        -11    1    4    4    0    0  0.88553340373E+01  0.12442825613E+03 -0.15943985020E+03  0.20243980265E+03  0.00000000000E+00 0.  1.
         11    1    4    4    0    0  0.43218272837E+02  0.14743690856E+02 -0.11118065828E+03  0.12019290455E+03  0.00000000000E+00 0. -1.
</event>
<event>
 8    1  0.7224924E-009  0.7345195E+02  0.7561462E-02  0.1348733E+00
          2   -1    0    0  501    0  0.00000000000E+00  0.00000000000E+00  0.35331068769E+03  0.35331068769E+03  0.00000000000E+00 0.  1.
         -2   -1    0    0    0  501 -0.00000000000E+00 -0.00000000000E+00 -0.36997795399E+02  0.36997795399E+02  0.00000000000E+00 0. -1.
         25    2    1    2    0    0  0.50485288294E+01  0.50722009211E+01  0.23714816987E+03  0.26821200374E+03  0.12508880690E+03 0.  0.
         23    2    1    2    0    0 -0.50485288294E+01 -0.50722009211E+01  0.79164722424E+02  0.12209647935E+03  0.92678380049E+02 0.  0.
          5    1    3    3  502    0 -0.42805198637E+02  0.92210703339E+01  0.20638216331E+03  0.21101749430E+03  0.41800000000E+01 0. -1.
         -5    1    3    3    0  502  0.47853727466E+02 -0.41488694128E+01  0.30766006555E+02  0.57194509432E+02  0.41800000000E+01 0. -1.
        -11    1    4    4    0    0 -0.26726045252E+02  0.97428148565E+01 -0.92127582877E+01  0.29901151339E+02  0.00000000000E+00 0. -1.
         11    1    4    4    0    0  0.21677516423E+02 -0.14815015778E+02  0.88377480711E+02  0.92195328014E+02  0.00000000000E+00 0.  1.
</event>
<event>
 8    1  0.7224924E-009  0.1001121E+03  0.7561462E-02  0.1280060E+00
         -1   -1    0    0    0  501 -0.00000000000E+00  0.00000000000E+00  0.45297517672E+03  0.45297517672E+03  0.00000000000E+00 0.  1.
          1   -1    0    0  501    0  0.00000000000E+00 -0.00000000000E+00 -0.34996836749E+02  0.34996836749E+02  0.00000000000E+00 0. -1.
         25    2    1    2    0    0  0.17990856904E+02  0.47294291062E+02  0.30656765194E+03  0.33494849287E+03  0.12508535790E+03 0.  0.
         23    2    1    2    0    0 -0.17990856904E+02 -0.47294291062E+02  0.11141068803E+03  0.15302352059E+03  0.91888168711E+02 0.  0.
          5    1    3    3  502    0 -0.32238032259E+02 -0.27396244325E+02  0.12904199954E+03  0.13586447281E+03  0.41800000000E+01 0. -1.
         -5    1    3    3    0  502  0.50228889163E+02  0.74690535387E+02  0.17752565240E+03  0.19908402006E+03  0.41800000000E+01 0. -1.
        -11    1    4    4    0    0 -0.19980860606E+02  0.28682981927E+00  0.10268089218E+03  0.10460727833E+03  0.00000000000E+00 0.  1.
         11    1    4    4    0    0  0.19900037022E+01 -0.47581120882E+02  0.87297958494E+01  0.48416242261E+02  0.00000000000E+00 0. -1.
</event>
<event>
 8    1  0.7224924E-009  0.2366418E+03  0.7561462E-02  0.1122050E+00
          2   -1    0    0  501    0  0.00000000000E+00  0.00000000000E+00  0.32820098237E+04  0.32820098237E+04  0.00000000000E+00 0. -1.
         -2   -1    0    0    0  501 -0.00000000000E+00 -0.00000000000E+00 -0.20555065280E+02  0.20555065280E+02  0.00000000000E+00 0.  1.
         25    2    1    2    0    0  0.92236554050E+02  0.18930317588E+03  0.23444238905E+04  0.23571835977E+04  0.12509140806E+03 0.  0.
         23    2    1    2    0    0 -0.92236554050E+02 -0.18930317588E+03  0.91703086796E+03  0.94538129137E+03  0.91961399427E+02 0.  0.
          5    1    3    3  502    0  0.56826419945E+02  0.59695168452E+01  0.63901427461E+03  0.64157742533E+03  0.41800000000E+01 0.  1.
         -5    1    3    3    0  502  0.35410134105E+02  0.18333365903E+03  0.17054096159E+04  0.17156061723E+04  0.41800000000E+01 0.  1.
        -11    1    4    4    0    0 -0.57556188443E+02 -0.18563067981E+03  0.75222012664E+03  0.77692122062E+03  0.00000000000E+00 0.  1.
         11    1    4    4    0    0 -0.34680365607E+02 -0.36724960660E+01  0.16481074131E+03  0.16846007075E+03  0.00000000000E+00 0. -1.
</event>
<event>
 8    1  0.7224924E-009  0.1183387E+03  0.7561462E-02  0.1245863E+00
          1   -1    0    0  501    0  0.00000000000E+00  0.00000000000E+00  0.11212402515E+04  0.11212402515E+04  0.00000000000E+00 0. -1.
         -1   -1    0    0    0  501 -0.00000000000E+00 -0.00000000000E+00 -0.18493556873E+02  0.18493556873E+02  0.00000000000E+00 0.  1.
         25    2    1    2    0    0  0.53906281903E+02  0.58131640296E+02  0.80445938669E+03  0.81797747605E+03  0.12508825545E+03 0.  0.
         23    2    1    2    0    0 -0.53906281903E+02 -0.58131640296E+02  0.29828730797E+03  0.32175633237E+03  0.90921089342E+02 0.  0.
          5    1    3    3  502    0  0.48661212450E+02  0.80234576186E+02  0.33414737071E+03  0.34709860064E+03  0.41800000000E+01 0. -1.
         -5    1    3    3    0  502  0.52450694526E+01 -0.22102935891E+02  0.47031201598E+03  0.47087887541E+03  0.41800000000E+01 0. -1.
        -11    1    4    4    0    0 -0.70991743097E+02 -0.14045897985E+02  0.15986706291E+03  0.17548388143E+03  0.00000000000E+00 0.  1.
         11    1    4    4    0    0  0.17085461194E+02 -0.44085742311E+02  0.13842024506E+03  0.14627245094E+03  0.00000000000E+00 0. -1.
</event>
<event>
 8    1  0.7224924E-009  0.1821930E+03  0.7561462E-02  0.1165697E+00
          1   -1    0    0  501    0  0.00000000000E+00  0.00000000000E+00  0.14919726735E+03  0.14919726735E+03  0.00000000000E+00 0. -1.
         -1   -1    0    0    0  501 -0.00000000000E+00 -0.00000000000E+00 -0.25743174193E+03  0.25743174193E+03  0.00000000000E+00 0.  1.
         25    2    1    2    0    0 -0.31820688936E+02 -0.15568928152E+03 -0.18347116232E+02  0.20306639426E+03  0.12509050795E+03 0.  0.
         23    2    1    2    0    0  0.31820688936E+02  0.15568928152E+03 -0.89887358348E+02  0.20356261502E+03  0.90034951109E+02 0.  0.
          5    1    3    3  502    0 -0.18346131208E+02 -0.17390156601E+03 -0.21942722936E+01  0.17493033591E+03  0.41800000000E+01 0.  1.
         -5    1    3    3    0  502 -0.13474557727E+02  0.18212284489E+02 -0.16152843938E+02  0.28136058352E+02  0.41800000000E+01 0.  1.
        -11    1    4    4    0    0  0.38575541483E+02  0.65685708325E+02 -0.83580641814E+02  0.11308584511E+03  0.00000000000E+00 0.  1.
         11    1    4    4    0    0 -0.67548525466E+01  0.90003573191E+02 -0.63067165338E+01  0.90476769911E+02  0.00000000000E+00 0. -1.
</event>
<event>
 8    1  0.7224924E-009  0.1300701E+03  0.7561462E-02  0.1227352E+00
          2   -1    0    0  501    0  0.00000000000E+00  0.00000000000E+00  0.45973500053E+03  0.45973500053E+03  0.00000000000E+00 0. -1.
         -2   -1    0    0    0  501 -0.00000000000E+00 -0.00000000000E+00 -0.38173109462E+02  0.38173109462E+02  0.00000000000E+00 0.  1.
         25    2    1    2    0    0  0.60185433426E+02 -0.43876271321E+02  0.25780507188E+03  0.29606816804E+03  0.12508193896E+03 0.  0.
         23    2    1    2    0    0 -0.60185433426E+02  0.43876271321E+02  0.16375681919E+03  0.20183994196E+03  0.91518592410E+02 0.  0.
          5    1    3    3  502    0  0.77610998357E+02  0.16737143897E+02  0.17209438446E+03  0.18957201432E+03  0.41800000000E+01 0.  1.
         -5    1    3    3    0  502 -0.17425564931E+02 -0.60613415218E+02  0.85710687427E+02  0.10649615372E+03  0.41800000000E+01 0.  1.
        -11    1    4    4    0    0  0.21605929964E+02  0.25820066283E+02  0.56240184992E+02  0.65547314517E+02  0.00000000000E+00 0. -1.
         11    1    4    4    0    0 -0.81791363390E+02  0.18056205038E+02  0.10751663420E+03  0.13629262744E+03  0.00000000000E+00 0.  1.
</event>
<event>
 8    1  0.7224924E-009  0.2289076E+03  0.7561462E-02  0.1127411E+00
         -1   -1    0    0    0  501 -0.00000000000E+00  0.00000000000E+00  0.29696983891E+03  0.29696983891E+03  0.00000000000E+00 0.  1.
          1   -1    0    0  501    0  0.00000000000E+00 -0.00000000000E+00 -0.17843321399E+03  0.17843321399E+03  0.00000000000E+00 0. -1.
         25    2    1    2    0    0 -0.10443816435E+03 -0.17312147659E+03  0.77725627906E+02  0.25013205621E+03  0.12508555664E+03 0.  0.
         23    2    1    2    0    0  0.10443816435E+03  0.17312147659E+03  0.40810997014E+02  0.22527099670E+03  0.90571014392E+02 0.  0.
          5    1    3    3  502    0 -0.12174186229E+03 -0.87848549042E+02  0.56584736725E+02  0.16049222234E+03  0.41800000000E+01 0.  1.
         -5    1    3    3    0  502  0.17303697945E+02 -0.85272927548E+02  0.21140891182E+02  0.89639833864E+02  0.41800000000E+01 0.  1.
        -11    1    4    4    0    0  0.12335966370E+02  0.10559530763E+03  0.30501674920E+02  0.11060242870E+03  0.00000000000E+00 0.  1.
         11    1    4    4    0    0  0.92102197975E+02  0.67526168956E+02  0.10309322094E+02  0.11466856800E+03  0.00000000000E+00 0. -1.
</event>
<event>
 8    1  0.7224924E-009  0.1653166E+03  0.7561462E-02  0.1182822E+00
          2   -1    0    0  501    0  0.00000000000E+00  0.00000000000E+00  0.25684536028E+03  0.25684536028E+03  0.00000000000E+00 0. -1.
         -2   -1    0    0    0  501 -0.00000000000E+00 -0.00000000000E+00 -0.15588386425E+03  0.15588386425E+03  0.00000000000E+00 0.  1.
         25    2    1    2    0    0  0.16349078959E+03  0.40441863593E+01  0.91274439926E+02  0.22521953744E+03  0.12508886016E+03 0.  0.
         23    2    1    2    0    0 -0.16349078959E+03 -0.40441863593E+01  0.96870561051E+01  0.18750968709E+03  0.91216500548E+02 0.  0.
          5    1    3    3  502    0  0.13251853367E+03 -0.97212911327E+01  0.12113746462E+03  0.17985389348E+03  0.41800000000E+01 0. -1.
         -5    1    3    3    0  502  0.30972255923E+02  0.13765477492E+02 -0.29863024695E+02  0.45365643955E+02  0.41800000000E+01 0. -1.
        -11    1    4    4    0    0 -0.87685239328E+02 -0.17927381065E+01  0.50687459979E+02  0.10129725418E+03  0.00000000000E+00 0.  1.
         11    1    4    4    0    0 -0.75805550263E+02 -0.22514482527E+01 -0.41000403874E+02  0.86212432907E+02  0.00000000000E+00 0. -1.
</event>
<event>
 8    1  0.7224924E-009  0.1071834E+03  0.7561462E-02  0.1265876E+00
          2   -1    0    0  501    0  0.00000000000E+00  0.00000000000E+00  0.12389795710E+03  0.12389795710E+03  0.00000000000E+00 0. -1.
         -2   -1    0    0    0  501 -0.00000000000E+00 -0.00000000000E+00 -0.16950768425E+03  0.16950768425E+03  0.00000000000E+00 0.  1.
         25    2    1    2    0    0  0.44572089109E+02 -0.43611597886E+02 -0.98491632552E+02  0.17098674837E+03  0.12508886377E+03 0.  0.
         23    2    1    2    0    0 -0.44572089109E+02  0.43611597886E+02  0.52881905411E+02  0.12241889298E+03  0.91111178458E+02 0.  0.
          5    1    3    3  502    0  0.35788666225E+02  0.33072743203E+02 -0.42417909840E+01  0.49092770994E+02  0.41800000000E+01 0. -1.
         -5    1    3    3    0  502  0.87834228842E+01 -0.76684341089E+02 -0.94249841568E+02  0.12189397738E+03  0.41800000000E+01 0. -1.
        -11    1    4    4    0    0 -0.58994396313E+02  0.23709463396E+02  0.68372412309E+02  0.93366290576E+02  0.00000000000E+00 0. -1.
         11    1    4    4    0    0  0.14422307203E+02  0.19902134490E+02 -0.15490506899E+02  0.29052602401E+02  0.00000000000E+00 0.  1.
</event>
<event>
 8    1  0.7224924E-009  0.4446515E+02  0.7561462E-02  0.1477709E+00
         -2   -1    0    0    0  501 -0.00000000000E+00  0.00000000000E+00  0.32781210706E+02  0.32781210706E+02  0.00000000000E+00 0.  1.
          2   -1    0    0  501    0  0.00000000000E+00 -0.00000000000E+00 -0.33743669937E+03  0.33743669937E+03  0.00000000000E+00 0. -1.
         25    2    1    2    0    0  0.19626771690E+02 -0.51111583174E+01 -0.21139314159E+03  0.24647371147E+03  0.12510354123E+03 0.  0.
         23    2    1    2    0    0 -0.19626771690E+02  0.51111583174E+01 -0.93262347079E+02  0.12374419861E+03  0.78761838477E+02 0.  0.
          5    1    3    3  502    0  0.29390226555E+02 -0.43650730202E+01 -0.22623053189E+03  0.22821166763E+03  0.41800000000E+01 0.  1.
         -5    1    3    3    0  502 -0.97634548652E+01 -0.74608529718E+00  0.14837390307E+02  0.18262043843E+02  0.41800000000E+01 0.  1.
        -11    1    4    4    0    0 -0.26189810846E+02 -0.12837849331E+02 -0.64347738242E+00  0.29174143187E+02  0.00000000000E+00 0.  1.
         11    1    4    4    0    0  0.65630391561E+01  0.17949007648E+02 -0.92618869696E+02  0.94570055421E+02  0.00000000000E+00 0. -1.
</event>
<event>
 8    1  0.7224924E-009  0.1011405E+03  0.7561462E-02  0.1277916E+00
         -3   -1    0    0    0  501 -0.00000000000E+00  0.00000000000E+00  0.66427045934E+02  0.66427045934E+02  0.00000000000E+00 0.  1.
          3   -1    0    0  501    0  0.00000000000E+00 -0.00000000000E+00 -0.25120107904E+03  0.25120107904E+03  0.00000000000E+00 0. -1.
         25    2    1    2    0    0 -0.27689062060E+02 -0.35411409819E+02 -0.17073979906E+03  0.21638014568E+03  0.12509051267E+03 0.  0.
         23    2    1    2    0    0  0.27689062060E+02  0.35411409819E+02 -0.14034234051E+02  0.10124797930E+03  0.89630025566E+02 0.  0.
          5    1    3    3  502    0 -0.72678173825E+02 -0.27370117054E+02 -0.65911685523E+02  0.10194637290E+03  0.41800000000E+01 0. -1.
         -5    1    3    3    0  502  0.44989111764E+02 -0.80412927655E+01 -0.10482811353E+03  0.11443377279E+03  0.41800000000E+01 0. -1.
        -11    1    4    4    0    0  0.76411730483E+01 -0.19079552326E+02  0.24183233976E+02  0.31737133583E+02  0.00000000000E+00 0.  1.
         11    1    4    4    0    0  0.20047889012E+02  0.54490962146E+02 -0.38217468027E+02  0.69510845713E+02  0.00000000000E+00 0. -1.
</event>
<event>
 8    1  0.7224924E-009  0.1844447E+03  0.7561462E-02  0.1163569E+00
         -2   -1    0    0    0  501 -0.00000000000E+00  0.00000000000E+00  0.36193851113E+03  0.36193851113E+03  0.00000000000E+00 0.  1.
          2   -1    0    0  501    0  0.00000000000E+00 -0.00000000000E+00 -0.99300252694E+02  0.99300252694E+02  0.00000000000E+00 0. -1.
         25    2    1    2    0    0  0.55990332974E+02 -0.14453257488E+03  0.13071418244E+03  0.23824247352E+03  0.12509474853E+03 0.  0.
         23    2    1    2    0    0 -0.55990332974E+02  0.14453257488E+03  0.13192407600E+03  0.22299629031E+03  0.91097755593E+02 0.  0.
          5    1    3    3  502    0 -0.17886664202E+02 -0.10739306467E+03  0.10558625406E+03  0.15172057389E+03  0.41800000000E+01 0.  1.
         -5    1    3    3    0  502  0.73876997176E+02 -0.37139510210E+02  0.25127928382E+02  0.86521899627E+02  0.41800000000E+01 0.  1.
        -11    1    4    4    0    0 -0.46107964667E+02  0.16866362505E+02  0.20308339422E+02  0.53130473741E+02  0.00000000000E+00 0.  1.
         11    1    4    4    0    0 -0.98823683073E+01  0.12766621238E+03  0.11161573657E+03  0.16986581657E+03  0.00000000000E+00 0. -1.
</event>
<event>
 8    1  0.7224924E-009  0.8036426E+02  0.7561462E-02  0.1328021E+00
         -2   -1    0    0    0  501 -0.00000000000E+00  0.00000000000E+00  0.14260339106E+02  0.14260339106E+02  0.00000000000E+00 0.  1.
          2   -1    0    0  501    0  0.00000000000E+00 -0.00000000000E+00 -0.11973390213E+04  0.11973390213E+04  0.00000000000E+00 0. -1.
         25    2    1    2    0    0  0.21073775646E+02 -0.41611900847E+01 -0.97298250432E+03  0.98122571432E+03  0.12509008437E+03 0.  0.
         23    2    1    2    0    0 -0.21073775646E+02  0.41611900847E+01 -0.21009617790E+03  0.23037364611E+03  0.92033653259E+02 0.  0.
          5    1    3    3  502    0 -0.56680963181E+01  0.42081810503E+02 -0.77339241226E+03  0.77456846168E+03  0.41800000000E+01 0. -1.
         -5    1    3    3    0  502  0.26741871964E+02 -0.46243000588E+02 -0.19959009206E+03  0.20665725264E+03  0.41800000000E+01 0. -1.
        -11    1    4    4    0    0 -0.20974278736E+01 -0.27493118076E+02 -0.14168554484E+02  0.31000301311E+02  0.00000000000E+00 0.  1.
         11    1    4    4    0    0 -0.18976347772E+02  0.31654308160E+02 -0.19592762342E+03  0.19937334480E+03  0.00000000000E+00 0. -1.
</event>
<event>
 8    1  0.7224924E-009  0.1120026E+03  0.7561462E-02  0.1256906E+00
          2   -1    0    0  501    0  0.00000000000E+00  0.00000000000E+00  0.38317747325E+03  0.38317747325E+03  0.00000000000E+00 0. -1.
         -2   -1    0    0    0  501 -0.00000000000E+00 -0.00000000000E+00 -0.51385449897E+02  0.51385449897E+02  0.00000000000E+00 0.  1.
         25    2    1    2    0    0 -0.63136536580E+02 -0.43053461759E+02  0.25312496259E+03  0.29250257582E+03  0.12508272206E+03 0.  0.
         23    2    1    2    0    0  0.63136536580E+02  0.43053461759E+02  0.78667060761E+02  0.14206034732E+03  0.90292928908E+02 0.  0.
          5    1    3    3  502    0 -0.54288050768E+02 -0.85547465481E+02  0.15632999074E+03  0.18633866939E+03  0.41800000000E+01 0.  1.
         -5    1    3    3    0  502 -0.88484858129E+01  0.42494003722E+02  0.96794971850E+02  0.10616390643E+03  0.41800000000E+01 0.  1.
        -11    1    4    4    0    0  0.30803287471E+02  0.91259217055E+01  0.88519320023E+02  0.94168970385E+02  0.00000000000E+00 0.  1.
         11    1    4    4    0    0  0.32333249109E+02  0.33927540053E+02 -0.98522592622E+01  0.47891376934E+02  0.00000000000E+00 0. -1.
</event>
<event>
 8    1  0.7224924E-009  0.2504861E+03  0.7561462E-02  0.1112998E+00
         -2   -1    0    0    0  501 -0.00000000000E+00  0.00000000000E+00  0.27928546488E+02  0.27928546488E+02  0.00000000000E+00 0. -1.
          2   -1    0    0  501    0  0.00000000000E+00 -0.00000000000E+00 -0.25942139845E+04  0.25942139845E+04  0.00000000000E+00 0.  1.
         25    2    1    2    0    0  0.20213118930E+03 -0.13469124444E+03 -0.15064735028E+04  0.15310485225E+04  0.12509362401E+03 0.  0.
         23    2    1    2    0    0 -0.20213118930E+03  0.13469124444E+03 -0.10598119352E+04  0.10910940084E+04  0.91027733148E+02 0.  0.
          5    1    3    3  502    0  0.80176885612E+02 -0.60141911251E+02 -0.99241010571E+03  0.99746712868E+03  0.41800000000E+01 0.  1.
         -5    1    3    3    0  502  0.12195430369E+03 -0.74549333186E+02 -0.51406339707E+03  0.53358139386E+03  0.41800000000E+01 0.  1.
        -11    1    4    4    0    0 -0.17489442757E+03  0.14633633733E+03 -0.97307193039E+03  0.99943552375E+03  0.00000000000E+00 0.  1.
         11    1    4    4    0    0 -0.27236761725E+02 -0.11645092892E+02 -0.86740004825E+02  0.91658484685E+02  0.00000000000E+00 0. -1.
</event>
<event>
 8    1  0.7224924E-009  0.1156016E+03  0.7561462E-02  0.1250535E+00
         -2   -1    0    0    0  501 -0.00000000000E+00  0.00000000000E+00  0.14366742643E+03  0.14366742643E+03  0.00000000000E+00 0.  1.
          2   -1    0    0  501    0  0.00000000000E+00 -0.00000000000E+00 -0.12584979733E+03  0.12584979733E+03  0.00000000000E+00 0. -1.
         25    2    1    2    0    0  0.49633930393E+02 -0.42848377692E+02 -0.34310228750E+02  0.14534167200E+03  0.12508996485E+03 0.  0.
         23    2    1    2    0    0 -0.49633930393E+02  0.42848377692E+02  0.52127857843E+02  0.12417555176E+03  0.91666480100E+02 0.  0.
          5    1    3    3  502    0 -0.51780818842E+01  0.40188029680E+02 -0.25453127785E+01  0.40814718898E+02  0.41800000000E+01 0.  1.
         -5    1    3    3    0  502  0.54812012277E+02 -0.83036407372E+02 -0.31764915972E+02  0.10452695311E+03  0.41800000000E+01 0.  1.
        -11    1    4    4    0    0 -0.64866256440E+02  0.33405848989E+02  0.42877576333E+01  0.73088759989E+02  0.00000000000E+00 0.  1.
         11    1    4    4    0    0  0.15232326047E+02  0.94425287028E+01  0.47840100210E+02  0.51086791769E+02  0.00000000000E+00 0. -1.
</event>
<event>
 8    1  0.7224924E-009  0.9280805E+02  0.7561462E-02  0.1296191E+00
          1   -1    0    0  501    0  0.00000000000E+00  0.00000000000E+00  0.53404409927E+02  0.53404409927E+02  0.00000000000E+00 0. -1.
         -1   -1    0    0    0  501 -0.00000000000E+00 -0.00000000000E+00 -0.23556751937E+03  0.23556751937E+03  0.00000000000E+00 0.  1.
         25    2    1    2    0    0  0.55810596786E+01  0.27913296044E+02 -0.88636319194E+02  0.15592925568E+03  0.12508890987E+03 0.  0.
         23    2    1    2    0    0 -0.55810596786E+01 -0.27913296044E+02 -0.93526790245E+02  0.13304267362E+03  0.90237421210E+02 0.  0.
          5    1    3    3  502    0  0.55286030189E+02  0.11425824875E+02 -0.45637866234E+01  0.56792562510E+02  0.41800000000E+01 0. -1.
         -5    1    3    3    0  502 -0.49704970510E+02  0.16487471169E+02 -0.84072532571E+02  0.99136693166E+02  0.41800000000E+01 0. -1.
        -11    1    4    4    0    0  0.21626182345E+02 -0.40944994224E+02 -0.14608468748E+02  0.48555037576E+02  0.00000000000E+00 0. -1.
         11    1    4    4    0    0 -0.27207242024E+02  0.13031698180E+02 -0.78918321498E+02  0.84487636042E+02  0.00000000000E+00 0.  1.
</event>
<event>
 8    1  0.7224924E-009  0.1167952E+03  0.7561462E-02  0.1248480E+00
         -1   -1    0    0    0  501 -0.00000000000E+00  0.00000000000E+00  0.15022187929E+02  0.15022187929E+02  0.00000000000E+00 0.  1.
          1   -1    0    0  501    0  0.00000000000E+00 -0.00000000000E+00 -0.97315060851E+03  0.97315060851E+03  0.00000000000E+00 0. -1.
         25    2    1    2    0    0  0.31376561894E+02  0.44137776750E+02 -0.56878765536E+03  0.58489240788E+03  0.12508836849E+03 0.  0.
         23    2    1    2    0    0 -0.31376561894E+02 -0.44137776750E+02 -0.38934076522E+03  0.40328038856E+03  0.90090001454E+02 0.  0.
          5    1    3    3  502    0  0.70516022306E+02  0.55297687256E+02 -0.45999162892E+03  0.46865777993E+03  0.41800000000E+01 0.  1.
         -5    1    3    3    0  502 -0.39139460412E+02 -0.11159910506E+02 -0.10879602644E+03  0.11623462794E+03  0.41800000000E+01 0.  1.
        -11    1    4    4    0    0 -0.71058300277E+01  0.26939195301E+02 -0.72743978646E+02  0.77896723250E+02  0.00000000000E+00 0.  1.
         11    1    4    4    0    0 -0.24270731866E+02 -0.71076972051E+02 -0.31659678658E+03  0.32538366531E+03  0.00000000000E+00 0. -1.
</event>
<event>
 8    1  0.7224924E-009  0.1464506E+03  0.7561462E-02  0.1204904E+00
         -1   -1    0    0    0  501 -0.00000000000E+00  0.00000000000E+00  0.77176139047E+02  0.77176139047E+02  0.00000000000E+00 0.  1.
          1   -1    0    0  501    0  0.00000000000E+00 -0.00000000000E+00 -0.74338587422E+03  0.74338587422E+03  0.00000000000E+00 0. -1.
         25    2    1    2    0    0 -0.88873836182E+02  0.46535822874E+02 -0.21566988927E+02  0.16179254739E+03  0.12509017472E+03 0.  0.
         23    2    1    2    0    0  0.88873836182E+02 -0.46535822874E+02 -0.64464274625E+03  0.65876946588E+03  0.91371753382E+02 0.  0.
          5    1    3    3  502    0 -0.11632820226E+03  0.15544071153E+02 -0.24893930752E+02  0.12004602858E+03  0.41800000000E+01 0. -1.
         -5    1    3    3    0  502  0.27454366075E+02  0.30991751721E+02  0.33269418252E+01  0.41746518815E+02  0.41800000000E+01 0. -1.
        -11    1    4    4    0    0  0.87826113853E+02 -0.52451413522E+00 -0.47174909867E+03  0.47985509634E+03  0.00000000000E+00 0. -1.
         11    1    4    4    0    0  0.10477223291E+01 -0.46011308739E+02 -0.17289364758E+03  0.17891436954E+03  0.00000000000E+00 0.  1.
</event>
<event>
 8    1  0.7224924E-009  0.1205034E+03  0.7561462E-02  0.1242269E+00
         -1   -1    0    0    0  501 -0.00000000000E+00  0.00000000000E+00  0.19014949896E+02  0.19014949896E+02  0.00000000000E+00 0.  1.
          1   -1    0    0  501    0  0.00000000000E+00 -0.00000000000E+00 -0.81621657742E+03  0.81621657742E+03  0.00000000000E+00 0. -1.
         25    2    1    2    0    0 -0.54980860328E+02 -0.19871036398E+02 -0.36984096053E+03  0.39477581895E+03  0.12509139882E+03 0.  0.
         23    2    1    2    0    0  0.54980860328E+02  0.19871036398E+02 -0.42736066700E+03  0.44045570836E+03  0.89142236004E+02 0.  0.
          5    1    3    3  502    0 -0.30348971747E+02  0.52454671261E+02 -0.18517300318E+03  0.19488218526E+03  0.41800000000E+01 0. -1.
         -5    1    3    3    0  502 -0.24631888581E+02 -0.72325707659E+02 -0.18466795734E+03  0.19989363370E+03  0.41800000000E+01 0. -1.
        -11    1    4    4    0    0  0.38751747679E+02  0.53699552398E+02 -0.22086427434E+03  0.23057833280E+03  0.00000000000E+00 0.  1.
         11    1    4    4    0    0  0.16229112649E+02 -0.33828516000E+02 -0.20649639266E+03  0.20987737556E+03  0.00000000000E+00 0. -1.
</event>
<event>
 8    1  0.7224924E-009  0.1002454E+03  0.7561462E-02  0.1279781E+00
          1   -1    0    0  501    0  0.00000000000E+00  0.00000000000E+00  0.45254537084E+02  0.45254537084E+02  0.00000000000E+00 0. -1.
         -1   -1    0    0    0  501 -0.00000000000E+00 -0.00000000000E+00 -0.34438905754E+03  0.34438905754E+03  0.00000000000E+00 0.  1.
         25    2    1    2    0    0 -0.46755332865E+02  0.36842763205E+02 -0.19153715230E+03  0.23638435699E+03  0.12509049991E+03 0.  0.
         23    2    1    2    0    0  0.46755332865E+02 -0.36842763205E+02 -0.10759736816E+03  0.15325923764E+03  0.91475406169E+02 0.  0.
          5    1    3    3  502    0  0.82551225311E+01 -0.23299749337E+02  0.31651876470E+01  0.25268877696E+02  0.41800000000E+01 0. -1.
         -5    1    3    3    0  502 -0.55010455396E+02  0.60142512543E+02 -0.19470233994E+03  0.21111547929E+03  0.41800000000E+01 0. -1.
        -11    1    4    4    0    0  0.54670170383E+02  0.14659191699E+01 -0.21632719117E+02  0.58812847109E+02  0.00000000000E+00 0. -1.
         11    1    4    4    0    0 -0.79148375174E+01 -0.38308682375E+02 -0.85964649047E+02  0.94446390530E+02  0.00000000000E+00 0.  1.
</event>
<event>
 8    1  0.7224924E-009  0.1198558E+03  0.7561462E-02  0.1243335E+00
          2   -1    0    0  501    0  0.00000000000E+00  0.00000000000E+00  0.19916560844E+04  0.19916560844E+04  0.00000000000E+00 0. -1.
         -2   -1    0    0    0  501 -0.00000000000E+00 -0.00000000000E+00 -0.10324509020E+02  0.10324509020E+02  0.00000000000E+00 0.  1.
         25    2    1    2    0    0 -0.37845467886E+02  0.47587999172E+02  0.15719421665E+04  0.15780831774E+04  0.12508973903E+03 0.  0.
         23    2    1    2    0    0  0.37845467886E+02 -0.47587999172E+02  0.40938940889E+03  0.42389741605E+03  0.91610229315E+02 0.  0.
          5    1    3    3  502    0 -0.10650763899E+02  0.84602795144E+02  0.12423285443E+04  0.12452585098E+04  0.41800000000E+01 0. -1.
         -5    1    3    3    0  502 -0.27194703987E+02 -0.37014795972E+02  0.32961362215E+03  0.33282466759E+03  0.41800000000E+01 0. -1.
        -11    1    4    4    0    0 -0.16985032976E+02 -0.50530316594E+02  0.16427746022E+03  0.17271041711E+03  0.00000000000E+00 0. -1.
         11    1    4    4    0    0  0.54830500861E+02  0.29423174219E+01  0.24511194867E+03  0.25118699894E+03  0.00000000000E+00 0.  1.
</event>
<event>
 8    1  0.7224924E-009  0.2518856E+03  0.7561462E-02  0.1112119E+00
          1   -1    0    0  501    0  0.00000000000E+00  0.00000000000E+00  0.35463584491E+03  0.35463584491E+03  0.00000000000E+00 0. -1.
         -1   -1    0    0    0  501 -0.00000000000E+00 -0.00000000000E+00 -0.36737983763E+03  0.36737983763E+03  0.00000000000E+00 0.  1.
         25    2    1    2    0    0 -0.42772538265E+02  0.23855840055E+03  0.23808157820E+03  0.36203550084E+03  0.12508903025E+03 0.  0.
         23    2    1    2    0    0  0.42772538265E+02 -0.23855840055E+03 -0.25082557093E+03  0.35998018170E+03  0.89065502226E+02 0.  0.
          5    1    3    3  502    0 -0.11963812451E+02  0.19735997313E+03  0.23925292350E+03  0.31040864294E+03  0.41800000000E+01 0.  1.
         -5    1    3    3    0  502 -0.30808725815E+02  0.41198427412E+02 -0.11713452990E+01  0.51626857907E+02  0.41800000000E+01 0.  1.
        -11    1    4    4    0    0 -0.94313921752E+01 -0.15872180105E+03 -0.12596282713E+03  0.20285017896E+03  0.00000000000E+00 0.  1.
         11    1    4    4    0    0  0.52203930440E+02 -0.79836599500E+02 -0.12486274380E+03  0.15713000274E+03  0.00000000000E+00 0. -1.
</event>
<event>
 8    1  0.7224924E-009  0.1156258E+03  0.7561462E-02  0.1250493E+00
         -1   -1    0    0    0  501 -0.00000000000E+00  0.00000000000E+00  0.31782963396E+02  0.31782963396E+02  0.00000000000E+00 0.  1.
          1   -1    0    0  501    0  0.00000000000E+00 -0.00000000000E+00 -0.49327904589E+03  0.49327904589E+03  0.00000000000E+00 0. -1.
         25    2    1    2    0    0 -0.28041317259E+02 -0.55784116048E+02 -0.27092763933E+03  0.30487274446E+03  0.12508965379E+03 0.  0.
         23    2    1    2    0    0  0.28041317259E+02  0.55784116048E+02 -0.19056844316E+03  0.22018926482E+03  0.90932929884E+02 0.  0.
          5    1    3    3  502    0 -0.70720038374E+02 -0.21122773905E+02 -0.94205361207E+02  0.11974814356E+03  0.41800000000E+01 0.  1.
         -5    1    3    3    0  502  0.42678721115E+02 -0.34661342143E+02 -0.17672227813E+03  0.18512460091E+03  0.41800000000E+01 0.  1.
        -11    1    4    4    0    0 -0.60172398192E+01  0.66276140400E+02 -0.80229366484E+02  0.10423763815E+03  0.00000000000E+00 0.  1.
         11    1    4    4    0    0  0.34058557078E+02 -0.10492024352E+02 -0.11033907668E+03  0.11595162667E+03  0.00000000000E+00 0. -1.
</event>
<event>
 8    1  0.7224924E-009  0.1705330E+03  0.7561462E-02  0.1177293E+00
         -2   -1    0    0    0  501 -0.00000000000E+00  0.00000000000E+00  0.62392436516E+02  0.62392436516E+02  0.00000000000E+00 0.  1.
          2   -1    0    0  501    0  0.00000000000E+00 -0.00000000000E+00 -0.57958904091E+03  0.57958904091E+03  0.00000000000E+00 0. -1.
         25    2    1    2    0    0  0.13435333513E+03 -0.78713070785E+02 -0.25137128882E+03  0.32106242962E+03  0.12508793986E+03 0.  0.
         23    2    1    2    0    0 -0.13435333513E+03  0.78713070785E+02 -0.26582531558E+03  0.32091904781E+03  0.89885319542E+02 0.  0.
          5    1    3    3  502    0  0.59669620084E+02  0.41278440184E+01 -0.18372884542E+02  0.62709950914E+02  0.41800000000E+01 0. -1.
         -5    1    3    3    0  502  0.74683715050E+02 -0.82840914804E+02 -0.23299840428E+03  0.25835247871E+03  0.41800000000E+01 0. -1.
        -11    1    4    4    0    0 -0.10821413148E+03  0.90261981794E+02 -0.25299778858E+03  0.28959524277E+03  0.00000000000E+00 0. -1.
         11    1    4    4    0    0 -0.26139203656E+02 -0.11548911009E+02 -0.12827527005E+02  0.31323805043E+02  0.00000000000E+00 0.  1.
</event>
<event>
 8    1  0.7224924E-009  0.1316390E+03  0.7561462E-02  0.1225044E+00
         -1   -1    0    0    0  501 -0.00000000000E+00  0.00000000000E+00  0.40854793913E+02  0.40854793913E+02  0.00000000000E+00 0.  1.
          1   -1    0    0  501    0  0.00000000000E+00 -0.00000000000E+00 -0.85178093553E+03  0.85178093553E+03  0.00000000000E+00 0. -1.
         25    2    1    2    0    0 -0.87911075036E+02  0.16491532963E+02 -0.71498360190E+03  0.73133371515E+03  0.12508846532E+03 0.  0.
         23    2    1    2    0    0  0.87911075036E+02 -0.16491532963E+02 -0.95942539718E+02  0.16130201429E+03  0.93877798835E+02 0.  0.
          5    1    3    3  502    0 -0.35090140212E+01  0.58437405710E+02 -0.24010159937E+03  0.24717098127E+03  0.41800000000E+01 0. -1.
         -5    1    3    3    0  502 -0.84402061015E+02 -0.41945872748E+02 -0.47488200253E+03  0.48416273388E+03  0.41800000000E+01 0. -1.
        -11    1    4    4    0    0  0.37161188096E+02 -0.39751852370E+02 -0.50714819251E+01  0.54652388754E+02  0.00000000000E+00 0.  1.
         11    1    4    4    0    0  0.50749886939E+02  0.23260319407E+02 -0.90871057793E+02  0.10664962554E+03  0.00000000000E+00 0. -1.
</event>
<event>
 8    1  0.7224924E-009  0.1453958E+03  0.7561462E-02  0.1206247E+00
         -1   -1    0    0    0  501 -0.00000000000E+00  0.00000000000E+00  0.11504465086E+03  0.11504465086E+03  0.00000000000E+00 0.  1.
          1   -1    0    0  501    0  0.00000000000E+00 -0.00000000000E+00 -0.23890486839E+03  0.23890486839E+03  0.00000000000E+00 0. -1.
         25    2    1    2    0    0  0.83017347058E+02  0.87141072181E+02 -0.30965027527E+02  0.17632596117E+03  0.12508623137E+03 0.  0.
         23    2    1    2    0    0 -0.83017347058E+02 -0.87141072181E+02 -0.92895190005E+02  0.17762355808E+03  0.91843158086E+02 0.  0.
          5    1    3    3  502    0 -0.47051110244E+01  0.81457992720E+02  0.35895458002E+01  0.81779581112E+02  0.41800000000E+01 0. -1.
         -5    1    3    3    0  502  0.87722458082E+02  0.56830794609E+01 -0.34554573327E+02  0.94546380058E+02  0.41800000000E+01 0. -1.
        -11    1    4    4    0    0 -0.58206241720E+02 -0.69432714028E+02 -0.12271784137E+02  0.91430110130E+02  0.00000000000E+00 0.  1.
         11    1    4    4    0    0 -0.24811105338E+02 -0.17708358153E+02 -0.80623405868E+02  0.86193447955E+02  0.00000000000E+00 0. -1.
</event>
<event>
 8    1  0.7224924E-009  0.9927353E+02  0.7561462E-02  0.1281831E+00
          2   -1    0    0  501    0  0.00000000000E+00  0.00000000000E+00  0.38454639667E+03  0.38454639667E+03  0.00000000000E+00 0. -1.
         -2   -1    0    0    0  501 -0.00000000000E+00 -0.00000000000E+00 -0.36406946430E+02  0.36406946430E+02  0.00000000000E+00 0.  1.
         25    2    1    2    0    0  0.37528990344E+02  0.33249904837E+02  0.19167057795E+03  0.23430504101E+03  0.12508901031E+03 0.  0.
         23    2    1    2    0    0 -0.37528990344E+02 -0.33249904837E+02  0.15646887229E+03  0.18664830210E+03  0.88549982453E+02 0.  0.
          5    1    3    3  502    0  0.64072696098E+02  0.42713261912E+02  0.55062453140E+02  0.94758003748E+02  0.41800000000E+01 0.  1.
         -5    1    3    3    0  502 -0.26543705754E+02 -0.94633570751E+01  0.13660812481E+03  0.13954703726E+03  0.41800000000E+01 0.  1.
        -11    1    4    4    0    0 -0.10736425185E+02 -0.56472713447E+02  0.56599811582E+02  0.80672032706E+02  0.00000000000E+00 0.  1.
         11    1    4    4    0    0 -0.26792565159E+02  0.23222808610E+02  0.99869060708E+02  0.10597626939E+03  0.00000000000E+00 0. -1.
</event>
<event>
 8    1  0.7224924E-009  0.1000869E+03  0.7561462E-02  0.1280113E+00
          1   -1    0    0  501    0  0.00000000000E+00  0.00000000000E+00  0.59300928838E+03  0.59300928838E+03  0.00000000000E+00 0. -1.
         -1   -1    0    0    0  501 -0.00000000000E+00 -0.00000000000E+00 -0.26897886039E+02  0.26897886039E+02  0.00000000000E+00 0.  1.
         25    2    1    2    0    0  0.46589247556E+02  0.37532660787E+02  0.34779118224E+03  0.37441379906E+03  0.12509087843E+03 0.  0.
         23    2    1    2    0    0 -0.46589247556E+02 -0.37532660787E+02  0.21832022010E+03  0.24549337536E+03  0.94994843165E+02 0.  0.
          5    1    3    3  502    0  0.55714697029E+02 -0.56328009766E+01  0.31320208919E+03  0.31819628688E+03  0.41800000000E+01 0. -1.
         -5    1    3    3    0  502 -0.91254494731E+01  0.43165461764E+02  0.34589093052E+02  0.56217512178E+02  0.41800000000E+01 0. -1.
        -11    1    4    4    0    0 -0.38339788021E+02  0.18847387126E+02  0.40884394343E+02  0.59132876200E+02  0.00000000000E+00 0.  1.
         11    1    4    4    0    0 -0.82494595357E+01 -0.56380047913E+02  0.17743582575E+03  0.18636049916E+03  0.00000000000E+00 0. -1.
</event>
<event>
 8    1  0.7224924E-009  0.9251814E+02  0.7561462E-02  0.1296866E+00
          2   -1    0    0  501    0  0.00000000000E+00  0.00000000000E+00  0.11105603757E+03  0.11105603757E+03  0.00000000000E+00 0. -1.
         -2   -1    0    0    0  501 -0.00000000000E+00 -0.00000000000E+00 -0.12377192984E+03  0.12377192984E+03  0.00000000000E+00 0.  1.
         25    2    1    2    0    0  0.38861359255E+02 -0.25304302185E+02 -0.71417497676E+01  0.13360101074E+03  0.12509081712E+03 0.  0.
         23    2    1    2    0    0 -0.38861359255E+02  0.25304302185E+02 -0.55741424956E+01  0.10122695667E+03  0.89807086246E+02 0.  0.
          5    1    3    3  502    0 -0.71589198026E+01  0.34191941646E+02 -0.38363790799E+02  0.52053740026E+02  0.41800000000E+01 0.  1.
         -5    1    3    3    0  502  0.46020279057E+02 -0.59496243831E+02  0.31222041031E+02  0.81547270713E+02  0.41800000000E+01 0.  1.
        -11    1    4    4    0    0  0.65404635939E+01 -0.13366987417E+02 -0.32535228416E+02  0.35777019226E+02  0.00000000000E+00 0.  1.
         11    1    4    4    0    0 -0.45401822849E+02  0.38671289602E+02  0.26961085920E+02  0.65449937444E+02  0.00000000000E+00 0. -1.
</event>
<event>
 8    1  0.7224924E-009  0.1283303E+03  0.7561462E-02  0.1229955E+00
          2   -1    0    0  501    0  0.00000000000E+00  0.00000000000E+00  0.21647871475E+03  0.21647871475E+03  0.00000000000E+00 0. -1.
         -2   -1    0    0    0  501 -0.00000000000E+00 -0.00000000000E+00 -0.11270294198E+03  0.11270294198E+03  0.00000000000E+00 0.  1.
         25    2    1    2    0    0 -0.97697774444E+02 -0.53792939810E+02  0.62654517125E+02  0.17891817249E+03  0.12509032108E+03 0.  0.
         23    2    1    2    0    0  0.97697774444E+02  0.53792939810E+02  0.41121255643E+02  0.15026348424E+03  0.91921822900E+02 0.  0.
          5    1    3    3  502    0 -0.11975864721E+02 -0.20749945006E+02 -0.36385378865E+02  0.43764708941E+02  0.41800000000E+01 0.  1.
         -5    1    3    3    0  502 -0.85721909723E+02 -0.33042994804E+02  0.99039895990E+02  0.13515346355E+03  0.41800000000E+01 0.  1.
        -11    1    4    4    0    0  0.36120492739E+02  0.68164803508E+02  0.40278214018E+02  0.87025656892E+02  0.00000000000E+00 0. -1.
         11    1    4    4    0    0  0.61577281705E+02 -0.14371863698E+02  0.84304162463E+00  0.63237827347E+02  0.00000000000E+00 0.  1.
</event>
<event>
 8    1  0.7224924E-009  0.1084749E+03  0.7561462E-02  0.1263421E+00
         -1   -1    0    0    0  501 -0.00000000000E+00  0.00000000000E+00  0.47771117843E+02  0.47771117843E+02  0.00000000000E+00 0.  1.
          1   -1    0    0  501    0  0.00000000000E+00 -0.00000000000E+00 -0.29859558990E+03  0.29859558990E+03  0.00000000000E+00 0. -1.
         25    2    1    2    0    0 -0.29060394205E+01 -0.46288454137E+02 -0.11957298086E+03  0.17915462513E+03  0.12509043091E+03 0.  0.
         23    2    1    2    0    0  0.29060394205E+01  0.46288454137E+02 -0.13125149120E+03  0.16721208261E+03  0.92638332113E+02 0.  0.
          5    1    3    3  502    0 -0.37090425931E+02  0.31174002425E+02 -0.44501702796E+02  0.65919587944E+02  0.41800000000E+01 0. -1.
         -5    1    3    3    0  502  0.34184386511E+02 -0.77462456562E+02 -0.75071278063E+02  0.11323503719E+03  0.41800000000E+01 0. -1.
        -11    1    4    4    0    0 -0.29447610119E+02  0.31400511092E+01 -0.10126236213E+03  0.10550396981E+03  0.00000000000E+00 0. -1.
         11    1    4    4    0    0  0.32353649539E+02  0.43148403028E+02 -0.29989129073E+02  0.61708112796E+02  0.00000000000E+00 0.  1.
</event>
<event>
 8    1  0.7224924E-009  0.9355155E+02  0.7561462E-02  0.1294472E+00
          1   -1    0    0  501    0  0.00000000000E+00  0.00000000000E+00  0.17351991653E+03  0.17351991653E+03  0.00000000000E+00 0. -1.
         -1   -1    0    0    0  501 -0.00000000000E+00 -0.00000000000E+00 -0.10887354122E+03  0.10887354122E+03  0.00000000000E+00 0.  1.
         25    2    1    2    0    0 -0.79024078587E+02  0.10683608294E+02  0.68756073576E+02  0.16350657193E+03  0.12509219371E+03 0.  0.
         23    2    1    2    0    0  0.79024078587E+02 -0.10683608294E+02 -0.41096982682E+01  0.11888688583E+03  0.88080971377E+02 0.  0.
          5    1    3    3  502    0 -0.36297730884E+02  0.36937226883E+02  0.93852761350E+02  0.10727393537E+03  0.41800000000E+01 0. -1.
         -5    1    3    3    0  502 -0.42726347703E+02 -0.26253618590E+02 -0.25096687774E+02  0.56232636559E+02  0.41800000000E+01 0. -1.
        -11    1    4    4    0    0  0.43907390768E+02 -0.20363589759E+02 -0.43614131485E+02  0.65151571103E+02  0.00000000000E+00 0.  1.
         11    1    4    4    0    0  0.35116687819E+02  0.96799814651E+01  0.39504433217E+02  0.53735314723E+02  0.00000000000E+00 0. -1.
</event>
<event>
 8    1  0.7224924E-009  0.1679942E+03  0.7561462E-02  0.1179956E+00
          2   -1    0    0  501    0  0.00000000000E+00  0.00000000000E+00  0.81891903363E+03  0.81891903363E+03  0.00000000000E+00 0. -1.
         -2   -1    0    0    0  501 -0.00000000000E+00 -0.00000000000E+00 -0.96551667331E+02  0.96551667331E+02  0.00000000000E+00 0.  1.
         25    2    1    2    0    0 -0.12409157265E+03  0.69883605773E+02  0.72300337238E+03  0.74743786352E+03  0.12508815530E+03 0.  0.
         23    2    1    2    0    0  0.12409157265E+03 -0.69883605773E+02 -0.63600608160E+00  0.16803283744E+03  0.89175070482E+02 0.  0.
          5    1    3    3  502    0  0.18398208635E+02  0.23669051176E+02  0.23507730715E+03  0.23701799678E+03  0.41800000000E+01 0.  1.
         -5    1    3    3    0  502 -0.14248978128E+03  0.46214554597E+02  0.48792606523E+03  0.51041986674E+03  0.41800000000E+01 0.  1.
        -11    1    4    4    0    0  0.55605050852E+02 -0.67340422829E+02 -0.31542525983E+02  0.92852491472E+02  0.00000000000E+00 0.  1.
         11    1    4    4    0    0  0.68486521796E+02 -0.25431829436E+01  0.30906519901E+02  0.75180345967E+02  0.00000000000E+00 0. -1.
</event>
<event>
 8    1  0.7224924E-009  0.1116494E+03  0.7561462E-02  0.1257546E+00
         -3   -1    0    0    0  501 -0.00000000000E+00  0.00000000000E+00  0.25696394199E+03  0.25696394199E+03  0.00000000000E+00 0.  1.
          3   -1    0    0  501    0  0.00000000000E+00 -0.00000000000E+00 -0.65067833844E+02  0.65067833844E+02  0.00000000000E+00 0. -1.
         25    2    1    2    0    0  0.25136838206E+02 -0.58788542277E+02  0.81642403280E+02  0.16248279242E+03  0.12508885834E+03 0.  0.
         23    2    1    2    0    0 -0.25136838206E+02  0.58788542277E+02  0.11025370486E+03  0.15954898341E+03  0.95979400565E+02 0.  0.
          5    1    3    3  502    0  0.70620627423E+01 -0.96904904532E+02  0.64828216769E+02  0.11687858376E+03  0.41800000000E+01 0.  1.
         -5    1    3    3    0  502  0.18074775464E+02  0.38116362255E+02  0.16814186511E+02  0.45604208662E+02  0.41800000000E+01 0.  1.
        -11    1    4    4    0    0  0.15748668574E+02  0.29235812303E+02 -0.51461365252E+01  0.33604106951E+02  0.00000000000E+00 0. -1.
         11    1    4    4    0    0 -0.40885506780E+02  0.29552729974E+02  0.11539984139E+03  0.12594487646E+03  0.00000000000E+00 0.  1.
</event>
<event>
 8    1  0.7224924E-009  0.1212933E+03  0.7561462E-02  0.1240979E+00
         -2   -1    0    0    0  501 -0.00000000000E+00  0.00000000000E+00  0.84980221604E+02  0.84980221604E+02  0.00000000000E+00 0.  1.
          2   -1    0    0  501    0  0.00000000000E+00 -0.00000000000E+00 -0.22466134947E+03  0.22466134947E+03  0.00000000000E+00 0. -1.
         25    2    1    2    0    0 -0.16535403300E+02  0.79731024681E+02 -0.10639354057E+03  0.18329419768E+03  0.12508685610E+03 0.  0.
         23    2    1    2    0    0  0.16535403300E+02 -0.79731024681E+02 -0.33287587289E+02  0.12634737339E+03  0.90692554463E+02 0.  0.
          5    1    3    3  502    0 -0.26767320447E+02  0.10805862478E+03 -0.56616177512E+02  0.12496407400E+03  0.41800000000E+01 0.  1.
         -5    1    3    3    0  502  0.10231917147E+02 -0.28327600102E+02 -0.49777363060E+02  0.58330123686E+02  0.41800000000E+01 0.  1.
        -11    1    4    4    0    0  0.18032452531E+02  0.27851651403E+01  0.20803183692E+02  0.27671265617E+02  0.00000000000E+00 0.  1.
         11    1    4    4    0    0 -0.14970492307E+01 -0.82516189821E+02 -0.54090770981E+02  0.98676107768E+02  0.00000000000E+00 0. -1.
</event>
<event>
 8    1  0.7224924E-009  0.1784543E+03  0.7561462E-02  0.1169307E+00
         -1   -1    0    0    0  501 -0.00000000000E+00  0.00000000000E+00  0.11824120158E+03  0.11824120158E+03  0.00000000000E+00 0.  1.
          1   -1    0    0  501    0  0.00000000000E+00 -0.00000000000E+00 -0.51123804628E+03  0.51123804628E+03  0.00000000000E+00 0. -1.
         25    2    1    2    0    0  0.96864599854E+02 -0.11661724339E+03  0.21342728727E+01  0.19655879586E+03  0.12509385656E+03 0.  0.
         23    2    1    2    0    0 -0.96864599854E+02  0.11661724339E+03 -0.39513111758E+03  0.43292045200E+03  0.91154733947E+02 0.  0.
          5    1    3    3  502    0  0.11377540633E+03 -0.12160170741E+03 -0.20197515669E+02  0.16780116319E+03  0.41800000000E+01 0.  1.
         -5    1    3    3    0  502 -0.16910806472E+02  0.49844640227E+01  0.22331788541E+02  0.28757632667E+02  0.41800000000E+01 0.  1.
        -11    1    4    4    0    0 -0.66897064689E+02  0.18198129899E+02 -0.11249286714E+03  0.13214020718E+03  0.00000000000E+00 0. -1.
         11    1    4    4    0    0 -0.29967535165E+02  0.98419113489E+02 -0.28263825044E+03  0.30078024482E+03  0.00000000000E+00 0.  1.
</event>
<event>
 8    1  0.7224924E-009  0.2176924E+03  0.7561462E-02  0.1135615E+00
          1   -1    0    0  501    0  0.00000000000E+00  0.00000000000E+00  0.38157139761E+03  0.38157139761E+03  0.00000000000E+00 0. -1.
         -1   -1    0    0    0  501 -0.00000000000E+00 -0.00000000000E+00 -0.14746264725E+03  0.14746264725E+03  0.00000000000E+00 0.  1.
         25    2    1    2    0    0  0.52649355849E+02  0.20354824358E+03  0.10326945983E+03  0.26554807053E+03  0.12508938522E+03 0.  0.
         23    2    1    2    0    0 -0.52649355849E+02 -0.20354824358E+03  0.13083929054E+03  0.26348597433E+03  0.90011646938E+02 0.  0.
          5    1    3    3  502    0  0.59795247739E+02  0.10891675138E+03 -0.12274979512E+01  0.12432742873E+03  0.41800000000E+01 0. -1.
         -5    1    3    3    0  502 -0.71458918896E+01  0.94631492195E+02  0.10449695778E+03  0.14122064180E+03  0.41800000000E+01 0. -1.
        -11    1    4    4    0    0  0.31337732138E+01 -0.84954558505E+02  0.10678533910E+02  0.85680386505E+02  0.00000000000E+00 0.  1.
         11    1    4    4    0    0 -0.55783129063E+02 -0.11859368507E+03  0.12016075663E+03  0.17780558782E+03  0.00000000000E+00 0. -1.
</event>
<event>
 8    1  0.7224924E-009  0.1970628E+03  0.7561462E-02  0.1152241E+00
         -1   -1    0    0    0  501 -0.00000000000E+00  0.00000000000E+00  0.92447021398E+02  0.92447021398E+02  0.00000000000E+00 0.  1.
          1   -1    0    0  501    0  0.00000000000E+00 -0.00000000000E+00 -0.47410199025E+03  0.47410199025E+03  0.00000000000E+00 0. -1.
         25    2    1    2    0    0 -0.10707694216E+03 -0.14056940280E+03 -0.16854412016E+03  0.27437128304E+03  0.12508897623E+03 0.  0.
         23    2    1    2    0    0  0.10707694216E+03  0.14056940280E+03 -0.21311084869E+03  0.29217772860E+03  0.93415002627E+02 0.  0.
          5    1    3    3  502    0  0.20440395445E+02 -0.64353938119E+02 -0.46897090669E+02  0.82316757896E+02  0.41800000000E+01 0.  1.
         -5    1    3    3    0  502 -0.12751733760E+03 -0.76215464684E+02 -0.12164702949E+03  0.19205452515E+03  0.41800000000E+01 0.  1.
        -11    1    4    4    0    0  0.80563719556E+02  0.90229664312E+02 -0.73803507683E+02  0.14169990465E+03  0.00000000000E+00 0.  1.
         11    1    4    4    0    0  0.26513222600E+02  0.50339738491E+02 -0.13930734101E+03  0.15047782395E+03  0.00000000000E+00 0. -1.
</event>
<event>
 8    1  0.7224924E-009  0.1070423E+03  0.7561462E-02  0.1266147E+00
          2   -1    0    0  501    0  0.00000000000E+00  0.00000000000E+00  0.46986418689E+02  0.46986418689E+02  0.00000000000E+00 0. -1.
         -2   -1    0    0    0  501 -0.00000000000E+00 -0.00000000000E+00 -0.32965623827E+03  0.32965623827E+03  0.00000000000E+00 0.  1.
         25    2    1    2    0    0 -0.38656413729E+02 -0.37012706781E+02 -0.12918845940E+03  0.18762026704E+03  0.12508975888E+03 0.  0.
         23    2    1    2    0    0  0.38656413729E+02  0.37012706781E+02 -0.15348136019E+03  0.18902238993E+03  0.96481486220E+02 0.  0.
          5    1    3    3  502    0 -0.72546627333E+02 -0.33017931889E+02 -0.34628985503E+02  0.87004804469E+02  0.41800000000E+01 0.  1.
         -5    1    3    3    0  502  0.33890213604E+02 -0.39947748913E+01 -0.94559473894E+02  0.10061546257E+03  0.41800000000E+01 0.  1.
        -11    1    4    4    0    0  0.44357235897E+02  0.60893523525E+02 -0.14435155609E+03  0.16282799922E+03  0.00000000000E+00 0.  1.
         11    1    4    4    0    0 -0.57008221673E+01 -0.23880816744E+02 -0.91298040970E+01  0.26194390709E+02  0.00000000000E+00 0. -1.
</event>
<event>
 8    1  0.7224924E-009  0.7507405E+02  0.7561462E-02  0.1343642E+00
          2   -1    0    0  501    0  0.00000000000E+00  0.00000000000E+00  0.16022305505E+03  0.16022305505E+03  0.00000000000E+00 0. -1.
         -2   -1    0    0    0  501 -0.00000000000E+00 -0.00000000000E+00 -0.78538024595E+02  0.78538024595E+02  0.00000000000E+00 0.  1.
         25    2    1    2    0    0  0.19159336123E+02 -0.37748701048E+01  0.23198645345E+02  0.12871386926E+03  0.12509097964E+03 0.  0.
         23    2    1    2    0    0 -0.19159336123E+02  0.37748701048E+01  0.58486385109E+02  0.11004721039E+03  0.91150433164E+02 0.  0.
          5    1    3    3  502    0  0.21357338610E+02  0.40733123220E+02  0.56466049818E+02  0.72946627214E+02  0.41800000000E+01 0.  1.
         -5    1    3    3    0  502 -0.21980024870E+01 -0.44507993325E+02 -0.33267404473E+02  0.55767242043E+02  0.41800000000E+01 0.  1.
        -11    1    4    4    0    0  0.15672140357E+01 -0.24278213254E+02 -0.15085461629E+02  0.28626193446E+02  0.00000000000E+00 0.  1.
         11    1    4    4    0    0 -0.20726550159E+02  0.28053083359E+02  0.73571846738E+02  0.81421016942E+02  0.00000000000E+00 0. -1.
</event>
<event>
 8    1  0.7224924E-009  0.1252027E+03  0.7561462E-02  0.1234753E+00
          2   -1    0    0  501    0  0.00000000000E+00  0.00000000000E+00  0.48789691488E+03  0.48789691488E+03  0.00000000000E+00 0.  1.
         -2   -1    0    0    0  501 -0.00000000000E+00 -0.00000000000E+00 -0.34960608819E+02  0.34960608819E+02  0.00000000000E+00 0. -1.
         25    2    1    2    0    0 -0.71018230641E+02 -0.31022699505E+01  0.24867683401E+03  0.28729929557E+03  0.12508998483E+03 0.  0.
         23    2    1    2    0    0  0.71018230641E+02  0.31022699505E+01  0.20425947205E+03  0.23555822812E+03  0.93340954307E+02 0.  0.
          5    1    3    3  502    0 -0.89160832187E+02 -0.39355047563E+02  0.20789970172E+03  0.22964806147E+03  0.41800000000E+01 0. -1.
         -5    1    3    3    0  502  0.18142601546E+02  0.36252777612E+02  0.40777132288E+02  0.57651234099E+02  0.41800000000E+01 0. -1.
        -11    1    4    4    0    0 -0.20490183181E+02  0.19897625157E+01  0.15450340724E+02  0.25739459787E+02  0.00000000000E+00 0.  1.
         11    1    4    4    0    0  0.91508413821E+02  0.11125074349E+01  0.18880913133E+03  0.20981876833E+03  0.00000000000E+00 0. -1.
</event>
<event>
 8    1  0.7224924E-009  0.1628675E+03  0.7561462E-02  0.1185497E+00
         -1   -1    0    0    0  501 -0.00000000000E+00  0.00000000000E+00  0.39614394495E+02  0.39614394495E+02  0.00000000000E+00 0.  1.
          1   -1    0    0  501    0  0.00000000000E+00 -0.00000000000E+00 -0.84657756399E+03  0.84657756399E+03  0.00000000000E+00 0. -1.
         25    2    1    2    0    0  0.10227683520E+03  0.11001751480E+03 -0.42690878494E+03  0.46953458943E+03  0.12508883016E+03 0.  0.
         23    2    1    2    0    0 -0.10227683520E+03 -0.11001751480E+03 -0.38005438456E+03  0.41665736906E+03  0.81225755675E+02 0.  0.
          5    1    3    3  502    0  0.59297726670E+02  0.10314504374E+03 -0.16198531676E+03  0.20102695262E+03  0.41800000000E+01 0.  1.
         -5    1    3    3    0  502  0.42979108534E+02  0.68724710568E+01 -0.26492346818E+03  0.26850763680E+03  0.41800000000E+01 0.  1.
        -11    1    4    4    0    0 -0.92256676161E+02 -0.55786556133E+02 -0.30518885172E+03  0.32367216339E+03  0.00000000000E+00 0.  1.
         11    1    4    4    0    0 -0.10020159043E+02 -0.54230958667E+02 -0.74865532843E+02  0.92985205668E+02  0.00000000000E+00 0. -1.
</event>
<event>
 8    1  0.7224924E-009  0.1143053E+03  0.7561462E-02  0.1252799E+00
         -1   -1    0    0    0  501 -0.00000000000E+00  0.00000000000E+00  0.22598075600E+02  0.22598075600E+02  0.00000000000E+00 0.  1.
          1   -1    0    0  501    0  0.00000000000E+00 -0.00000000000E+00 -0.78363926168E+03  0.78363926168E+03  0.00000000000E+00 0. -1.
         25    2    1    2    0    0 -0.53335862964E+02  0.34417992209E+02 -0.56211833754E+03  0.57935613057E+03  0.12508872118E+03 0.  0.
         23    2    1    2    0    0  0.53335862964E+02 -0.34417992209E+02 -0.19892284854E+03  0.22688120671E+03  0.88743843842E+02 0.  0.
          5    1    3    3  502    0 -0.91209777714E+02  0.22758311487E+02 -0.30553981260E+03  0.31970175754E+03  0.41800000000E+01 0.  1.
         -5    1    3    3    0  502  0.37873914750E+02  0.11659680723E+02 -0.25657852494E+03  0.25965437303E+03  0.41800000000E+01 0.  1.
        -11    1    4    4    0    0  0.20289684363E+02 -0.53000249909E+02 -0.58799304103E+02  0.81719373132E+02  0.00000000000E+00 0.  1.
         11    1    4    4    0    0  0.33046178601E+02  0.18582257700E+02 -0.14012354444E+03  0.14516183358E+03  0.00000000000E+00 0. -1.
</event>
<event>
 8    1  0.7224924E-009  0.1774877E+03  0.7561462E-02  0.1170257E+00
          2   -1    0    0  501    0  0.00000000000E+00  0.00000000000E+00  0.55331581169E+03  0.55331581169E+03  0.00000000000E+00 0. -1.
         -2   -1    0    0    0  501 -0.00000000000E+00 -0.00000000000E+00 -0.68401996517E+02  0.68401996517E+02  0.00000000000E+00 0.  1.
         25    2    1    2    0    0  0.35951703474E+02 -0.15621595886E+03  0.27954703515E+03  0.34567459342E+03  0.12509368046E+03 0.  0.
         23    2    1    2    0    0 -0.35951703474E+02  0.15621595886E+03  0.20536678002E+03  0.27604321478E+03  0.91260020303E+02 0.  0.
          5    1    3    3  502    0  0.33254838830E+02 -0.17152755955E+03  0.27941798179E+03  0.32957467885E+03  0.41800000000E+01 0.  1.
         -5    1    3    3    0  502  0.26968646441E+01  0.15311600689E+02  0.12905336066E+00  0.16099914575E+02  0.41800000000E+01 0.  1.
        -11    1    4    4    0    0 -0.42828110425E+02  0.12478130021E+03  0.20509773687E+03  0.24386410476E+03  0.00000000000E+00 0. -1.
         11    1    4    4    0    0  0.68764069515E+01  0.31434658652E+02  0.26904314997E+00  0.32179110015E+02  0.00000000000E+00 0.  1.
</event>
<event>
 8    1  0.7224924E-009  0.2633363E+03  0.7561462E-02  0.1105155E+00
          1   -1    0    0  501    0  0.00000000000E+00  0.00000000000E+00  0.15840587957E+04  0.15840587957E+04  0.00000000000E+00 0. -1.
         -1   -1    0    0    0  501 -0.00000000000E+00 -0.00000000000E+00 -0.51876752221E+02  0.51876752221E+02  0.00000000000E+00 0.  1.
         25    2    1    2    0    0  0.25268769408E+03  0.62531630906E+02  0.93190385900E+03  0.97563034097E+03  0.12509390151E+03 0.  0.
         23    2    1    2    0    0 -0.25268769408E+03 -0.62531630906E+02  0.60027818443E+03  0.66030520691E+03  0.88925766543E+02 0.  0.
          5    1    3    3  502    0  0.12153543180E+03  0.30900224553E+01  0.24207741481E+03  0.27092315623E+03  0.41800000000E+01 0.  1.
         -5    1    3    3    0  502  0.13115226228E+03  0.59441608451E+02  0.68982644419E+03  0.70470718474E+03  0.41800000000E+01 0.  1.
        -11    1    4    4    0    0 -0.13748066775E+03 -0.43533438502E+02  0.22469359824E+03  0.26698933942E+03  0.00000000000E+00 0.  1.
         11    1    4    4    0    0 -0.11520702633E+03 -0.18998192404E+02  0.37558458619E+03  0.39331586749E+03  0.00000000000E+00 0. -1.
</event>
<event>
 8    1  0.7224924E-009  0.7646638E+02  0.7561462E-02  0.1339389E+00
          2   -1    0    0  501    0  0.00000000000E+00  0.00000000000E+00  0.43416586260E+03  0.43416586260E+03  0.00000000000E+00 0. -1.
         -2   -1    0    0    0  501 -0.00000000000E+00 -0.00000000000E+00 -0.27960108580E+02  0.27960108580E+02  0.00000000000E+00 0.  1.
         25    2    1    2    0    0 -0.24812748569E+02 -0.63592265069E+01  0.17915032326E+03  0.21999498434E+03  0.12508733971E+03 0.  0.
         23    2    1    2    0    0  0.24812748569E+02  0.63592265069E+01  0.22705543075E+03  0.24213098684E+03  0.80107015295E+02 0.  0.
          5    1    3    3  502    0  0.29232257443E+02  0.18203762070E+01  0.15877958854E+03  0.16151244157E+03  0.41800000000E+01 0.  1.
         -5    1    3    3    0  502 -0.54045006011E+02 -0.81796027139E+01  0.20370734720E+02  0.58482542766E+02  0.41800000000E+01 0.  1.
        -11    1    4    4    0    0 -0.13521944331E+02  0.23044352506E+02  0.27883452504E+02  0.38618286917E+02  0.00000000000E+00 0.  1.
         11    1    4    4    0    0  0.38334692900E+02 -0.16685125999E+02  0.19917197825E+03  0.20351269992E+03  0.00000000000E+00 0. -1.
</event>
<event>
 8    1  0.7224924E-009  0.2047999E+03  0.7561462E-02  0.1145751E+00
         -2   -1    0    0    0  501 -0.00000000000E+00  0.00000000000E+00  0.38390040427E+02  0.38390040427E+02  0.00000000000E+00 0. -1.
          2   -1    0    0  501    0  0.00000000000E+00 -0.00000000000E+00 -0.11761652884E+04  0.11761652884E+04  0.00000000000E+00 0.  1.
         25    2    1    2    0    0 -0.14876690284E+03  0.10529732509E+03 -0.57467513766E+03  0.61572561573E+03  0.12508957580E+03 0.  0.
         23    2    1    2    0    0  0.14876690284E+03 -0.10529732509E+03 -0.56310011036E+03  0.59882971314E+03  0.91083329978E+02 0.  0.
          5    1    3    3  502    0 -0.41074960671E+01 -0.24452850685E+02 -0.92287691435E+02  0.95651993294E+02  0.41800000000E+01 0.  1.
         -5    1    3    3    0  502 -0.14465940677E+03  0.12975017578E+03 -0.48238744622E+03  0.52007362244E+03  0.41800000000E+01 0.  1.
        -11    1    4    4    0    0  0.55751747054E+02 -0.94888462713E+01 -0.28213188334E+03  0.28774414868E+03  0.00000000000E+00 0.  1.
         11    1    4    4    0    0  0.93015155789E+02 -0.95808478822E+02 -0.28096822702E+03  0.31108556446E+03  0.00000000000E+00 0. -1.
</event>
<event>
 8    1  0.7224924E-009  0.1287203E+03  0.7561462E-02  0.1229367E+00
          2   -1    0    0  501    0  0.00000000000E+00  0.00000000000E+00  0.82851457973E+03  0.82851457973E+03  0.00000000000E+00 0. -1.
         -2   -1    0    0    0  501 -0.00000000000E+00 -0.00000000000E+00 -0.28390635700E+02  0.28390635700E+02  0.00000000000E+00 0.  1.
         25    2    1    2    0    0 -0.58517693109E+02  0.61287360260E+02  0.61983348987E+03  0.63798251855E+03  0.12509067861E+03 0.  0.
         23    2    1    2    0    0  0.58517693109E+02 -0.61287360260E+02  0.18029045416E+03  0.21892269688E+03  0.90785672959E+02 0.  0.
          5    1    3    3  502    0 -0.68630691537E+02  0.88815040972E+02  0.37779701925E+03  0.39414000492E+03  0.41800000000E+01 0.  1.
         -5    1    3    3    0  502  0.10112998428E+02 -0.27527680712E+02  0.24203647063E+03  0.24384251363E+03  0.41800000000E+01 0.  1.
        -11    1    4    4    0    0  0.46546384088E+02  0.61995161086E+01  0.35961403972E+02  0.59145772861E+02  0.00000000000E+00 0. -1.
         11    1    4    4    0    0  0.11971309021E+02 -0.67486876369E+02  0.14432905019E+03  0.15977692402E+03  0.00000000000E+00 0.  1.
</event>
<event>
 8    1  0.7224924E-009  0.1344604E+03  0.7561462E-02  0.1220983E+00
          2   -1    0    0  501    0  0.00000000000E+00  0.00000000000E+00  0.27517249028E+04  0.27517249028E+04  0.00000000000E+00 0. -1.
         -2   -1    0    0    0  501 -0.00000000000E+00 -0.00000000000E+00 -0.13356779660E+02  0.13356779660E+02  0.00000000000E+00 0.  1.
         25    2    1    2    0    0 -0.19219769446E+02 -0.11298395235E+03  0.22359282506E+04  0.22423552771E+04  0.12508906411E+03 0.  0.
         23    2    1    2    0    0  0.19219769446E+02  0.11298395235E+03  0.50243987260E+03  0.52272640540E+03  0.87534543462E+02 0.  0.
          5    1    3    3  502    0 -0.29413768576E+02 -0.10902863460E+03  0.99890212393E+03  0.10052737630E+04  0.41800000000E+01 0. -1.
         -5    1    3    3    0  502  0.10193999129E+02 -0.39553177509E+01  0.12370261266E+04  0.12370815141E+04  0.41800000000E+01 0. -1.
        -11    1    4    4    0    0  0.24536191410E+02 -0.58776354326E+01  0.87130497860E+02  0.90709949534E+02  0.00000000000E+00 0. -1.
         11    1    4    4    0    0 -0.53164219637E+01  0.11886158778E+03  0.41530937474E+03  0.43201645587E+03  0.00000000000E+00 0.  1.
</event>
<event>
 8    1  0.7224924E-009  0.8181992E+02  0.7561462E-02  0.1323965E+00
         -1   -1    0    0    0  501 -0.00000000000E+00  0.00000000000E+00  0.13731146773E+03  0.13731146773E+03  0.00000000000E+00 0.  1.
          1   -1    0    0  501    0  0.00000000000E+00 -0.00000000000E+00 -0.89811445437E+02  0.89811445437E+02  0.00000000000E+00 0. -1.
         25    2    1    2    0    0  0.80959089132E+01 -0.15064622294E+02  0.46464809389E+02  0.13453702411E+03  0.12509494697E+03 0.  0.
         23    2    1    2    0    0 -0.80959089132E+01  0.15064622294E+02  0.10352129044E+01  0.92585889060E+02  0.90986749592E+02 0.  0.
          5    1    3    3  502    0 -0.42233005724E+02  0.25960984816E+02 -0.71063965017E+01  0.50255077120E+02  0.41800000000E+01 0. -1.
         -5    1    3    3    0  502  0.50328914637E+02 -0.41025607110E+02  0.53571205891E+02  0.84281946987E+02  0.41800000000E+01 0. -1.
        -11    1    4    4    0    0  0.95253208248E+01 -0.12739073707E+02  0.39129976905E+02  0.42239446354E+02  0.00000000000E+00 0.  1.
         11    1    4    4    0    0 -0.17621229738E+02  0.27803696002E+02 -0.38094764001E+02  0.50346442706E+02  0.00000000000E+00 0. -1.
</event>
<event>
 8    1  0.7224924E-009  0.1593743E+03  0.7561462E-02  0.1189405E+00
          2   -1    0    0  501    0  0.00000000000E+00  0.00000000000E+00  0.55705149234E+03  0.55705149234E+03  0.00000000000E+00 0.  1.
         -2   -1    0    0    0  501 -0.00000000000E+00 -0.00000000000E+00 -0.83350054710E+02  0.83350054710E+02  0.00000000000E+00 0. -1.
         25    2    1    2    0    0 -0.12566458929E+03  0.59961296939E+02  0.63196793190E+02  0.19755171288E+03  0.12508356590E+03 0.  0.
         23    2    1    2    0    0  0.12566458929E+03 -0.59961296939E+02  0.41050464444E+03  0.44284983417E+03  0.90636451747E+02 0.  0.
          5    1    3    3  502    0  0.12286678610E+02  0.80417334417E+01 -0.22356826927E+02  0.27072717970E+02  0.41800000000E+01 0. -1.
         -5    1    3    3    0  502 -0.13795126790E+03  0.51919563497E+02  0.85553620117E+02  0.17047899491E+03  0.41800000000E+01 0. -1.
        -11    1    4    4    0    0  0.80126159763E+02  0.75224253412E+00  0.13411168961E+03  0.15622647867E+03  0.00000000000E+00 0. -1.
         11    1    4    4    0    0  0.45538429531E+02 -0.60713539473E+02  0.27639295483E+03  0.28662335550E+03  0.00000000000E+00 0.  1.
</event>
<event>
 8    1  0.7224924E-009  0.1229860E+03  0.7561462E-02  0.1238251E+00
         -3   -1    0    0    0  501 -0.00000000000E+00  0.00000000000E+00  0.69189230120E+02  0.69189230120E+02  0.00000000000E+00 0.  1.
          3   -1    0    0  501    0  0.00000000000E+00 -0.00000000000E+00 -0.28061266045E+03  0.28061266045E+03  0.00000000000E+00 0. -1.
         25    2    1    2    0    0  0.49609786687E+02  0.48745776166E+02 -0.50456892023E+02  0.15175902396E+03  0.12509045436E+03 0.  0.
         23    2    1    2    0    0 -0.49609786687E+02 -0.48745776166E+02 -0.16096653831E+03  0.19804286661E+03  0.92051447189E+02 0.  0.
          5    1    3    3  502    0 -0.20286216304E+02  0.67208613993E+02 -0.30412728643E+02  0.76622025752E+02  0.41800000000E+01 0.  1.
         -5    1    3    3    0  502  0.69896002991E+02 -0.18462837826E+02 -0.20044163379E+02  0.75136998212E+02  0.41800000000E+01 0.  1.
        -11    1    4    4    0    0 -0.50466444280E+02  0.38631700896E+01 -0.12344563296E+03  0.13341892811E+03  0.00000000000E+00 0.  1.
         11    1    4    4    0    0  0.85665759266E+00 -0.52608946256E+02 -0.37520905345E+02  0.64623938493E+02  0.00000000000E+00 0. -1.
</event>
<event>
 8    1  0.7224924E-009  0.8958103E+02  0.7561462E-02  0.1303869E+00
          2   -1    0    0  501    0  0.00000000000E+00  0.00000000000E+00  0.10038447284E+03  0.10038447284E+03  0.00000000000E+00 0.  1.
         -2   -1    0    0    0  501 -0.00000000000E+00 -0.00000000000E+00 -0.12253739554E+03  0.12253739554E+03  0.00000000000E+00 0. -1.
         25    2    1    2    0    0  0.57138832764E+01  0.58178227865E+01 -0.36442711006E+02  0.13054010286E+03  0.12508457836E+03 0.  0.
         23    2    1    2    0    0 -0.57138832764E+01 -0.58178227865E+01  0.14289788305E+02  0.92381765519E+02  0.90904879003E+02 0.  0.
          5    1    3    3  502    0 -0.34212470109E+02  0.26546064934E+02  0.28074228803E+02  0.51776649152E+02  0.41800000000E+01 0. -1.
         -5    1    3    3    0  502  0.39926353385E+02 -0.20728242148E+02 -0.64516939809E+02  0.78763453705E+02  0.41800000000E+01 0. -1.
        -11    1    4    4    0    0 -0.40032178861E+02 -0.28676052378E+02  0.13817537269E+02  0.51145045318E+02  0.00000000000E+00 0. -1.
         11    1    4    4    0    0  0.34318295585E+02  0.22858229591E+02  0.47225103580E+00  0.41236720201E+02  0.00000000000E+00 0.  1.
</event>
<event>
 8    1  0.7224924E-009  0.4606308E+02  0.7561462E-02  0.1467812E+00
          2   -1    0    0  501    0  0.00000000000E+00  0.00000000000E+00  0.77738184089E+02  0.77738184089E+02  0.00000000000E+00 0. -1.
         -2   -1    0    0    0  501 -0.00000000000E+00 -0.00000000000E+00 -0.21349314346E+03  0.21349314346E+03  0.00000000000E+00 0.  1.
         25    2    1    2    0    0  0.20274986184E+01 -0.35294838167E+02 -0.14458657543E+03  0.19443058425E+03  0.12509251755E+03 0.  0.
         23    2    1    2    0    0 -0.20274986184E+01  0.35294838167E+02  0.88316160612E+01  0.96800743293E+02  0.89680265989E+02 0.  0.
          5    1    3    3  502    0 -0.12270639088E+01 -0.11725094424E+02 -0.16335854922E+03  0.16383672216E+03  0.41800000000E+01 0.  1.
         -5    1    3    3    0  502  0.32545625272E+01 -0.23569743743E+02  0.18771973795E+02  0.30593862089E+02  0.41800000000E+01 0.  1.
        -11    1    4    4    0    0  0.51363831886E+01 -0.91223373568E+01  0.40467940826E+02  0.41800163944E+02  0.00000000000E+00 0. -1.
         11    1    4    4    0    0 -0.71638818069E+01  0.44417175523E+02 -0.31636324765E+02  0.55000579348E+02  0.00000000000E+00 0.  1.
</event>
<event>
 8    1  0.7224924E-009  0.4739421E+02  0.7561462E-02  0.1459926E+00
         -1   -1    0    0    0  501 -0.00000000000E+00  0.00000000000E+00  0.31565102647E+02  0.31565102647E+02  0.00000000000E+00 0.  1.
          1   -1    0    0  501    0  0.00000000000E+00 -0.00000000000E+00 -0.69134057233E+03  0.69134057233E+03  0.00000000000E+00 0. -1.
         25    2    1    2    0    0 -0.32857283164E+02 -0.28435006568E+02 -0.57995771975E+03  0.59488344863E+03  0.12508880885E+03 0.  0.
         23    2    1    2    0    0  0.32857283164E+02  0.28435006568E+02 -0.79817749929E+02  0.12802222635E+03  0.90170208935E+02 0.  0.
          5    1    3    3  502    0 -0.17410491172E+02 -0.25513868027E+02 -0.25731672965E+02  0.40418734000E+02  0.41800000000E+01 0. -1.
         -5    1    3    3    0  502 -0.15446791992E+02 -0.29211385408E+01 -0.55422604679E+03  0.55446471463E+03  0.41800000000E+01 0. -1.
        -11    1    4    4    0    0  0.15607826034E+02  0.25437149165E+02  0.13729681603E+02  0.32850524320E+02  0.00000000000E+00 0.  1.
         11    1    4    4    0    0  0.17249457130E+02  0.29978574029E+01 -0.93547431532E+02  0.95171702026E+02  0.00000000000E+00 0. -1.
</event>
<event>
 8    1  0.7224924E-009  0.7891981E+02  0.7561462E-02  0.1332145E+00
         -1   -1    0    0    0  501 -0.00000000000E+00  0.00000000000E+00  0.99652548526E+02  0.99652548526E+02  0.00000000000E+00 0.  1.
          1   -1    0    0  501    0  0.00000000000E+00 -0.00000000000E+00 -0.17336702606E+03  0.17336702606E+03  0.00000000000E+00 0. -1.
         25    2    1    2    0    0  0.36951523924E+02 -0.35556492629E+02 -0.86509078577E+02  0.16050608807E+03  0.12509478144E+03 0.  0.
         23    2    1    2    0    0 -0.36951523924E+02  0.35556492629E+02  0.12794601039E+02  0.11251348652E+03  0.99327254788E+02 0.  0.
          5    1    3    3  502    0  0.60606244445E+02 -0.31827375436E+02  0.21083585859E+01  0.68614985746E+02  0.41800000000E+01 0. -1.
         -5    1    3    3    0  502 -0.23654720521E+02 -0.37291171930E+01 -0.88617437163E+02  0.91891102329E+02  0.41800000000E+01 0. -1.
        -11    1    4    4    0    0 -0.36476034475E+01  0.31139655402E+02 -0.39454981269E+02  0.50395224937E+02  0.00000000000E+00 0. -1.
         11    1    4    4    0    0 -0.33303920477E+02  0.44168372268E+01  0.52249582308E+02  0.62118261579E+02  0.00000000000E+00 0.  1.
</event>
<event>
 8    1  0.7224924E-009  0.1350846E+03  0.7561462E-02  0.1220100E+00
          1   -1    0    0  501    0  0.00000000000E+00  0.00000000000E+00  0.16682684888E+03  0.16682684888E+03  0.00000000000E+00 0. -1.
         -1   -1    0    0    0  501 -0.00000000000E+00 -0.00000000000E+00 -0.13590834259E+03  0.13590834259E+03  0.00000000000E+00 0.  1.
         25    2    1    2    0    0  0.80748257023E+02 -0.44826251260E+02  0.66249400912E+02  0.16900373944E+03  0.12507440590E+03 0.  0.
         23    2    1    2    0    0 -0.80748257023E+02  0.44826251260E+02 -0.35330894618E+02  0.13373145202E+03  0.90034189789E+02 0.  0.
          5    1    3    3  502    0 -0.31664195148E+02  0.31286913086E+01  0.58700711271E+01  0.32624225641E+02  0.41800000000E+01 0.  1.
         -5    1    3    3    0  502  0.11241245217E+03 -0.47954942568E+02  0.60379329785E+02  0.13637951380E+03  0.41800000000E+01 0.  1.
        -11    1    4    4    0    0 -0.93755662304E+02  0.39458327240E+02 -0.50051052617E+02  0.11336750712E+03  0.00000000000E+00 0.  1.
         11    1    4    4    0    0  0.13007405281E+02  0.53679240201E+01  0.14720157999E+02  0.20363944901E+02  0.00000000000E+00 0. -1.
</event>
<event>
 8    1  0.7224924E-009  0.1351137E+03  0.7561462E-02  0.1220059E+00
         -1   -1    0    0    0  501 -0.00000000000E+00  0.00000000000E+00  0.36876072210E+03  0.36876072210E+03  0.00000000000E+00 0.  1.
          1   -1    0    0  501    0  0.00000000000E+00 -0.00000000000E+00 -0.49840515738E+02  0.49840515738E+02  0.00000000000E+00 0. -1.
         25    2    1    2    0    0 -0.39848073472E+00  0.83847744038E+02  0.16831711936E+03  0.22585139623E+03  0.12509035753E+03 0.  0.
         23    2    1    2    0    0  0.39848073472E+00 -0.83847744038E+02  0.15060308700E+03  0.19274984160E+03  0.86258962751E+02 0.  0.
          5    1    3    3  502    0  0.45007055874E+02 -0.99565339934E+01  0.50597702032E+02  0.68573810588E+02  0.41800000000E+01 0. -1.
         -5    1    3    3    0  502 -0.45405536609E+02  0.93804278032E+02  0.11771941732E+03  0.15727758565E+03  0.41800000000E+01 0. -1.
        -11    1    4    4    0    0 -0.42003431319E+02 -0.32867139415E+02  0.57256284706E+02  0.78248445570E+02  0.00000000000E+00 0. -1.
         11    1    4    4    0    0  0.42401912054E+02 -0.50980604623E+02  0.93346802297E+02  0.11450139603E+03  0.00000000000E+00 0.  1.
</event>
<event>
 8    1  0.7224924E-009  0.1109116E+03  0.7561462E-02  0.1258891E+00
          2   -1    0    0  501    0  0.00000000000E+00  0.00000000000E+00  0.26734802079E+03  0.26734802079E+03  0.00000000000E+00 0. -1.
         -2   -1    0    0    0  501 -0.00000000000E+00 -0.00000000000E+00 -0.61559533323E+02  0.61559533323E+02  0.00000000000E+00 0.  1.
         25    2    1    2    0    0 -0.16939196159E+01 -0.60808815649E+02  0.71748462617E+02  0.15651780108E+03  0.12509755691E+03 0.  0.
         23    2    1    2    0    0  0.16939196159E+01  0.60808815649E+02  0.13404002485E+03  0.17238975303E+03  0.89726903786E+02 0.  0.
          5    1    3    3  502    0 -0.46452828213E+02 -0.14306844048E+02 -0.12446191958E+02  0.50348099566E+02  0.41800000000E+01 0. -1.
         -5    1    3    3    0  502  0.44758908597E+02 -0.46501971601E+02  0.84194654575E+02  0.10616970152E+03  0.41800000000E+01 0. -1.
        -11    1    4    4    0    0  0.34132233215E+02 -0.54706296533E+01  0.40470167595E+02  0.53223787898E+02  0.00000000000E+00 0.  1.
         11    1    4    4    0    0 -0.32438313599E+02  0.66279445302E+02  0.93569857255E+02  0.11916596513E+03  0.00000000000E+00 0. -1.
</event>
<event>
 8    1  0.7224924E-009  0.9776131E+02  0.7561462E-02  0.1285075E+00
          1   -1    0    0  501    0  0.00000000000E+00  0.00000000000E+00  0.38394712436E+03  0.38394712436E+03  0.00000000000E+00 0. -1.
         -1   -1    0    0    0  501 -0.00000000000E+00 -0.00000000000E+00 -0.34712467985E+02  0.34712467985E+02  0.00000000000E+00 0.  1.
         25    2    1    2    0    0  0.34913282408E+02 -0.11198872809E+02  0.17057403956E+03  0.21468268583E+03  0.12509516610E+03 0.  0.
         23    2    1    2    0    0 -0.34913282408E+02  0.11198872809E+02  0.17866061682E+03  0.20397690652E+03  0.91337891097E+02 0.  0.
          5    1    3    3  502    0  0.21329581170E+02 -0.51818798231E+02  0.16109827197E+03  0.17061730427E+03  0.41800000000E+01 0. -1.
         -5    1    3    3    0  502  0.13583701238E+02  0.40619925422E+02  0.94757675843E+01  0.44065381559E+02  0.41800000000E+01 0. -1.
        -11    1    4    4    0    0 -0.47873077595E+02  0.41488863456E+02  0.96272463175E+02  0.11524558349E+03  0.00000000000E+00 0.  1.
         11    1    4    4    0    0  0.12959795187E+02 -0.30289990647E+02  0.82388153641E+02  0.88731323021E+02  0.00000000000E+00 0. -1.
</event>
<event>
 8    1  0.7224924E-009  0.1698102E+03  0.7561462E-02  0.1178046E+00
          2   -1    0    0  501    0  0.00000000000E+00  0.00000000000E+00  0.13130619195E+04  0.13130619195E+04  0.00000000000E+00 0. -1.
         -2   -1    0    0    0  501 -0.00000000000E+00 -0.00000000000E+00 -0.34126117359E+02  0.34126117359E+02  0.00000000000E+00 0.  1.
         25    2    1    2    0    0 -0.12116612398E+03  0.11195330538E+03  0.90440049034E+03  0.92779442152E+03  0.12508984563E+03 0.  0.
         23    2    1    2    0    0  0.12116612398E+03 -0.11195330538E+03  0.37453531176E+03  0.41939361530E+03  0.91648964083E+02 0.  0.
          5    1    3    3  502    0 -0.39938534429E+02  0.74852885304E+02  0.69414318153E+03  0.69932129228E+03  0.41800000000E+01 0. -1.
         -5    1    3    3    0  502 -0.81227589552E+02  0.37100420072E+02  0.21025730881E+03  0.22847312924E+03  0.41800000000E+01 0. -1.
        -11    1    4    4    0    0  0.39673578826E+02 -0.43249254283E+02  0.24353960058E+03  0.25051153248E+03  0.00000000000E+00 0. -1.
         11    1    4    4    0    0  0.81492545155E+02 -0.68704051093E+02  0.13099571117E+03  0.16888208282E+03  0.00000000000E+00 0.  1.
</event>
<event>
 8    1  0.7224924E-009  0.9720351E+02  0.7561462E-02  0.1286289E+00
         -1   -1    0    0    0  501 -0.00000000000E+00  0.00000000000E+00  0.10341171025E+02  0.10341171025E+02  0.00000000000E+00 0.  1.
          1   -1    0    0  501    0  0.00000000000E+00 -0.00000000000E+00 -0.12600709520E+04  0.12600709520E+04  0.00000000000E+00 0. -1.
         25    2    1    2    0    0  0.70317645330E+01 -0.37839306024E+02 -0.81421222053E+03  0.82466337402E+03  0.12508749572E+03 0.  0.
         23    2    1    2    0    0 -0.70317645330E+01  0.37839306024E+02 -0.43551756046E+03  0.44574874903E+03  0.86805201441E+02 0.  0.
          5    1    3    3  502    0  0.35755156110E+02  0.15157305995E+02 -0.92269193304E+02  0.10019606552E+03  0.41800000000E+01 0. -1.
         -5    1    3    3    0  502 -0.28723391577E+02 -0.52996612019E+02 -0.72194302723E+03  0.72446730849E+03  0.41800000000E+01 0. -1.
        -11    1    4    4    0    0 -0.42465097364E+02  0.41405786218E+02 -0.26648737213E+03  0.27300777120E+03  0.00000000000E+00 0. -1.
         11    1    4    4    0    0  0.35433332831E+02 -0.35664801941E+01 -0.16903018833E+03  0.17274097784E+03  0.00000000000E+00 0.  1.
</event>
<event>
 8    1  0.7224924E-009  0.1512228E+03  0.7561462E-02  0.1198978E+00
          1   -1    0    0  501    0  0.00000000000E+00  0.00000000000E+00  0.81655775220E+03  0.81655775220E+03  0.00000000000E+00 0. -1.
         -1   -1    0    0    0  501 -0.00000000000E+00 -0.00000000000E+00 -0.65884066423E+02  0.65884066423E+02  0.00000000000E+00 0.  1.
         25    2    1    2    0    0  0.26242738343E+02  0.12329422053E+03  0.69489622968E+03  0.71723065151E+03  0.12509552871E+03 0.  0.
         23    2    1    2    0    0 -0.26242738343E+02 -0.12329422053E+03  0.55777456093E+02  0.16521116711E+03  0.91068430299E+02 0.  0.
          5    1    3    3  502    0  0.44284071704E+02  0.14106766478E+03  0.63618049486E+03  0.65314949245E+03  0.41800000000E+01 0. -1.
         -5    1    3    3    0  502 -0.18041333361E+02 -0.17773444250E+02  0.58715734827E+02  0.64081159058E+02  0.41800000000E+01 0. -1.
        -11    1    4    4    0    0  0.34923896856E+01 -0.44632459926E+02 -0.22692892364E+02  0.50191838267E+02  0.00000000000E+00 0.  1.
         11    1    4    4    0    0 -0.29735128028E+02 -0.78661760609E+02  0.78470348457E+02  0.11501932884E+03  0.00000000000E+00 0. -1.
</event>
<event>
 8    1  0.7224924E-009  0.1294029E+03  0.7561462E-02  0.1228344E+00
          1   -1    0    0  501    0  0.00000000000E+00  0.00000000000E+00  0.11097596896E+03  0.11097596896E+03  0.00000000000E+00 0. -1.
         -1   -1    0    0    0  501 -0.00000000000E+00 -0.00000000000E+00 -0.23843087500E+03  0.23843087500E+03  0.00000000000E+00 0.  1.
         25    2    1    2    0    0 -0.11583693216E+03 -0.34103765434E+02 -0.63197974339E+02  0.18499391552E+03  0.12508998022E+03 0.  0.
         23    2    1    2    0    0  0.11583693216E+03  0.34103765434E+02 -0.64256931703E+02  0.16441292844E+03  0.91221686556E+02 0.  0.
          5    1    3    3  502    0 -0.90287215470E+02 -0.19297121241E+02  0.21764286461E+02  0.94949021747E+02  0.41800000000E+01 0. -1.
         -5    1    3    3    0  502 -0.25549716686E+02 -0.14806644192E+02 -0.84962260801E+02  0.90044893777E+02  0.41800000000E+01 0. -1.
        -11    1    4    4    0    0  0.10176851255E+02 -0.16516809619E+02  0.13644253567E+02  0.23717903720E+02  0.00000000000E+00 0. -1.
         11    1    4    4    0    0  0.10566008090E+03  0.50620575053E+02 -0.77901185270E+02  0.14069502472E+03  0.00000000000E+00 0.  1.
</event>
<event>
 8    1  0.7224924E-009  0.3808443E+03  0.7561462E-02  0.1050622E+00
          2   -1    0    0  501    0  0.00000000000E+00  0.00000000000E+00  0.91358864270E+03  0.91358864270E+03  0.00000000000E+00 0. -1.
         -2   -1    0    0    0  501 -0.00000000000E+00 -0.00000000000E+00 -0.27038145507E+03  0.27038145507E+03  0.00000000000E+00 0.  1.
         25    2    1    2    0    0  0.39476749140E+02 -0.37010754041E+03  0.69395396264E+03  0.79734474972E+03  0.12509413437E+03 0.  0.
         23    2    1    2    0    0 -0.39476749140E+02  0.37010754041E+03 -0.50746775008E+02  0.38662534805E+03  0.91465399946E+02 0.  0.
          5    1    3    3  502    0 -0.23588058585E+02 -0.91618318708E+02  0.96786596775E+02  0.13540838433E+03  0.41800000000E+01 0. -1.
         -5    1    3    3    0  502  0.63064807726E+02 -0.27848922170E+03  0.59716736586E+03  0.66193636539E+03  0.41800000000E+01 0. -1.
        -11    1    4    4    0    0  0.25091257937E+02  0.67822726703E+02  0.51893450250E+01  0.72501191605E+02  0.00000000000E+00 0. -1.
         11    1    4    4    0    0 -0.64568007078E+02  0.30228481371E+03 -0.55936120033E+02  0.31412415644E+03  0.00000000000E+00 0.  1.
</event>
<event>
 8    1  0.7224924E-009  0.1097798E+03  0.7561462E-02  0.1260978E+00
         -2   -1    0    0    0  501 -0.00000000000E+00  0.00000000000E+00  0.11269049191E+03  0.11269049191E+03  0.00000000000E+00 0.  1.
          2   -1    0    0  501    0  0.00000000000E+00 -0.00000000000E+00 -0.14685033756E+03  0.14685033756E+03  0.00000000000E+00 0. -1.
         25    2    1    2    0    0 -0.26467308035E+02 -0.47873113589E+02  0.24823693365E+02  0.13877812020E+03  0.12510314742E+03 0.  0.
         23    2    1    2    0    0  0.26467308035E+02  0.47873113589E+02 -0.58983539016E+02  0.12076270927E+03  0.90067867059E+02 0.  0.
          5    1    3    3  502    0 -0.60748945769E+02 -0.51444946428E+02  0.51577840949E+02  0.94946105776E+02  0.41800000000E+01 0. -1.
         -5    1    3    3    0  502  0.34281637734E+02  0.35718328390E+01 -0.26754147584E+02  0.43832014424E+02  0.41800000000E+01 0. -1.
        -11    1    4    4    0    0 -0.25198551446E+02 -0.10387252159E+02 -0.19031519288E+02  0.33242453712E+02  0.00000000000E+00 0. -1.
         11    1    4    4    0    0  0.51665859482E+02  0.58260365748E+02 -0.39952019728E+02  0.87520255561E+02  0.00000000000E+00 0.  1.
</event>
<event>
 8    1  0.7224924E-009  0.1708163E+03  0.7561462E-02  0.1176999E+00
         -1   -1    0    0    0  501 -0.00000000000E+00  0.00000000000E+00  0.63707190228E+02  0.63707190228E+02  0.00000000000E+00 0.  1.
          1   -1    0    0  501    0  0.00000000000E+00 -0.00000000000E+00 -0.55744727071E+03  0.55744727071E+03  0.00000000000E+00 0. -1.
         25    2    1    2    0    0  0.14409727276E+03 -0.28850025312E+01 -0.34661155714E+03  0.39567976145E+03  0.12510217752E+03 0.  0.
         23    2    1    2    0    0 -0.14409727276E+03  0.28850025312E+01 -0.14712852335E+03  0.22547469949E+03  0.91758871350E+02 0.  0.
          5    1    3    3  502    0  0.19357011107E+02 -0.44760765893E+02 -0.15989792407E+03  0.16722152543E+03  0.41800000000E+01 0.  1.
         -5    1    3    3    0  502  0.12474026166E+03  0.41875763362E+02 -0.18671363306E+03  0.22845823602E+03  0.41800000000E+01 0.  1.
        -11    1    4    4    0    0 -0.40408009395E+02  0.33970609629E+02 -0.86684279483E+02  0.10149371336E+03  0.00000000000E+00 0.  1.
         11    1    4    4    0    0 -0.10368926337E+03 -0.31085607098E+02 -0.60444243866E+02  0.12398098613E+03  0.00000000000E+00 0. -1.
</event>
<event>
 8    1  0.7224924E-009  0.2351202E+03  0.7561462E-02  0.1123087E+00
         -1   -1    0    0    0  501 -0.00000000000E+00  0.00000000000E+00  0.29887287037E+03  0.29887287037E+03  0.00000000000E+00 0.  1.
          1   -1    0    0  501    0  0.00000000000E+00 -0.00000000000E+00 -0.23535109775E+03  0.23535109775E+03  0.00000000000E+00 0. -1.
         25    2    1    2    0    0  0.14498756720E+03 -0.17194602772E+03 -0.57065804014E+02  0.26361102127E+03  0.12508970164E+03 0.  0.
         23    2    1    2    0    0 -0.14498756720E+03  0.17194602772E+03  0.12058757663E+03  0.27061294685E+03  0.90017622020E+02 0.  0.
          5    1    3    3  502    0  0.75050994730E+02 -0.26260685712E+02  0.23462601910E+02  0.83007478654E+02  0.41800000000E+01 0.  1.
         -5    1    3    3    0  502  0.69936572470E+02 -0.14568534201E+03 -0.80528405924E+02  0.18060354262E+03  0.41800000000E+01 0.  1.
        -11    1    4    4    0    0 -0.93018904824E+02  0.77128670411E+02  0.10743638553E+03  0.16169083273E+03  0.00000000000E+00 0.  1.
         11    1    4    4    0    0 -0.51968662377E+02  0.94817357310E+02  0.13151191098E+02  0.10892211412E+03  0.00000000000E+00 0. -1.
</event>
<event>
 8    1  0.7224924E-009  0.1435648E+03  0.7561462E-02  0.1208611E+00
         -2   -1    0    0    0  501 -0.00000000000E+00  0.00000000000E+00  0.78538352327E+02  0.78538352327E+02  0.00000000000E+00 0.  1.
          2   -1    0    0  501    0  0.00000000000E+00 -0.00000000000E+00 -0.35935560636E+03  0.35935560636E+03  0.00000000000E+00 0. -1.
         25    2    1    2    0    0 -0.10324803365E+03  0.22332164938E+01 -0.24788468977E+03  0.29624040811E+03  0.12508563572E+03 0.  0.
         23    2    1    2    0    0  0.10324803365E+03 -0.22332164938E+01 -0.32932564262E+02  0.14165355058E+03  0.91192274310E+02 0.  0.
          5    1    3    3  502    0 -0.90494516634E+02  0.54170156678E+02 -0.18979392351E+03  0.21717013887E+03  0.41800000000E+01 0. -1.
         -5    1    3    3    0  502 -0.12753517020E+02 -0.51936940184E+02 -0.58090766256E+02  0.79070269231E+02  0.41800000000E+01 0. -1.
        -11    1    4    4    0    0  0.86565053431E+02  0.30019922781E+02  0.14670336181E+01  0.91634362697E+02  0.00000000000E+00 0.  1.
         11    1    4    4    0    0  0.16682980224E+02 -0.32253139275E+02 -0.34399597880E+02  0.50019187884E+02  0.00000000000E+00 0. -1.
</event>
<event>
 8    1  0.7224924E-009  0.1252515E+03  0.7561462E-02  0.1234677E+00
          2   -1    0    0  501    0  0.00000000000E+00  0.00000000000E+00  0.13199723368E+03  0.13199723368E+03  0.00000000000E+00 0. -1.
         -2   -1    0    0    0  501 -0.00000000000E+00 -0.00000000000E+00 -0.13469669397E+03  0.13469669397E+03  0.00000000000E+00 0.  1.
         25    2    1    2    0    0  0.69331789233E+02  0.32572678392E+02 -0.12507283800E+02  0.14721299068E+03  0.12508939244E+03 0.  0.
         23    2    1    2    0    0 -0.69331789233E+02 -0.32572678392E+02  0.98078235114E+01  0.11948093697E+03  0.91168111316E+02 0.  0.
          5    1    3    3  502    0 -0.35535575211E+01  0.55095980749E+02 -0.37449505643E+02  0.66844092773E+02  0.41800000000E+01 0.  1.
         -5    1    3    3    0  502  0.72885346754E+02 -0.22523302356E+02  0.24942221844E+02  0.80368897908E+02  0.41800000000E+01 0.  1.
        -11    1    4    4    0    0 -0.91495681489E+02 -0.21637804609E+02  0.40614192702E+01  0.94107116872E+02  0.00000000000E+00 0.  1.
         11    1    4    4    0    0  0.22163892256E+02 -0.10934873784E+02  0.57464042412E+01  0.25373820097E+02  0.00000000000E+00 0. -1.
</event>
<event>
 8    1  0.7224924E-009  0.2229001E+03  0.7561462E-02  0.1131739E+00
         -2   -1    0    0    0  501 -0.00000000000E+00  0.00000000000E+00  0.11389311867E+03  0.11389311867E+03  0.00000000000E+00 0. -1.
          2   -1    0    0  501    0  0.00000000000E+00 -0.00000000000E+00 -0.68612980290E+03  0.68612980290E+03  0.00000000000E+00 0.  1.
         25    2    1    2    0    0 -0.18289258507E+03 -0.10572080873E+03 -0.82757738658E+02  0.25908211157E+03  0.12509240647E+03 0.  0.
         23    2    1    2    0    0  0.18289258507E+03  0.10572080873E+03 -0.48947894557E+03  0.54094081000E+03  0.91655521906E+02 0.  0.
          5    1    3    3  502    0 -0.16607012852E+03 -0.50285417654E+02 -0.97610159363E+02  0.19913092785E+03  0.41800000000E+01 0. -1.
         -5    1    3    3    0  502 -0.16822456545E+02 -0.55435391080E+02  0.14852420705E+02  0.59951183718E+02  0.41800000000E+01 0. -1.
        -11    1    4    4    0    0  0.62627046538E+02  0.56000706205E+02 -0.10173374542E+03  0.13193930806E+03  0.00000000000E+00 0. -1.
         11    1    4    4    0    0  0.12026553853E+03  0.49720102529E+02 -0.38774520014E+03  0.40900150194E+03  0.00000000000E+00 0.  1.
</event>
<event>
 8    1  0.7224924E-009  0.1302137E+03  0.7561462E-02  0.1227139E+00
         -3   -1    0    0    0  501 -0.00000000000E+00  0.00000000000E+00  0.19979206131E+03  0.19979206131E+03  0.00000000000E+00 0.  1.
          3   -1    0    0  501    0  0.00000000000E+00 -0.00000000000E+00 -0.14479619272E+03  0.14479619272E+03  0.00000000000E+00 0. -1.
         25    2    1    2    0    0  0.34801446559E+02  0.12151343926E+03  0.62903729543E+02  0.18862952824E+03  0.12509021997E+03 0.  0.
         23    2    1    2    0    0 -0.34801446559E+02 -0.12151343926E+03 -0.79078609541E+01  0.15595872579E+03  0.91016115514E+02 0.  0.
          5    1    3    3  502    0  0.11133776890E+02  0.95976883401E+02 -0.19872510777E+02  0.98731515839E+02  0.41800000000E+01 0. -1.
         -5    1    3    3    0  502  0.23667669668E+02  0.25536555858E+02  0.82776240320E+02  0.89898012404E+02  0.41800000000E+01 0. -1.
        -11    1    4    4    0    0  0.37212715100E+01 -0.10141098595E+02  0.30224112755E+02  0.32096522151E+02  0.00000000000E+00 0.  1.
         11    1    4    4    0    0 -0.38522718069E+02 -0.11137234066E+03 -0.38131973709E+02  0.12386220364E+03  0.00000000000E+00 0. -1.
</event>
<event>
 8    1  0.7224924E-009  0.7211638E+02  0.7561462E-02  0.1353041E+00
         -1   -1    0    0    0  501 -0.00000000000E+00  0.00000000000E+00  0.22877525119E+02  0.22877525119E+02  0.00000000000E+00 0.  1.
          1   -1    0    0  501    0  0.00000000000E+00 -0.00000000000E+00 -0.10654737261E+04  0.10654737261E+04  0.00000000000E+00 0. -1.
         25    2    1    2    0    0 -0.24924578671E+02  0.21665809154E+02 -0.92429936631E+03  0.93330997533E+03  0.12509016581E+03 0.  0.
         23    2    1    2    0    0  0.24924578671E+02 -0.21665809154E+02 -0.11829683468E+03  0.15504127590E+03  0.94620368994E+02 0.  0.
          5    1    3    3  502    0 -0.50176052217E+02  0.50948232866E+02 -0.79674112601E+03  0.79995453178E+03  0.41800000000E+01 0. -1.
         -5    1    3    3    0  502  0.25251473546E+02 -0.29282423712E+02 -0.12755824030E+03  0.13335544354E+03  0.41800000000E+01 0. -1.
        -11    1    4    4    0    0  0.14637633477E+02 -0.16947653001E+02 -0.13390344552E+03  0.13576308769E+03  0.00000000000E+00 0. -1.
         11    1    4    4    0    0  0.10286945194E+02 -0.47181561529E+01  0.15606610838E+02  0.19278188213E+02  0.00000000000E+00 0.  1.
</event>
<event>
 8    1  0.7224924E-009  0.1102626E+03  0.7561462E-02  0.1260084E+00
         -1   -1    0    0    0  501 -0.00000000000E+00  0.00000000000E+00  0.11262736370E+03  0.11262736370E+03  0.00000000000E+00 0.  1.
          1   -1    0    0  501    0  0.00000000000E+00 -0.00000000000E+00 -0.14935856247E+03  0.14935856247E+03  0.00000000000E+00 0. -1.
         25    2    1    2    0    0 -0.47752973964E+02  0.43532514142E+01 -0.73003304468E+02  0.15256669634E+03  0.12509123490E+03 0.  0.
         23    2    1    2    0    0  0.47752973964E+02 -0.43532514142E+01  0.36272105692E+02  0.10941922983E+03  0.91419937022E+02 0.  0.
          5    1    3    3  502    0 -0.53523368508E+02  0.55023026284E+02 -0.65212124191E+02  0.10080862036E+03  0.41800000000E+01 0. -1.
         -5    1    3    3    0  502  0.57703945445E+01 -0.50669774869E+02 -0.77911802770E+01  0.51758075975E+02  0.41800000000E+01 0. -1.
        -11    1    4    4    0    0 -0.48839422065E+01  0.29497979474E+02 -0.10066556889E+02  0.31548680671E+02  0.00000000000E+00 0. -1.
         11    1    4    4    0    0  0.52636916170E+02 -0.33851230888E+02  0.46338662581E+02  0.77870549159E+02  0.00000000000E+00 0.  1.
</event>
<event>
 8    1  0.7224924E-009  0.9838940E+02  0.7561462E-02  0.1283720E+00
          2   -1    0    0  501    0  0.00000000000E+00  0.00000000000E+00  0.81263547146E+03  0.81263547146E+03  0.00000000000E+00 0. -1.
         -2   -1    0    0    0  501 -0.00000000000E+00 -0.00000000000E+00 -0.23361689232E+02  0.23361689232E+02  0.00000000000E+00 0.  1.
         25    2    1    2    0    0  0.87412380734E+01 -0.77326739314E+02  0.34764063235E+03  0.37756683155E+03  0.12508744608E+03 0.  0.
         23    2    1    2    0    0 -0.87412380734E+01  0.77326739314E+02  0.44163314988E+03  0.45843032915E+03  0.95198181468E+02 0.  0.
          5    1    3    3  502    0  0.23376331327E+02 -0.33580699678E+02  0.32201799379E+03  0.32463391225E+03  0.41800000000E+01 0. -1.
         -5    1    3    3    0  502 -0.14635093253E+02 -0.43746039636E+02  0.25622638560E+02  0.52932919296E+02  0.41800000000E+01 0. -1.
        -11    1    4    4    0    0 -0.11522989997E+02  0.92849426439E+02  0.42625882063E+03  0.43640620694E+03  0.00000000000E+00 0. -1.
         11    1    4    4    0    0  0.27817519232E+01 -0.15522687124E+02  0.15374329250E+02  0.22024122212E+02  0.00000000000E+00 0.  1.
</event>
<event>
 8    1  0.7224924E-009  0.4558386E+03  0.7561462E-02  0.1025995E+00
         -2   -1    0    0    0  501 -0.00000000000E+00  0.00000000000E+00  0.42639963385E+03  0.42639963385E+03  0.00000000000E+00 0. -1.
          2   -1    0    0  501    0  0.00000000000E+00 -0.00000000000E+00 -0.52579666696E+03  0.52579666696E+03  0.00000000000E+00 0.  1.
         25    2    1    2    0    0  0.15717609003E+03 -0.42128611749E+03 -0.14655216487E+03  0.48919528458E+03  0.12509265911E+03 0.  0.
         23    2    1    2    0    0 -0.15717609003E+03  0.42128611749E+03  0.47155131760E+02  0.46300101622E+03  0.99799892308E+02 0.  0.
          5    1    3    3  502    0 -0.68797521236E+01 -0.36445813452E+02  0.15663020789E+02  0.40477536088E+02  0.41800000000E+01 0.  1.
         -5    1    3    3    0  502  0.16405584215E+03 -0.38484030404E+03 -0.16221518566E+03  0.44871774850E+03  0.41800000000E+01 0.  1.
        -11    1    4    4    0    0 -0.15011745688E+03  0.30961202333E+03  0.63563614481E+02  0.34990740052E+03  0.00000000000E+00 0. -1.
         11    1    4    4    0    0 -0.70586331539E+01  0.11167409416E+03 -0.16408482722E+02  0.11309361571E+03  0.00000000000E+00 0.  1.
</event>
<event>
 8    1  0.7224924E-009  0.1534325E+03  0.7561462E-02  0.1196318E+00
          2   -1    0    0  501    0  0.00000000000E+00  0.00000000000E+00  0.87202842493E+03  0.87202842493E+03  0.00000000000E+00 0. -1.
         -2   -1    0    0    0  501 -0.00000000000E+00 -0.00000000000E+00 -0.33403518001E+02  0.33403518001E+02  0.00000000000E+00 0.  1.
         25    2    1    2    0    0  0.11630246785E+03  0.40462268332E+02  0.32345024157E+03  0.36801007459E+03  0.12509155463E+03 0.  0.
         23    2    1    2    0    0 -0.11630246785E+03 -0.40462268332E+02  0.51517466536E+03  0.53742186834E+03  0.90850809337E+02 0.  0.
          5    1    3    3  502    0  0.10426762522E+03 -0.21467397221E+02  0.15497958352E+03  0.18806576116E+03  0.41800000000E+01 0.  1.
         -5    1    3    3    0  502  0.12034842636E+02  0.61929665553E+02  0.16847065805E+03  0.17994431343E+03  0.41800000000E+01 0.  1.
        -11    1    4    4    0    0  0.25107271089E+01 -0.15490587485E+02  0.11857779285E+02  0.19668985251E+02  0.00000000000E+00 0.  1.
         11    1    4    4    0    0 -0.11881319496E+03 -0.24971680847E+02  0.50331688608E+03  0.51775288309E+03  0.00000000000E+00 0. -1.
</event>
<event>
 8    1  0.7224924E-009  0.9566548E+02  0.7561462E-02  0.1289684E+00
          1   -1    0    0  501    0  0.00000000000E+00  0.00000000000E+00  0.83572747954E+02  0.83572747954E+02  0.00000000000E+00 0. -1.
         -1   -1    0    0    0  501 -0.00000000000E+00 -0.00000000000E+00 -0.16329662686E+03  0.16329662686E+03  0.00000000000E+00 0.  1.
         25    2    1    2    0    0 -0.21839914309E+01  0.17467282643E+02 -0.11097963509E+02  0.12681158041E+03  0.12509251117E+03 0.  0.
         23    2    1    2    0    0  0.21839914309E+01 -0.17467282643E+02 -0.68625915401E+02  0.12005779441E+03  0.96925135811E+02 0.  0.
          5    1    3    3  502    0  0.22371424784E+02 -0.33805871520E+02  0.34829309618E+02  0.53608495638E+02  0.41800000000E+01 0. -1.
         -5    1    3    3    0  502 -0.24555416215E+02  0.51273154162E+02 -0.45927273127E+02  0.73203084772E+02  0.41800000000E+01 0. -1.
        -11    1    4    4    0    0 -0.39802174083E+02  0.12807403771E+02 -0.12353428798E+02  0.43598736864E+02  0.00000000000E+00 0. -1.
         11    1    4    4    0    0  0.41986165514E+02 -0.30274686414E+02 -0.56272486603E+02  0.76459057544E+02  0.00000000000E+00 0.  1.
</event>
<event>
 8    1  0.7224924E-009  0.1093378E+03  0.7561462E-02  0.1261801E+00
         -2   -1    0    0    0  501 -0.00000000000E+00  0.00000000000E+00  0.74372071147E+02  0.74372071147E+02  0.00000000000E+00 0.  1.
          2   -1    0    0  501    0  0.00000000000E+00 -0.00000000000E+00 -0.28579908097E+03  0.28579908097E+03  0.00000000000E+00 0. -1.
         25    2    1    2    0    0  0.73781783239E+02  0.17818835794E+02 -0.19042113444E+03  0.24014617901E+03  0.12509482965E+03 0.  0.
         23    2    1    2    0    0 -0.73781783239E+02 -0.17818835794E+02 -0.21005875385E+02  0.12002497310E+03  0.90573091595E+02 0.  0.
          5    1    3    3  502    0  0.10182424193E+03  0.36304195680E+02 -0.16702813229E+03  0.19900261366E+03  0.41800000000E+01 0. -1.
         -5    1    3    3    0  502 -0.28042458696E+02 -0.18485359886E+02 -0.23393002148E+02  0.41143565346E+02  0.41800000000E+01 0. -1.
        -11    1    4    4    0    0 -0.52896257933E+02 -0.17639074272E+02  0.31130027309E+02  0.63861018194E+02  0.00000000000E+00 0.  1.
         11    1    4    4    0    0 -0.20885525306E+02 -0.17976152232E+00 -0.52135902694E+02  0.56163954911E+02  0.00000000000E+00 0. -1.
</event>
<event>
 8    1  0.7224924E-009  0.1813128E+03  0.7561462E-02  0.1166539E+00
         -1   -1    0    0    0  501 -0.00000000000E+00  0.00000000000E+00  0.20190704448E+03  0.20190704448E+03  0.00000000000E+00 0.  1.
          1   -1    0    0  501    0  0.00000000000E+00 -0.00000000000E+00 -0.17625776438E+03  0.17625776438E+03  0.00000000000E+00 0. -1.
         25    2    1    2    0    0  0.14846602790E+02  0.14572692065E+03 -0.33877325086E+02  0.19558167833E+03  0.12509101777E+03 0.  0.
         23    2    1    2    0    0 -0.14846602790E+02 -0.14572692065E+03  0.59526605192E+02  0.18258313053E+03  0.91304029549E+02 0.  0.
          5    1    3    3  502    0  0.69144121589E+02  0.94532019545E+02 -0.12611631828E+02  0.11787170113E+03  0.41800000000E+01 0.  1.
         -5    1    3    3    0  502 -0.54297518799E+02  0.51194901104E+02 -0.21265693258E+02  0.77709977201E+02  0.41800000000E+01 0.  1.
        -11    1    4    4    0    0  0.34235471636E+02 -0.32178215316E+02  0.45172280920E+01  0.47200745849E+02  0.00000000000E+00 0.  1.
         11    1    4    4    0    0 -0.49082074426E+02 -0.11354870533E+03  0.55009377100E+02  0.13538238468E+03  0.00000000000E+00 0. -1.
</event>
<event>
 8    1  0.7224924E-009  0.1171076E+03  0.7561462E-02  0.1247946E+00
         -2   -1    0    0    0  501 -0.00000000000E+00  0.00000000000E+00  0.33643123417E+02  0.33643123417E+02  0.00000000000E+00 0.  1.
          2   -1    0    0  501    0  0.00000000000E+00 -0.00000000000E+00 -0.47551440509E+03  0.47551440509E+03  0.00000000000E+00 0. -1.
         25    2    1    2    0    0 -0.59873930160E+02  0.24735486311E+02 -0.25618305429E+03  0.29236095991E+03  0.12509373197E+03 0.  0.
         23    2    1    2    0    0  0.59873930160E+02 -0.24735486311E+02 -0.18568822738E+03  0.21679656859E+03  0.91235423881E+02 0.  0.
          5    1    3    3  502    0  0.23080090810E+02 -0.17484956580E+02 -0.13141644317E+02  0.32071630980E+02  0.41800000000E+01 0.  1.
         -5    1    3    3    0  502 -0.82954020970E+02  0.42220442891E+02 -0.24304140998E+03  0.26028932893E+03  0.41800000000E+01 0.  1.
        -11    1    4    4    0    0  0.16732029634E+02  0.34594536459E+02 -0.68457187343E+02  0.78505600230E+02  0.00000000000E+00 0.  1.
         11    1    4    4    0    0  0.43141900527E+02 -0.59330022771E+02 -0.11723104003E+03  0.13829096836E+03  0.00000000000E+00 0. -1.
</event>
<event>
 8    1  0.7224924E-009  0.9219968E+02  0.7561462E-02  0.1297611E+00
         -1   -1    0    0    0  501 -0.00000000000E+00  0.00000000000E+00  0.47676248131E+02  0.47676248131E+02  0.00000000000E+00 0.  1.
          1   -1    0    0  501    0  0.00000000000E+00 -0.00000000000E+00 -0.27814796989E+03  0.27814796989E+03  0.00000000000E+00 0. -1.
         25    2    1    2    0    0  0.36866885275E+02  0.11279751757E+02 -0.13502671122E+03  0.18805617324E+03  0.12508601649E+03 0.  0.
         23    2    1    2    0    0 -0.36866885275E+02 -0.11279751757E+02 -0.95445010547E+02  0.13776804479E+03  0.91563552231E+02 0.  0.
          5    1    3    3  502    0  0.78912520850E+02  0.25253913246E+02 -0.66392680103E+02  0.10625632429E+03  0.41800000000E+01 0. -1.
         -5    1    3    3    0  502 -0.42045635576E+02 -0.13974161489E+02 -0.68634031112E+02  0.81799848943E+02  0.41800000000E+01 0. -1.
        -11    1    4    4    0    0 -0.32522522574E+02 -0.25968052424E+02 -0.10939890477E+03  0.11704774490E+03  0.00000000000E+00 0. -1.
         11    1    4    4    0    0 -0.43443627001E+01  0.14688300668E+02  0.13953894219E+02  0.20720299893E+02  0.00000000000E+00 0.  1.
</event>
<event>
 8    1  0.7224924E-009  0.1053825E+03  0.7561462E-02  0.1269368E+00
          1   -1    0    0  501    0  0.00000000000E+00  0.00000000000E+00  0.95334098984E+03  0.95334098984E+03  0.00000000000E+00 0. -1.
         -1   -1    0    0    0  501 -0.00000000000E+00 -0.00000000000E+00 -0.21830322704E+02  0.21830322704E+02  0.00000000000E+00 0.  1.
         25    2    1    2    0    0  0.45024987869E+02 -0.85454920810E+00  0.79139297479E+03  0.80247995038E+03  0.12507298035E+03 0.  0.
         23    2    1    2    0    0 -0.45024987869E+02  0.85454920810E+00  0.14011769234E+03  0.17269136217E+03  0.90340240608E+02 0.  0.
          5    1    3    3  502    0  0.96417868910E+01 -0.50367507369E+02  0.58508237590E+03  0.58734036882E+03  0.41800000000E+01 0. -1.
         -5    1    3    3    0  502  0.35383200978E+02  0.49512958161E+02  0.20631059889E+03  0.21513958156E+03  0.41800000000E+01 0. -1.
        -11    1    4    4    0    0  0.12163513616E+01 -0.37936340850E+02  0.35825659059E+02  0.52193134747E+02  0.00000000000E+00 0.  1.
         11    1    4    4    0    0 -0.46241339231E+02  0.38790890058E+02  0.10429203328E+03  0.12049822742E+03  0.00000000000E+00 0. -1.
</event>
<event>
 8    1  0.7224924E-009  0.1218780E+03  0.7561462E-02  0.1240031E+00
         -2   -1    0    0    0  501 -0.00000000000E+00  0.00000000000E+00  0.31223171276E+03  0.31223171276E+03  0.00000000000E+00 0.  1.
          2   -1    0    0  501    0  0.00000000000E+00 -0.00000000000E+00 -0.65016520655E+02  0.65016520655E+02  0.00000000000E+00 0. -1.
         25    2    1    2    0    0  0.92403833714E+01 -0.85646362526E+02  0.17425033585E+03  0.23115261383E+03  0.12509063610E+03 0.  0.
         23    2    1    2    0    0 -0.92403833714E+01  0.85646362526E+02  0.72964856261E+02  0.14609561958E+03  0.92732818969E+02 0.  0.
          5    1    3    3  502    0 -0.70273352282E+01 -0.11528815795E+03  0.14986253740E+03  0.18925378548E+03  0.41800000000E+01 0. -1.
         -5    1    3    3    0  502  0.16267718600E+02  0.29641795420E+02  0.24387798443E+02  0.41898828350E+02  0.41800000000E+01 0. -1.
        -11    1    4    4    0    0 -0.22701232033E+02  0.35106576500E+02  0.82912505318E+02  0.92856347050E+02  0.00000000000E+00 0.  1.
         11    1    4    4    0    0  0.13460848662E+02  0.50539786026E+02 -0.99476490575E+01  0.53239272534E+02  0.00000000000E+00 0. -1.
</event>
<event>
 8    1  0.7224924E-009  0.1041681E+03  0.7561462E-02  0.1271767E+00
          2   -1    0    0  501    0  0.00000000000E+00  0.00000000000E+00  0.51844663461E+03  0.51844663461E+03  0.00000000000E+00 0. -1.
         -2   -1    0    0    0  501 -0.00000000000E+00 -0.00000000000E+00 -0.31864476264E+02  0.31864476264E+02  0.00000000000E+00 0.  1.
         25    2    1    2    0    0  0.24190003690E+02  0.53146943716E+02  0.34737803353E+03  0.37380344623E+03  0.12509102418E+03 0.  0.
         23    2    1    2    0    0 -0.24190003690E+02 -0.53146943716E+02  0.13920412482E+03  0.17650766465E+03  0.91473566712E+02 0.  0.
          5    1    3    3  502    0 -0.44088205534E+02  0.29169582612E+02  0.74394567403E+02  0.91360048577E+02  0.41800000000E+01 0. -1.
         -5    1    3    3    0  502  0.68278209224E+02  0.23977361105E+02  0.27298346613E+03  0.28244339766E+03  0.41800000000E+01 0. -1.
        -11    1    4    4    0    0 -0.43853050352E+02 -0.37028631653E+02  0.30750714940E+02  0.65113869925E+02  0.00000000000E+00 0.  1.
         11    1    4    4    0    0  0.19663046662E+02 -0.16118312063E+02  0.10845340988E+03  0.11139379472E+03  0.00000000000E+00 0. -1.
</event>
<event>
 8    1  0.7224924E-009  0.1724270E+03  0.7561462E-02  0.1175340E+00
         -1   -1    0    0    0  501 -0.00000000000E+00  0.00000000000E+00  0.65197973057E+03  0.65197973057E+03  0.00000000000E+00 0.  1.
          1   -1    0    0  501    0  0.00000000000E+00 -0.00000000000E+00 -0.47627160195E+02  0.47627160195E+02  0.00000000000E+00 0. -1.
         25    2    1    2    0    0 -0.33473276505E+02 -0.13071315132E+03  0.25618259164E+03  0.31540926864E+03  0.12508836202E+03 0.  0.
         23    2    1    2    0    0  0.33473276505E+02  0.13071315132E+03  0.34816997874E+03  0.38419762213E+03  0.90438324774E+02 0.  0.
          5    1    3    3  502    0  0.46107259427E+02 -0.60936587911E+02  0.87678471935E+02  0.11637926774E+03  0.41800000000E+01 0.  1.
         -5    1    3    3    0  502 -0.79580535932E+02 -0.69776563410E+02  0.16850411970E+03  0.19903000090E+03  0.41800000000E+01 0.  1.
        -11    1    4    4    0    0 -0.31361712690E+02  0.37999261591E+02  0.10215941641E+03  0.11341978340E+03  0.00000000000E+00 0. -1.
         11    1    4    4    0    0  0.64834989196E+02  0.92713889730E+02  0.24601056233E+03  0.27077783874E+03  0.00000000000E+00 0.  1.
</event>
<event>
 8    1  0.7224924E-009  0.7878826E+02  0.7561462E-02  0.1332526E+00
         -1   -1    0    0    0  501 -0.00000000000E+00  0.00000000000E+00  0.77901879709E+02  0.77901879709E+02  0.00000000000E+00 0.  1.
          1   -1    0    0  501    0  0.00000000000E+00 -0.00000000000E+00 -0.17488468755E+03  0.17488468755E+03  0.00000000000E+00 0. -1.
         25    2    1    2    0    0 -0.19113100543E+02 -0.27116467054E+02 -0.24238271541E+02  0.13167765991E+03  0.12510355276E+03 0.  0.
         23    2    1    2    0    0  0.19113100543E+02  0.27116467054E+02 -0.72744536304E+02  0.12110890735E+03  0.90966952684E+02 0.  0.
          5    1    3    3  502    0 -0.65913103092E+02 -0.16624324095E+02  0.14800419800E+02  0.69695266246E+02  0.41800000000E+01 0.  1.
         -5    1    3    3    0  502  0.46800002549E+02 -0.10492142959E+02 -0.39038691342E+02  0.61982393663E+02  0.41800000000E+01 0.  1.
        -11    1    4    4    0    0  0.19024382642E+02  0.56289274846E+01  0.18645819522E+02  0.27226431004E+02  0.00000000000E+00 0.  1.
         11    1    4    4    0    0  0.88717901087E-01  0.21487539569E+02 -0.91390355826E+02  0.93882476350E+02  0.00000000000E+00 0. -1.
</event>
