<event>
 7    1  0.1378058E-005  0.2272056E+03  0.7546771E-02  0.1131671E+00
         -1   -1    0    0    0  501 -0.00000000000E+00  0.00000000000E+00  0.33486103218E+02  0.33486103218E+02  0.00000000000E+00 0.  1.
          1   -1    0    0  501    0  0.00000000000E+00 -0.00000000000E+00 -0.15032794090E+04  0.15032794090E+04  0.00000000000E+00 0. -1.
         23    2    1    2    0    0 -0.10192981922E+03 -0.16002441438E+03 -0.87541739683E+03  0.90044396791E+03  0.91903315654E+02 0.  0.
          5    1    1    2  502    0  0.25483645589E+02  0.58464863335E+02 -0.39276056344E+03  0.39793279160E+03  0.47000000000E+01 0.  1.
         -5    1    1    2    0  502  0.76446173634E+02  0.10155955105E+03 -0.20161534553E+03  0.23838875273E+03  0.47000000000E+01 0.  1.
        -11    1    3    3    0    0 -0.51556137981E+02 -0.12143377413E+03 -0.72939225564E+03  0.74122686099E+03  0.00000000000E+00 0. -1.
         11    1    3    3    0    0 -0.50373681241E+02 -0.38590640258E+02 -0.14602514119E+03  0.15921710692E+03  0.00000000000E+00 0.  1.
<mgrwt>
<rscale>  0 0.22299267E+03</rscale>
<asrwt>0</asrwt>
<pdfrwt beam="2">  1        1 0.23127382E+00 0.22720560E+03</pdfrwt>
<pdfrwt beam="1">  1       -1 0.51517067E-02 0.22720560E+03</pdfrwt>
<totfact> 0.12010736E+03</totfact>
</mgrwt>
</event>
<event>
 7    1  0.1378058E-005  0.1728439E+03  0.7546771E-02  0.1181287E+00
         -2   -1    0    0    0  501 -0.00000000000E+00  0.00000000000E+00  0.69163488934E+02  0.69163488934E+02  0.00000000000E+00 0.  1.
          2   -1    0    0  501    0  0.00000000000E+00 -0.00000000000E+00 -0.38627049095E+03  0.38627049095E+03  0.00000000000E+00 0. -1.
         23    2    1    2    0    0  0.85512094786E+02  0.83288238150E+02 -0.18441185178E+03  0.23752798973E+03  0.90346919489E+02 0.  0.
          5    1    1    2  502    0 -0.29435456760E-01 -0.56224040279E+02  0.15038025131E+01  0.56440189526E+02  0.47000000000E+01 0. -1.
         -5    1    1    2    0  502 -0.85482659329E+02 -0.27064197871E+02 -0.13419895275E+03  0.16146580063E+03  0.47000000000E+01 0. -1.
        -11    1    3    3    0    0  0.83190822569E+02  0.40340778013E+02 -0.72047120859E+02  0.11721296411E+03  0.00000000000E+00 0.  1.
         11    1    3    3    0    0  0.23212722170E+01  0.42947460137E+02 -0.11236473092E+03  0.12031502563E+03  0.00000000000E+00 0. -1.
<mgrwt>
<rscale>  0 0.16674399E+03</rscale>
<asrwt>0</asrwt>
<pdfrwt beam="2">  1        2 0.59426228E-01 0.17284391E+03</pdfrwt>
<pdfrwt beam="1">  1       -2 0.10640537E-01 0.17284391E+03</pdfrwt>
<totfact> 0.48530934E+03</totfact>
</mgrwt>
</event>
<event>
 7    1  0.1378058E-005  0.1639201E+03  0.7546771E-02  0.1191208E+00
          1   -1    0    0  501    0  0.00000000000E+00  0.00000000000E+00  0.13560594572E+03  0.13560594572E+03  0.00000000000E+00 0. -1.
         -1   -1    0    0    0  501 -0.00000000000E+00 -0.00000000000E+00 -0.18215833300E+03  0.18215833300E+03  0.00000000000E+00 0.  1.
         23    2    1    2    0    0 -0.35508960393E+02  0.99919191087E+02  0.17350685915E+02  0.14182847190E+03  0.92571799826E+02 0.  0.
          5    1    1    2  502    0 -0.34093404208E+02 -0.79367714096E+02 -0.13750503230E+02  0.87594295421E+02  0.47000000000E+01 0. -1.
         -5    1    1    2    0  502  0.69602364601E+02 -0.20551476991E+02 -0.50152569963E+02  0.88341511411E+02  0.47000000000E+01 0. -1.
        -11    1    3    3    0    0 -0.32047210626E+02  0.19960537117E+01 -0.19010564253E+02  0.37315003585E+02  0.00000000000E+00 0.  1.
         11    1    3    3    0    0 -0.34617497670E+01  0.97923137375E+02  0.36361250167E+02  0.10451346831E+03  0.00000000000E+00 0. -1.
<mgrwt>
<rscale>  0 0.15779617E+03</rscale>
<asrwt>0</asrwt>
<pdfrwt beam="1">  1        1 0.20862453E-01 0.16392012E+03</pdfrwt>
<pdfrwt beam="2">  1       -1 0.28024359E-01 0.16392012E+03</pdfrwt>
<totfact> 0.27095733E+03</totfact>
</mgrwt>
</event>
<event>
 7    1  0.1378058E-005  0.1256275E+03  0.7546771E-02  0.1249125E+00
          1   -1    0    0  501    0  0.00000000000E+00  0.00000000000E+00  0.43655811305E+02  0.43655811305E+02  0.00000000000E+00 0.  1.
         -1   -1    0    0    0  501 -0.00000000000E+00 -0.00000000000E+00 -0.30670688897E+03  0.30670688897E+03  0.00000000000E+00 0. -1.
         23    2    1    2    0    0  0.10840704794E+02 -0.63251030699E+01 -0.56230966393E+02  0.10837749717E+03  0.91794512378E+02 0.  0.
          5    1    1    2  502    0 -0.52136783598E+02 -0.32756154500E+02 -0.14637840731E+03  0.15887082170E+03  0.47000000000E+01 0. -1.
         -5    1    1    2    0  502  0.41296078804E+02  0.39081257570E+02 -0.60441703964E+02  0.83114381402E+02  0.47000000000E+01 0. -1.
        -11    1    3    3    0    0  0.29679243642E+02 -0.21372215635E+02 -0.71167627017E+02  0.80015375019E+02  0.00000000000E+00 0.  1.
         11    1    3    3    0    0 -0.18838538848E+02  0.15047112565E+02  0.14936660623E+02  0.28362122154E+02  0.00000000000E+00 0. -1.
<mgrwt>
<rscale>  0 0.11641886E+03</rscale>
<asrwt>0</asrwt>
<pdfrwt beam="1">  1        1 0.67162784E-02 0.12562755E+03</pdfrwt>
<pdfrwt beam="2">  1       -1 0.47185677E-01 0.12562755E+03</pdfrwt>
<totfact> 0.48026503E+03</totfact>
</mgrwt>
</event>
<event>
 7    1  0.1378058E-005  0.1767437E+03  0.7546771E-02  0.1176757E+00
          2   -1    0    0  501    0  0.00000000000E+00  0.00000000000E+00  0.75801322070E+03  0.75801322070E+03  0.00000000000E+00 0. -1.
         -2   -1    0    0    0  501 -0.00000000000E+00 -0.00000000000E+00 -0.44216888724E+02  0.44216888724E+02  0.00000000000E+00 0.  1.
         23    2    1    2    0    0 -0.12069874419E+03 -0.32343010067E+02  0.50709041820E+03  0.53026378788E+03  0.91786357152E+02 0.  0.
          5    1    1    2  502    0  0.12846232987E+03  0.34223367092E+02  0.21920178196E+03  0.25640850272E+03  0.47000000000E+01 0. -1.
         -5    1    1    2    0  502 -0.77635856797E+01 -0.18803570244E+01 -0.12495868182E+02  0.15557818831E+02  0.47000000000E+01 0. -1.
        -11    1    3    3    0    0 -0.33501400666E+02 -0.55009482780E+02  0.23352838243E+03  0.24224758500E+03  0.00000000000E+00 0.  1.
         11    1    3    3    0    0 -0.87197343521E+02  0.22666472712E+02  0.27356203577E+03  0.28801620287E+03  0.00000000000E+00 0. -1.
<mgrwt>
<rscale>  0 0.17104979E+03</rscale>
<asrwt>0</asrwt>
<pdfrwt beam="1">  1        2 0.11661741E+00 0.17674373E+03</pdfrwt>
<pdfrwt beam="2">  1       -2 0.68025989E-02 0.17674373E+03</pdfrwt>
<totfact> 0.45487498E+03</totfact>
</mgrwt>
</event>
<event>
 7    1  0.1378058E-005  0.1787805E+03  0.7546771E-02  0.1174849E+00
         -1   -1    0    0    0  501 -0.00000000000E+00  0.00000000000E+00  0.27921393744E+03  0.27921393744E+03  0.00000000000E+00 0.  1.
          1   -1    0    0  501    0  0.00000000000E+00 -0.00000000000E+00 -0.11203017613E+03  0.11203017613E+03  0.00000000000E+00 0. -1.
         23    2    1    2    0    0 -0.72359172623E+02  0.10535966217E+03  0.16238112961E+02  0.15726323757E+03  0.90175059215E+02 0.  0.
          5    1    1    2  502    0  0.10230175091E+03 -0.97317821109E+02  0.96290302701E+02  0.17096876597E+03  0.47000000000E+01 0.  1.
         -5    1    1    2    0  502 -0.29942578286E+02 -0.80418410608E+01  0.54655345644E+02  0.63012110022E+02  0.47000000000E+01 0.  1.
        -11    1    3    3    0    0 -0.42482535959E+01  0.85145500679E+02  0.57382069679E+01  0.85444314988E+02  0.00000000000E+00 0. -1.
         11    1    3    3    0    0 -0.68110919027E+02  0.20214161490E+02  0.10499905994E+02  0.71818922586E+02  0.00000000000E+00 0.  1.
<mgrwt>
<rscale>  0 0.17290797E+03</rscale>
<asrwt>0</asrwt>
<pdfrwt beam="2">  1        1 0.17235412E-01 0.17878048E+03</pdfrwt>
<pdfrwt beam="1">  1       -1 0.42955990E-01 0.17878048E+03</pdfrwt>
<totfact> 0.16620482E+03</totfact>
</mgrwt>
</event>
<event>
 7    1  0.1378058E-005  0.1308532E+03  0.7546771E-02  0.1238958E+00
          4   -1    0    0  501    0  0.00000000000E+00  0.00000000000E+00  0.84931942841E+02  0.84931942841E+02  0.00000000000E+00 0. -1.
         -4   -1    0    0    0  501 -0.00000000000E+00 -0.00000000000E+00 -0.40651224398E+03  0.40651224398E+03  0.00000000000E+00 0.  1.
         23    2    1    2    0    0  0.22683855212E+02  0.31411706198E+02  0.38932297005E+02  0.10791856325E+03  0.92894779031E+02 0.  0.
          5    1    1    2  502    0 -0.40829159919E+02  0.12817454432E+02 -0.37901754642E+02  0.57358002430E+02  0.47000000000E+01 0.  1.
         -5    1    1    2    0  502  0.18145304707E+02 -0.44229160630E+02 -0.32261084350E+03  0.32616762113E+03  0.47000000000E+01 0.  1.
        -11    1    3    3    0    0 -0.35524909508E+02  0.21561709888E+02  0.14272062213E+02  0.43938801630E+02  0.00000000000E+00 0. -1.
         11    1    3    3    0    0  0.58208764720E+02  0.98499963098E+01  0.24660234791E+02  0.63979761624E+02  0.00000000000E+00 0.  1.
<mgrwt>
<rscale>  0 0.12254434E+03</rscale>
<asrwt>0</asrwt>
<pdfrwt beam="1">  1        4 0.13066453E-01 0.13085324E+03</pdfrwt>
<pdfrwt beam="2">  1       -4 0.62540345E-01 0.13085324E+03</pdfrwt>
<totfact> 0.19342102E+02</totfact>
</mgrwt>
</event>
<event>
 7    1  0.1378058E-005  0.2478796E+03  0.7546771E-02  0.1151969E+00
          2   -1    0    0  501    0  0.00000000000E+00  0.00000000000E+00  0.29045441879E+03  0.29045441879E+03  0.00000000000E+00 0. -1.
         -2   -1    0    0    0  501 -0.00000000000E+00 -0.00000000000E+00 -0.11577107375E+03  0.11577107375E+03  0.00000000000E+00 0.  1.
         23    2    1    2    0    0  0.36410419841E+02 -0.91682780228E+01  0.11324275221E+03  0.15084492338E+03  0.92306521899E+02 0.  0.
          5    1    1    2  502    0 -0.29977562171E+02  0.60898408588E+02  0.14306291479E+03  0.15841830068E+03  0.47000000000E+01 0. -1.
         -5    1    1    2    0  502 -0.64328576699E+01 -0.51730130565E+02 -0.81622321967E+02  0.96962268483E+02  0.47000000000E+01 0.  1.
        -11    1    3    3    0    0  0.33503975394E+02 -0.20208728127E+02  0.12704458972E+03  0.13293320441E+03  0.00000000000E+00 0.  1.
         11    1    3    3    0    0  0.29064444469E+01  0.11040450104E+02 -0.13801837502E+02  0.17911718964E+02  0.00000000000E+00 0. -1.
<mgrwt>
<rscale>  0 0.19737889E+03</rscale>
<asrwt>0</asrwt>
<pdfrwt beam="1">  1        2 0.44685295E-01 0.24787958E+03</pdfrwt>
<pdfrwt beam="2">  1       -2 0.17810935E-01 0.24787958E+03</pdfrwt>
<totfact> 0.28823794E+03</totfact>
</mgrwt>
</event>
<event>
 7    1  0.1378058E-005  0.1429878E+03  0.7546771E-02  0.1218579E+00
         -3   -1    0    0    0  501 -0.00000000000E+00  0.00000000000E+00  0.34313460139E+03  0.34313460139E+03  0.00000000000E+00 0.  1.
          3   -1    0    0  501    0  0.00000000000E+00 -0.00000000000E+00 -0.50554706413E+02  0.50554706413E+02  0.00000000000E+00 0. -1.
         23    2    1    2    0    0 -0.68696454675E+02  0.10145912408E+02  0.10371404285E+03  0.15680150396E+03  0.94910307853E+02 0.  0.
          5    1    1    2  502    0  0.52966311444E+02  0.10516957344E+02  0.88191922519E+01  0.54917253134E+02  0.47000000000E+01 0. -1.
         -5    1    1    2    0  502  0.15730143230E+02 -0.20662869752E+02  0.18004665987E+03  0.18197055071E+03  0.47000000000E+01 0. -1.
        -11    1    3    3    0    0 -0.52297298856E+02  0.14661644270E+02  0.27163772120E+01  0.54381522464E+02  0.00000000000E+00 0. -1.
         11    1    3    3    0    0 -0.16399155818E+02 -0.45157318623E+01  0.10099766563E+03  0.10241998149E+03  0.00000000000E+00 0.  1.
<mgrwt>
<rscale>  0 0.13616877E+03</rscale>
<asrwt>0</asrwt>
<pdfrwt beam="2">  1        3 0.77776474E-02 0.14298784E+03</pdfrwt>
<pdfrwt beam="1">  1       -3 0.52789937E-01 0.14298784E+03</pdfrwt>
<totfact> 0.93043626E+02</totfact>
</mgrwt>
</event>
<event>
 7    1  0.1378058E-005  0.1218318E+03  0.7546771E-02  0.1248248E+00
          2   -1    0    0  501    0  0.00000000000E+00  0.00000000000E+00  0.31782410610E+03  0.31782410610E+03  0.00000000000E+00 0. -1.
         -2   -1    0    0    0  501 -0.00000000000E+00 -0.00000000000E+00 -0.41616952112E+02  0.41616952112E+02  0.00000000000E+00 0.  1.
         23    2    1    2    0    0 -0.24119950198E+02  0.36044890910E+02  0.90828554814E+02  0.13761181292E+03  0.93841241079E+02 0.  0.
          5    1    1    2  502    0  0.67802825631E+01 -0.15302236904E+02  0.19265666316E+03  0.19343942345E+03  0.47000000000E+01 0. -1.
         -5    1    1    2    0  502  0.17339667635E+02 -0.20742654006E+02 -0.72780639833E+01  0.28389821843E+02  0.47000000000E+01 0.  1.
        -11    1    3    3    0    0 -0.49026335823E+02  0.24949815283E+02  0.14982319808E+02  0.57013549212E+02  0.00000000000E+00 0.  1.
         11    1    3    3    0    0  0.24906385625E+02  0.11095075627E+02  0.75846235006E+02  0.80598263708E+02  0.00000000000E+00 0. -1.
<mgrwt>
<rscale>  0 0.11693067E+03</rscale>
<asrwt>0</asrwt>
<pdfrwt beam="1">  1        2 0.48896015E-01 0.12183181E+03</pdfrwt>
<pdfrwt beam="2">  1       -2 0.64026083E-02 0.12183181E+03</pdfrwt>
<totfact> 0.12836962E+04</totfact>
</mgrwt>
</event>
<event>
 7    1  0.1378058E-005  0.2856776E+03  0.7546771E-02  0.1094483E+00
          1   -1    0    0  501    0  0.00000000000E+00  0.00000000000E+00  0.26890406774E+03  0.26890406774E+03  0.00000000000E+00 0. -1.
         -1   -1    0    0    0  501 -0.00000000000E+00 -0.00000000000E+00 -0.39838340588E+03  0.39838340588E+03  0.00000000000E+00 0.  1.
         23    2    1    2    0    0 -0.25671422676E+03  0.93394514446E+01  0.11100652468E+03  0.29386396102E+03  0.89689238421E+02 0.  0.
          5    1    1    2  502    0  0.47344004413E+02  0.35318557318E+02 -0.12331148630E+02  0.60522743423E+02  0.47000000000E+01 0.  1.
         -5    1    1    2    0  502  0.20937022235E+03 -0.44658008762E+02 -0.22815471418E+03  0.31290076919E+03  0.47000000000E+01 0.  1.
        -11    1    3    3    0    0 -0.12055014908E+03  0.39651183794E+02  0.82848180416E+02  0.15155321118E+03  0.00000000000E+00 0. -1.
         11    1    3    3    0    0 -0.13616407768E+03 -0.30311732349E+02  0.28158344261E+02  0.14231074984E+03  0.00000000000E+00 0.  1.
<mgrwt>
<rscale>  0 0.28221864E+03</rscale>
<asrwt>0</asrwt>
<pdfrwt beam="1">  1        1 0.41369856E-01 0.28567756E+03</pdfrwt>
<pdfrwt beam="2">  1       -1 0.61289755E-01 0.28567756E+03</pdfrwt>
<totfact> 0.28236164E+02</totfact>
</mgrwt>
</event>
<event>
 7    1  0.1378058E-005  0.5824638E+03  0.7546771E-02  0.9945804E-01
         -1   -1    0    0    0  501 -0.00000000000E+00  0.00000000000E+00  0.13646246112E+03  0.13646246112E+03  0.00000000000E+00 0.  1.
          1   -1    0    0  501    0  0.00000000000E+00 -0.00000000000E+00 -0.24603105102E+04  0.24603105102E+04  0.00000000000E+00 0. -1.
         23    2    1    2    0    0  0.38408492139E+03  0.41966475549E+03 -0.11395530673E+04  0.12769932074E+04  0.92145128161E+02 0.  0.
          5    1    1    2  502    0 -0.83659001645E+02 -0.11148490209E+03 -0.42097965354E+03  0.44347905322E+03  0.47000000000E+01 0. -1.
         -5    1    1    2    0  502 -0.30042591975E+03 -0.30817985340E+03 -0.76331532821E+03  0.87630071070E+03  0.47000000000E+01 0. -1.
        -11    1    3    3    0    0  0.36993144207E+03  0.37955157198E+03 -0.10097223837E+04  0.11403718516E+04  0.00000000000E+00 0.  1.
         11    1    3    3    0    0  0.14153479324E+02  0.40113183508E+02 -0.12983068357E+03  0.13662135581E+03  0.00000000000E+00 0. -1.
<mgrwt>
<rscale>  0 0.58091858E+03</rscale>
<asrwt>0</asrwt>
<pdfrwt beam="2">  1        1 0.37850933E+00 0.58246375E+03</pdfrwt>
<pdfrwt beam="1">  1       -1 0.20994224E-01 0.58246375E+03</pdfrwt>
<totfact> 0.29171353E+01</totfact>
</mgrwt>
</event>
<event>
 7    1  0.1378058E-005  0.1266463E+03  0.7546771E-02  0.1246609E+00
          1   -1    0    0  501    0  0.00000000000E+00  0.00000000000E+00  0.51013433796E+03  0.51013433796E+03  0.00000000000E+00 0. -1.
         -1   -1    0    0    0  501 -0.00000000000E+00 -0.00000000000E+00 -0.34455066431E+02  0.34455066431E+02  0.00000000000E+00 0.  1.
         23    2    1    2    0    0 -0.10239203936E+02  0.17589171806E+02  0.36240301905E+03  0.37467529382E+03  0.92905367519E+02 0.  0.
          5    1    1    2  502    0  0.64517516672E+02  0.10134371723E+02  0.60696714363E+02  0.89282677952E+02  0.47000000000E+01 0. -1.
         -5    1    1    2    0  502 -0.54278312736E+02 -0.27723543528E+02  0.52579538114E+02  0.80631432627E+02  0.47000000000E+01 0. -1.
        -11    1    3    3    0    0 -0.28470418474E+01 -0.38314574413E+02  0.13252204929E+03  0.13797900495E+03  0.00000000000E+00 0.  1.
         11    1    3    3    0    0 -0.73921620883E+01  0.55903746219E+02  0.22988096976E+03  0.23669628886E+03  0.00000000000E+00 0. -1.
<mgrwt>
<rscale>  0 0.11789607E+03</rscale>
<asrwt>0</asrwt>
<pdfrwt beam="1">  1        1 0.78482200E-01 0.12664634E+03</pdfrwt>
<pdfrwt beam="2">  1       -1 0.53007798E-02 0.12664634E+03</pdfrwt>
<totfact> 0.67655185E+03</totfact>
</mgrwt>
</event>
<event>
 7    1  0.1378058E-005  0.1329432E+03  0.7546771E-02  0.1235084E+00
         -2   -1    0    0    0  501 -0.00000000000E+00  0.00000000000E+00  0.26762416415E+02  0.26762416415E+02  0.00000000000E+00 0.  1.
          2   -1    0    0  501    0  0.00000000000E+00 -0.00000000000E+00 -0.52389797023E+03  0.52389797023E+03  0.00000000000E+00 0. -1.
         23    2    1    2    0    0 -0.45203836672E+02  0.24678639628E+01 -0.21839121687E+03  0.24183633446E+03  0.93491239456E+02 0.  0.
          5    1    1    2  502    0  0.73512193497E+02 -0.41356362936E+02 -0.18394158113E+03  0.20241291119E+03  0.47000000000E+01 0. -1.
         -5    1    1    2    0  502 -0.28308356825E+02  0.38888498973E+02 -0.94802755817E+02  0.10641114100E+03  0.47000000000E+01 0. -1.
        -11    1    3    3    0    0 -0.22293172295E+02  0.42180406933E+02 -0.16349118657E+03  0.17031012990E+03  0.00000000000E+00 0. -1.
         11    1    3    3    0    0 -0.22910664378E+02 -0.39712542970E+02 -0.54900030294E+02  0.71526204553E+02  0.00000000000E+00 0.  1.
<mgrwt>
<rscale>  0 0.12499069E+03</rscale>
<asrwt>0</asrwt>
<pdfrwt beam="2">  1        2 0.80599679E-01 0.13294318E+03</pdfrwt>
<pdfrwt beam="1">  1       -2 0.41172953E-02 0.13294318E+03</pdfrwt>
<totfact> 0.14676843E+04</totfact>
</mgrwt>
</event>
<event>
 7    1  0.1378058E-005  0.1378882E+03  0.7546771E-02  0.1227744E+00
         -2   -1    0    0    0  501 -0.00000000000E+00  0.00000000000E+00  0.67686675254E+02  0.67686675254E+02  0.00000000000E+00 0.  1.
          2   -1    0    0  501    0  0.00000000000E+00 -0.00000000000E+00 -0.22385647892E+03  0.22385647892E+03  0.00000000000E+00 0. -1.
         23    2    1    2    0    0 -0.45672959113E+02 -0.36098691365E+02 -0.67575114592E+02  0.12764634435E+03  0.91312969512E+02 0.  0.
          5    1    1    2  502    0  0.79625988453E+02  0.31431118213E+02 -0.21468202114E+02  0.88380919498E+02  0.47000000000E+01 0. -1.
         -5    1    1    2    0  502 -0.33953029340E+02  0.46675731524E+01 -0.67126486963E+02  0.75515890331E+02  0.47000000000E+01 0. -1.
        -11    1    3    3    0    0 -0.23609512736E+02 -0.47543511844E+02  0.26534265254E+01  0.53149179508E+02  0.00000000000E+00 0.  1.
         11    1    3    3    0    0 -0.22063446377E+02  0.11444820478E+02 -0.70228541118E+02  0.74497164841E+02  0.00000000000E+00 0. -1.
<mgrwt>
<rscale>  0 0.12980592E+03</rscale>
<asrwt>0</asrwt>
<pdfrwt beam="2">  1        2 0.34439458E-01 0.13788816E+03</pdfrwt>
<pdfrwt beam="1">  1       -2 0.10413335E-01 0.13788816E+03</pdfrwt>
<totfact> 0.88672240E+03</totfact>
</mgrwt>
</event>
<event>
 7    1  0.1378058E-005  0.3116188E+03  0.7546771E-02  0.1081163E+00
         -2   -1    0    0    0  501 -0.00000000000E+00  0.00000000000E+00  0.11606298629E+03  0.11606298629E+03  0.00000000000E+00 0.  1.
          2   -1    0    0  501    0  0.00000000000E+00 -0.00000000000E+00 -0.10223640285E+04  0.10223640285E+04  0.00000000000E+00 0. -1.
         23    2    1    2    0    0 -0.14478177825E+03  0.24600949865E+03 -0.70978164213E+03  0.77001673697E+03  0.87483478354E+02 0.  0.
          5    1    1    2  502    0  0.61871471586E+01 -0.12578117721E+03 -0.59451834698E+02  0.13934057550E+03  0.47000000000E+01 0.  1.
         -5    1    1    2    0  502  0.13859463109E+03 -0.12022832144E+03 -0.13706756539E+03  0.22906970233E+03  0.47000000000E+01 0.  1.
        -11    1    3    3    0    0 -0.17473620348E+02  0.54944024676E+02 -0.72449900998E+02  0.92591367904E+02  0.00000000000E+00 0.  1.
         11    1    3    3    0    0 -0.12730815790E+03  0.19106547397E+03 -0.63733174113E+03  0.67742536907E+03  0.00000000000E+00 0. -1.
<mgrwt>
<rscale>  0 0.30830050E+03</rscale>
<asrwt>0</asrwt>
<pdfrwt beam="2">  1        2 0.15728677E+00 0.31161877E+03</pdfrwt>
<pdfrwt beam="1">  1       -2 0.17855845E-01 0.31161877E+03</pdfrwt>
<totfact> 0.65009274E+02</totfact>
</mgrwt>
</event>
<event>
 7    1  0.1378058E-005  0.1340848E+03  0.7546771E-02  0.1235528E+00
         -1   -1    0    0    0  501 -0.00000000000E+00  0.00000000000E+00  0.35266375939E+03  0.35266375939E+03  0.00000000000E+00 0.  1.
          1   -1    0    0  501    0  0.00000000000E+00 -0.00000000000E+00 -0.45468894292E+02  0.45468894292E+02  0.00000000000E+00 0. -1.
         23    2    1    2    0    0  0.41916555885E+02 -0.24417362366E+02  0.59963447230E+02  0.11688166196E+03  0.87820855483E+02 0.  0.
          5    1    1    2  502    0 -0.24188332263E+00  0.71138450421E+02  0.12995656178E+03  0.14822798517E+03  0.47000000000E+01 0.  1.
         -5    1    1    2    0  502 -0.41674672562E+02 -0.46721088055E+02  0.11727485609E+03  0.13302300655E+03  0.47000000000E+01 0.  1.
        -11    1    3    3    0    0 -0.98397449521E+00  0.29631003255E+02  0.28200610423E+02  0.40917465562E+02  0.00000000000E+00 0. -1.
         11    1    3    3    0    0  0.42900530380E+02 -0.54048365621E+02  0.31762836807E+02  0.75964196403E+02  0.00000000000E+00 0.  1.
<mgrwt>
<rscale>  0 0.12470685E+03</rscale>
<asrwt>0</asrwt>
<pdfrwt beam="2">  1        1 0.69952147E-02 0.13408485E+03</pdfrwt>
<pdfrwt beam="1">  1       -1 0.54255961E-01 0.13408485E+03</pdfrwt>
<totfact> 0.35370070E+03</totfact>
</mgrwt>
</event>
<event>
 7    1  0.1378058E-005  0.1295028E+03  0.7546771E-02  0.1243261E+00
          1   -1    0    0  501    0  0.00000000000E+00  0.00000000000E+00  0.23289115376E+03  0.23289115376E+03  0.00000000000E+00 0. -1.
         -1   -1    0    0    0  501 -0.00000000000E+00 -0.00000000000E+00 -0.69031891261E+02  0.69031891261E+02  0.00000000000E+00 0.  1.
         23    2    1    2    0    0  0.33779394416E+02  0.21941289044E+01  0.14147468673E+03  0.17049991819E+03  0.88934095983E+02 0.  0.
          5    1    1    2  502    0  0.11280159524E+02  0.54000561431E+02  0.21037689082E+02  0.59228177379E+02  0.47000000000E+01 0. -1.
         -5    1    1    2    0  502 -0.45059553940E+02 -0.56194690336E+02  0.13468866912E+01  0.72194949456E+02  0.47000000000E+01 0. -1.
        -11    1    3    3    0    0  0.46271784056E+01  0.29170326866E+02  0.12335837936E+03  0.12684482058E+03  0.00000000000E+00 0. -1.
         11    1    3    3    0    0  0.29152216010E+02 -0.26976197962E+02  0.18116307374E+02  0.43655097614E+02  0.00000000000E+00 0.  1.
<mgrwt>
<rscale>  0 0.11990055E+03</rscale>
<asrwt>0</asrwt>
<pdfrwt beam="1">  1        1 0.35829408E-01 0.12950278E+03</pdfrwt>
<pdfrwt beam="2">  1       -1 0.10620291E-01 0.12950278E+03</pdfrwt>
<totfact> 0.63656359E+03</totfact>
</mgrwt>
</event>
<event>
 7    1  0.1378058E-005  0.1256903E+03  0.7546771E-02  0.1243895E+00
          3   -1    0    0  501    0  0.00000000000E+00  0.00000000000E+00  0.36270151653E+03  0.36270151653E+03  0.00000000000E+00 0. -1.
         -3   -1    0    0    0  501 -0.00000000000E+00 -0.00000000000E+00 -0.40932926905E+02  0.40932926905E+02  0.00000000000E+00 0.  1.
         23    2    1    2    0    0  0.22238603047E+02  0.40397279437E+02  0.21663647240E+03  0.23977228774E+03  0.91830785387E+02 0.  0.
          5    1    1    2  502    0  0.45227573258E+02 -0.35600130276E+02  0.52238469357E+02  0.77870728385E+02  0.47000000000E+01 0. -1.
         -5    1    1    2    0  502 -0.67466176305E+02 -0.47971491610E+01  0.52893647866E+02  0.85991427305E+02  0.47000000000E+01 0.  1.
        -11    1    3    3    0    0  0.45996641892E+02 -0.80372836653E+01  0.12498205286E+03  0.13341964822E+03  0.00000000000E+00 0. -1.
         11    1    3    3    0    0 -0.23758038844E+02  0.48434563102E+02  0.91654419540E+02  0.10635263952E+03  0.00000000000E+00 0.  1.
<mgrwt>
<rscale>  0 0.11951739E+03</rscale>
<asrwt>0</asrwt>
<pdfrwt beam="1">  1        3 0.55800231E-01 0.12569027E+03</pdfrwt>
<pdfrwt beam="2">  1       -3 0.62973736E-02 0.12569027E+03</pdfrwt>
<totfact> 0.11458680E+03</totfact>
</mgrwt>
</event>
<event>
 7    1  0.1378058E-005  0.1837750E+03  0.7546771E-02  0.1167680E+00
         -1   -1    0    0    0  501 -0.00000000000E+00  0.00000000000E+00  0.12411897063E+04  0.12411897063E+04  0.00000000000E+00 0.  1.
          1   -1    0    0  501    0  0.00000000000E+00 -0.00000000000E+00 -0.29772064700E+02  0.29772064700E+02  0.00000000000E+00 0. -1.
         23    2    1    2    0    0  0.27752960741E+02  0.13964062745E+03  0.33509258874E+03  0.37557422919E+03  0.92191251970E+02 0.  0.
          5    1    1    2  502    0 -0.39328095691E+02  0.36982801201E+01  0.20301676960E+03  0.20687743987E+03  0.47000000000E+01 0. -1.
         -5    1    1    2    0  502  0.11575134951E+02 -0.14333890757E+03  0.67330828321E+03  0.68851010189E+03  0.47000000000E+01 0.  1.
        -11    1    3    3    0    0  0.23800593247E+02  0.26663447594E+00  0.20292835265E+02  0.31278403028E+02  0.00000000000E+00 0.  1.
         11    1    3    3    0    0  0.39523674937E+01  0.13937399297E+03  0.31479975348E+03  0.34429582616E+03  0.00000000000E+00 0. -1.
<mgrwt>
<rscale>  0 0.18012763E+03</rscale>
<asrwt>0</asrwt>
<pdfrwt beam="2">  1        1 0.45803186E-02 0.18377500E+03</pdfrwt>
<pdfrwt beam="1">  1       -1 0.19095222E+00 0.18377500E+03</pdfrwt>
<totfact> 0.36180171E+02</totfact>
</mgrwt>
</event>
<event>
 7    1  0.1378058E-005  0.2523620E+03  0.7546771E-02  0.1115187E+00
          1   -1    0    0  501    0  0.00000000000E+00  0.00000000000E+00  0.68555155728E+03  0.68555155728E+03  0.00000000000E+00 0. -1.
         -1   -1    0    0    0  501 -0.00000000000E+00 -0.00000000000E+00 -0.85767135176E+02  0.85767135176E+02  0.00000000000E+00 0.  1.
         23    2    1    2    0    0 -0.15413779732E+03 -0.15589419039E+03  0.30998436718E+03  0.38703933325E+03  0.75151037413E+02 0.  0.
          5    1    1    2  502    0  0.68919575879E+02 -0.56934333355E+01  0.71406116897E+02  0.99515057418E+02  0.47000000000E+01 0.  1.
         -5    1    1    2    0  502  0.85218221436E+02  0.16158762373E+03  0.21839393802E+03  0.28476430179E+03  0.47000000000E+01 0.  1.
        -11    1    3    3    0    0 -0.24251698562E+02 -0.17234078296E+01  0.11598414580E+02  0.26937673219E+02  0.00000000000E+00 0.  1.
         11    1    3    3    0    0 -0.12988609875E+03 -0.15417078257E+03  0.29838595260E+03  0.36010166003E+03  0.00000000000E+00 0. -1.
<mgrwt>
<rscale>  0 0.24704378E+03</rscale>
<asrwt>0</asrwt>
<pdfrwt beam="1">  1        1 0.10546947E+00 0.25236195E+03</pdfrwt>
<pdfrwt beam="2">  1       -1 0.13194944E-01 0.25236195E+03</pdfrwt>
<totfact> 0.11471060E+03</totfact>
</mgrwt>
</event>
<event>
 7    1  0.1378058E-005  0.1580395E+03  0.7546771E-02  0.1198652E+00
         -2   -1    0    0    0  501 -0.00000000000E+00  0.00000000000E+00  0.34440081445E+03  0.34440081445E+03  0.00000000000E+00 0.  1.
          2   -1    0    0  501    0  0.00000000000E+00 -0.00000000000E+00 -0.61697502094E+02  0.61697502094E+02  0.00000000000E+00 0. -1.
         23    2    1    2    0    0  0.59456892397E+01 -0.96519654247E+02  0.13377721451E+03  0.18894521100E+03  0.91937776584E+02 0.  0.
          5    1    1    2  502    0  0.42421246812E+02  0.65569240177E+02  0.27810751954E+02  0.83032616258E+02  0.47000000000E+01 0. -1.
         -5    1    1    2    0  502 -0.48366936052E+02  0.30950414071E+02  0.12111534590E+03  0.13412048928E+03  0.47000000000E+01 0. -1.
        -11    1    3    3    0    0  0.21605768467E+02  0.11354607504E+02  0.23262845708E+02  0.33717893366E+02  0.00000000000E+00 0. -1.
         11    1    3    3    0    0 -0.15660079227E+02 -0.10787426175E+03  0.11051436880E+03  0.15522731764E+03  0.00000000000E+00 0.  1.
<mgrwt>
<rscale>  0 0.15149169E+03</rscale>
<asrwt>0</asrwt>
<pdfrwt beam="2">  1        2 0.94919236E-02 0.15803952E+03</pdfrwt>
<pdfrwt beam="1">  1       -2 0.52984739E-01 0.15803952E+03</pdfrwt>
<totfact> 0.22715939E+03</totfact>
</mgrwt>
</event>
<event>
 7    1  0.1378058E-005  0.1304465E+03  0.7546771E-02  0.1239744E+00
         -2   -1    0    0    0  501 -0.00000000000E+00  0.00000000000E+00  0.88182568558E+02  0.88182568558E+02  0.00000000000E+00 0.  1.
          2   -1    0    0  501    0  0.00000000000E+00 -0.00000000000E+00 -0.18112066995E+03  0.18112066995E+03  0.00000000000E+00 0. -1.
         23    2    1    2    0    0 -0.21267014446E+02  0.30657381500E+02 -0.96293504620E+02  0.13881354899E+03  0.92760990764E+02 0.  0.
          5    1    1    2  502    0  0.61491446784E+02 -0.52864842037E+02  0.15587618650E+02  0.82710056259E+02  0.47000000000E+01 0. -1.
         -5    1    1    2    0  502 -0.40224432338E+02  0.22207460537E+02 -0.12232215424E+02  0.47779633261E+02  0.47000000000E+01 0. -1.
        -11    1    3    3    0    0 -0.57043457262E+02  0.27728021674E+02 -0.53649518664E+02  0.83072679355E+02  0.00000000000E+00 0.  1.
         11    1    3    3    0    0  0.35776442816E+02  0.29293598255E+01 -0.42643985956E+02  0.55740869636E+02  0.00000000000E+00 0. -1.
<mgrwt>
<rscale>  0 0.12205536E+03</rscale>
<asrwt>0</asrwt>
<pdfrwt beam="2">  1        2 0.27864718E-01 0.13044654E+03</pdfrwt>
<pdfrwt beam="1">  1       -2 0.13566549E-01 0.13044654E+03</pdfrwt>
<totfact> 0.72806072E+03</totfact>
</mgrwt>
</event>
<event>
 7    1  0.1378058E-005  0.1412367E+03  0.7546771E-02  0.1222636E+00
          2   -1    0    0  501    0  0.00000000000E+00  0.00000000000E+00  0.31725729296E+03  0.31725729296E+03  0.00000000000E+00 0. -1.
         -2   -1    0    0    0  501 -0.00000000000E+00 -0.00000000000E+00 -0.55951074976E+02  0.55951074976E+02  0.00000000000E+00 0.  1.
         23    2    1    2    0    0  0.17054090845E+02  0.63466007095E+02  0.17461366263E+03  0.20748748014E+03  0.90787373395E+02 0.  0.
          5    1    1    2  502    0 -0.54945543982E+02 -0.23934607204E+02  0.92644290934E+02  0.11043972505E+03  0.47000000000E+01 0.  1.
         -5    1    1    2    0  502  0.37891453137E+02 -0.39531399891E+02 -0.59517355818E+01  0.55281162746E+02  0.47000000000E+01 0.  1.
        -11    1    3    3    0    0  0.18802876102E+02  0.17958327059E+02 -0.10443633289E+01  0.26021920667E+02  0.00000000000E+00 0.  1.
         11    1    3    3    0    0 -0.17487852569E+01  0.45507680036E+02  0.17565802596E+03  0.18146555948E+03  0.00000000000E+00 0. -1.
<mgrwt>
<rscale>  0 0.13330281E+03</rscale>
<asrwt>0</asrwt>
<pdfrwt beam="1">  1        2 0.48808813E-01 0.14123673E+03</pdfrwt>
<pdfrwt beam="2">  1       -2 0.86078579E-02 0.14123673E+03</pdfrwt>
<totfact> 0.82564577E+03</totfact>
</mgrwt>
</event>
<event>
 7    1  0.1378058E-005  0.1765141E+03  0.7546771E-02  0.1176977E+00
          1   -1    0    0  501    0  0.00000000000E+00  0.00000000000E+00  0.12131580020E+03  0.12131580020E+03  0.00000000000E+00 0. -1.
         -1   -1    0    0    0  501 -0.00000000000E+00 -0.00000000000E+00 -0.24740055310E+03  0.24740055310E+03  0.00000000000E+00 0.  1.
         23    2    1    2    0    0  0.71689754139E+02  0.10194166854E+03 -0.55620466713E+01  0.15498067543E+03  0.91959495227E+02 0.  0.
          5    1    1    2  502    0 -0.44454877649E+02 -0.12978548940E+03 -0.94858159474E+02  0.16685523613E+03  0.47000000000E+01 0. -1.
         -5    1    1    2    0  502 -0.27234876490E+02  0.27843820862E+02 -0.25664546754E+02  0.46880441740E+02  0.47000000000E+01 0. -1.
        -11    1    3    3    0    0 -0.21738911178E+02  0.18972501383E+02  0.60832642706E+01  0.29488000477E+02  0.00000000000E+00 0. -1.
         11    1    3    3    0    0  0.93428665317E+02  0.82969167152E+02 -0.11645310942E+02  0.12549267496E+03  0.00000000000E+00 0.  1.
<mgrwt>
<rscale>  0 0.17083778E+03</rscale>
<asrwt>0</asrwt>
<pdfrwt beam="1">  1        1 0.18663969E-01 0.17651407E+03</pdfrwt>
<pdfrwt beam="2">  1       -1 0.38061624E-01 0.17651407E+03</pdfrwt>
<totfact> 0.18566760E+03</totfact>
</mgrwt>
</event>
<event>
 7    1  0.1378058E-005  0.1184833E+03  0.7546771E-02  0.1254076E+00
          1   -1    0    0  501    0  0.00000000000E+00  0.00000000000E+00  0.24881827642E+03  0.24881827642E+03  0.00000000000E+00 0. -1.
         -1   -1    0    0    0  501 -0.00000000000E+00 -0.00000000000E+00 -0.90530065485E+02  0.90530065485E+02  0.00000000000E+00 0.  1.
         23    2    1    2    0    0  0.19814550859E+02 -0.36047192310E+02  0.19170043427E+03  0.21624408198E+03  0.91216391036E+02 0.  0.
          5    1    1    2  502    0  0.22120688886E+02  0.58311120142E+02  0.37098783472E+01  0.62652731835E+02  0.47000000000E+01 0. -1.
         -5    1    1    2    0  502 -0.41935239745E+02 -0.22263927832E+02 -0.37122101681E+02  0.60451528088E+02  0.47000000000E+01 0.  1.
        -11    1    3    3    0    0 -0.31872113871E+02 -0.13992641095E+02  0.33303516582E+02  0.48174161790E+02  0.00000000000E+00 0.  1.
         11    1    3    3    0    0  0.51686664731E+02 -0.22054551215E+02  0.15839691769E+03  0.16806992019E+03  0.00000000000E+00 0. -1.
<mgrwt>
<rscale>  0 0.11358220E+03</rscale>
<asrwt>0</asrwt>
<pdfrwt beam="1">  1        1 0.38279735E-01 0.11848326E+03</pdfrwt>
<pdfrwt beam="2">  1       -1 0.13927702E-01 0.11848326E+03</pdfrwt>
<totfact> 0.38424217E+03</totfact>
</mgrwt>
</event>
<event>
 7    1  0.1378058E-005  0.1521616E+03  0.7546771E-02  0.1205372E+00
          1   -1    0    0  501    0  0.00000000000E+00  0.00000000000E+00  0.47032339685E+03  0.47032339685E+03  0.00000000000E+00 0. -1.
         -1   -1    0    0    0  501 -0.00000000000E+00 -0.00000000000E+00 -0.47421903171E+02  0.47421903171E+02  0.00000000000E+00 0.  1.
         23    2    1    2    0    0 -0.76031647869E+02  0.41803575786E+02  0.28266009588E+03  0.31081345409E+03  0.95811914805E+02 0.  0.
          5    1    1    2  502    0 -0.17446875399E+02  0.23853317413E+02  0.60638064197E+02  0.67619812499E+02  0.47000000000E+01 0. -1.
         -5    1    1    2    0  502  0.93478523268E+02 -0.65656893199E+02  0.79603333607E+02  0.13931203343E+03  0.47000000000E+01 0. -1.
        -11    1    3    3    0    0 -0.46969355072E+02  0.40819844497E+02  0.27325542919E+03  0.28025151133E+03  0.00000000000E+00 0. -1.
         11    1    3    3    0    0 -0.29062292796E+02  0.98373128819E+00  0.94046666814E+01  0.30561942759E+02  0.00000000000E+00 0.  1.
<mgrwt>
<rscale>  0 0.14608148E+03</rscale>
<asrwt>0</asrwt>
<pdfrwt beam="1">  1        1 0.72357442E-01 0.15216156E+03</pdfrwt>
<pdfrwt beam="2">  1       -1 0.72956777E-02 0.15216156E+03</pdfrwt>
<totfact> 0.47149337E+03</totfact>
</mgrwt>
</event>
<event>
 7    1  0.1378058E-005  0.1456655E+03  0.7546771E-02  0.1214672E+00
         -3   -1    0    0    0  501 -0.00000000000E+00  0.00000000000E+00  0.41112301073E+03  0.41112301073E+03  0.00000000000E+00 0.  1.
          3   -1    0    0  501    0  0.00000000000E+00 -0.00000000000E+00 -0.43200591636E+02  0.43200591636E+02  0.00000000000E+00 0. -1.
         23    2    1    2    0    0  0.52029902916E+02  0.53719233604E+02  0.16158141430E+03  0.20174677551E+03  0.94870127675E+02 0.  0.
          5    1    1    2  502    0 -0.68156710215E+02 -0.43702299174E+02  0.21602938718E+03  0.23075097882E+03  0.47000000000E+01 0. -1.
         -5    1    1    2    0  502  0.16126807299E+02 -0.10016934431E+02 -0.96883823898E+01  0.21825848033E+02  0.47000000000E+01 0. -1.
        -11    1    3    3    0    0  0.21459161262E+02  0.78348688495E+02  0.10201794310E+03  0.13040963655E+03  0.00000000000E+00 0.  1.
         11    1    3    3    0    0  0.30570741654E+02 -0.24629454891E+02  0.59563471199E+02  0.71337138958E+02  0.00000000000E+00 0. -1.
<mgrwt>
<rscale>  0 0.13900692E+03</rscale>
<asrwt>0</asrwt>
<pdfrwt beam="2">  1        3 0.66462451E-02 0.14566552E+03</pdfrwt>
<pdfrwt beam="1">  1       -3 0.63249691E-01 0.14566552E+03</pdfrwt>
<totfact> 0.83085494E+02</totfact>
</mgrwt>
</event>
<event>
 7    1  0.1378058E-005  0.1996909E+03  0.7546771E-02  0.1154122E+00
          2   -1    0    0  501    0  0.00000000000E+00  0.00000000000E+00  0.83674679715E+03  0.83674679715E+03  0.00000000000E+00 0. -1.
         -2   -1    0    0    0  501 -0.00000000000E+00 -0.00000000000E+00 -0.43974552112E+02  0.43974552112E+02  0.00000000000E+00 0.  1.
         23    2    1    2    0    0  0.32987818400E+02 -0.15220002285E+03  0.43023760192E+03  0.46682786586E+03  0.92578718493E+02 0.  0.
          5    1    1    2  502    0  0.22946983048E+02  0.14006344764E+03  0.26738659959E+03  0.30275735670E+03  0.47000000000E+01 0. -1.
         -5    1    1    2    0  502 -0.55934801448E+02  0.12136575205E+02  0.95148043526E+02  0.11113612670E+03  0.47000000000E+01 0. -1.
        -11    1    3    3    0    0  0.35710085858E+02 -0.10612097914E+02  0.62437409660E+02  0.72706650172E+02  0.00000000000E+00 0.  1.
         11    1    3    3    0    0 -0.27222674580E+01 -0.14158792494E+03  0.36780019226E+03  0.39412121568E+03  0.00000000000E+00 0. -1.
<mgrwt>
<rscale>  0 0.19489127E+03</rscale>
<asrwt>0</asrwt>
<pdfrwt beam="1">  1        2 0.12873026E+00 0.19969088E+03</pdfrwt>
<pdfrwt beam="2">  1       -2 0.67653163E-02 0.19969088E+03</pdfrwt>
<totfact> 0.40673157E+03</totfact>
</mgrwt>
</event>
<event>
 7    1  0.1378058E-005  0.1319280E+03  0.7546771E-02  0.1236809E+00
          2   -1    0    0  501    0  0.00000000000E+00  0.00000000000E+00  0.24619987984E+03  0.24619987984E+03  0.00000000000E+00 0. -1.
         -2   -1    0    0    0  501 -0.00000000000E+00 -0.00000000000E+00 -0.58525784032E+02  0.58525784032E+02  0.00000000000E+00 0.  1.
         23    2    1    2    0    0  0.47317677763E+02  0.37973669672E+02  0.50344865914E+02  0.11429374367E+03  0.82749574627E+02 0.  0.
          5    1    1    2  502    0 -0.14175208913E+02  0.12593401492E+02  0.12751194116E+03  0.12899967227E+03  0.47000000000E+01 0. -1.
         -5    1    1    2    0  502 -0.33142468850E+02 -0.50567071164E+02  0.98172887380E+01  0.61432247930E+02  0.47000000000E+01 0.  1.
        -11    1    3    3    0    0 -0.17910977543E+02  0.29563004657E+02  0.29085165681E+02  0.45174342536E+02  0.00000000000E+00 0.  1.
         11    1    3    3    0    0  0.65228655306E+02  0.84106650153E+01  0.21259700233E+02  0.69119401133E+02  0.00000000000E+00 0. -1.
<mgrwt>
<rscale>  0 0.12389344E+03</rscale>
<asrwt>0</asrwt>
<pdfrwt beam="1">  1        2 0.37876904E-01 0.13192801E+03</pdfrwt>
<pdfrwt beam="2">  1       -2 0.90039669E-02 0.13192801E+03</pdfrwt>
<totfact> 0.10026684E+04</totfact>
</mgrwt>
</event>
<event>
 7    1  0.1378058E-005  0.1681230E+03  0.7546771E-02  0.1186620E+00
         -2   -1    0    0    0  501 -0.00000000000E+00  0.00000000000E+00  0.10928967376E+03  0.10928967376E+03  0.00000000000E+00 0.  1.
          2   -1    0    0  501    0  0.00000000000E+00 -0.00000000000E+00 -0.22729858654E+03  0.22729858654E+03  0.00000000000E+00 0. -1.
         23    2    1    2    0    0 -0.11236463273E+03 -0.33808646111E+01 -0.76465501569E+02  0.16340859732E+03  0.90654044663E+02 0.  0.
          5    1    1    2  502    0  0.12856916077E+03  0.26933725550E+02 -0.53397023099E+02  0.14187595550E+03  0.47000000000E+01 0.  1.
         -5    1    1    2    0  502 -0.16204528046E+02 -0.23552860939E+02  0.11853611882E+02  0.31303707484E+02  0.47000000000E+01 0.  1.
        -11    1    3    3    0    0 -0.53801256825E+02 -0.43298467717E+02 -0.57958708793E+02  0.90158440911E+02  0.00000000000E+00 0. -1.
         11    1    3    3    0    0 -0.58563375900E+02  0.39917603106E+02 -0.18506792776E+02  0.73250156405E+02  0.00000000000E+00 0.  1.
<mgrwt>
<rscale>  0 0.16185370E+03</rscale>
<asrwt>0</asrwt>
<pdfrwt beam="2">  1        2 0.34969013E-01 0.16812299E+03</pdfrwt>
<pdfrwt beam="1">  1       -2 0.16813796E-01 0.16812299E+03</pdfrwt>
<totfact> 0.40677346E+03</totfact>
</mgrwt>
</event>
<event>
 7    1  0.1378058E-005  0.1491497E+03  0.7546771E-02  0.1209545E+00
          1   -1    0    0  501    0  0.00000000000E+00  0.00000000000E+00  0.73917940590E+02  0.73917940590E+02  0.00000000000E+00 0. -1.
         -1   -1    0    0    0  501 -0.00000000000E+00 -0.00000000000E+00 -0.25981033569E+03  0.25981033569E+03  0.00000000000E+00 0.  1.
         23    2    1    2    0    0  0.85078941134E+02  0.72225992772E+01 -0.10741466128E+03  0.16519222182E+03  0.91978087211E+02 0.  0.
          5    1    1    2  502    0 -0.32834497587E+02  0.57142217272E+02 -0.32702636255E+02  0.73721704026E+02  0.47000000000E+01 0. -1.
         -5    1    1    2    0  502 -0.52244443548E+02 -0.64364816549E+02 -0.45775097563E+02  0.94814350432E+02  0.47000000000E+01 0.  1.
        -11    1    3    3    0    0  0.55059532130E+02 -0.40225676516E+02 -0.69991904037E+02  0.97716548037E+02  0.00000000000E+00 0.  1.
         11    1    3    3    0    0  0.30019409005E+02  0.47448275794E+02 -0.37422757241E+02  0.67475673782E+02  0.00000000000E+00 0. -1.
<mgrwt>
<rscale>  0 0.14284956E+03</rscale>
<asrwt>0</asrwt>
<pdfrwt beam="1">  1        1 0.11371991E-01 0.14914975E+03</pdfrwt>
<pdfrwt beam="2">  1       -1 0.39970821E-01 0.14914975E+03</pdfrwt>
<totfact> 0.32270581E+03</totfact>
</mgrwt>
</event>
<event>
 7    1  0.1378058E-005  0.1606785E+03  0.7546771E-02  0.1195516E+00
         -1   -1    0    0    0  501 -0.00000000000E+00  0.00000000000E+00  0.20459655744E+02  0.20459655744E+02  0.00000000000E+00 0.  1.
          1   -1    0    0  501    0  0.00000000000E+00 -0.00000000000E+00 -0.10752174977E+04  0.10752174977E+04  0.00000000000E+00 0. -1.
         23    2    1    2    0    0  0.72230694253E+02  0.70539415739E+02 -0.48334893636E+03  0.50210684572E+03  0.91060462733E+02 0.  0.
          5    1    1    2  502    0  0.30720661624E+02 -0.33502232038E+02 -0.10563742875E+03  0.11509784948E+03  0.47000000000E+01 0. -1.
         -5    1    1    2    0  502 -0.10295135588E+03 -0.37037183702E+02 -0.46577147683E+03  0.47847245823E+03  0.47000000000E+01 0. -1.
        -11    1    3    3    0    0  0.63148144598E+02  0.85352644198E+01 -0.15089177958E+03  0.16379520155E+03  0.00000000000E+00 0.  1.
         11    1    3    3    0    0  0.90825496551E+01  0.62004151320E+02 -0.33245715677E+03  0.33831164417E+03  0.00000000000E+00 0. -1.
<mgrwt>
<rscale>  0 0.15410651E+03</rscale>
<asrwt>0</asrwt>
<pdfrwt beam="2">  1        1 0.16541809E+00 0.16067848E+03</pdfrwt>
<pdfrwt beam="1">  1       -1 0.31476390E-02 0.16067848E+03</pdfrwt>
<totfact> 0.48611299E+03</totfact>
</mgrwt>
</event>
<event>
 7    1  0.1378058E-005  0.1349658E+03  0.7546771E-02  0.1232479E+00
          2   -1    0    0  501    0  0.00000000000E+00  0.00000000000E+00  0.93362295516E+02  0.93362295516E+02  0.00000000000E+00 0. -1.
         -2   -1    0    0    0  501 -0.00000000000E+00 -0.00000000000E+00 -0.15757888580E+03  0.15757888580E+03  0.00000000000E+00 0.  1.
         23    2    1    2    0    0 -0.50822945060E+02 -0.27385041325E+01 -0.47323875502E+02  0.11492235937E+03  0.91526653726E+02 0.  0.
          5    1    1    2  502    0  0.53759113163E+02 -0.40310329555E+02  0.28567674949E+02  0.73165339942E+02  0.47000000000E+01 0. -1.
         -5    1    1    2    0  502 -0.29361681028E+01  0.43048833687E+02 -0.45460389731E+02  0.62853481999E+02  0.47000000000E+01 0. -1.
        -11    1    3    3    0    0 -0.61534132447E+01 -0.15023228014E+02 -0.63737604229E+02  0.65772669608E+02  0.00000000000E+00 0.  1.
         11    1    3    3    0    0 -0.44669531815E+02  0.12284723881E+02  0.16413728727E+02  0.49149689766E+02  0.00000000000E+00 0. -1.
<mgrwt>
<rscale>  0 0.12667230E+03</rscale>
<asrwt>0</asrwt>
<pdfrwt beam="1">  1        2 0.14363430E-01 0.13496576E+03</pdfrwt>
<pdfrwt beam="2">  1       -2 0.24242905E-01 0.13496576E+03</pdfrwt>
<totfact> 0.58502607E+03</totfact>
</mgrwt>
</event>
<event>
 7    1  0.1378058E-005  0.1378564E+03  0.7546771E-02  0.1227805E+00
          1   -1    0    0  501    0  0.00000000000E+00  0.00000000000E+00  0.14566668858E+03  0.14566668858E+03  0.00000000000E+00 0. -1.
         -1   -1    0    0    0  501 -0.00000000000E+00 -0.00000000000E+00 -0.13271312472E+03  0.13271312472E+03  0.00000000000E+00 0.  1.
         23    2    1    2    0    0 -0.52009678576E+02  0.25961475350E+02  0.70313999332E+02  0.12906602766E+03  0.91296090421E+02 0.  0.
          5    1    1    2  502    0  0.90697425696E+02 -0.93693233903E+01 -0.55645236692E+02  0.10692188558E+03  0.47000000000E+01 0. -1.
         -5    1    1    2    0  502 -0.38687747120E+02 -0.16592151960E+02 -0.17151987864E+01  0.42391900061E+02  0.47000000000E+01 0. -1.
        -11    1    3    3    0    0 -0.74814949523E+02  0.42834973547E+01  0.38220493696E+02  0.84121526140E+02  0.00000000000E+00 0.  1.
         11    1    3    3    0    0  0.22805270947E+02  0.21677977995E+02  0.32093505636E+02  0.44944501521E+02  0.00000000000E+00 0. -1.
<mgrwt>
<rscale>  0 0.12976521E+03</rscale>
<asrwt>0</asrwt>
<pdfrwt beam="1">  1        1 0.22410260E-01 0.13785640E+03</pdfrwt>
<pdfrwt beam="2">  1       -1 0.20417404E-01 0.13785640E+03</pdfrwt>
<totfact> 0.41231676E+03</totfact>
</mgrwt>
</event>
<event>
 7    1  0.1378058E-005  0.1669964E+03  0.7546771E-02  0.1187595E+00
         -2   -1    0    0    0  501 -0.00000000000E+00  0.00000000000E+00  0.50570528380E+02  0.50570528380E+02  0.00000000000E+00 0.  1.
          2   -1    0    0  501    0  0.00000000000E+00 -0.00000000000E+00 -0.55058228797E+03  0.55058228797E+03  0.00000000000E+00 0. -1.
         23    2    1    2    0    0 -0.52523140017E+02 -0.97467410421E+02 -0.34239619662E+03  0.37152168981E+03  0.92383084021E+02 0.  0.
          5    1    1    2  502    0  0.62405606365E+02  0.12651181839E+02 -0.18749613644E+02  0.66544347014E+02  0.47000000000E+01 0. -1.
         -5    1    1    2    0  502 -0.98824663481E+01  0.84816228582E+02 -0.13886594933E+03  0.16308677952E+03  0.47000000000E+01 0. -1.
        -11    1    3    3    0    0 -0.29319309605E+02 -0.47315185879E+02 -0.52871974762E+02  0.76771052133E+02  0.00000000000E+00 0.  1.
         11    1    3    3    0    0 -0.23203830412E+02 -0.50152224542E+02 -0.28952422186E+03  0.29475063768E+03  0.00000000000E+00 0. -1.
<mgrwt>
<rscale>  0 0.16097946E+03</rscale>
<asrwt>0</asrwt>
<pdfrwt beam="2">  1        2 0.84704979E-01 0.16699637E+03</pdfrwt>
<pdfrwt beam="1">  1       -2 0.77800802E-02 0.16699637E+03</pdfrwt>
<totfact> 0.53678579E+03</totfact>
</mgrwt>
</event>
<event>
 7    1  0.1378058E-005  0.1330135E+03  0.7546771E-02  0.1235340E+00
         -1   -1    0    0    0  501 -0.00000000000E+00  0.00000000000E+00  0.20212836804E+02  0.20212836804E+02  0.00000000000E+00 0.  1.
          1   -1    0    0  501    0  0.00000000000E+00 -0.00000000000E+00 -0.71185041907E+03  0.71185041907E+03  0.00000000000E+00 0. -1.
         23    2    1    2    0    0  0.47784610584E+01  0.45219460412E+02 -0.36719248827E+03  0.38141071491E+03  0.92607649332E+02 0.  0.
          5    1    1    2  502    0  0.47098784479E+02 -0.12612655401E+02 -0.52307993815E+02  0.71663036446E+02  0.47000000000E+01 0.  1.
         -5    1    1    2    0  502 -0.51877245538E+02 -0.32606805011E+02 -0.27213710018E+03  0.27898950452E+03  0.47000000000E+01 0.  1.
        -11    1    3    3    0    0  0.17886264245E+02 -0.22778959438E+02 -0.61581922379E+02  0.68052425420E+02  0.00000000000E+00 0.  1.
         11    1    3    3    0    0 -0.13107803187E+02  0.67998419850E+02 -0.30561056589E+03  0.31335828949E+03  0.00000000000E+00 0. -1.
<mgrwt>
<rscale>  0 0.12482710E+03</rscale>
<asrwt>0</asrwt>
<pdfrwt beam="2">  1        1 0.10951545E+00 0.13301348E+03</pdfrwt>
<pdfrwt beam="1">  1       -1 0.31096672E-02 0.13301348E+03</pdfrwt>
<totfact> 0.94226100E+03</totfact>
</mgrwt>
</event>
<event>
 7    1  0.1378058E-005  0.1451955E+03  0.7546771E-02  0.1216368E+00
         -2   -1    0    0    0  501 -0.00000000000E+00  0.00000000000E+00  0.31097091222E+02  0.31097091222E+02  0.00000000000E+00 0.  1.
          2   -1    0    0  501    0  0.00000000000E+00 -0.00000000000E+00 -0.55565051950E+03  0.55565051950E+03  0.00000000000E+00 0. -1.
         23    2    1    2    0    0  0.69420679056E+02 -0.25241168624E+02 -0.23887499354E+03  0.26628872562E+03  0.91608272450E+02 0.  0.
          5    1    1    2  502    0  0.33778493154E+02 -0.89234013715E+01 -0.53805125647E+02  0.64324919259E+02  0.47000000000E+01 0. -1.
         -5    1    1    2    0  502 -0.10319917221E+03  0.34164569995E+02 -0.23187330909E+03  0.25613396584E+03  0.47000000000E+01 0. -1.
        -11    1    3    3    0    0  0.51824823662E+02  0.12758795462E+02 -0.20669933037E+03  0.21347883358E+03  0.00000000000E+00 0. -1.
         11    1    3    3    0    0  0.17595855394E+02 -0.37999964086E+02 -0.32175663166E+02  0.52809892044E+02  0.00000000000E+00 0.  1.
<mgrwt>
<rscale>  0 0.13776531E+03</rscale>
<asrwt>0</asrwt>
<pdfrwt beam="2">  1        2 0.85484688E-01 0.14519549E+03</pdfrwt>
<pdfrwt beam="1">  1       -2 0.47841683E-02 0.14519549E+03</pdfrwt>
<totfact> 0.11055019E+04</totfact>
</mgrwt>
</event>
<event>
 7    1  0.1378058E-005  0.1265994E+03  0.7546771E-02  0.1248735E+00
         -1   -1    0    0    0  501 -0.00000000000E+00  0.00000000000E+00  0.36931813409E+02  0.36931813409E+02  0.00000000000E+00 0.  1.
          1   -1    0    0  501    0  0.00000000000E+00 -0.00000000000E+00 -0.32272099273E+03  0.32272099273E+03  0.00000000000E+00 0. -1.
         23    2    1    2    0    0 -0.14251825925E+02 -0.14126312013E+02 -0.10774143392E+03  0.14118450745E+03  0.89006636414E+02 0.  0.
          5    1    1    2  502    0  0.20724826972E+02 -0.10427110343E+02 -0.18895769478E+03  0.19043461739E+03  0.47000000000E+01 0.  1.
         -5    1    1    2    0  502 -0.64730010468E+01  0.24553422356E+02  0.10909949382E+02  0.28033681304E+02  0.47000000000E+01 0.  1.
        -11    1    3    3    0    0 -0.34734561501E+02 -0.39200258234E+02 -0.90348566093E+02  0.10443186010E+03  0.00000000000E+00 0. -1.
         11    1    3    3    0    0  0.20482735576E+02  0.25073946222E+02 -0.17392867829E+02  0.36752647348E+02  0.00000000000E+00 0.  1.
<mgrwt>
<rscale>  0 0.11664622E+03</rscale>
<asrwt>0</asrwt>
<pdfrwt beam="2">  1        1 0.49649382E-01 0.12659936E+03</pdfrwt>
<pdfrwt beam="1">  1       -1 0.56818176E-02 0.12659936E+03</pdfrwt>
<totfact> 0.10889345E+04</totfact>
</mgrwt>
</event>
<event>
 7    1  0.1378058E-005  0.1523180E+03  0.7546771E-02  0.1206409E+00
         -1   -1    0    0    0  501 -0.00000000000E+00  0.00000000000E+00  0.10221779727E+04  0.10221779727E+04  0.00000000000E+00 0.  1.
          1   -1    0    0  501    0  0.00000000000E+00 -0.00000000000E+00 -0.20738573192E+02  0.20738573192E+02  0.00000000000E+00 0. -1.
         23    2    1    2    0    0  0.86810438919E+02 -0.63969938282E+01  0.30490316442E+03  0.32992040111E+03  0.91129345212E+02 0.  0.
          5    1    1    2  502    0 -0.81479678653E+02 -0.62150887368E+01  0.69336080842E+03  0.69817538342E+03  0.47000000000E+01 0.  1.
         -5    1    1    2    0  502 -0.53307602660E+01  0.12612082565E+02  0.31754266139E+01  0.14820761310E+02  0.47000000000E+01 0.  1.
        -11    1    3    3    0    0  0.64246516273E+02  0.37851102144E+02  0.15502257521E+03  0.17202418322E+03  0.00000000000E+00 0. -1.
         11    1    3    3    0    0  0.22563922646E+02 -0.44248095973E+02  0.14988058921E+03  0.15789621789E+03  0.00000000000E+00 0.  1.
<mgrwt>
<rscale>  0 0.14526968E+03</rscale>
<asrwt>0</asrwt>
<pdfrwt beam="2">  1        1 0.31905505E-02 0.15231801E+03</pdfrwt>
<pdfrwt beam="1">  1       -1 0.15725811E+00 0.15231801E+03</pdfrwt>
<totfact> 0.10260773E+03</totfact>
</mgrwt>
</event>
<event>
 7    1  0.1378058E-005  0.1383896E+03  0.7546771E-02  0.1222917E+00
          2   -1    0    0  501    0  0.00000000000E+00  0.00000000000E+00  0.14281435389E+03  0.14281435389E+03  0.00000000000E+00 0. -1.
         -2   -1    0    0    0  501 -0.00000000000E+00 -0.00000000000E+00 -0.14246272538E+03  0.14246272538E+03  0.00000000000E+00 0.  1.
         23    2    1    2    0    0  0.67060072118E+02  0.33208215908E+02  0.62106686076E+02  0.13373382526E+03  0.91802269510E+02 0.  0.
          5    1    1    2  502    0  0.14396808741E+02 -0.17884910311E+02  0.23046988223E+02  0.32869313727E+02  0.47000000000E+01 0. -1.
         -5    1    1    2    0  502 -0.81456880859E+02 -0.15323305597E+02 -0.84802045783E+02  0.11867394028E+03  0.47000000000E+01 0.  1.
        -11    1    3    3    0    0  0.64267977584E+01 -0.30041925629E+02  0.18529579240E+02  0.35877100381E+02  0.00000000000E+00 0.  1.
         11    1    3    3    0    0  0.60633274360E+02  0.63250141537E+02  0.43577106836E+02  0.97856724880E+02  0.00000000000E+00 0. -1.
<mgrwt>
<rscale>  0 0.13310673E+03</rscale>
<asrwt>0</asrwt>
<pdfrwt beam="1">  1        2 0.21971439E-01 0.13838956E+03</pdfrwt>
<pdfrwt beam="2">  1       -2 0.21917342E-01 0.13838956E+03</pdfrwt>
<totfact> 0.42820186E+03</totfact>
</mgrwt>
</event>
<event>
 7    1  0.1378058E-005  0.1355293E+03  0.7546771E-02  0.1231943E+00
          2   -1    0    0  501    0  0.00000000000E+00  0.00000000000E+00  0.69838719631E+03  0.69838719631E+03  0.00000000000E+00 0.  1.
         -2   -1    0    0    0  501 -0.00000000000E+00 -0.00000000000E+00 -0.24367844366E+02  0.24367844366E+02  0.00000000000E+00 0. -1.
         23    2    1    2    0    0  0.17142480085E+02  0.49497176737E+02  0.44062750115E+03  0.45286627483E+03  0.90506535554E+02 0.  0.
          5    1    1    2  502    0 -0.63754886535E+02 -0.54983068143E+02  0.17918165160E+03  0.19803024418E+03  0.47000000000E+01 0.  1.
         -5    1    1    2    0  502  0.46612406450E+02  0.54858914053E+01  0.54210199188E+02  0.71858521663E+02  0.47000000000E+01 0.  1.
        -11    1    3    3    0    0  0.25978282481E+02 -0.20040482368E+02  0.10540640625E+03  0.11039475791E+03  0.00000000000E+00 0.  1.
         11    1    3    3    0    0 -0.88358023964E+01  0.69537659105E+02  0.33522109490E+03  0.34247151692E+03  0.00000000000E+00 0. -1.
<mgrwt>
<rscale>  0 0.12702189E+03</rscale>
<asrwt>0</asrwt>
<pdfrwt beam="1">  1        2 0.10744417E+00 0.13552930E+03</pdfrwt>
<pdfrwt beam="2">  1       -2 0.37488997E-02 0.13552930E+03</pdfrwt>
<totfact> 0.12165327E+04</totfact>
</mgrwt>
</event>
<event>
 7    1  0.1378058E-005  0.1352378E+03  0.7546771E-02  0.1231964E+00
          2   -1    0    0  501    0  0.00000000000E+00  0.00000000000E+00  0.15458894330E+03  0.15458894330E+03  0.00000000000E+00 0.  1.
         -2   -1    0    0    0  501 -0.00000000000E+00 -0.00000000000E+00 -0.13343862702E+03  0.13343862702E+03  0.00000000000E+00 0. -1.
         23    2    1    2    0    0  0.42426030241E+02  0.29376487136E+02  0.88012427161E+02  0.13716408540E+03  0.91677985092E+02 0.  0.
          5    1    1    2  502    0  0.26235799566E+02  0.30189008835E+02 -0.38020322312E+02  0.55383466324E+02  0.47000000000E+01 0.  1.
         -5    1    1    2    0  502 -0.68661829807E+02 -0.59565495971E+02 -0.28841788572E+02  0.95480018594E+02  0.47000000000E+01 0.  1.
        -11    1    3    3    0    0  0.51907698502E+02 -0.19333322046E+02  0.50509930967E+02  0.74962921711E+02  0.00000000000E+00 0. -1.
         11    1    3    3    0    0 -0.94816682611E+01  0.48709809182E+02  0.37502496194E+02  0.62201163690E+02  0.00000000000E+00 0.  1.
<mgrwt>
<rscale>  0 0.12700801E+03</rscale>
<asrwt>0</asrwt>
<pdfrwt beam="1">  1        2 0.23782914E-01 0.13523775E+03</pdfrwt>
<pdfrwt beam="2">  1       -2 0.20529020E-01 0.13523775E+03</pdfrwt>
<totfact> 0.43774499E+03</totfact>
</mgrwt>
</event>
<event>
 7    1  0.1378058E-005  0.1472306E+03  0.7546771E-02  0.1217744E+00
         -2   -1    0    0    0  501 -0.00000000000E+00  0.00000000000E+00  0.18732829951E+03  0.18732829951E+03  0.00000000000E+00 0.  1.
          2   -1    0    0  501    0  0.00000000000E+00 -0.00000000000E+00 -0.23023612742E+03  0.23023612742E+03  0.00000000000E+00 0. -1.
         23    2    1    2    0    0 -0.37964473609E+01 -0.77713743233E+02 -0.18364878496E+03  0.21388605599E+03  0.77243315750E+02 0.  0.
          5    1    1    2  502    0 -0.34342879823E+02 -0.21090162543E+02  0.47740178795E+02  0.62653356032E+02  0.47000000000E+01 0.  1.
         -5    1    1    2    0  502  0.38139327184E+02  0.98803905777E+02  0.93000778255E+02  0.14102501491E+03  0.47000000000E+01 0.  1.
        -11    1    3    3    0    0 -0.15684742096E+01 -0.93316281932E+02 -0.16400741724E+03  0.18870299811E+03  0.00000000000E+00 0.  1.
         11    1    3    3    0    0 -0.22279731513E+01  0.15602538699E+02 -0.19641367720E+02  0.25183057879E+02  0.00000000000E+00 0. -1.
<mgrwt>
<rscale>  0 0.13676922E+03</rscale>
<asrwt>0</asrwt>
<pdfrwt beam="2">  1        2 0.35420943E-01 0.14723064E+03</pdfrwt>
<pdfrwt beam="1">  1       -2 0.28819738E-01 0.14723064E+03</pdfrwt>
<totfact> 0.15774566E+03</totfact>
</mgrwt>
</event>
<event>
 7    1  0.1378058E-005  0.1516441E+03  0.7546771E-02  0.1205786E+00
         -1   -1    0    0    0  501 -0.00000000000E+00  0.00000000000E+00  0.75277789695E+02  0.75277789695E+02  0.00000000000E+00 0.  1.
          1   -1    0    0  501    0  0.00000000000E+00 -0.00000000000E+00 -0.28908977748E+03  0.28908977748E+03  0.00000000000E+00 0. -1.
         23    2    1    2    0    0  0.75246555900E+02  0.41315186323E+02 -0.15446567495E+03  0.20152432613E+03  0.96868057111E+02 0.  0.
          5    1    1    2  502    0 -0.10148065462E+03 -0.37776281502E+02 -0.74932641189E+02  0.13176631368E+03  0.47000000000E+01 0.  1.
         -5    1    1    2    0  502  0.26234098716E+02 -0.35389048208E+01  0.15586328355E+02  0.31076927364E+02  0.47000000000E+01 0.  1.
        -11    1    3    3    0    0  0.84631308908E+02  0.63006717071E+02 -0.12078867450E+03  0.16038144759E+03  0.00000000000E+00 0.  1.
         11    1    3    3    0    0 -0.93847530075E+01 -0.21691530748E+02 -0.33677000455E+02  0.41142878543E+02  0.00000000000E+00 0. -1.
<mgrwt>
<rscale>  0 0.14575680E+03</rscale>
<asrwt>0</asrwt>
<pdfrwt beam="2">  1        1 0.44475351E-01 0.15164411E+03</pdfrwt>
<pdfrwt beam="1">  1       -1 0.11581198E-01 0.15164411E+03</pdfrwt>
<totfact> 0.43041851E+03</totfact>
</mgrwt>
</event>
<event>
 7    1  0.1378058E-005  0.2399934E+03  0.7546771E-02  0.1122536E+00
          3   -1    0    0  501    0  0.00000000000E+00  0.00000000000E+00  0.72811850936E+02  0.72811850936E+02  0.00000000000E+00 0. -1.
         -3   -1    0    0    0  501 -0.00000000000E+00 -0.00000000000E+00 -0.89030702883E+03  0.89030702883E+03  0.00000000000E+00 0.  1.
         23    2    1    2    0    0 -0.19934230112E+03 -0.47271177359E+02 -0.19913693620E+03  0.29982123255E+03  0.90913887275E+02 0.  0.
          5    1    1    2  502    0  0.20467217841E+03  0.67361262200E+02 -0.58760028331E+03  0.62587892056E+03  0.47000000000E+01 0. -1.
         -5    1    1    2    0  502 -0.53298772935E+01 -0.20090084841E+02 -0.30757958386E+02  0.37418726661E+02  0.47000000000E+01 0. -1.
        -11    1    3    3    0    0 -0.85959998420E+02 -0.49748965783E+02 -0.46501295366E+02  0.10966517859E+03  0.00000000000E+00 0.  1.
         11    1    3    3    0    0 -0.11338230270E+03  0.24777884241E+01 -0.15263564084E+03  0.19015605395E+03  0.00000000000E+00 0. -1.
<mgrwt>
<rscale>  0 0.23592707E+03</rscale>
<asrwt>0</asrwt>
<pdfrwt beam="1">  1        3 0.11201823E-01 0.23999345E+03</pdfrwt>
<pdfrwt beam="2">  1       -3 0.13697031E+00 0.23999345E+03</pdfrwt>
<totfact> 0.64873228E+01</totfact>
</mgrwt>
</event>
<event>
 7    1  0.1378058E-005  0.2162069E+03  0.7546771E-02  0.1140180E+00
         -2   -1    0    0    0  501 -0.00000000000E+00  0.00000000000E+00  0.32334613191E+02  0.32334613191E+02  0.00000000000E+00 0.  1.
          2   -1    0    0  501    0  0.00000000000E+00 -0.00000000000E+00 -0.13456623513E+04  0.13456623513E+04  0.00000000000E+00 0. -1.
         23    2    1    2    0    0  0.57681606299E+02  0.16671731908E+03 -0.69734060093E+03  0.72516805620E+03  0.91994368542E+02 0.  0.
          5    1    1    2  502    0 -0.89241347591E+02 -0.97463736561E+02 -0.46841262203E+03  0.48671929543E+03  0.47000000000E+01 0. -1.
         -5    1    1    2    0  502  0.31559741292E+02 -0.69253582521E+02 -0.14757451512E+03  0.16610961283E+03  0.47000000000E+01 0. -1.
        -11    1    3    3    0    0  0.43385729077E+02  0.11364914466E+03 -0.60972019236E+03  0.62173721341E+03  0.00000000000E+00 0. -1.
         11    1    3    3    0    0  0.14295877221E+02  0.53068174426E+02 -0.87620408566E+02  0.10343084279E+03  0.00000000000E+00 0.  1.
<mgrwt>
<rscale>  0 0.21175966E+03</rscale>
<asrwt>0</asrwt>
<pdfrwt beam="2">  1        2 0.20702496E+00 0.21620692E+03</pdfrwt>
<pdfrwt beam="1">  1       -2 0.49745563E-02 0.21620692E+03</pdfrwt>
<totfact> 0.32580047E+03</totfact>
</mgrwt>
</event>
<event>
 7    1  0.1378058E-005  0.1559555E+03  0.7546771E-02  0.1201344E+00
          1   -1    0    0  501    0  0.00000000000E+00  0.00000000000E+00  0.67545074932E+02  0.67545074932E+02  0.00000000000E+00 0. -1.
         -1   -1    0    0    0  501 -0.00000000000E+00 -0.00000000000E+00 -0.31183668603E+03  0.31183668603E+03  0.00000000000E+00 0.  1.
         23    2    1    2    0    0  0.71267780903E+02 -0.60155040339E+02 -0.83159477875E+02  0.15513708876E+03  0.91947224410E+02 0.  0.
          5    1    1    2  502    0  0.12793426237E+02  0.48118986172E+02 -0.11952061434E+03  0.12956224696E+03  0.47000000000E+01 0. -1.
         -5    1    1    2    0  502 -0.84061207140E+02  0.12036054168E+02 -0.41611518887E+02  0.94682425243E+02  0.47000000000E+01 0. -1.
        -11    1    3    3    0    0  0.52892001316E+02 -0.40307199010E+02  0.12378361993E+01  0.66511400028E+02  0.00000000000E+00 0. -1.
         11    1    3    3    0    0  0.18375779586E+02 -0.19847841329E+02 -0.84397314075E+02  0.88625688736E+02  0.00000000000E+00 0.  1.
<mgrwt>
<rscale>  0 0.14929314E+03</rscale>
<asrwt>0</asrwt>
<pdfrwt beam="1">  1        1 0.10391550E-01 0.15595547E+03</pdfrwt>
<pdfrwt beam="2">  1       -1 0.47974875E-01 0.15595547E+03</pdfrwt>
<totfact> 0.26304247E+03</totfact>
</mgrwt>
</event>
<event>
 7    1  0.1378058E-005  0.1376748E+03  0.7546771E-02  0.1227518E+00
         -2   -1    0    0    0  501 -0.00000000000E+00  0.00000000000E+00  0.18709713500E+03  0.18709713500E+03  0.00000000000E+00 0.  1.
          2   -1    0    0  501    0  0.00000000000E+00 -0.00000000000E+00 -0.90729113459E+02  0.90729113459E+02  0.00000000000E+00 0. -1.
         23    2    1    2    0    0  0.57638747673E+02 -0.28658128106E+01 -0.80911878430E+00  0.10930989693E+03  0.92830818039E+02 0.  0.
          5    1    1    2  502    0 -0.75154629387E+02  0.19163610686E+01  0.11855829612E+03  0.14046369757E+03  0.47000000000E+01 0.  1.
         -5    1    1    2    0  502  0.17515881714E+02  0.94945174206E+00 -0.21381155791E+02  0.28052653953E+02  0.47000000000E+01 0.  1.
        -11    1    3    3    0    0  0.49078197839E+02  0.18169389306E+02 -0.38731684853E+02  0.65107139566E+02  0.00000000000E+00 0. -1.
         11    1    3    3    0    0  0.85605498340E+01 -0.21035202117E+02  0.37922566069E+02  0.44202757367E+02  0.00000000000E+00 0.  1.
<mgrwt>
<rscale>  0 0.12995795E+03</rscale>
<asrwt>0</asrwt>
<pdfrwt beam="2">  1        2 0.13958325E-01 0.13767485E+03</pdfrwt>
<pdfrwt beam="1">  1       -2 0.28784174E-01 0.13767485E+03</pdfrwt>
<totfact> 0.44774330E+03</totfact>
</mgrwt>
</event>
<event>
 6    1  0.1378058E-005  0.4000298E+03  0.7546771E-02  0.1043769E+00
          1   -1    0    0  501    0  0.00000000000E+00  0.00000000000E+00  0.19851285953E+03  0.19851285953E+03  0.00000000000E+00 0. -1.
         -1   -1    0    0    0  501 -0.00000000000E+00 -0.00000000000E+00 -0.20152832353E+03  0.20152832353E+03  0.00000000000E+00 0.  1.
          5    1    1    2  502    0 -0.10328790290E+03  0.34590215570E+02 -0.24307155850E+02  0.11170408105E+03  0.47000000000E+01 0.  1.
         -5    1    1    2    0  502  0.37314508706E+02  0.18595780338E+02 -0.72085625377E+01  0.42570282830E+02  0.47000000000E+01 0.  1.
        -11    1    1    2    0    0  0.63750109608E+02  0.49347054816E+02 -0.67608652332E+02  0.10521472408E+03  0.00000000000E+00 0.  1.
         11    1    1    2    0    0  0.22232845840E+01 -0.10253305072E+03  0.96108906716E+02  0.14055209509E+03  0.00000000000E+00 0. -1.
<mgrwt>
<rscale>  0 0.40002982E+03</rscale>
<asrwt>0</asrwt>
<pdfrwt beam="1">  1        1 0.30540440E-01 0.40002982E+03</pdfrwt>
<pdfrwt beam="2">  1       -1 0.31004358E-01 0.40002982E+03</pdfrwt>
<totfact> 0.14367804E+03</totfact>
</mgrwt>
</event>
<event>
 7    1  0.1378058E-005  0.1279768E+03  0.7546771E-02  0.1244849E+00
          2   -1    0    0  501    0  0.00000000000E+00  0.00000000000E+00  0.37277828124E+02  0.37277828124E+02  0.00000000000E+00 0. -1.
         -2   -1    0    0    0  501 -0.00000000000E+00 -0.00000000000E+00 -0.37781133598E+03  0.37781133598E+03  0.00000000000E+00 0.  1.
         23    2    1    2    0    0  0.25197657269E+02 -0.10862007354E+02 -0.79054635926E+02  0.12397188829E+03  0.91468510922E+02 0.  0.
          5    1    1    2  502    0  0.23723781328E+02  0.54267084955E+02 -0.93327852747E+02  0.11063413763E+03  0.47000000000E+01 0. -1.
         -5    1    1    2    0  502 -0.48921438597E+02 -0.43405077601E+02 -0.16815101918E+03  0.18048313818E+03  0.47000000000E+01 0. -1.
        -11    1    3    3    0    0 -0.15550023902E+02 -0.62014460454E+00 -0.80442346848E+02  0.81933869609E+02  0.00000000000E+00 0.  1.
         11    1    3    3    0    0  0.40747681171E+02 -0.10241862749E+02  0.13877109214E+01  0.42038018686E+02  0.00000000000E+00 0. -1.
<mgrwt>
<rscale>  0 0.11894447E+03</rscale>
<asrwt>0</asrwt>
<pdfrwt beam="1">  1        2 0.57350503E-02 0.12797683E+03</pdfrwt>
<pdfrwt beam="2">  1       -2 0.58124822E-01 0.12797683E+03</pdfrwt>
<totfact> 0.35185284E+03</totfact>
</mgrwt>
</event>
<event>
 7    1  0.1378058E-005  0.2024106E+03  0.7546771E-02  0.1151790E+00
          2   -1    0    0  501    0  0.00000000000E+00  0.00000000000E+00  0.81506703392E+03  0.81506703392E+03  0.00000000000E+00 0. -1.
         -2   -1    0    0    0  501 -0.00000000000E+00 -0.00000000000E+00 -0.56326803763E+02  0.56326803763E+02  0.00000000000E+00 0.  1.
         23    2    1    2    0    0 -0.15549446482E+03 -0.34135285559E+02  0.55314209258E+03  0.58287929870E+03  0.91860524492E+02 0.  0.
          5    1    1    2  502    0  0.17113808367E+03  0.18096194686E+02  0.14981056751E+03  0.22821264663E+03  0.47000000000E+01 0.  1.
         -5    1    1    2    0  502 -0.15643618855E+02  0.16039090873E+02  0.55787570071E+02  0.60301892353E+02  0.47000000000E+01 0.  1.
        -11    1    3    3    0    0 -0.18886112480E+02 -0.40580522660E+02  0.17945592707E+03  0.18495376131E+03  0.00000000000E+00 0. -1.
         11    1    3    3    0    0 -0.13660835234E+03  0.64452371005E+01  0.37368616551E+03  0.39792553738E+03  0.00000000000E+00 0.  1.
<mgrwt>
<rscale>  0 0.19758808E+03</rscale>
<asrwt>0</asrwt>
<pdfrwt beam="1">  1        2 0.12539492E+00 0.20241059E+03</pdfrwt>
<pdfrwt beam="2">  1       -2 0.86656627E-02 0.20241059E+03</pdfrwt>
<totfact> 0.28637591E+03</totfact>
</mgrwt>
</event>
<event>
 7    1  0.1378058E-005  0.1263019E+03  0.7546771E-02  0.1248892E+00
         -4   -1    0    0    0  501 -0.00000000000E+00  0.00000000000E+00  0.15787751002E+03  0.15787751002E+03  0.00000000000E+00 0.  1.
          4   -1    0    0  501    0  0.00000000000E+00 -0.00000000000E+00 -0.18431346666E+03  0.18431346666E+03  0.00000000000E+00 0. -1.
         23    2    1    2    0    0  0.26243552550E+01 -0.17912882635E+02 -0.14332889376E+03  0.17009759785E+03  0.89790101914E+02 0.  0.
          5    1    1    2  502    0  0.41309455132E+02 -0.26434390477E+02  0.92700958718E+02  0.10498002586E+03  0.47000000000E+01 0.  1.
         -5    1    1    2    0  502 -0.43933810387E+02  0.44347273113E+02  0.24191978401E+02  0.67113352968E+02  0.47000000000E+01 0.  1.
        -11    1    3    3    0    0  0.36935289729E+02  0.17164767649E+02 -0.48560036691E+02  0.63379192479E+02  0.00000000000E+00 0.  1.
         11    1    3    3    0    0 -0.34310934474E+02 -0.35077650285E+02 -0.94768857071E+02  0.10671840537E+03  0.00000000000E+00 0. -1.
<mgrwt>
<rscale>  0 0.11655417E+03</rscale>
<asrwt>0</asrwt>
<pdfrwt beam="2">  1        4 0.28355918E-01 0.12630191E+03</pdfrwt>
<pdfrwt beam="1">  1       -4 0.24288848E-01 0.12630191E+03</pdfrwt>
<totfact> 0.30705018E+02</totfact>
</mgrwt>
</event>
<event>
 7    1  0.1378058E-005  0.1430224E+03  0.7546771E-02  0.1219603E+00
          3   -1    0    0  501    0  0.00000000000E+00  0.00000000000E+00  0.39017864047E+03  0.39017864047E+03  0.00000000000E+00 0. -1.
         -3   -1    0    0    0  501 -0.00000000000E+00 -0.00000000000E+00 -0.44775311319E+02  0.44775311319E+02  0.00000000000E+00 0.  1.
         23    2    1    2    0    0 -0.50881569517E+02 -0.47364198718E+02  0.20182548947E+03  0.23229658053E+03  0.91628989355E+02 0.  0.
          5    1    1    2  502    0 -0.31321441974E+02  0.77064559954E+01  0.16059494487E+00  0.32596594640E+02  0.47000000000E+01 0.  1.
         -5    1    1    2    0  502  0.82203011492E+02  0.39657742723E+02  0.14341724473E+03  0.17006077661E+03  0.47000000000E+01 0.  1.
        -11    1    3    3    0    0 -0.40698948126E+01 -0.44342548637E+02  0.28813634785E+02  0.53038205220E+02  0.00000000000E+00 0.  1.
         11    1    3    3    0    0 -0.46811674705E+02 -0.30216500811E+01  0.17301185469E+03  0.17925837531E+03  0.00000000000E+00 0. -1.
<mgrwt>
<rscale>  0 0.13543802E+03</rscale>
<asrwt>0</asrwt>
<pdfrwt beam="1">  1        3 0.60027481E-01 0.14302243E+03</pdfrwt>
<pdfrwt beam="2">  1       -3 0.68885097E-02 0.14302243E+03</pdfrwt>
<totfact> 0.87227269E+02</totfact>
</mgrwt>
</event>
<event>
 7    1  0.1378058E-005  0.1505640E+03  0.7546771E-02  0.1208725E+00
         -2   -1    0    0    0  501 -0.00000000000E+00  0.00000000000E+00  0.60192567113E+02  0.60192567113E+02  0.00000000000E+00 0.  1.
          2   -1    0    0  501    0  0.00000000000E+00 -0.00000000000E+00 -0.38865870624E+03  0.38865870624E+03  0.00000000000E+00 0. -1.
         23    2    1    2    0    0 -0.53144769725E+02  0.64692486819E+02 -0.24984946773E+03  0.27899808972E+03  0.91682567262E+02 0.  0.
          5    1    1    2  502    0  0.93779365687E+02 -0.39157733340E+02 -0.46096707835E+02  0.11169106492E+03  0.47000000000E+01 0.  1.
         -5    1    1    2    0  502 -0.40634595962E+02 -0.25534753479E+02 -0.32519963561E+02  0.58162118722E+02  0.47000000000E+01 0.  1.
        -11    1    3    3    0    0  0.25112140292E+02  0.26595728732E+02 -0.86277108179E+02  0.93710681208E+02  0.00000000000E+00 0.  1.
         11    1    3    3    0    0 -0.78256910016E+02  0.38096758086E+02 -0.16357235955E+03  0.18528740851E+03  0.00000000000E+00 0. -1.
<mgrwt>
<rscale>  0 0.14347772E+03</rscale>
<asrwt>0</asrwt>
<pdfrwt beam="2">  1        2 0.59793645E-01 0.15056402E+03</pdfrwt>
<pdfrwt beam="1">  1       -2 0.92603952E-02 0.15056402E+03</pdfrwt>
<totfact> 0.59583201E+03</totfact>
</mgrwt>
</event>
<event>
 7    1  0.1378058E-005  0.1482274E+03  0.7546771E-02  0.1212099E+00
         -1   -1    0    0    0  501 -0.00000000000E+00  0.00000000000E+00  0.61420294290E+02  0.61420294290E+02  0.00000000000E+00 0.  1.
          1   -1    0    0  501    0  0.00000000000E+00 -0.00000000000E+00 -0.29744558276E+03  0.29744558276E+03  0.00000000000E+00 0. -1.
         23    2    1    2    0    0  0.31214457861E+02 -0.73295951829E+02 -0.12167463714E+03  0.17165630808E+03  0.91184054776E+02 0.  0.
          5    1    1    2  502    0 -0.61458529437E+02  0.84639019864E+02 -0.52168963923E+02  0.11698121781E+03  0.47000000000E+01 0.  1.
         -5    1    1    2    0  502  0.30244071576E+02 -0.11343068035E+02 -0.62181687412E+02  0.70228351165E+02  0.47000000000E+01 0.  1.
        -11    1    3    3    0    0  0.42261009632E+02 -0.67673414536E+01 -0.84325441987E+02  0.94565162781E+02  0.00000000000E+00 0. -1.
         11    1    3    3    0    0 -0.11046551771E+02 -0.66528610375E+02 -0.37349195153E+02  0.77091145296E+02  0.00000000000E+00 0.  1.
<mgrwt>
<rscale>  0 0.14091829E+03</rscale>
<asrwt>0</asrwt>
<pdfrwt beam="2">  1        1 0.45760859E-01 0.14822736E+03</pdfrwt>
<pdfrwt beam="1">  1       -1 0.94492761E-02 0.14822736E+03</pdfrwt>
<totfact> 0.56693050E+03</totfact>
</mgrwt>
</event>
<event>
 7    1  0.1378058E-005  0.1442045E+03  0.7546771E-02  0.1213594E+00
          2   -1    0    0  501    0  0.00000000000E+00  0.00000000000E+00  0.40496736801E+03  0.40496736801E+03  0.00000000000E+00 0. -1.
         -2   -1    0    0    0  501 -0.00000000000E+00 -0.00000000000E+00 -0.91773212462E+02  0.91773212462E+02  0.00000000000E+00 0.  1.
         23    2    1    2    0    0 -0.49301359131E+02  0.52365639410E+02  0.32791171272E+03  0.35178699531E+03  0.10514378028E+03 0.  0.
          5    1    1    2  502    0  0.69657595817E+02  0.30261013557E+01 -0.40068084851E+02  0.80553580727E+02  0.47000000000E+01 0. -1.
         -5    1    1    2    0  502 -0.20356236686E+02 -0.55391740766E+02  0.25350527681E+02  0.64400004431E+02  0.47000000000E+01 0. -1.
        -11    1    3    3    0    0 -0.68596969954E+02 -0.30019452300E+01  0.17015479637E+03  0.18348626839E+03  0.00000000000E+00 0.  1.
         11    1    3    3    0    0  0.19295610822E+02  0.55367584640E+02  0.15775691635E+03  0.16830072692E+03  0.00000000000E+00 0. -1.
<mgrwt>
<rscale>  0 0.13980323E+03</rscale>
<asrwt>0</asrwt>
<pdfrwt beam="1">  1        2 0.62302671E-01 0.14420449E+03</pdfrwt>
<pdfrwt beam="2">  1       -2 0.14118956E-01 0.14420449E+03</pdfrwt>
<totfact> 0.29051588E+03</totfact>
</mgrwt>
</event>
<event>
 7    1  0.1378058E-005  0.1370570E+03  0.7546771E-02  0.1227670E+00
          2   -1    0    0  501    0  0.00000000000E+00  0.00000000000E+00  0.35114409376E+03  0.35114409376E+03  0.00000000000E+00 0.  1.
         -2   -1    0    0    0  501 -0.00000000000E+00 -0.00000000000E+00 -0.44286161572E+02  0.44286161572E+02  0.00000000000E+00 0. -1.
         23    2    1    2    0    0  0.20010145066E+02  0.52524450168E+02  0.16143749214E+03  0.19560099310E+03  0.95070820246E+02 0.  0.
          5    1    1    2  502    0  0.23240582263E+02 -0.64174907004E+02  0.27740554901E+02  0.73825278456E+02  0.47000000000E+01 0.  1.
         -5    1    1    2    0  502 -0.43250727329E+02  0.11650456835E+02  0.11767988515E+03  0.12600398378E+03  0.47000000000E+01 0.  1.
        -11    1    3    3    0    0 -0.26564137913E+02  0.50653707613E+02  0.12122312287E+03  0.13403916232E+03  0.00000000000E+00 0.  1.
         11    1    3    3    0    0  0.46574282979E+02  0.18707425550E+01  0.40214369267E+02  0.61561830775E+02  0.00000000000E+00 0. -1.
<mgrwt>
<rscale>  0 0.12985559E+03</rscale>
<asrwt>0</asrwt>
<pdfrwt beam="1">  1        2 0.54022167E-01 0.13705703E+03</pdfrwt>
<pdfrwt beam="2">  1       -2 0.68132558E-02 0.13705703E+03</pdfrwt>
<totfact> 0.10605366E+04</totfact>
</mgrwt>
</event>
<event>
 7    1  0.2170627E-005  0.1380260E+03  0.7546771E-02  0.1230177E+00
         -1   -1    0    0    0  501 -0.00000000000E+00  0.00000000000E+00  0.13806148820E+03  0.13806148820E+03  0.00000000000E+00 0.  1.
          1   -1    0    0  501    0  0.00000000000E+00 -0.00000000000E+00 -0.10927731987E+03  0.10927731987E+03  0.00000000000E+00 0. -1.
         23    2    1    2    0    0 -0.26081974825E+02 -0.52396910528E+02 -0.12113833655E+02  0.10338108926E+03  0.84351639024E+02 0.  0.
          5    1    1    2  502    0  0.63944705155E+02  0.68878223702E+02  0.15836777700E+02  0.95425513075E+02  0.47000000000E+01 0. -1.
         -5    1    1    2    0  502 -0.37862730330E+02 -0.16481313174E+02  0.25061224280E+02  0.48532205744E+02  0.47000000000E+01 0. -1.
        -11    1    3    3    0    0 -0.36685133313E+02 -0.42223382795E+02  0.26625973861E+02  0.61948006787E+02  0.00000000000E+00 0.  1.
         11    1    3    3    0    0  0.10603158488E+02 -0.10173527732E+02 -0.38739807516E+02  0.41433082468E+02  0.00000000000E+00 0. -1.
<mgrwt>
<rscale>  0 0.12818300E+03</rscale>
<asrwt>0</asrwt>
<pdfrwt beam="2">  1        1 0.16811895E-01 0.13802601E+03</pdfrwt>
<pdfrwt beam="1">  1       -1 0.21240229E-01 0.13802601E+03</pdfrwt>
<totfact> 0.55802815E+03</totfact>
</mgrwt>
</event>
<event>
 7    1  0.1378058E-005  0.1777873E+03  0.7546771E-02  0.1175957E+00
          1   -1    0    0  501    0  0.00000000000E+00  0.00000000000E+00  0.14779690386E+03  0.14779690386E+03  0.00000000000E+00 0. -1.
         -1   -1    0    0    0  501 -0.00000000000E+00 -0.00000000000E+00 -0.19074029038E+03  0.19074029038E+03  0.00000000000E+00 0.  1.
         23    2    1    2    0    0 -0.45827110436E+02  0.11782830894E+03  0.21188488021E+01  0.15512797670E+03  0.89869712337E+02 0.  0.
          5    1    1    2  502    0  0.41014701217E+02 -0.12705235566E+02 -0.63170500670E+02  0.76526014411E+02  0.47000000000E+01 0. -1.
         -5    1    1    2    0  502  0.48124092198E+01 -0.10512307337E+03  0.18108265354E+02  0.10688320313E+03  0.47000000000E+01 0. -1.
        -11    1    3    3    0    0  0.67247162371E+01  0.70514432699E+02 -0.30662657059E+02  0.77186174702E+02  0.00000000000E+00 0.  1.
         11    1    3    3    0    0 -0.52551826674E+02  0.47313876238E+02  0.32781505861E+02  0.77941801993E+02  0.00000000000E+00 0. -1.
<mgrwt>
<rscale>  0 0.17182566E+03</rscale>
<asrwt>0</asrwt>
<pdfrwt beam="1">  1        1 0.22737985E-01 0.17778733E+03</pdfrwt>
<pdfrwt beam="2">  1       -1 0.29344660E-01 0.17778733E+03</pdfrwt>
<totfact> 0.22547738E+03</totfact>
</mgrwt>
</event>
<event>
 7    1  0.1378058E-005  0.1332826E+03  0.7546771E-02  0.1235466E+00
          2   -1    0    0  501    0  0.00000000000E+00  0.00000000000E+00  0.45570738781E+03  0.45570738781E+03  0.00000000000E+00 0. -1.
         -2   -1    0    0    0  501 -0.00000000000E+00 -0.00000000000E+00 -0.54160524144E+02  0.54160524144E+02  0.00000000000E+00 0.  1.
         23    2    1    2    0    0 -0.12155766993E+02  0.44629492835E+02  0.35380586514E+03  0.36829302631E+03  0.91222851975E+02 0.  0.
          5    1    1    2  502    0 -0.24046190831E+02  0.35878259487E+02  0.25671829616E+02  0.50463864627E+02  0.47000000000E+01 0.  1.
         -5    1    1    2    0  502  0.36201957824E+02 -0.80507752322E+02  0.22069168914E+02  0.91111021017E+02  0.47000000000E+01 0.  1.
        -11    1    3    3    0    0 -0.19579174679E+02 -0.25126831247E+02  0.12336307661E+03  0.12740938113E+03  0.00000000000E+00 0.  1.
         11    1    3    3    0    0  0.74234076862E+01  0.69756324082E+02  0.23044278853E+03  0.24088364518E+03  0.00000000000E+00 0. -1.
<mgrwt>
<rscale>  0 0.12474626E+03</rscale>
<asrwt>0</asrwt>
<pdfrwt beam="1">  1        2 0.70108826E-01 0.13328258E+03</pdfrwt>
<pdfrwt beam="2">  1       -2 0.83323886E-02 0.13328258E+03</pdfrwt>
<totfact> 0.58771418E+03</totfact>
</mgrwt>
</event>
<event>
 7    1  0.1378058E-005  0.1942293E+03  0.7546771E-02  0.1158270E+00
          1   -1    0    0  501    0  0.00000000000E+00  0.00000000000E+00  0.15769432694E+03  0.15769432694E+03  0.00000000000E+00 0. -1.
         -1   -1    0    0    0  501 -0.00000000000E+00 -0.00000000000E+00 -0.29475882090E+03  0.29475882090E+03  0.00000000000E+00 0.  1.
         23    2    1    2    0    0  0.14601555501E+03  0.27907959944E+02  0.47139569650E+02  0.18476643760E+03  0.99081284324E+02 0.  0.
          5    1    1    2  502    0 -0.72800226854E+02  0.18109916959E+02 -0.13637302478E+02  0.76393115797E+02  0.47000000000E+01 0.  1.
         -5    1    1    2    0  502 -0.73215328154E+02 -0.46017876903E+02 -0.17056676113E+03  0.19129359444E+03  0.47000000000E+01 0.  1.
        -11    1    3    3    0    0  0.13542070589E+03  0.24718332296E+02  0.73590932110E+02  0.15609416653E+03  0.00000000000E+00 0. -1.
         11    1    3    3    0    0  0.10594849119E+02  0.31896276483E+01 -0.26451362460E+02  0.28672271071E+02  0.00000000000E+00 0.  1.
<mgrwt>
<rscale>  0 0.19021205E+03</rscale>
<asrwt>0</asrwt>
<pdfrwt beam="1">  1        1 0.24260666E-01 0.19422934E+03</pdfrwt>
<pdfrwt beam="2">  1       -1 0.45347511E-01 0.19422934E+03</pdfrwt>
<totfact> 0.97491156E+02</totfact>
</mgrwt>
</event>
<event>
 7    1  0.1378058E-005  0.1262670E+03  0.7546771E-02  0.1242230E+00
          3   -1    0    0  501    0  0.00000000000E+00  0.00000000000E+00  0.22582719184E+03  0.22582719184E+03  0.00000000000E+00 0. -1.
         -3   -1    0    0    0  501 -0.00000000000E+00 -0.00000000000E+00 -0.61194711702E+02  0.61194711702E+02  0.00000000000E+00 0.  1.
         23    2    1    2    0    0  0.79279025866E+01  0.15950757082E+02  0.10124975822E+03  0.14573949614E+03  0.10330154358E+03 0.  0.
          5    1    1    2  502    0 -0.59110011323E+02  0.20222340808E+02  0.23870024895E+02  0.67043303877E+02  0.47000000000E+01 0. -1.
         -5    1    1    2    0  502  0.51182108736E+02 -0.36173097890E+02  0.39512697024E+02  0.74239103522E+02  0.47000000000E+01 0. -1.
        -11    1    3    3    0    0  0.43683890691E+02 -0.15595743902E+02  0.17908244528E+02  0.49721371218E+02  0.00000000000E+00 0.  1.
         11    1    3    3    0    0 -0.35755988104E+02  0.31546500984E+02  0.83341513691E+02  0.96018124924E+02  0.00000000000E+00 0. -1.
<mgrwt>
<rscale>  0 0.12052706E+03</rscale>
<asrwt>0</asrwt>
<pdfrwt beam="1">  1        3 0.34742645E-01 0.12626698E+03</pdfrwt>
<pdfrwt beam="2">  1       -3 0.94145711E-02 0.12626698E+03</pdfrwt>
<totfact> 0.15077678E+03</totfact>
</mgrwt>
</event>
<event>
 7    1  0.1378058E-005  0.1375121E+03  0.7546771E-02  0.1231841E+00
         -2   -1    0    0    0  501 -0.00000000000E+00  0.00000000000E+00  0.54094060653E+02  0.54094060653E+02  0.00000000000E+00 0.  1.
          2   -1    0    0  501    0  0.00000000000E+00 -0.00000000000E+00 -0.26520119802E+03  0.26520119802E+03  0.00000000000E+00 0. -1.
         23    2    1    2    0    0  0.23022167463E+02 -0.37935895387E+02 -0.10811361021E+03  0.14748943440E+03  0.89974597484E+02 0.  0.
          5    1    1    2  502    0  0.42550568744E+02  0.26722556904E+02 -0.90984403667E+02  0.10404276841E+03  0.47000000000E+01 0. -1.
         -5    1    1    2    0  502 -0.65572736207E+02  0.11213338483E+02 -0.12009123491E+02  0.67763055868E+02  0.47000000000E+01 0.  1.
        -11    1    3    3    0    0 -0.10017464593E+02  0.24697224386E+02 -0.46630146552E+02  0.53709152449E+02  0.00000000000E+00 0. -1.
         11    1    3    3    0    0  0.33039632056E+02 -0.62633119773E+02 -0.61483463659E+02  0.93780281949E+02  0.00000000000E+00 0.  1.
<mgrwt>
<rscale>  0 0.12708817E+03</rscale>
<asrwt>0</asrwt>
<pdfrwt beam="2">  1        2 0.40800184E-01 0.13751209E+03</pdfrwt>
<pdfrwt beam="1">  1       -2 0.83221632E-02 0.13751209E+03</pdfrwt>
<totfact> 0.10502090E+04</totfact>
</mgrwt>
</event>
<event>
 7    1  0.1378058E-005  0.1443276E+03  0.7546771E-02  0.1217754E+00
         -2   -1    0    0    0  501 -0.00000000000E+00  0.00000000000E+00  0.21888651552E+03  0.21888651552E+03  0.00000000000E+00 0.  1.
          2   -1    0    0  501    0  0.00000000000E+00 -0.00000000000E+00 -0.87269320003E+02  0.87269320003E+02  0.00000000000E+00 0. -1.
         23    2    1    2    0    0  0.28210589019E+02  0.66409588427E+02  0.88875602367E+01  0.11670133210E+03  0.91291518878E+02 0.  0.
          5    1    1    2  502    0  0.32954373817E+02 -0.87679160101E+01  0.94653328373E+02  0.10071846741E+03  0.47000000000E+01 0. -1.
         -5    1    1    2    0  502 -0.61164962835E+02 -0.57641672417E+02  0.28076306902E+02  0.88736036011E+02  0.47000000000E+01 0. -1.
        -11    1    3    3    0    0 -0.31512146245E+02  0.40037782988E+02  0.12140950684E+01  0.50965806718E+02  0.00000000000E+00 0. -1.
         11    1    3    3    0    0  0.59722735264E+02  0.26371805439E+02  0.76734651683E+01  0.65735525382E+02  0.00000000000E+00 0.  1.
<mgrwt>
<rscale>  0 0.13676191E+03</rscale>
<asrwt>0</asrwt>
<pdfrwt beam="2">  1        2 0.13426049E-01 0.14432756E+03</pdfrwt>
<pdfrwt beam="1">  1       -2 0.33674848E-01 0.14432756E+03</pdfrwt>
<totfact> 0.35388181E+03</totfact>
</mgrwt>
</event>
<event>
 7    1  0.1378058E-005  0.1709950E+03  0.7546771E-02  0.1183189E+00
         -2   -1    0    0    0  501 -0.00000000000E+00  0.00000000000E+00  0.53353882284E+02  0.53353882284E+02  0.00000000000E+00 0.  1.
          2   -1    0    0  501    0  0.00000000000E+00 -0.00000000000E+00 -0.57547526762E+03  0.57547526762E+03  0.00000000000E+00 0. -1.
         23    2    1    2    0    0 -0.11114712735E+03 -0.35514402759E+02 -0.37515835669E+03  0.40335756093E+03  0.91315785332E+02 0.  0.
          5    1    1    2  502    0  0.54290031208E+02  0.80433886261E+02 -0.70608458251E+02  0.12010271406E+03  0.47000000000E+01 0. -1.
         -5    1    1    2    0  502  0.56857096138E+02 -0.44919483502E+02 -0.76354570401E+02  0.10536887491E+03  0.47000000000E+01 0. -1.
        -11    1    3    3    0    0 -0.58703487436E+02  0.27594614507E+02 -0.14007478921E+03  0.15436485598E+03  0.00000000000E+00 0.  1.
         11    1    3    3    0    0 -0.52443639910E+02 -0.63109017266E+02 -0.23508356747E+03  0.24899270496E+03  0.00000000000E+00 0. -1.
<mgrwt>
<rscale>  0 0.16497787E+03</rscale>
<asrwt>0</asrwt>
<pdfrwt beam="2">  1        2 0.88534654E-01 0.17099505E+03</pdfrwt>
<pdfrwt beam="1">  1       -2 0.82082898E-02 0.17099505E+03</pdfrwt>
<totfact> 0.47034351E+03</totfact>
</mgrwt>
</event>
<event>
 7    1  0.1378058E-005  0.2183107E+03  0.7546771E-02  0.1138588E+00
          3   -1    0    0  501    0  0.00000000000E+00  0.00000000000E+00  0.51587451577E+03  0.51587451577E+03  0.00000000000E+00 0.  1.
         -3   -1    0    0    0  501 -0.00000000000E+00 -0.00000000000E+00 -0.13814457131E+03  0.13814457131E+03  0.00000000000E+00 0. -1.
         23    2    1    2    0    0 -0.18743752952E+02  0.17799719739E+03  0.38646254221E+03  0.43553377040E+03  0.91115520503E+02 0.  0.
          5    1    1    2  502    0 -0.34277263526E+02 -0.94054105101E+02  0.39853121493E+02  0.10784927804E+03  0.47000000000E+01 0. -1.
         -5    1    1    2    0  502  0.53021016478E+02 -0.83943092285E+02 -0.48585719240E+02  0.11063603863E+03  0.47000000000E+01 0. -1.
        -11    1    3    3    0    0 -0.29385274898E+01  0.10912390983E+03  0.32157206232E+03  0.33959572127E+03  0.00000000000E+00 0.  1.
         11    1    3    3    0    0 -0.15805225462E+02  0.68873287558E+02  0.64890479894E+02  0.95938049135E+02  0.00000000000E+00 0. -1.
<mgrwt>
<rscale>  0 0.21380527E+03</rscale>
<asrwt>0</asrwt>
<pdfrwt beam="1">  1        3 0.79365309E-01 0.21831073E+03</pdfrwt>
<pdfrwt beam="2">  1       -3 0.21253011E-01 0.21831073E+03</pdfrwt>
<totfact> 0.75247333E+01</totfact>
</mgrwt>
</event>
<event>
 7    1  0.1378058E-005  0.1819389E+03  0.7546771E-02  0.1190715E+00
         -1   -1    0    0    0  501 -0.00000000000E+00  0.00000000000E+00  0.11781315847E+03  0.11781315847E+03  0.00000000000E+00 0.  1.
          1   -1    0    0  501    0  0.00000000000E+00 -0.00000000000E+00 -0.18042510257E+03  0.18042510257E+03  0.00000000000E+00 0. -1.
         23    2    1    2    0    0 -0.33397305186E+02  0.37872956258E+02  0.48805328362E+01  0.10418417404E+03  0.90998800595E+02 0.  0.
          5    1    1    2  502    0 -0.70075249227E+02 -0.19394278668E+02 -0.47443518525E+02  0.86946282551E+02  0.47000000000E+01 0. -1.
         -5    1    1    2    0  502  0.10347255441E+03 -0.18478677590E+02 -0.20048958414E+02  0.10710780446E+03  0.47000000000E+01 0.  1.
        -11    1    3    3    0    0 -0.91355859686E+01  0.48704285494E+02  0.37477911242E+02  0.62130187409E+02  0.00000000000E+00 0.  1.
         11    1    3    3    0    0 -0.24261719217E+02 -0.10831329235E+02 -0.32597378406E+02  0.42053986628E+02  0.00000000000E+00 0. -1.
<mgrwt>
<rscale>  0 0.15822507E+03</rscale>
<asrwt>0</asrwt>
<pdfrwt beam="2">  1        1 0.27757708E-01 0.18193888E+03</pdfrwt>
<pdfrwt beam="1">  1       -1 0.18125101E-01 0.18193888E+03</pdfrwt>
<totfact> 0.38671822E+03</totfact>
</mgrwt>
</event>
<event>
 7    1  0.1378058E-005  0.2597838E+03  0.7546771E-02  0.1109174E+00
          3   -1    0    0  501    0  0.00000000000E+00  0.00000000000E+00  0.84321682287E+02  0.84321682287E+02  0.00000000000E+00 0. -1.
         -3   -1    0    0    0  501 -0.00000000000E+00 -0.00000000000E+00 -0.91887226270E+03  0.91887226270E+03  0.00000000000E+00 0.  1.
         23    2    1    2    0    0  0.17376241922E+03 -0.14725319851E+03 -0.20222889456E+03  0.31958709611E+03  0.96760029958E+02 0.  0.
          5    1    1    2  502    0 -0.14012002456E+03  0.16083046985E+03 -0.59143964412E+03  0.62874717013E+03  0.47000000000E+01 0.  1.
         -5    1    1    2    0  502 -0.33642394667E+02 -0.13577271348E+02 -0.40882041730E+02  0.54859678746E+02  0.47000000000E+01 0.  1.
        -11    1    3    3    0    0  0.37805288974E+02 -0.90402032491E+02 -0.10152717832E+03  0.14110115269E+03  0.00000000000E+00 0.  1.
         11    1    3    3    0    0  0.13595713025E+03 -0.56851166014E+02 -0.10070171624E+03  0.17848594342E+03  0.00000000000E+00 0. -1.
<mgrwt>
<rscale>  0 0.25664799E+03</rscale>
<asrwt>0</asrwt>
<pdfrwt beam="1">  1        3 0.12972566E-01 0.25978377E+03</pdfrwt>
<pdfrwt beam="2">  1       -3 0.14136497E+00 0.25978377E+03</pdfrwt>
<totfact> 0.46982062E+01</totfact>
</mgrwt>
</event>
<event>
 7    1  0.1378058E-005  0.1413919E+03  0.7546771E-02  0.1222229E+00
         -1   -1    0    0    0  501 -0.00000000000E+00  0.00000000000E+00  0.20608157423E+03  0.20608157423E+03  0.00000000000E+00 0.  1.
          1   -1    0    0  501    0  0.00000000000E+00 -0.00000000000E+00 -0.12673651769E+03  0.12673651769E+03  0.00000000000E+00 0. -1.
         23    2    1    2    0    0 -0.51844844633E+02  0.40965580234E+02 -0.65569405552E+02  0.13035360366E+03  0.91250470484E+02 0.  0.
          5    1    1    2  502    0  0.68434187649E+02  0.25149540085E+02  0.74032656372E+02  0.10401279544E+03  0.47000000000E+01 0.  1.
         -5    1    1    2    0  502 -0.16589343015E+02 -0.66115120319E+02  0.70881805722E+02  0.98451692819E+02  0.47000000000E+01 0.  1.
        -11    1    3    3    0    0 -0.26337201329E+02 -0.96417578939E+01 -0.68074798093E+02  0.73626013097E+02  0.00000000000E+00 0. -1.
         11    1    3    3    0    0 -0.25507643304E+02  0.50607338128E+02  0.25053925404E+01  0.56727590563E+02  0.00000000000E+00 0.  1.
<mgrwt>
<rscale>  0 0.13358654E+03</rscale>
<asrwt>0</asrwt>
<pdfrwt beam="2">  1        1 0.19497926E-01 0.14139189E+03</pdfrwt>
<pdfrwt beam="1">  1       -1 0.31704858E-01 0.14139189E+03</pdfrwt>
<totfact> 0.23843125E+03</totfact>
</mgrwt>
</event>
<event>
 7    1  0.1378058E-005  0.1416469E+03  0.7546771E-02  0.1222948E+00
          1   -1    0    0  501    0  0.00000000000E+00  0.00000000000E+00  0.45498032742E+02  0.45498032742E+02  0.00000000000E+00 0. -1.
         -1   -1    0    0    0  501 -0.00000000000E+00 -0.00000000000E+00 -0.69440790917E+03  0.69440790917E+03  0.00000000000E+00 0.  1.
         23    2    1    2    0    0 -0.63026907290E+02  0.21633924750E+02 -0.44323838915E+02  0.11894852263E+03  0.87998469290E+02 0.  0.
          5    1    1    2  502    0  0.70360151248E+02 -0.10670628088E+02 -0.14933938649E+03  0.16549548497E+03  0.47000000000E+01 0. -1.
         -5    1    1    2    0  502 -0.73332439582E+01 -0.10963296662E+02 -0.45524665102E+03  0.45546193431E+03  0.47000000000E+01 0. -1.
        -11    1    3    3    0    0 -0.80857386213E+02  0.29570031524E+02 -0.48746302430E+02  0.98936877200E+02  0.00000000000E+00 0.  1.
         11    1    3    3    0    0  0.17830478923E+02 -0.79361067733E+01  0.44224635150E+01  0.20011645432E+02  0.00000000000E+00 0. -1.
<mgrwt>
<rscale>  0 0.13308517E+03</rscale>
<asrwt>0</asrwt>
<pdfrwt beam="1">  1        1 0.69996985E-02 0.14164688E+03</pdfrwt>
<pdfrwt beam="2">  1       -1 0.10683197E+00 0.14164688E+03</pdfrwt>
<totfact> 0.89463945E+02</totfact>
</mgrwt>
</event>
<event>
 7    1  0.1378058E-005  0.2337994E+03  0.7546771E-02  0.1127597E+00
          2   -1    0    0  501    0  0.00000000000E+00  0.00000000000E+00  0.23571023372E+03  0.23571023372E+03  0.00000000000E+00 0. -1.
         -2   -1    0    0    0  501 -0.00000000000E+00 -0.00000000000E+00 -0.26903122621E+03  0.26903122621E+03  0.00000000000E+00 0.  1.
         23    2    1    2    0    0  0.14551612955E+03 -0.13365454435E+03  0.99478329754E+02  0.23585891799E+03  0.81823040256E+02 0.  0.
          5    1    1    2  502    0 -0.73011485599E+02  0.13118962720E+03 -0.12564645950E+03  0.19583288309E+03  0.47000000000E+01 0. -1.
         -5    1    1    2    0  502 -0.72504643955E+02  0.24649171489E+01 -0.71528627460E+01  0.73049658843E+02  0.47000000000E+01 0. -1.
        -11    1    3    3    0    0  0.36862955093E+02 -0.84917384756E+02  0.60368178707E+02  0.11051767593E+03  0.00000000000E+00 0.  1.
         11    1    3    3    0    0  0.10865317446E+03 -0.48737159597E+02  0.39110151047E+02  0.12534124206E+03  0.00000000000E+00 0. -1.
<mgrwt>
<rscale>  0 0.22864507E+03</rscale>
<asrwt>0</asrwt>
<pdfrwt beam="1">  1        2 0.36263113E-01 0.23379940E+03</pdfrwt>
<pdfrwt beam="2">  1       -2 0.41389420E-01 0.23379940E+03</pdfrwt>
<totfact> 0.79381710E+02</totfact>
</mgrwt>
</event>
<event>
 7    1  0.1378058E-005  0.1313897E+03  0.7546771E-02  0.1242499E+00
          2   -1    0    0  501    0  0.00000000000E+00  0.00000000000E+00  0.10695467741E+03  0.10695467741E+03  0.00000000000E+00 0. -1.
         -2   -1    0    0    0  501 -0.00000000000E+00 -0.00000000000E+00 -0.11815594096E+03  0.11815594096E+03  0.00000000000E+00 0.  1.
         23    2    1    2    0    0 -0.11610689939E+02  0.12030154921E+02  0.53331186179E+01  0.92684599656E+02  0.91008022234E+02 0.  0.
          5    1    1    2  502    0 -0.46996261917E+02 -0.31158899195E+02  0.20701234258E+02  0.60250782012E+02  0.47000000000E+01 0. -1.
         -5    1    1    2    0  502  0.58606951856E+02  0.19128744274E+02 -0.37235616425E+02  0.72175236708E+02  0.47000000000E+01 0.  1.
        -11    1    3    3    0    0 -0.17053902027E+02  0.50689198509E+02  0.37402633319E+01  0.53611752346E+02  0.00000000000E+00 0. -1.
         11    1    3    3    0    0  0.54432120883E+01 -0.38659043587E+02  0.15928552860E+01  0.39072847310E+02  0.00000000000E+00 0.  1.
<mgrwt>
<rscale>  0 0.12036299E+03</rscale>
<asrwt>0</asrwt>
<pdfrwt beam="1">  1        2 0.16454566E-01 0.13138974E+03</pdfrwt>
<pdfrwt beam="2">  1       -2 0.18177837E-01 0.13138974E+03</pdfrwt>
<totfact> 0.81358873E+03</totfact>
</mgrwt>
</event>
<event>
 7    1  0.1378058E-005  0.1489241E+03  0.7546771E-02  0.1210760E+00
          2   -1    0    0  501    0  0.00000000000E+00  0.00000000000E+00  0.28980044550E+03  0.28980044550E+03  0.00000000000E+00 0. -1.
         -2   -1    0    0    0  501 -0.00000000000E+00 -0.00000000000E+00 -0.63724368627E+02  0.63724368627E+02  0.00000000000E+00 0.  1.
         23    2    1    2    0    0 -0.42565140690E+02  0.68869005698E+02  0.10431245579E+03  0.16115859833E+03  0.92391959793E+02 0.  0.
          5    1    1    2  502    0  0.34512411266E+02 -0.98884314307E+02  0.12210048171E+03  0.16093424676E+03  0.47000000000E+01 0. -1.
         -5    1    1    2    0  502  0.80527294238E+01  0.30015308609E+02 -0.33686063183E+00  0.31431969031E+02  0.47000000000E+01 0. -1.
        -11    1    3    3    0    0 -0.71273846884E+02  0.40288002896E+02  0.63069536751E+02  0.10334820218E+03  0.00000000000E+00 0.  1.
         11    1    3    3    0    0  0.28708706194E+02  0.28581002802E+02  0.41242919042E+02  0.57810396155E+02  0.00000000000E+00 0. -1.
<mgrwt>
<rscale>  0 0.14192649E+03</rscale>
<asrwt>0</asrwt>
<pdfrwt beam="1">  1        2 0.44584683E-01 0.14892408E+03</pdfrwt>
<pdfrwt beam="2">  1       -2 0.98037492E-02 0.14892408E+03</pdfrwt>
<totfact> 0.74432061E+03</totfact>
</mgrwt>
</event>
<event>
 7    1  0.1378058E-005  0.1318174E+03  0.7546771E-02  0.1237952E+00
         -3   -1    0    0    0  501 -0.00000000000E+00  0.00000000000E+00  0.27579492566E+03  0.27579492566E+03  0.00000000000E+00 0.  1.
          3   -1    0    0  501    0  0.00000000000E+00 -0.00000000000E+00 -0.50073892348E+02  0.50073892348E+02  0.00000000000E+00 0. -1.
         23    2    1    2    0    0 -0.36817734871E+02  0.19917047699E+02  0.73502240166E+02  0.12450749868E+03  0.91363578777E+02 0.  0.
          5    1    1    2  502    0  0.23507899924E+02  0.50527320568E+02  0.91774441646E+02  0.10747218069E+03  0.47000000000E+01 0. -1.
         -5    1    1    2    0  502  0.13309834947E+02 -0.70444368266E+02  0.60444351497E+02  0.93889138641E+02  0.47000000000E+01 0. -1.
        -11    1    3    3    0    0 -0.47432709366E+02  0.49529007358E+02  0.55799336002E+02  0.88411257122E+02  0.00000000000E+00 0.  1.
         11    1    3    3    0    0  0.10614974495E+02 -0.29611959660E+02  0.17702904164E+02  0.36096241553E+02  0.00000000000E+00 0. -1.
<mgrwt>
<rscale>  0 0.12317347E+03</rscale>
<asrwt>0</asrwt>
<pdfrwt beam="2">  1        3 0.77036759E-02 0.13181737E+03</pdfrwt>
<pdfrwt beam="1">  1       -3 0.42429988E-01 0.13181737E+03</pdfrwt>
<totfact> 0.14373126E+03</totfact>
</mgrwt>
</event>
<event>
 7    1  0.1378058E-005  0.1649189E+03  0.7546771E-02  0.1189732E+00
          3   -1    0    0  501    0  0.00000000000E+00  0.00000000000E+00  0.11988460666E+03  0.11988460666E+03  0.00000000000E+00 0. -1.
         -3   -1    0    0    0  501 -0.00000000000E+00 -0.00000000000E+00 -0.19893585202E+03  0.19893585202E+03  0.00000000000E+00 0.  1.
         23    2    1    2    0    0  0.10756271260E+03  0.14103292008E+01 -0.50402544722E+02  0.15143171004E+03  0.93911767745E+02 0.  0.
          5    1    1    2  502    0  0.38920296497E+01  0.37572153104E+02 -0.31161858988E+02  0.49193150328E+02  0.47000000000E+01 0. -1.
         -5    1    1    2    0  502 -0.11145474225E+03 -0.38982482304E+02  0.25131583469E+01  0.11819559831E+03  0.47000000000E+01 0. -1.
        -11    1    3    3    0    0  0.60720984804E+02 -0.29874317579E+02  0.10491060262E+02  0.68480473069E+02  0.00000000000E+00 0. -1.
         11    1    3    3    0    0  0.46841727792E+02  0.31284646779E+02 -0.60893604984E+02  0.82951236968E+02  0.00000000000E+00 0.  1.
<mgrwt>
<rscale>  0 0.15908639E+03</rscale>
<asrwt>0</asrwt>
<pdfrwt beam="1">  1        3 0.18443786E-01 0.16491890E+03</pdfrwt>
<pdfrwt beam="2">  1       -3 0.30605515E-01 0.16491890E+03</pdfrwt>
<totfact> 0.63748772E+02</totfact>
</mgrwt>
</event>
<event>
 7    1  0.1378058E-005  0.1758901E+03  0.7546771E-02  0.1178807E+00
          2   -1    0    0  501    0  0.00000000000E+00  0.00000000000E+00  0.66476642832E+03  0.66476642832E+03  0.00000000000E+00 0. -1.
         -2   -1    0    0    0  501 -0.00000000000E+00 -0.00000000000E+00 -0.51459645338E+02  0.51459645338E+02  0.00000000000E+00 0.  1.
         23    2    1    2    0    0 -0.33352547502E+02 -0.11915930911E+03  0.45653962996E+03  0.48061351706E+03  0.85144498866E+02 0.  0.
          5    1    1    2  502    0  0.20374165159E+02  0.14500816070E+03  0.12796214088E+03  0.19452216525E+03  0.47000000000E+01 0.  1.
         -5    1    1    2    0  502  0.12978382343E+02 -0.25848851583E+02  0.28805012149E+02  0.41090391350E+02  0.47000000000E+01 0.  1.
        -11    1    3    3    0    0  0.12167649622E+02 -0.70586853587E+02  0.32943467605E+03  0.33713166772E+03  0.00000000000E+00 0. -1.
         11    1    3    3    0    0 -0.45520197124E+02 -0.48572455527E+02  0.12710495391E+03  0.14348184934E+03  0.00000000000E+00 0.  1.
<mgrwt>
<rscale>  0 0.16908329E+03</rscale>
<asrwt>0</asrwt>
<pdfrwt beam="1">  1        2 0.10227175E+00 0.17589013E+03</pdfrwt>
<pdfrwt beam="2">  1       -2 0.79168690E-02 0.17589013E+03</pdfrwt>
<totfact> 0.42146312E+03</totfact>
</mgrwt>
</event>
<event>
 7    1  0.1378058E-005  0.1898005E+03  0.7546771E-02  0.1163394E+00
          1   -1    0    0  501    0  0.00000000000E+00  0.00000000000E+00  0.31173688562E+03  0.31173688562E+03  0.00000000000E+00 0. -1.
         -1   -1    0    0    0  501 -0.00000000000E+00 -0.00000000000E+00 -0.10400998223E+03  0.10400998223E+03  0.00000000000E+00 0.  1.
         23    2    1    2    0    0  0.60931242806E+02 -0.12917116655E+03  0.88644222593E+02  0.19168231154E+03  0.92122221759E+02 0.  0.
          5    1    1    2  502    0  0.17216302834E+02  0.58664496501E+02 -0.47188959661E+01  0.61500261886E+02  0.47000000000E+01 0. -1.
         -5    1    1    2    0  502 -0.78147545640E+02  0.70506670049E+02  0.12380157676E+03  0.16256429442E+03  0.47000000000E+01 0. -1.
        -11    1    3    3    0    0 -0.13489408000E+02 -0.68799373669E+01  0.36170735916E+02  0.39212495496E+02  0.00000000000E+00 0. -1.
         11    1    3    3    0    0  0.74420650806E+02 -0.12229122918E+03  0.52473486677E+02  0.15246981605E+03  0.00000000000E+00 0.  1.
<mgrwt>
<rscale>  0 0.18463151E+03</rscale>
<asrwt>0</asrwt>
<pdfrwt beam="1">  1        1 0.47959520E-01 0.18980053E+03</pdfrwt>
<pdfrwt beam="2">  1       -1 0.16001536E-01 0.18980053E+03</pdfrwt>
<totfact> 0.23843734E+03</totfact>
</mgrwt>
</event>
<event>
 7    1  0.1378058E-005  0.1418987E+03  0.7546771E-02  0.1221402E+00
         -2   -1    0    0    0  501 -0.00000000000E+00  0.00000000000E+00  0.33168926418E+02  0.33168926418E+02  0.00000000000E+00 0.  1.
          2   -1    0    0  501    0  0.00000000000E+00 -0.00000000000E+00 -0.50829086812E+03  0.50829086812E+03  0.00000000000E+00 0. -1.
         23    2    1    2    0    0  0.24263348258E+02  0.62619303035E+02 -0.26117488703E+03  0.28473310721E+03  0.91382348085E+02 0.  0.
          5    1    1    2  502    0 -0.18716714693E+02 -0.43396159076E+02 -0.22730591318E+03  0.23221457792E+03  0.47000000000E+01 0.  1.
         -5    1    1    2    0  502 -0.55466335648E+01 -0.19223143959E+02  0.13358858505E+02  0.24512109418E+02  0.47000000000E+01 0.  1.
        -11    1    3    3    0    0 -0.16382767336E+02  0.47463943504E+02 -0.21733056887E+03  0.22305559209E+03  0.00000000000E+00 0. -1.
         11    1    3    3    0    0  0.40646115594E+02  0.15155359531E+02 -0.43844318163E+02  0.61677515114E+02  0.00000000000E+00 0.  1.
<mgrwt>
<rscale>  0 0.13416574E+03</rscale>
<asrwt>0</asrwt>
<pdfrwt beam="2">  1        2 0.78198602E-01 0.14189873E+03</pdfrwt>
<pdfrwt beam="1">  1       -2 0.51029113E-02 0.14189873E+03</pdfrwt>
<totfact> 0.11061171E+04</totfact>
</mgrwt>
</event>
<event>
 7    1  0.1378058E-005  0.1882899E+03  0.7546771E-02  0.1165464E+00
         -2   -1    0    0    0  501 -0.00000000000E+00  0.00000000000E+00  0.30870692164E+02  0.30870692164E+02  0.00000000000E+00 0.  1.
          2   -1    0    0  501    0  0.00000000000E+00 -0.00000000000E+00 -0.11311344691E+04  0.11311344691E+04  0.00000000000E+00 0. -1.
         23    2    1    2    0    0  0.78765428567E+02  0.11674036805E+03 -0.70380609380E+03  0.72310680794E+03  0.87795966627E+02 0.  0.
          5    1    1    2  502    0 -0.10896264664E+01 -0.51504690032E+02 -0.27845509227E+03  0.28321943576E+03  0.47000000000E+01 0. -1.
         -5    1    1    2    0  502 -0.77675802101E+02 -0.65235678021E+02 -0.11800259084E+03  0.15567891753E+03  0.47000000000E+01 0. -1.
        -11    1    3    3    0    0  0.57964105503E+02  0.94442032308E+02 -0.66283048328E+03  0.67202930335E+03  0.00000000000E+00 0. -1.
         11    1    3    3    0    0  0.20801323064E+02  0.22298335745E+02 -0.40975610512E+02  0.51077504589E+02  0.00000000000E+00 0.  1.
<mgrwt>
<rscale>  0 0.18243852E+03</rscale>
<asrwt>0</asrwt>
<pdfrwt beam="2">  1        2 0.17402069E+00 0.18828986E+03</pdfrwt>
<pdfrwt beam="1">  1       -2 0.47493373E-02 0.18828986E+03</pdfrwt>
<totfact> 0.45919761E+03</totfact>
</mgrwt>
</event>
<event>
 7    1  0.1378058E-005  0.1412264E+03  0.7546771E-02  0.1221145E+00
         -1   -1    0    0    0  501 -0.00000000000E+00  0.00000000000E+00  0.88434498560E+02  0.88434498560E+02  0.00000000000E+00 0.  1.
          1   -1    0    0  501    0  0.00000000000E+00 -0.00000000000E+00 -0.28057590146E+03  0.28057590146E+03  0.00000000000E+00 0. -1.
         23    2    1    2    0    0 -0.62170583677E+02  0.21318864628E+02 -0.19617272397E+03  0.22772646972E+03  0.95162660321E+02 0.  0.
          5    1    1    2  502    0  0.57274962234E+02  0.24130268548E+02 -0.42850152281E+02  0.75636741797E+02  0.47000000000E+01 0. -1.
         -5    1    1    2    0  502  0.48956214432E+01 -0.45449133175E+02  0.46881473344E+02  0.65647188505E+02  0.47000000000E+01 0. -1.
        -11    1    3    3    0    0 -0.92360123562E+01  0.19185759882E+02  0.31127890122E+01  0.21519450781E+02  0.00000000000E+00 0.  1.
         11    1    3    3    0    0 -0.52934571321E+02  0.21331047460E+01 -0.19928551298E+03  0.20620701894E+03  0.00000000000E+00 0. -1.
<mgrwt>
<rscale>  0 0.13434643E+03</rscale>
<asrwt>0</asrwt>
<pdfrwt beam="2">  1        1 0.43165523E-01 0.14122640E+03</pdfrwt>
<pdfrwt beam="1">  1       -1 0.13605307E-01 0.14122640E+03</pdfrwt>
<totfact> 0.34672281E+03</totfact>
</mgrwt>
</event>
<event>
 7    1  0.1378058E-005  0.1649937E+03  0.7546771E-02  0.1189170E+00
         -1   -1    0    0    0  501 -0.00000000000E+00  0.00000000000E+00  0.15838725135E+03  0.15838725135E+03  0.00000000000E+00 0.  1.
          1   -1    0    0  501    0  0.00000000000E+00 -0.00000000000E+00 -0.20428250501E+03  0.20428250501E+03  0.00000000000E+00 0. -1.
         23    2    1    2    0    0  0.78357107782E+02 -0.76957680466E+02 -0.11420493470E+03  0.18409444199E+03  0.93731934468E+02 0.  0.
          5    1    1    2  502    0  0.44482296788E+01 -0.26331451499E+02 -0.43936172633E+01  0.27468635896E+02  0.47000000000E+01 0. -1.
         -5    1    1    2    0  502 -0.82805337461E+02  0.10328913196E+03  0.72703298305E+02  0.15110667847E+03  0.47000000000E+01 0.  1.
        -11    1    3    3    0    0  0.28576855970E+02  0.19534847401E+02 -0.17940641905E+02  0.38988634139E+02  0.00000000000E+00 0.  1.
         11    1    3    3    0    0  0.49780251812E+02 -0.96492527867E+02 -0.96264292793E+02  0.14510580785E+03  0.00000000000E+00 0. -1.
<mgrwt>
<rscale>  0 0.15958189E+03</rscale>
<asrwt>0</asrwt>
<pdfrwt beam="2">  1        1 0.31428078E-01 0.16499373E+03</pdfrwt>
<pdfrwt beam="1">  1       -1 0.24367270E-01 0.16499373E+03</pdfrwt>
<totfact> 0.20388735E+03</totfact>
</mgrwt>
</event>
<event>
 7    1  0.1378058E-005  0.1753478E+03  0.7546771E-02  0.1179308E+00
          1   -1    0    0  501    0  0.00000000000E+00  0.00000000000E+00  0.81224766143E+03  0.81224766143E+03  0.00000000000E+00 0. -1.
         -1   -1    0    0    0  501 -0.00000000000E+00 -0.00000000000E+00 -0.35011811911E+02  0.35011811911E+02  0.00000000000E+00 0.  1.
         23    2    1    2    0    0 -0.47497544063E+02  0.11342784401E+03  0.47213037977E+03  0.49535581729E+03  0.85722795871E+02 0.  0.
          5    1    1    2  502    0  0.50328626504E+02 -0.28384421905E+01  0.39730794677E+02  0.64355679202E+02  0.47000000000E+01 0.  1.
         -5    1    1    2    0  502 -0.28310824410E+01 -0.11058940182E+03  0.26537467507E+03  0.28754797685E+03  0.47000000000E+01 0.  1.
        -11    1    3    3    0    0 -0.67610145030E+02  0.87140585815E+02  0.41423574494E+03  0.42866754694E+03  0.00000000000E+00 0.  1.
         11    1    3    3    0    0  0.20112600967E+02  0.26287258191E+02  0.57894634824E+02  0.66688270350E+02  0.00000000000E+00 0. -1.
<mgrwt>
<rscale>  0 0.16860725E+03</rscale>
<asrwt>0</asrwt>
<pdfrwt beam="1">  1        1 0.12496116E+00 0.17534776E+03</pdfrwt>
<pdfrwt beam="2">  1       -1 0.53864332E-02 0.17534776E+03</pdfrwt>
<totfact> 0.34921635E+03</totfact>
</mgrwt>
</event>
<event>
 7    1  0.1378058E-005  0.1313069E+03  0.7546771E-02  0.1239095E+00
          1   -1    0    0  501    0  0.00000000000E+00  0.00000000000E+00  0.27803722198E+03  0.27803722198E+03  0.00000000000E+00 0. -1.
         -1   -1    0    0    0  501 -0.00000000000E+00 -0.00000000000E+00 -0.48819205073E+02  0.48819205073E+02  0.00000000000E+00 0.  1.
         23    2    1    2    0    0  0.18524447760E+02 -0.35674528500E+02  0.76015296879E+02  0.12508287958E+03  0.90838176204E+02 0.  0.
          5    1    1    2  502    0  0.42214095852E+02 -0.21459101290E+02  0.50326191964E+02  0.69262822022E+02  0.47000000000E+01 0. -1.
         -5    1    1    2    0  502 -0.60738543612E+02  0.57133629790E+02  0.10287652807E+03  0.13251072545E+03  0.47000000000E+01 0. -1.
        -11    1    3    3    0    0  0.18918998228E+02  0.24718956071E+02  0.50922039965E+02  0.59682572309E+02  0.00000000000E+00 0. -1.
         11    1    3    3    0    0 -0.39455046796E+00 -0.60393484571E+02  0.25093256914E+02  0.65400307272E+02  0.00000000000E+00 0.  1.
<mgrwt>
<rscale>  0 0.12245906E+03</rscale>
<asrwt>0</asrwt>
<pdfrwt beam="1">  1        1 0.42774956E-01 0.13130686E+03</pdfrwt>
<pdfrwt beam="2">  1       -1 0.75106471E-02 0.13130686E+03</pdfrwt>
<totfact> 0.86555035E+03</totfact>
</mgrwt>
</event>
<event>
 7    1  0.1378058E-005  0.1258023E+03  0.7546771E-02  0.1249470E+00
         -2   -1    0    0    0  501 -0.00000000000E+00  0.00000000000E+00  0.14735980049E+03  0.14735980049E+03  0.00000000000E+00 0.  1.
          2   -1    0    0  501    0  0.00000000000E+00 -0.00000000000E+00 -0.81000367418E+02  0.81000367418E+02  0.00000000000E+00 0. -1.
         23    2    1    2    0    0 -0.10078609046E+02  0.99927354955E+01  0.16835925072E+02  0.93161069703E+02  0.90521287066E+02 0.  0.
          5    1    1    2  502    0  0.63810225631E+02 -0.83601441989E+01  0.40873001096E+01  0.64656267510E+02  0.47000000000E+01 0. -1.
         -5    1    1    2    0  502 -0.53731616584E+02 -0.16325912965E+01  0.45436207891E+02  0.70542830696E+02  0.47000000000E+01 0. -1.
        -11    1    3    3    0    0 -0.49517636729E+01 -0.31807732840E+02  0.34773714365E+02  0.47386317040E+02  0.00000000000E+00 0.  1.
         11    1    3    3    0    0 -0.51268453735E+01  0.41800468336E+02 -0.17937789293E+02  0.45774752662E+02  0.00000000000E+00 0. -1.
<mgrwt>
<rscale>  0 0.11621776E+03</rscale>
<asrwt>0</asrwt>
<pdfrwt beam="2">  1        2 0.12461595E-01 0.12580230E+03</pdfrwt>
<pdfrwt beam="1">  1       -2 0.22670739E-01 0.12580230E+03</pdfrwt>
<totfact> 0.77320903E+03</totfact>
</mgrwt>
</event>
<event>
 7    1  0.1378058E-005  0.1600537E+03  0.7546771E-02  0.1196495E+00
         -2   -1    0    0    0  501 -0.00000000000E+00  0.00000000000E+00  0.44481535812E+02  0.44481535812E+02  0.00000000000E+00 0. -1.
          2   -1    0    0  501    0  0.00000000000E+00 -0.00000000000E+00 -0.51785088209E+03  0.51785088209E+03  0.00000000000E+00 0.  1.
         23    2    1    2    0    0 -0.19377057109E+02 -0.98067480699E+02 -0.28459819856E+03  0.31484157445E+03  0.90201891707E+02 0.  0.
          5    1    1    2  502    0  0.63800670412E+02  0.68357481924E+02 -0.16299667204E+03  0.18797147650E+03  0.47000000000E+01 0.  1.
         -5    1    1    2    0  502 -0.44423613303E+02  0.29709998775E+02 -0.25774475679E+02  0.59519366954E+02  0.47000000000E+01 0.  1.
        -11    1    3    3    0    0 -0.26189777125E+02 -0.22345466523E+02 -0.20612757573E+02  0.40126176927E+02  0.00000000000E+00 0.  1.
         11    1    3    3    0    0  0.68127200159E+01 -0.75722014176E+02 -0.26398544099E+03  0.27471539753E+03  0.00000000000E+00 0. -1.
<mgrwt>
<rscale>  0 0.15328377E+03</rscale>
<asrwt>0</asrwt>
<pdfrwt beam="2">  1        2 0.79669370E-01 0.16005365E+03</pdfrwt>
<pdfrwt beam="1">  1       -2 0.68433129E-02 0.16005365E+03</pdfrwt>
<totfact> 0.69910395E+03</totfact>
</mgrwt>
</event>
<event>
 7    1  0.1378058E-005  0.1992088E+03  0.7546771E-02  0.1179359E+00
          3   -1    0    0  501    0  0.00000000000E+00  0.00000000000E+00  0.23130124168E+03  0.23130124168E+03  0.00000000000E+00 0. -1.
         -3   -1    0    0    0  501 -0.00000000000E+00 -0.00000000000E+00 -0.12088726537E+03  0.12088726537E+03  0.00000000000E+00 0.  1.
         23    2    1    2    0    0 -0.36408996682E+02 -0.26141800085E+02  0.11386978952E+03  0.15294973247E+03  0.91751201340E+02 0.  0.
          5    1    1    2  502    0  0.11388462365E+03  0.30631004899E+02 -0.20111700159E+02  0.11972692449E+03  0.47000000000E+01 0. -1.
         -5    1    1    2    0  502 -0.77475626968E+02 -0.44892048146E+01  0.16655886943E+02  0.79511850085E+02  0.47000000000E+01 0.  1.
        -11    1    3    3    0    0 -0.33889674977E+01 -0.30328344021E+02 -0.37172719433E+01  0.30742668435E+02  0.00000000000E+00 0.  1.
         11    1    3    3    0    0 -0.33020029184E+02  0.41865439367E+01  0.11758706146E+03  0.12220706404E+03  0.00000000000E+00 0. -1.
<mgrwt>
<rscale>  0 0.16855934E+03</rscale>
<asrwt>0</asrwt>
<pdfrwt beam="1">  1        3 0.35584806E-01 0.19920880E+03</pdfrwt>
<pdfrwt beam="2">  1       -3 0.18598041E-01 0.19920880E+03</pdfrwt>
<totfact> 0.48459933E+02</totfact>
</mgrwt>
</event>
<event>
 7    1  0.1378058E-005  0.1308988E+03  0.7546771E-02  0.1239775E+00
         -4   -1    0    0    0  501 -0.00000000000E+00  0.00000000000E+00  0.91528115985E+02  0.91528115985E+02  0.00000000000E+00 0.  1.
          4   -1    0    0  501    0  0.00000000000E+00 -0.00000000000E+00 -0.15415256425E+03  0.15415256425E+03  0.00000000000E+00 0. -1.
         23    2    1    2    0    0 -0.16546320191E+01  0.38808943271E+02 -0.58120904467E+02  0.11470445810E+03  0.90940647054E+02 0.  0.
          5    1    1    2  502    0  0.28298739287E+02 -0.77919297525E+02 -0.71979360034E+01  0.83343481177E+02  0.47000000000E+01 0.  1.
         -5    1    1    2    0  502 -0.26644107268E+02  0.39110354254E+02  0.26943922053E+01  0.47632740960E+02  0.47000000000E+01 0.  1.
        -11    1    3    3    0    0 -0.14656769188E+02 -0.26280283607E+02 -0.69211636514E+01  0.30876798665E+02  0.00000000000E+00 0.  1.
         11    1    3    3    0    0  0.13002137169E+02  0.65089226878E+02 -0.51199740816E+02  0.83827659434E+02  0.00000000000E+00 0. -1.
<mgrwt>
<rscale>  0 0.12203626E+03</rscale>
<asrwt>0</asrwt>
<pdfrwt beam="2">  1        4 0.23715779E-01 0.13089877E+03</pdfrwt>
<pdfrwt beam="1">  1       -4 0.14081249E-01 0.13089877E+03</pdfrwt>
<totfact> 0.11384596E+03</totfact>
</mgrwt>
</event>
<event>
 7    1  0.1378058E-005  0.1311330E+03  0.7546771E-02  0.1239977E+00
          1   -1    0    0  501    0  0.00000000000E+00  0.00000000000E+00  0.26975774648E+02  0.26975774648E+02  0.00000000000E+00 0. -1.
         -1   -1    0    0    0  501 -0.00000000000E+00 -0.00000000000E+00 -0.53470078759E+03  0.53470078759E+03  0.00000000000E+00 0.  1.
         23    2    1    2    0    0 -0.47207742804E+01 -0.38997973957E+02 -0.13681585148E+03  0.16826904245E+03  0.89737203817E+02 0.  0.
          5    1    1    2  502    0  0.39120177293E+02  0.72724214035E+02 -0.23084532554E+03  0.24521593321E+03  0.47000000000E+01 0. -1.
         -5    1    1    2    0  502 -0.34399403013E+02 -0.33726240078E+02 -0.14006383592E+03  0.14819158657E+03  0.47000000000E+01 0. -1.
        -11    1    3    3    0    0 -0.41715774585E+02 -0.41718182042E+02 -0.67477047878E+02  0.89631269948E+02  0.00000000000E+00 0.  1.
         11    1    3    3    0    0  0.36995000304E+02  0.27202080847E+01 -0.69338803602E+02  0.78637772504E+02  0.00000000000E+00 0. -1.
<mgrwt>
<rscale>  0 0.12191152E+03</rscale>
<asrwt>0</asrwt>
<pdfrwt beam="1">  1        1 0.41501189E-02 0.13113303E+03</pdfrwt>
<pdfrwt beam="2">  1       -1 0.82261665E-01 0.13113303E+03</pdfrwt>
<totfact> 0.31920916E+03</totfact>
</mgrwt>
</event>
<event>
 7    1  0.1378058E-005  0.1474623E+03  0.7546771E-02  0.1212825E+00
          1   -1    0    0  501    0  0.00000000000E+00  0.00000000000E+00  0.83098765131E+03  0.83098765131E+03  0.00000000000E+00 0. -1.
         -1   -1    0    0    0  501 -0.00000000000E+00 -0.00000000000E+00 -0.31899688526E+02  0.31899688526E+02  0.00000000000E+00 0.  1.
         23    2    1    2    0    0 -0.37538166241E+02 -0.68972573910E+02  0.61605030895E+03  0.62783861388E+03  0.92179238681E+02 0.  0.
          5    1    1    2  502    0  0.16372181273E+02 -0.26735911379E+02  0.54715394968E+01  0.32169628866E+02  0.47000000000E+01 0. -1.
         -5    1    1    2    0  502  0.21165984968E+02  0.95708485289E+02  0.17756611435E+03  0.20287909710E+03  0.47000000000E+01 0.  1.
        -11    1    3    3    0    0 -0.15191859041E+02  0.22083189595E+02  0.11400313949E+03  0.11711180836E+03  0.00000000000E+00 0.  1.
         11    1    3    3    0    0 -0.22346307200E+02 -0.91055763505E+02  0.50204716945E+03  0.51072680551E+03  0.00000000000E+00 0. -1.
<mgrwt>
<rscale>  0 0.14037501E+03</rscale>
<asrwt>0</asrwt>
<pdfrwt beam="1">  1        1 0.12784424E+00 0.14746227E+03</pdfrwt>
<pdfrwt beam="2">  1       -1 0.49076450E-02 0.14746227E+03</pdfrwt>
<totfact> 0.38509456E+03</totfact>
</mgrwt>
</event>
<event>
 7    1  0.1378058E-005  0.1395729E+03  0.7546771E-02  0.1232326E+00
         -1   -1    0    0    0  501 -0.00000000000E+00  0.00000000000E+00  0.96054944220E+03  0.96054944220E+03  0.00000000000E+00 0.  1.
          1   -1    0    0  501    0  0.00000000000E+00 -0.00000000000E+00 -0.16192055611E+02  0.16192055611E+02  0.00000000000E+00 0. -1.
         23    2    1    2    0    0 -0.60609764624E+02  0.13442754642E+02  0.22942906597E+03  0.24831641166E+03  0.71896403011E+02 0.  0.
          5    1    1    2  502    0  0.69763425760E+01 -0.47288102235E+02  0.54287005721E+03  0.54499066320E+03  0.47000000000E+01 0.  1.
         -5    1    1    2    0  502  0.53633422048E+02  0.33845347593E+02  0.17205826341E+03  0.18343442295E+03  0.47000000000E+01 0.  1.
        -11    1    3    3    0    0 -0.42318000035E+01 -0.21503239058E+02  0.10550630510E+03  0.10775842351E+03  0.00000000000E+00 0.  1.
         11    1    3    3    0    0 -0.56377964620E+02  0.34945993700E+02  0.12392276087E+03  0.14055798815E+03  0.00000000000E+00 0. -1.
<mgrwt>
<rscale>  0 0.12677156E+03</rscale>
<asrwt>0</asrwt>
<pdfrwt beam="2">  1        1 0.24910862E-02 0.13957293E+03</pdfrwt>
<pdfrwt beam="1">  1       -1 0.14777679E+00 0.13957293E+03</pdfrwt>
<totfact> 0.16968414E+03</totfact>
</mgrwt>
</event>
<event>
 7    1  0.1378058E-005  0.1304447E+03  0.7546771E-02  0.1238948E+00
         -2   -1    0    0    0  501 -0.00000000000E+00  0.00000000000E+00  0.43242681276E+02  0.43242681276E+02  0.00000000000E+00 0.  1.
          2   -1    0    0  501    0  0.00000000000E+00 -0.00000000000E+00 -0.31948620892E+03  0.31948620892E+03  0.00000000000E+00 0. -1.
         23    2    1    2    0    0 -0.35866089686E+02 -0.10203729801E+02 -0.15013317383E+03  0.18129118649E+03  0.94530587236E+02 0.  0.
          5    1    1    2  502    0  0.16226129899E+02  0.43455586985E+02 -0.13387963277E+03  0.14176572718E+03  0.47000000000E+01 0. -1.
         -5    1    1    2    0  502  0.19639959787E+02 -0.33251857184E+02  0.77692789519E+01  0.39671976533E+02  0.47000000000E+01 0. -1.
        -11    1    3    3    0    0  0.32102613756E+02 -0.32985100095E+01 -0.36676216648E+02  0.48852869372E+02  0.00000000000E+00 0.  1.
         11    1    3    3    0    0 -0.67968703442E+02 -0.69052197919E+01 -0.11345695718E+03  0.13243831712E+03  0.00000000000E+00 0. -1.
<mgrwt>
<rscale>  0 0.12255022E+03</rscale>
<asrwt>0</asrwt>
<pdfrwt beam="2">  1        2 0.49151723E-01 0.13044470E+03</pdfrwt>
<pdfrwt beam="1">  1       -2 0.66527204E-02 0.13044470E+03</pdfrwt>
<totfact> 0.12111542E+04</totfact>
</mgrwt>
</event>
<event>
 7    1  0.1378058E-005  0.1254123E+03  0.7546771E-02  0.1249403E+00
          3   -1    0    0  501    0  0.00000000000E+00  0.00000000000E+00  0.23140040660E+02  0.23140040660E+02  0.00000000000E+00 0. -1.
         -3   -1    0    0    0  501 -0.00000000000E+00 -0.00000000000E+00 -0.53569217283E+03  0.53569217283E+03  0.00000000000E+00 0.  1.
         23    2    1    2    0    0 -0.10125845316E+02 -0.77836077963E+00 -0.16311274933E+03  0.18756932770E+03  0.92050774646E+02 0.  0.
          5    1    1    2  502    0  0.38052661382E+02 -0.48634743484E+02 -0.12222864816E+03  0.13702290226E+03  0.47000000000E+01 0. -1.
         -5    1    1    2    0  502 -0.27926816066E+02  0.49413104263E+02 -0.22721073468E+03  0.23423998353E+03  0.47000000000E+01 0. -1.
        -11    1    3    3    0    0  0.21541738557E+02 -0.27561931494E+02 -0.12962559708E+03  0.13426280939E+03  0.00000000000E+00 0.  1.
         11    1    3    3    0    0 -0.31667583874E+02  0.26783570715E+02 -0.33487152244E+02  0.53306518307E+02  0.00000000000E+00 0. -1.
<mgrwt>
<rscale>  0 0.11625691E+03</rscale>
<asrwt>0</asrwt>
<pdfrwt beam="1">  1        3 0.35600063E-02 0.12541231E+03</pdfrwt>
<pdfrwt beam="2">  1       -3 0.82414179E-01 0.12541231E+03</pdfrwt>
<totfact> 0.12383246E+03</totfact>
</mgrwt>
</event>
<event>
 7    1  0.1378058E-005  0.1656515E+03  0.7546771E-02  0.1190429E+00
         -1   -1    0    0    0  501 -0.00000000000E+00  0.00000000000E+00  0.50686134140E+02  0.50686134140E+02  0.00000000000E+00 0.  1.
          1   -1    0    0  501    0  0.00000000000E+00 -0.00000000000E+00 -0.60998902649E+03  0.60998902649E+03  0.00000000000E+00 0. -1.
         23    2    1    2    0    0  0.74882995525E+02 -0.78784030561E+02 -0.42605971705E+03  0.44808597028E+03  0.86254088472E+02 0.  0.
          5    1    1    2  502    0 -0.34804238104E+02 -0.14303463335E+02  0.79285786725E+01  0.38741146255E+02  0.47000000000E+01 0. -1.
         -5    1    1    2    0  502 -0.40078757421E+02  0.93087493896E+02 -0.14117175397E+03  0.17384804409E+03  0.47000000000E+01 0. -1.
        -11    1    3    3    0    0  0.85265259868E+02 -0.64694226519E+02 -0.41188501940E+03  0.42556406884E+03  0.00000000000E+00 0. -1.
         11    1    3    3    0    0 -0.10382264343E+02 -0.14089804043E+02 -0.14174697654E+02  0.22521901439E+02  0.00000000000E+00 0.  1.
<mgrwt>
<rscale>  0 0.15847548E+03</rscale>
<asrwt>0</asrwt>
<pdfrwt beam="2">  1        1 0.93844467E-01 0.16565150E+03</pdfrwt>
<pdfrwt beam="1">  1       -1 0.77978667E-02 0.16565150E+03</pdfrwt>
<totfact> 0.30258941E+03</totfact>
</mgrwt>
</event>
<event>
 7    1  0.1378058E-005  0.1300344E+03  0.7546771E-02  0.1241899E+00
         -1   -1    0    0    0  501 -0.00000000000E+00  0.00000000000E+00  0.73096372286E+03  0.73096372286E+03  0.00000000000E+00 0.  1.
          1   -1    0    0  501    0  0.00000000000E+00 -0.00000000000E+00 -0.18343987923E+02  0.18343987923E+02  0.00000000000E+00 0. -1.
         23    2    1    2    0    0 -0.25693435562E+02 -0.24964608492E+02  0.22985162618E+03  0.24933371412E+03  0.89733754116E+02 0.  0.
          5    1    1    2  502    0  0.26744588107E+02  0.21777884121E+02  0.26700332165E+02  0.43869658849E+02  0.47000000000E+01 0. -1.
         -5    1    1    2    0  502 -0.10511525452E+01  0.31867243717E+01  0.45606777659E+03  0.45610433782E+03  0.47000000000E+01 0. -1.
        -11    1    3    3    0    0 -0.42755465474E+02 -0.11698674561E+02  0.22193269105E+03  0.22631616860E+03  0.00000000000E+00 0.  1.
         11    1    3    3    0    0  0.17062029912E+02 -0.13265933931E+02  0.79189351325E+01  0.23017545513E+02  0.00000000000E+00 0. -1.
<mgrwt>
<rscale>  0 0.12072887E+03</rscale>
<asrwt>0</asrwt>
<pdfrwt beam="2">  1        1 0.28221526E-02 0.13003442E+03</pdfrwt>
<pdfrwt beam="1">  1       -1 0.11245593E+00 0.13003442E+03</pdfrwt>
<totfact> 0.27557577E+03</totfact>
</mgrwt>
</event>
<event>
 7    1  0.1378058E-005  0.1535357E+03  0.7546771E-02  0.1204746E+00
          2   -1    0    0  501    0  0.00000000000E+00  0.00000000000E+00  0.11993815144E+03  0.11993815144E+03  0.00000000000E+00 0. -1.
         -2   -1    0    0    0  501 -0.00000000000E+00 -0.00000000000E+00 -0.17648069089E+03  0.17648069089E+03  0.00000000000E+00 0.  1.
         23    2    1    2    0    0 -0.34155352711E+02  0.82350960960E+02  0.12368406060E+02  0.12812759277E+03  0.91188999729E+02 0.  0.
          5    1    1    2  502    0  0.46472070722E+02  0.88366811172E+01 -0.58784804070E+02  0.75600816662E+02  0.47000000000E+01 0.  1.
         -5    1    1    2    0  502 -0.12316718012E+02 -0.91187642077E+02 -0.10126141434E+02  0.92690432896E+02  0.47000000000E+01 0.  1.
        -11    1    3    3    0    0 -0.15394214418E+02  0.35091786892E+02 -0.39820693767E+02  0.55263939390E+02  0.00000000000E+00 0.  1.
         11    1    3    3    0    0 -0.18761138292E+02  0.47259174068E+02  0.52189099827E+02  0.72863653383E+02  0.00000000000E+00 0. -1.
<mgrwt>
<rscale>  0 0.14657489E+03</rscale>
<asrwt>0</asrwt>
<pdfrwt beam="1">  1        2 0.18452023E-01 0.15353575E+03</pdfrwt>
<pdfrwt beam="2">  1       -2 0.27150875E-01 0.15353575E+03</pdfrwt>
<totfact> 0.36139124E+03</totfact>
</mgrwt>
</event>
<event>
 7    1  0.1378058E-005  0.1278758E+03  0.7546771E-02  0.1237945E+00
          2   -1    0    0  501    0  0.00000000000E+00  0.00000000000E+00  0.26004672235E+03  0.26004672235E+03  0.00000000000E+00 0. -1.
         -2   -1    0    0    0  501 -0.00000000000E+00 -0.00000000000E+00 -0.54718963524E+02  0.54718963524E+02  0.00000000000E+00 0.  1.
         23    2    1    2    0    0  0.13452600893E+02  0.23371261630E+02  0.10621182323E+03  0.15297507841E+03  0.10673909724E+03 0.  0.
          5    1    1    2  502    0  0.93467174187E-02 -0.73701235789E+02  0.44781697758E+02  0.86367602133E+02  0.47000000000E+01 0.  1.
         -5    1    1    2    0  502 -0.13461947611E+02  0.50329974159E+02  0.54334237837E+02  0.75423005334E+02  0.47000000000E+01 0.  1.
        -11    1    3    3    0    0 -0.45042312868E+02  0.24863025975E+02  0.45992881396E+02  0.69009601856E+02  0.00000000000E+00 0.  1.
         11    1    3    3    0    0  0.58494913761E+02 -0.14917643445E+01  0.60218941834E+02  0.83965476551E+02  0.00000000000E+00 0. -1.
<mgrwt>
<rscale>  0 0.12317742E+03</rscale>
<asrwt>0</asrwt>
<pdfrwt beam="1">  1        2 0.40007187E-01 0.12787585E+03</pdfrwt>
<pdfrwt beam="2">  1       -2 0.84183022E-02 0.12787585E+03</pdfrwt>
<totfact> 0.10474935E+04</totfact>
</mgrwt>
</event>
<event>
 7    1  0.1378058E-005  0.1353508E+03  0.7546771E-02  0.1232626E+00
          4   -1    0    0  501    0  0.00000000000E+00  0.00000000000E+00  0.50269123206E+02  0.50269123206E+02  0.00000000000E+00 0. -1.
         -4   -1    0    0    0  501 -0.00000000000E+00 -0.00000000000E+00 -0.28396496768E+03  0.28396496768E+03  0.00000000000E+00 0.  1.
         23    2    1    2    0    0 -0.33830759392E+02  0.39351080922E+02 -0.10561472305E+03  0.14788870835E+03  0.89574396347E+02 0.  0.
          5    1    1    2  502    0  0.91105917370E+01  0.14928960046E+02 -0.12514064521E+03  0.12644424785E+03  0.47000000000E+01 0.  1.
         -5    1    1    2    0  502  0.24720167655E+02 -0.54280040967E+02 -0.29404762075E+01  0.59901134686E+02  0.47000000000E+01 0.  1.
        -11    1    3    3    0    0 -0.28169968908E+02 -0.56237609781E+01 -0.97747924785E+02  0.10188145384E+03  0.00000000000E+00 0.  1.
         11    1    3    3    0    0 -0.56607904845E+01  0.44974841900E+02 -0.78667982660E+01  0.46007254513E+02  0.00000000000E+00 0. -1.
<mgrwt>
<rscale>  0 0.12657637E+03</rscale>
<asrwt>0</asrwt>
<pdfrwt beam="1">  1        4 0.77337111E-02 0.13535076E+03</pdfrwt>
<pdfrwt beam="2">  1       -4 0.43686919E-01 0.13535076E+03</pdfrwt>
<totfact> 0.98395026E+02</totfact>
</mgrwt>
</event>
<event>
 7    1  0.1378058E-005  0.2100417E+03  0.7546771E-02  0.1145534E+00
          1   -1    0    0  501    0  0.00000000000E+00  0.00000000000E+00  0.80613667450E+03  0.80613667450E+03  0.00000000000E+00 0. -1.
         -1   -1    0    0    0  501 -0.00000000000E+00 -0.00000000000E+00 -0.61552922424E+02  0.61552922424E+02  0.00000000000E+00 0.  1.
         23    2    1    2    0    0  0.14441553571E+03 -0.87387438082E+02  0.54694845451E+03  0.57928497258E+03  0.89028401487E+02 0.  0.
          5    1    1    2  502    0 -0.16562409384E+03  0.62897053697E+02  0.16962491056E+03  0.24532036219E+03  0.47000000000E+01 0.  1.
         -5    1    1    2    0  502  0.21208558132E+02  0.24490384385E+02  0.28010387005E+02  0.43084262157E+02  0.47000000000E+01 0.  1.
        -11    1    3    3    0    0  0.74552022545E+02 -0.42778082966E+02  0.41232672442E+03  0.42119033241E+03  0.00000000000E+00 0. -1.
         11    1    3    3    0    0  0.69863513162E+02 -0.44609355116E+02  0.13462173009E+03  0.15809464017E+03  0.00000000000E+00 0.  1.
<mgrwt>
<rscale>  0 0.20506633E+03</rscale>
<asrwt>0</asrwt>
<pdfrwt beam="1">  1        1 0.12402102E+00 0.21004170E+03</pdfrwt>
<pdfrwt beam="2">  1       -1 0.94696809E-02 0.21004170E+03</pdfrwt>
<totfact> 0.15084835E+03</totfact>
</mgrwt>
</event>
<event>
 7    1  0.1378058E-005  0.1637002E+03  0.7546771E-02  0.1191864E+00
          3   -1    0    0  501    0  0.00000000000E+00  0.00000000000E+00  0.21147851755E+03  0.21147851755E+03  0.00000000000E+00 0. -1.
         -3   -1    0    0    0  501 -0.00000000000E+00 -0.00000000000E+00 -0.11931230890E+03  0.11931230890E+03  0.00000000000E+00 0.  1.
         23    2    1    2    0    0 -0.41369538182E+02 -0.97147480335E+02  0.92274512372E+02  0.16709060070E+03  0.90860396127E+02 0.  0.
          5    1    1    2  502    0  0.25460381378E+02  0.51973781946E+02 -0.62234362008E+02  0.85115867171E+02  0.47000000000E+01 0.  1.
         -5    1    1    2    0  502  0.15909156805E+02  0.45173698389E+02  0.62126058286E+02  0.78584358587E+02  0.47000000000E+01 0.  1.
        -11    1    3    3    0    0 -0.37213297900E+02 -0.58122289330E+02  0.10515943208E+03  0.12578368818E+03  0.00000000000E+00 0. -1.
         11    1    3    3    0    0 -0.41562402826E+01 -0.39025191005E+02 -0.12884919704E+02  0.41306912522E+02  0.00000000000E+00 0.  1.
<mgrwt>
<rscale>  0 0.15722630E+03</rscale>
<asrwt>0</asrwt>
<pdfrwt beam="1">  1        3 0.32535157E-01 0.16370019E+03</pdfrwt>
<pdfrwt beam="2">  1       -3 0.18355740E-01 0.16370019E+03</pdfrwt>
<totfact> 0.57294121E+02</totfact>
</mgrwt>
</event>
<event>
 7    1  0.1378058E-005  0.1785148E+03  0.7546771E-02  0.1175069E+00
          1   -1    0    0  501    0  0.00000000000E+00  0.00000000000E+00  0.26703824641E+03  0.26703824641E+03  0.00000000000E+00 0. -1.
         -1   -1    0    0    0  501 -0.00000000000E+00 -0.00000000000E+00 -0.13396590218E+03  0.13396590218E+03  0.00000000000E+00 0.  1.
         23    2    1    2    0    0  0.12201154450E+03 -0.36839780116E+02  0.15619896625E+03  0.22099760057E+03  0.90541901966E+02 0.  0.
          5    1    1    2  502    0 -0.12884691282E+03  0.17370996699E+02  0.20324876780E+02  0.13167562069E+03  0.47000000000E+01 0. -1.
         -5    1    1    2    0  502  0.68353683153E+01  0.19468783417E+02 -0.43451498802E+02  0.48330927323E+02  0.47000000000E+01 0. -1.
        -11    1    3    3    0    0 -0.50130006450E+01 -0.25704533289E+02  0.12943035037E+02  0.29212589119E+02  0.00000000000E+00 0.  1.
         11    1    3    3    0    0  0.12702454514E+03 -0.11135246827E+02  0.14325593121E+03  0.19178501145E+03  0.00000000000E+00 0. -1.
<mgrwt>
<rscale>  0 0.17269202E+03</rscale>
<asrwt>0</asrwt>
<pdfrwt beam="1">  1        1 0.41082807E-01 0.17851475E+03</pdfrwt>
<pdfrwt beam="2">  1       -1 0.20610139E-01 0.17851475E+03</pdfrwt>
<totfact> 0.19238454E+03</totfact>
</mgrwt>
</event>
<event>
 7    1  0.1378058E-005  0.1923592E+03  0.7546771E-02  0.1161128E+00
         -2   -1    0    0    0  501 -0.00000000000E+00  0.00000000000E+00  0.56078195989E+02  0.56078195989E+02  0.00000000000E+00 0.  1.
          2   -1    0    0  501    0  0.00000000000E+00 -0.00000000000E+00 -0.59542740049E+03  0.59542740049E+03  0.00000000000E+00 0. -1.
         23    2    1    2    0    0 -0.92852215429E+02 -0.11295696636E+03 -0.23032380535E+03  0.28750183166E+03  0.90705224420E+02 0.  0.
          5    1    1    2  502    0  0.38740052195E+02  0.11723936648E+03 -0.27016455167E+03  0.29708052052E+03  0.47000000000E+01 0.  1.
         -5    1    1    2    0  502  0.54112163234E+02 -0.42824001173E+01 -0.38860847491E+02  0.66923244305E+02  0.47000000000E+01 0.  1.
        -11    1    3    3    0    0 -0.12844991727E+02  0.11875989559E+02 -0.57850973162E+01  0.18425533681E+02  0.00000000000E+00 0.  1.
         11    1    3    3    0    0 -0.80007223703E+02 -0.12483295592E+03 -0.22453870803E+03  0.26907629798E+03  0.00000000000E+00 0. -1.
<mgrwt>
<rscale>  0 0.18707305E+03</rscale>
<asrwt>0</asrwt>
<pdfrwt beam="2">  1        2 0.91604212E-01 0.19235915E+03</pdfrwt>
<pdfrwt beam="1">  1       -2 0.86274151E-02 0.19235915E+03</pdfrwt>
<totfact> 0.42054366E+03</totfact>
</mgrwt>
</event>
<event>
 7    1  0.1378058E-005  0.1310220E+03  0.7546771E-02  0.1239689E+00
         -1   -1    0    0    0  501 -0.00000000000E+00  0.00000000000E+00  0.39052830523E+02  0.39052830523E+02  0.00000000000E+00 0.  1.
          1   -1    0    0  501    0  0.00000000000E+00 -0.00000000000E+00 -0.33998171187E+03  0.33998171187E+03  0.00000000000E+00 0. -1.
         23    2    1    2    0    0 -0.37001947664E+02 -0.13142460646E+02 -0.11539718674E+03  0.15190290858E+03  0.90642785288E+02 0.  0.
          5    1    1    2  502    0  0.65905178519E+02 -0.17195356546E+02 -0.16822831897E+03  0.18155448258E+03  0.47000000000E+01 0. -1.
         -5    1    1    2    0  502 -0.28903230855E+02  0.30337817191E+02 -0.17303375637E+02  0.45577151230E+02  0.47000000000E+01 0. -1.
        -11    1    3    3    0    0  0.25657898656E+02  0.97917622571E+01 -0.56840460520E+02  0.63127207476E+02  0.00000000000E+00 0. -1.
         11    1    3    3    0    0 -0.62659846320E+02 -0.22934222903E+02 -0.58556726219E+02  0.88775701104E+02  0.00000000000E+00 0.  1.
<mgrwt>
<rscale>  0 0.12208947E+03</rscale>
<asrwt>0</asrwt>
<pdfrwt beam="2">  1        1 0.52304879E-01 0.13102202E+03</pdfrwt>
<pdfrwt beam="1">  1       -1 0.60081278E-02 0.13102202E+03</pdfrwt>
<totfact> 0.94197550E+03</totfact>
</mgrwt>
</event>
<event>
 7    1  0.1378058E-005  0.1790674E+03  0.7546771E-02  0.1173940E+00
         -2   -1    0    0    0  501 -0.00000000000E+00  0.00000000000E+00  0.44780281429E+02  0.44780281429E+02  0.00000000000E+00 0. -1.
          2   -1    0    0  501    0  0.00000000000E+00 -0.00000000000E+00 -0.64653199762E+03  0.64653199762E+03  0.00000000000E+00 0.  1.
         23    2    1    2    0    0 -0.10590386028E+02 -0.12778558335E+03 -0.32340888086E+03  0.36034422750E+03  0.93879425245E+02 0.  0.
          5    1    1    2  502    0  0.63208314130E+02  0.40683414654E+02 -0.14240930269E+03  0.16109913313E+03  0.47000000000E+01 0. -1.
         -5    1    1    2    0  502 -0.52617928102E+02  0.87102168695E+02 -0.13593353265E+03  0.16986891843E+03  0.47000000000E+01 0. -1.
        -11    1    3    3    0    0  0.25642895823E+02 -0.83383470342E+02 -0.11587430325E+03  0.14504211591E+03  0.00000000000E+00 0. -1.
         11    1    3    3    0    0 -0.36233281851E+02 -0.44402113007E+02 -0.20753457761E+03  0.21530211159E+03  0.00000000000E+00 0.  1.
<mgrwt>
<rscale>  0 0.17380209E+03</rscale>
<asrwt>0</asrwt>
<pdfrwt beam="2">  1        2 0.99466448E-01 0.17906735E+03</pdfrwt>
<pdfrwt beam="1">  1       -2 0.68892750E-02 0.17906735E+03</pdfrwt>
<totfact> 0.54030443E+03</totfact>
</mgrwt>
</event>
<event>
 7    1  0.1378058E-005  0.1613103E+03  0.7546771E-02  0.1194660E+00
         -2   -1    0    0    0  501 -0.00000000000E+00  0.00000000000E+00  0.35790549931E+02  0.35790549931E+02  0.00000000000E+00 0.  1.
          2   -1    0    0  501    0  0.00000000000E+00 -0.00000000000E+00 -0.77319907658E+03  0.77319907658E+03  0.00000000000E+00 0. -1.
         23    2    1    2    0    0  0.80241492893E+01 -0.10164254107E+03 -0.52331423107E+03  0.54092737563E+03  0.91373125950E+02 0.  0.
          5    1    1    2  502    0 -0.58850789136E+02  0.69547026847E+02 -0.81203181567E+02  0.12213210480E+03  0.47000000000E+01 0.  1.
         -5    1    1    2    0  502  0.50826639847E+02  0.32095514222E+02 -0.13289111402E+03  0.14593014608E+03  0.47000000000E+01 0.  1.
        -11    1    3    3    0    0  0.93872460507E+01 -0.10012337711E+02 -0.50512261148E+01  0.14624711283E+02  0.00000000000E+00 0.  1.
         11    1    3    3    0    0 -0.13630967613E+01 -0.91630203358E+02 -0.51826300495E+03  0.52630266435E+03  0.00000000000E+00 0. -1.
<mgrwt>
<rscale>  0 0.15483037E+03</rscale>
<asrwt>0</asrwt>
<pdfrwt beam="2">  1        2 0.11895370E+00 0.16131027E+03</pdfrwt>
<pdfrwt beam="1">  1       -2 0.55062387E-02 0.16131027E+03</pdfrwt>
<totfact> 0.61065641E+03</totfact>
</mgrwt>
</event>
<event>
 7    1  0.1378058E-005  0.1540536E+03  0.7546771E-02  0.1203079E+00
         -1   -1    0    0    0  501 -0.00000000000E+00  0.00000000000E+00  0.75966559024E+02  0.75966559024E+02  0.00000000000E+00 0.  1.
          1   -1    0    0  501    0  0.00000000000E+00 -0.00000000000E+00 -0.27761817164E+03  0.27761817164E+03  0.00000000000E+00 0. -1.
         23    2    1    2    0    0 -0.10601187578E+02  0.89400791263E+02 -0.12712646842E+03  0.18245173405E+03  0.94987418264E+02 0.  0.
          5    1    1    2  502    0  0.32116222779E+01 -0.12082360178E+03 -0.53059622071E+02  0.13208357490E+03  0.47000000000E+01 0.  1.
         -5    1    1    2    0  502  0.73895653002E+01  0.31422810514E+02 -0.21465522118E+02  0.39049421708E+02  0.47000000000E+01 0.  1.
        -11    1    3    3    0    0  0.40724377614E+01  0.35465514864E+02  0.76809622355E+01  0.36515540181E+02  0.00000000000E+00 0.  1.
         11    1    3    3    0    0 -0.14673625339E+02  0.53935276399E+02 -0.13480743066E+03  0.14593619387E+03  0.00000000000E+00 0. -1.
<mgrwt>
<rscale>  0 0.14789912E+03</rscale>
<asrwt>0</asrwt>
<pdfrwt beam="2">  1        1 0.42710489E-01 0.15405358E+03</pdfrwt>
<pdfrwt beam="1">  1       -1 0.11687163E-01 0.15405358E+03</pdfrwt>
<totfact> 0.44664358E+03</totfact>
</mgrwt>
</event>
<event>
 7    1  0.1378058E-005  0.2684056E+03  0.7546771E-02  0.1104383E+00
         -3   -1    0    0    0  501 -0.00000000000E+00  0.00000000000E+00  0.28582440986E+03  0.28582440986E+03  0.00000000000E+00 0.  1.
          3   -1    0    0  501    0  0.00000000000E+00 -0.00000000000E+00 -0.26353551713E+03  0.26353551713E+03  0.00000000000E+00 0. -1.
         23    2    1    2    0    0 -0.16208053901E+03  0.17362770026E+03 -0.73915368481E+02  0.26423395726E+03  0.89103440173E+02 0.  0.
          5    1    1    2  502    0  0.18289265193E+03 -0.15658305435E+03  0.82338039504E+02  0.25449875793E+03  0.47000000000E+01 0. -1.
         -5    1    1    2    0  502 -0.20812112918E+02 -0.17044645909E+02  0.13866221702E+02  0.30627211799E+02  0.47000000000E+01 0. -1.
        -11    1    3    3    0    0 -0.44778719009E+02  0.69843786089E+02 -0.68379480205E+02  0.10751298268E+03  0.00000000000E+00 0.  1.
         11    1    3    3    0    0 -0.11730182000E+03  0.10378391417E+03 -0.55358882759E+01  0.15672097458E+03  0.00000000000E+00 0. -1.
<mgrwt>
<rscale>  0 0.26464725E+03</rscale>
<asrwt>0</asrwt>
<pdfrwt beam="2">  1        3 0.40543926E-01 0.26840559E+03</pdfrwt>
<pdfrwt beam="1">  1       -3 0.43972986E-01 0.26840559E+03</pdfrwt>
<totfact> 0.78028867E+01</totfact>
</mgrwt>
</event>
<event>
 7    1  0.1378058E-005  0.2197747E+03  0.7546771E-02  0.1137384E+00
         -2   -1    0    0    0  501 -0.00000000000E+00  0.00000000000E+00  0.66745410593E+03  0.66745410593E+03  0.00000000000E+00 0.  1.
          2   -1    0    0  501    0  0.00000000000E+00 -0.00000000000E+00 -0.68379633370E+02  0.68379633370E+02  0.00000000000E+00 0. -1.
         23    2    1    2    0    0  0.22842035543E+02  0.17940578000E+03  0.23258775741E+03  0.30850081267E+03  0.91474007438E+02 0.  0.
          5    1    1    2  502    0 -0.73995503564E+02 -0.94699055203E+02  0.21429661534E+03  0.24574046258E+03  0.47000000000E+01 0. -1.
         -5    1    1    2    0  502  0.51153468021E+02 -0.84706724802E+02  0.15219009982E+03  0.18159246405E+03  0.47000000000E+01 0. -1.
        -11    1    3    3    0    0 -0.21853966585E+02  0.47197587468E+01  0.25556004493E+02  0.33955578978E+02  0.00000000000E+00 0. -1.
         11    1    3    3    0    0  0.44696002128E+02  0.17468602126E+03  0.20703175291E+03  0.27454523369E+03  0.00000000000E+00 0.  1.
<mgrwt>
<rscale>  0 0.21536810E+03</rscale>
<asrwt>0</asrwt>
<pdfrwt beam="2">  1        2 0.10519944E-01 0.21977470E+03</pdfrwt>
<pdfrwt beam="1">  1       -2 0.10268524E+00 0.21977470E+03</pdfrwt>
<totfact> 0.48329361E+02</totfact>
</mgrwt>
</event>
<event>
 7    1  0.1378058E-005  0.1275129E+03  0.7546771E-02  0.1244601E+00
         -1   -1    0    0    0  501 -0.00000000000E+00  0.00000000000E+00  0.21531298854E+03  0.21531298854E+03  0.00000000000E+00 0.  1.
          1   -1    0    0  501    0  0.00000000000E+00 -0.00000000000E+00 -0.60426394470E+02  0.60426394470E+02  0.00000000000E+00 0. -1.
         23    2    1    2    0    0 -0.90076491164E+01  0.23499369255E+02  0.43108047426E+02  0.10616937172E+03  0.93703114363E+02 0.  0.
          5    1    1    2  502    0 -0.26859751595E+02 -0.60412816265E+02  0.29829695434E+02  0.72684629424E+02  0.47000000000E+01 0. -1.
         -5    1    1    2    0  502  0.35867400712E+02  0.36913447010E+02  0.81948851212E+02  0.96885381864E+02  0.47000000000E+01 0. -1.
        -11    1    3    3    0    0 -0.29780095817E+02  0.27468949664E+02  0.64448509244E+02  0.76124947595E+02  0.00000000000E+00 0.  1.
         11    1    3    3    0    0  0.20772446700E+02 -0.39695804095E+01 -0.21340461819E+02  0.30044424128E+02  0.00000000000E+00 0. -1.
<mgrwt>
<rscale>  0 0.11909274E+03</rscale>
<asrwt>0</asrwt>
<pdfrwt beam="2">  1        1 0.92963685E-02 0.12751292E+03</pdfrwt>
<pdfrwt beam="1">  1       -1 0.33125075E-01 0.12751292E+03</pdfrwt>
<totfact> 0.57734855E+03</totfact>
</mgrwt>
</event>
<event>
 7    1  0.1378058E-005  0.1265930E+03  0.7546771E-02  0.1247766E+00
         -2   -1    0    0    0  501 -0.00000000000E+00  0.00000000000E+00  0.84481342892E+02  0.84481342892E+02  0.00000000000E+00 0.  1.
          2   -1    0    0  501    0  0.00000000000E+00 -0.00000000000E+00 -0.14489823101E+03  0.14489823101E+03  0.00000000000E+00 0. -1.
         23    2    1    2    0    0  0.13093451013E+02 -0.15162180527E+02 -0.39453405510E+02  0.10106260802E+03  0.90861154269E+02 0.  0.
          5    1    1    2  502    0 -0.68807583542E+02  0.54271844208E+01 -0.18009990440E+02  0.71486975313E+02  0.47000000000E+01 0. -1.
         -5    1    1    2    0  502  0.55714132530E+02  0.97349961064E+01 -0.29534921706E+01  0.56829990575E+02  0.47000000000E+01 0. -1.
        -11    1    3    3    0    0 -0.36715214031E+02  0.65570716476E+01 -0.24781299357E+02  0.44778509664E+02  0.00000000000E+00 0. -1.
         11    1    3    3    0    0  0.49808665043E+02 -0.21719252175E+02 -0.14672106153E+02  0.56284098353E+02  0.00000000000E+00 0.  1.
<mgrwt>
<rscale>  0 0.11721375E+03</rscale>
<asrwt>0</asrwt>
<pdfrwt beam="2">  1        2 0.22292035E-01 0.12659295E+03</pdfrwt>
<pdfrwt beam="1">  1       -2 0.12997130E-01 0.12659295E+03</pdfrwt>
<totfact> 0.99520621E+03</totfact>
</mgrwt>
</event>
<event>
 7    1  0.1378058E-005  0.1334035E+03  0.7546771E-02  0.1234356E+00
          2   -1    0    0  501    0  0.00000000000E+00  0.00000000000E+00  0.22683948363E+03  0.22683948363E+03  0.00000000000E+00 0. -1.
         -2   -1    0    0    0  501 -0.00000000000E+00 -0.00000000000E+00 -0.63182350057E+02  0.63182350057E+02  0.00000000000E+00 0.  1.
         23    2    1    2    0    0 -0.71119512306E+00 -0.46589487196E+02  0.54929826665E+02  0.11792265142E+03  0.93366909263E+02 0.  0.
          5    1    1    2  502    0  0.37896595738E+02 -0.27222621367E+02  0.20703545213E+02  0.51263533501E+02  0.47000000000E+01 0. -1.
         -5    1    1    2    0  502 -0.37185400615E+02  0.73812108563E+02  0.88023761696E+02  0.12083564876E+03  0.47000000000E+01 0. -1.
        -11    1    3    3    0    0 -0.32309661024E+02 -0.12222264270E+02  0.61735861552E+02  0.70743300326E+02  0.00000000000E+00 0. -1.
         11    1    3    3    0    0  0.31598465901E+02 -0.34367222926E+02 -0.68060348877E+01  0.47179351096E+02  0.00000000000E+00 0.  1.
<mgrwt>
<rscale>  0 0.12545741E+03</rscale>
<asrwt>0</asrwt>
<pdfrwt beam="1">  1        2 0.34898382E-01 0.13340353E+03</pdfrwt>
<pdfrwt beam="2">  1       -2 0.97203616E-02 0.13340353E+03</pdfrwt>
<totfact> 0.97181866E+03</totfact>
</mgrwt>
</event>
<event>
 7    1  0.1378058E-005  0.4440004E+03  0.7546771E-02  0.1032332E+00
         -2   -1    0    0    0  501 -0.00000000000E+00  0.00000000000E+00  0.28932399080E+03  0.28932399080E+03  0.00000000000E+00 0.  1.
          2   -1    0    0  501    0  0.00000000000E+00 -0.00000000000E+00 -0.95233007593E+03  0.95233007593E+03  0.00000000000E+00 0. -1.
         23    2    1    2    0    0 -0.38288970945E+03  0.11107466227E+03 -0.68445518060E+03  0.79713586593E+03  0.89468342407E+02 0.  0.
          5    1    1    2  502    0  0.45847310223E+02  0.44854417405E+02 -0.27438507909E+02  0.69920357062E+02  0.47000000000E+01 0. -1.
         -5    1    1    2    0  502  0.33704239923E+03 -0.15592907967E+03  0.48887603385E+02  0.37459784374E+03  0.47000000000E+01 0.  1.
        -11    1    3    3    0    0 -0.16911906398E+02 -0.71230094227E+01 -0.10431139582E+02  0.21108257016E+02  0.00000000000E+00 0.  1.
         11    1    3    3    0    0 -0.36597780306E+03  0.11819767169E+03 -0.67402404102E+03  0.77602760891E+03  0.00000000000E+00 0. -1.
<mgrwt>
<rscale>  0 0.43487031E+03</rscale>
<asrwt>0</asrwt>
<pdfrwt beam="2">  1        2 0.14651232E+00 0.44400041E+03</pdfrwt>
<pdfrwt beam="1">  1       -2 0.44511384E-01 0.44400041E+03</pdfrwt>
<totfact> 0.13447824E+02</totfact>
</mgrwt>
</event>
<event>
 7    1  0.1378058E-005  0.1277417E+03  0.7546771E-02  0.1245634E+00
          1   -1    0    0  501    0  0.00000000000E+00  0.00000000000E+00  0.30554069043E+03  0.30554069043E+03  0.00000000000E+00 0. -1.
         -1   -1    0    0    0  501 -0.00000000000E+00 -0.00000000000E+00 -0.42550490314E+02  0.42550490314E+02  0.00000000000E+00 0.  1.
         23    2    1    2    0    0 -0.11367525619E+02  0.23756043247E+02  0.15135839644E+03  0.17844568817E+03  0.90774055903E+02 0.  0.
          5    1    1    2  502    0 -0.48326416953E+02 -0.86465405482E+01  0.93958285863E+01  0.50205346665E+02  0.47000000000E+01 0. -1.
         -5    1    1    2    0  502  0.59693942572E+02 -0.15109502698E+02  0.10223597509E+03  0.11944014591E+03  0.47000000000E+01 0. -1.
        -11    1    3    3    0    0 -0.11874944193E+01 -0.19661805992E+02 -0.97213591453E+00  0.19721607595E+02  0.00000000000E+00 0.  1.
         11    1    3    3    0    0 -0.10180031200E+02  0.43417849239E+02  0.15233053236E+03  0.15872408058E+03  0.00000000000E+00 0. -1.
<mgrwt>
<rscale>  0 0.11847511E+03</rscale>
<asrwt>0</asrwt>
<pdfrwt beam="1">  1        1 0.47006259E-01 0.12774167E+03</pdfrwt>
<pdfrwt beam="2">  1       -1 0.65462295E-02 0.12774167E+03</pdfrwt>
<totfact> 0.94445548E+03</totfact>
</mgrwt>
</event>
<event>
 7    1  0.1378058E-005  0.1252910E+03  0.7546771E-02  0.1251775E+00
         -1   -1    0    0    0  501 -0.00000000000E+00  0.00000000000E+00  0.66193569783E+03  0.66193569783E+03  0.00000000000E+00 0.  1.
          1   -1    0    0  501    0  0.00000000000E+00 -0.00000000000E+00 -0.22895705702E+02  0.22895705702E+02  0.00000000000E+00 0. -1.
         23    2    1    2    0    0 -0.87912073715E+00 -0.84777965131E+01  0.11039435133E+03  0.14154138977E+03  0.88172593950E+02 0.  0.
          5    1    1    2  502    0 -0.29021348830E+02 -0.20627119839E+02  0.46884901209E+03  0.47022250361E+03  0.47000000000E+01 0. -1.
         -5    1    1    2    0  502  0.29900469567E+02  0.29104916352E+02  0.59796628705E+02  0.73067510157E+02  0.47000000000E+01 0. -1.
        -11    1    3    3    0    0  0.39059786021E+02  0.15149480147E+02  0.46736812473E+02  0.62765462421E+02  0.00000000000E+00 0. -1.
         11    1    3    3    0    0 -0.39938906759E+02 -0.23627276661E+02  0.63657538859E+02  0.78775927345E+02  0.00000000000E+00 0.  1.
<mgrwt>
<rscale>  0 0.11488892E+03</rscale>
<asrwt>0</asrwt>
<pdfrwt beam="2">  1        1 0.35224168E-02 0.12529096E+03</pdfrwt>
<pdfrwt beam="1">  1       -1 0.10183625E+00 0.12529096E+03</pdfrwt>
<totfact> 0.25306263E+03</totfact>
</mgrwt>
</event>
<event>
 7    1  0.1378058E-005  0.1467457E+03  0.7546771E-02  0.1214518E+00
          1   -1    0    0  501    0  0.00000000000E+00  0.00000000000E+00  0.54459660702E+03  0.54459660702E+03  0.00000000000E+00 0. -1.
         -1   -1    0    0    0  501 -0.00000000000E+00 -0.00000000000E+00 -0.32695285198E+02  0.32695285198E+02  0.00000000000E+00 0.  1.
         23    2    1    2    0    0 -0.30768491371E+02  0.70450493826E+02  0.26036469890E+03  0.28607895412E+03  0.90229814452E+02 0.  0.
          5    1    1    2  502    0  0.37057688529E+02 -0.49521389616E+02  0.26001052733E+03  0.26730732244E+03  0.47000000000E+01 0.  1.
         -5    1    1    2    0  502 -0.62891971581E+01 -0.20929104210E+02 -0.84739044079E+01  0.23905615655E+02  0.47000000000E+01 0.  1.
        -11    1    3    3    0    0  0.15333163434E+01  0.42709055169E+02  0.22961223976E+03  0.23355555035E+03  0.00000000000E+00 0. -1.
         11    1    3    3    0    0 -0.32301807714E+02  0.27741438657E+02  0.30752459140E+02  0.52523403769E+02  0.00000000000E+00 0.  1.
<mgrwt>
<rscale>  0 0.13911981E+03</rscale>
<asrwt>0</asrwt>
<pdfrwt beam="1">  1        1 0.83784086E-01 0.14674571E+03</pdfrwt>
<pdfrwt beam="2">  1       -1 0.50300443E-02 0.14674571E+03</pdfrwt>
<totfact> 0.67664170E+03</totfact>
</mgrwt>
</event>
<event>
 7    1  0.1378058E-005  0.1328679E+03  0.7546771E-02  0.1236174E+00
          2   -1    0    0  501    0  0.00000000000E+00  0.00000000000E+00  0.18512387815E+03  0.18512387815E+03  0.00000000000E+00 0. -1.
         -2   -1    0    0    0  501 -0.00000000000E+00 -0.00000000000E+00 -0.98188170247E+02  0.98188170247E+02  0.00000000000E+00 0.  1.
         23    2    1    2    0    0 -0.44653391449E+02 -0.59604050342E+01  0.10844931918E+03  0.14871371194E+03  0.91241774929E+02 0.  0.
          5    1    1    2  502    0  0.50182986288E+02  0.44598952167E+02 -0.51835434301E+02  0.84949401977E+02  0.47000000000E+01 0. -1.
         -5    1    1    2    0  502 -0.55295948387E+01 -0.38638547133E+02  0.30321823024E+02  0.49648934481E+02  0.47000000000E+01 0. -1.
        -11    1    3    3    0    0 -0.46380769499E+02 -0.28411014267E+02  0.20822892222E+02  0.58240487219E+02  0.00000000000E+00 0.  1.
         11    1    3    3    0    0  0.17273780499E+01  0.22450609233E+02  0.87626426961E+02  0.90473224723E+02  0.00000000000E+00 0. -1.
<mgrwt>
<rscale>  0 0.12429574E+03</rscale>
<asrwt>0</asrwt>
<pdfrwt beam="1">  1        2 0.28480596E-01 0.13286789E+03</pdfrwt>
<pdfrwt beam="2">  1       -2 0.15105872E-01 0.13286789E+03</pdfrwt>
<totfact> 0.59781938E+03</totfact>
</mgrwt>
</event>
<event>
 7    1  0.1378058E-005  0.1440508E+03  0.7546771E-02  0.1219459E+00
         -1   -1    0    0    0  501 -0.00000000000E+00  0.00000000000E+00  0.40709011727E+02  0.40709011727E+02  0.00000000000E+00 0.  1.
          1   -1    0    0  501    0  0.00000000000E+00 -0.00000000000E+00 -0.40803739960E+03  0.40803739960E+03  0.00000000000E+00 0. -1.
         23    2    1    2    0    0 -0.48676500518E+02  0.52527818366E+02 -0.14392714753E+03  0.18292927097E+03  0.87289867537E+02 0.  0.
          5    1    1    2  502    0  0.67374943415E+01 -0.39293610603E+02 -0.21629954932E+01  0.40201370794E+02  0.47000000000E+01 0.  1.
         -5    1    1    2    0  502  0.41939006177E+02 -0.13234207764E+02 -0.22123824485E+03  0.22561576957E+03  0.47000000000E+01 0.  1.
        -11    1    3    3    0    0 -0.31454676161E+02  0.58301135240E+02 -0.39910565517E+02  0.77338685421E+02  0.00000000000E+00 0.  1.
         11    1    3    3    0    0 -0.17221824357E+02 -0.57733168735E+01 -0.10401658201E+03  0.10559058555E+03  0.00000000000E+00 0. -1.
<mgrwt>
<rscale>  0 0.13553999E+03</rscale>
<asrwt>0</asrwt>
<pdfrwt beam="2">  1        1 0.62774981E-01 0.14405082E+03</pdfrwt>
<pdfrwt beam="1">  1       -1 0.62629252E-02 0.14405082E+03</pdfrwt>
<totfact> 0.70885207E+03</totfact>
</mgrwt>
</event>
<event>
 7    1  0.1378058E-005  0.2318071E+03  0.7546771E-02  0.1147073E+00
          2   -1    0    0  501    0  0.00000000000E+00  0.00000000000E+00  0.50491659438E+03  0.50491659438E+03  0.00000000000E+00 0. -1.
         -2   -1    0    0    0  501 -0.00000000000E+00 -0.00000000000E+00 -0.12653311770E+03  0.12653311770E+03  0.00000000000E+00 0.  1.
         23    2    1    2    0    0  0.52659119214E+02  0.85300729860E+02  0.37546103588E+03  0.39962416539E+03  0.93162689673E+02 0.  0.
          5    1    1    2  502    0 -0.10918458706E+03 -0.50273465771E+02 -0.64934100917E+02  0.13670121753E+03  0.47000000000E+01 0. -1.
         -5    1    1    2    0  502  0.56525467841E+02 -0.35027264089E+02  0.67856541728E+02  0.95124329167E+02  0.47000000000E+01 0.  1.
        -11    1    3    3    0    0  0.39666586691E+02  0.11693638213E+02  0.46283362135E+02  0.62067132082E+02  0.00000000000E+00 0.  1.
         11    1    3    3    0    0  0.12992532523E+02  0.73607091646E+02  0.32917767374E+03  0.33755703330E+03  0.00000000000E+00 0. -1.
<mgrwt>
<rscale>  0 0.20319261E+03</rscale>
<asrwt>0</asrwt>
<pdfrwt beam="1">  1        2 0.77679475E-01 0.23180713E+03</pdfrwt>
<pdfrwt beam="2">  1       -2 0.19466634E-01 0.23180713E+03</pdfrwt>
<totfact> 0.13535908E+03</totfact>
</mgrwt>
</event>
<event>
 7    1  0.1378058E-005  0.2032065E+03  0.7546771E-02  0.1169088E+00
         -1   -1    0    0    0  501 -0.00000000000E+00  0.00000000000E+00  0.60201845780E+02  0.60201845780E+02  0.00000000000E+00 0.  1.
          1   -1    0    0  501    0  0.00000000000E+00 -0.00000000000E+00 -0.44185345767E+03  0.44185345767E+03  0.00000000000E+00 0. -1.
         23    2    1    2    0    0 -0.34201817595E+02  0.72520672711E+02 -0.16662016050E+03  0.20619825959E+03  0.91249285338E+02 0.  0.
          5    1    1    2  502    0  0.95895331945E+02 -0.58100133977E+02 -0.20188766333E+03  0.23098107901E+03  0.47000000000E+01 0. -1.
         -5    1    1    2    0  502 -0.61693514350E+02 -0.14420538734E+02 -0.13143788058E+02  0.64875964847E+02  0.47000000000E+01 0.  1.
        -11    1    3    3    0    0 -0.25254946697E+02 -0.16182281012E+02 -0.61044278674E+02  0.68015310852E+02  0.00000000000E+00 0.  1.
         11    1    3    3    0    0 -0.89468708980E+01  0.88702953723E+02 -0.10557588182E+03  0.13818294873E+03  0.00000000000E+00 0. -1.
<mgrwt>
<rscale>  0 0.17867845E+03</rscale>
<asrwt>0</asrwt>
<pdfrwt beam="2">  1        1 0.67977454E-01 0.20320646E+03</pdfrwt>
<pdfrwt beam="1">  1       -1 0.92618225E-02 0.20320646E+03</pdfrwt>
<totfact> 0.36009454E+03</totfact>
</mgrwt>
</event>
<event>
 7    1  0.1392869E-005  0.1464120E+03  0.7546771E-02  0.1214679E+00
          2   -1    0    0  501    0  0.00000000000E+00  0.00000000000E+00  0.69082951822E+03  0.69082951822E+03  0.00000000000E+00 0. -1.
         -2   -1    0    0    0  501 -0.00000000000E+00 -0.00000000000E+00 -0.28603884400E+02  0.28603884400E+02  0.00000000000E+00 0.  1.
         23    2    1    2    0    0  0.17326341967E+02 -0.74241361589E+02  0.41885601000E+03  0.43541711954E+03  0.91300213462E+02 0.  0.
          5    1    1    2  502    0  0.11496437836E+02  0.11727197147E+02 -0.11091150975E+02  0.20366611544E+02  0.47000000000E+01 0.  1.
         -5    1    1    2    0  502 -0.28822779803E+02  0.62514164442E+02  0.25446077479E+03  0.26364967153E+03  0.47000000000E+01 0.  1.
        -11    1    3    3    0    0  0.11172675845E+02  0.10433237046E+02  0.11036023106E+02  0.18854042718E+02  0.00000000000E+00 0.  1.
         11    1    3    3    0    0  0.61536661214E+01 -0.84674598635E+02  0.40781998690E+03  0.41656307682E+03  0.00000000000E+00 0. -1.
<mgrwt>
<rscale>  0 0.13900112E+03</rscale>
<asrwt>0</asrwt>
<pdfrwt beam="1">  1        2 0.10628145E+00 0.14641201E+03</pdfrwt>
<pdfrwt beam="2">  1       -2 0.44005981E-02 0.14641201E+03</pdfrwt>
<totfact> 0.97560797E+03</totfact>
</mgrwt>
</event>
<event>
 7    1  0.1378058E-005  0.1785830E+03  0.7546771E-02  0.1174962E+00
          2   -1    0    0  501    0  0.00000000000E+00  0.00000000000E+00  0.25508880249E+03  0.25508880249E+03  0.00000000000E+00 0. -1.
         -2   -1    0    0    0  501 -0.00000000000E+00 -0.00000000000E+00 -0.11008872286E+03  0.11008872286E+03  0.00000000000E+00 0.  1.
         23    2    1    2    0    0 -0.91875167601E+02 -0.88465692131E+02  0.70262979857E+02  0.17158643564E+03  0.90762290916E+02 0.  0.
          5    1    1    2  502    0 -0.19828304385E+02  0.57749374673E+02  0.37520786776E+02  0.71819575119E+02  0.47000000000E+01 0.  1.
         -5    1    1    2    0  502  0.11170347199E+03  0.30716317458E+02  0.37216313002E+02  0.12177151459E+03  0.47000000000E+01 0.  1.
        -11    1    3    3    0    0 -0.63397796257E+02 -0.47983690735E+02 -0.70137837889E+01  0.79817969842E+02  0.00000000000E+00 0.  1.
         11    1    3    3    0    0 -0.28477371344E+02 -0.40482001396E+02  0.77276763646E+02  0.91768465800E+02  0.00000000000E+00 0. -1.
<mgrwt>
<rscale>  0 0.17279728E+03</rscale>
<asrwt>0</asrwt>
<pdfrwt beam="1">  1        2 0.39244431E-01 0.17858297E+03</pdfrwt>
<pdfrwt beam="2">  1       -2 0.16936727E-01 0.17858297E+03</pdfrwt>
<totfact> 0.35599016E+03</totfact>
</mgrwt>
</event>
<event>
 7    1  0.1378058E-005  0.1447703E+03  0.7546771E-02  0.1217011E+00
         -2   -1    0    0    0  501 -0.00000000000E+00  0.00000000000E+00  0.33340118777E+02  0.33340118777E+02  0.00000000000E+00 0.  1.
          2   -1    0    0  501    0  0.00000000000E+00 -0.00000000000E+00 -0.52238608539E+03  0.52238608539E+03  0.00000000000E+00 0. -1.
         23    2    1    2    0    0 -0.71268991439E+02  0.15962377720E+02 -0.25351656239E+03  0.27926186631E+03  0.91555862330E+02 0.  0.
          5    1    1    2  502    0  0.34858076524E+02  0.15185457044E+02 -0.23687620163E+01  0.38384692757E+02  0.47000000000E+01 0. -1.
         -5    1    1    2    0  502  0.36410914915E+02 -0.31147834764E+02 -0.23316064221E+03  0.23807964510E+03  0.47000000000E+01 0. -1.
        -11    1    3    3    0    0 -0.42162668616E+02  0.22929422208E+02 -0.24276030591E+03  0.24745911815E+03  0.00000000000E+00 0. -1.
         11    1    3    3    0    0 -0.29106322823E+02 -0.69670444878E+01 -0.10756256470E+02  0.31802748158E+02  0.00000000000E+00 0.  1.
<mgrwt>
<rscale>  0 0.13729828E+03</rscale>
<asrwt>0</asrwt>
<pdfrwt beam="2">  1        2 0.80367090E-01 0.14477027E+03</pdfrwt>
<pdfrwt beam="1">  1       -2 0.51292491E-02 0.14477027E+03</pdfrwt>
<totfact> 0.10663433E+04</totfact>
</mgrwt>
</event>
<event>
 7    1  0.1378058E-005  0.1258560E+03  0.7546771E-02  0.1250534E+00
         -4   -1    0    0    0  501 -0.00000000000E+00  0.00000000000E+00  0.11188892188E+03  0.11188892188E+03  0.00000000000E+00 0.  1.
          4   -1    0    0  501    0  0.00000000000E+00 -0.00000000000E+00 -0.10548051689E+03  0.10548051689E+03  0.00000000000E+00 0. -1.
         23    2    1    2    0    0  0.13342736235E+02 -0.60608698043E+01 -0.11214931827E+02  0.90285597679E+02  0.88379588703E+02 0.  0.
          5    1    1    2  502    0 -0.69194305543E+02  0.24087344517E+01  0.54296117286E+01  0.69607647602E+02  0.47000000000E+01 0.  1.
         -5    1    1    2    0  502  0.55851569308E+02  0.36521353526E+01  0.12193725092E+02  0.57476193492E+02  0.47000000000E+01 0.  1.
        -11    1    3    3    0    0 -0.28057213687E+02  0.43037421547E+01 -0.32033942079E+02  0.42800734591E+02  0.00000000000E+00 0. -1.
         11    1    3    3    0    0  0.41399949922E+02 -0.10364611959E+02  0.20819010252E+02  0.47484863088E+02  0.00000000000E+00 0.  1.
<mgrwt>
<rscale>  0 0.11560212E+03</rscale>
<asrwt>0</asrwt>
<pdfrwt beam="2">  1        4 0.16227772E-01 0.12585595E+03</pdfrwt>
<pdfrwt beam="1">  1       -4 0.17213680E-01 0.12585595E+03</pdfrwt>
<totfact> 0.15679996E+03</totfact>
</mgrwt>
</event>
<event>
 7    1  0.1378058E-005  0.1413356E+03  0.7546771E-02  0.1214869E+00
         -1   -1    0    0    0  501 -0.00000000000E+00  0.00000000000E+00  0.81219332640E+02  0.81219332640E+02  0.00000000000E+00 0. -1.
          1   -1    0    0  501    0  0.00000000000E+00 -0.00000000000E+00 -0.27861638080E+03  0.27861638080E+03  0.00000000000E+00 0.  1.
         23    2    1    2    0    0 -0.24304014103E+02 -0.61316916349E+02 -0.17136262937E+03  0.21612228319E+03  0.11398789943E+03 0.  0.
          5    1    1    2  502    0  0.27147077663E+01  0.23370819715E+02  0.50255646602E+02  0.55689180886E+02  0.47000000000E+01 0.  1.
         -5    1    1    2    0  502  0.21589306337E+02  0.37946096633E+02 -0.76290065389E+02  0.88024249357E+02  0.47000000000E+01 0.  1.
        -11    1    3    3    0    0  0.29774357845E+02 -0.58585367507E+02 -0.47941684427E+02  0.81345945054E+02  0.00000000000E+00 0.  1.
         11    1    3    3    0    0 -0.54078371948E+02 -0.27315488418E+01 -0.12342094494E+03  0.13477633814E+03  0.00000000000E+00 0. -1.
<mgrwt>
<rscale>  0 0.13886136E+03</rscale>
<asrwt>0</asrwt>
<pdfrwt beam="2">  1        1 0.42864059E-01 0.14133563E+03</pdfrwt>
<pdfrwt beam="1">  1       -1 0.12495282E-01 0.14133563E+03</pdfrwt>
<totfact> 0.39917895E+03</totfact>
</mgrwt>
</event>
<event>
 7    1  0.1378058E-005  0.1263003E+03  0.7546771E-02  0.1248340E+00
         -1   -1    0    0    0  501 -0.00000000000E+00  0.00000000000E+00  0.44573435563E+02  0.44573435563E+02  0.00000000000E+00 0.  1.
          1   -1    0    0  501    0  0.00000000000E+00 -0.00000000000E+00 -0.28596526994E+03  0.28596526994E+03  0.00000000000E+00 0. -1.
         23    2    1    2    0    0 -0.78282715959E+01 -0.16317705019E+02 -0.63207108661E+02  0.11213184848E+03  0.90834264044E+02 0.  0.
          5    1    1    2  502    0  0.39810159537E+02  0.90513131953E+01 -0.18057155510E+03  0.18518896183E+03  0.47000000000E+01 0. -1.
         -5    1    1    2    0  502 -0.31981887941E+02  0.72663918241E+01  0.23868293882E+01  0.33217895191E+02  0.47000000000E+01 0. -1.
        -11    1    3    3    0    0  0.33212084313E+02  0.18645960168E+02 -0.32605131304E+02  0.50137899461E+02  0.00000000000E+00 0. -1.
         11    1    3    3    0    0 -0.41040355909E+02 -0.34963665188E+02 -0.30601977357E+02  0.61993949016E+02  0.00000000000E+00 0.  1.
<mgrwt>
<rscale>  0 0.11687701E+03</rscale>
<asrwt>0</asrwt>
<pdfrwt beam="2">  1        1 0.43994657E-01 0.12630027E+03</pdfrwt>
<pdfrwt beam="1">  1       -1 0.68574516E-02 0.12630027E+03</pdfrwt>
<totfact> 0.95537085E+03</totfact>
</mgrwt>
</event>
<event>
 7    1  0.1378058E-005  0.1355803E+03  0.7546771E-02  0.1235551E+00
          1   -1    0    0  501    0  0.00000000000E+00  0.00000000000E+00  0.11392210654E+03  0.11392210654E+03  0.00000000000E+00 0. -1.
         -1   -1    0    0    0  501 -0.00000000000E+00 -0.00000000000E+00 -0.12251386794E+03  0.12251386794E+03  0.00000000000E+00 0.  1.
         23    2    1    2    0    0  0.59971509926E+01  0.52162091338E+02  0.16952434149E+02  0.98470281856E+02  0.81560785875E+02 0.  0.
          5    1    1    2  502    0  0.21548136563E+01  0.39380415451E+02 -0.23017937056E+02  0.45906162651E+02  0.47000000000E+01 0.  1.
         -5    1    1    2    0  502 -0.81519646489E+01 -0.91542506789E+02 -0.25262585011E+01  0.92059529973E+02  0.47000000000E+01 0.  1.
        -11    1    3    3    0    0 -0.28211108872E+02  0.42892030544E+02 -0.11981409258E+02  0.52717616750E+02  0.00000000000E+00 0.  1.
         11    1    3    3    0    0  0.34208259864E+02  0.92700607934E+01  0.28933843406E+02  0.45752665106E+02  0.00000000000E+00 0. -1.
<mgrwt>
<rscale>  0 0.12469255E+03</rscale>
<asrwt>0</asrwt>
<pdfrwt beam="1">  1        1 0.17526478E-01 0.13558033E+03</pdfrwt>
<pdfrwt beam="2">  1       -1 0.18848287E-01 0.13558033E+03</pdfrwt>
<totfact> 0.64012940E+03</totfact>
</mgrwt>
</event>
<event>
 7    1  0.1378058E-005  0.1438109E+03  0.7546771E-02  0.1218771E+00
         -2   -1    0    0    0  501 -0.00000000000E+00  0.00000000000E+00  0.26958907039E+03  0.26958907039E+03  0.00000000000E+00 0.  1.
          2   -1    0    0  501    0  0.00000000000E+00 -0.00000000000E+00 -0.62260602437E+02  0.62260602437E+02  0.00000000000E+00 0. -1.
         23    2    1    2    0    0  0.69885295413E+02  0.13151849941E+02  0.86149695319E+02  0.14379152568E+03  0.90538981556E+02 0.  0.
          5    1    1    2  502    0 -0.10221919062E+03  0.10053688879E+02  0.77325893195E+02  0.12865155790E+03  0.47000000000E+01 0. -1.
         -5    1    1    2    0  502  0.32333895209E+02 -0.23205538820E+02  0.43852879441E+02  0.59406589252E+02  0.47000000000E+01 0. -1.
        -11    1    3    3    0    0  0.18505646900E+02  0.31497980577E+02  0.81164900837E+02  0.89007431575E+02  0.00000000000E+00 0.  1.
         11    1    3    3    0    0  0.51379648513E+02 -0.18346130636E+02  0.49847944821E+01  0.54784094103E+02  0.00000000000E+00 0. -1.
<mgrwt>
<rscale>  0 0.13603108E+03</rscale>
<asrwt>0</asrwt>
<pdfrwt beam="2">  1        2 0.95785544E-02 0.14381089E+03</pdfrwt>
<pdfrwt beam="1">  1       -2 0.41475241E-01 0.14381089E+03</pdfrwt>
<totfact> 0.36071758E+03</totfact>
</mgrwt>
</event>
<event>
 7    1  0.1378058E-005  0.1597331E+03  0.7546771E-02  0.1196611E+00
         -2   -1    0    0    0  501 -0.00000000000E+00  0.00000000000E+00  0.75030947833E+02  0.75030947833E+02  0.00000000000E+00 0.  1.
          2   -1    0    0  501    0  0.00000000000E+00 -0.00000000000E+00 -0.30073235224E+03  0.30073235224E+03  0.00000000000E+00 0. -1.
         23    2    1    2    0    0 -0.95363542876E+02 -0.28108905828E+02 -0.13969984574E+03  0.19434956569E+03  0.91495305271E+02 0.  0.
          5    1    1    2  502    0  0.97304680930E+02 -0.11290391090E+01 -0.10726569181E+03  0.14490512171E+03  0.47000000000E+01 0.  1.
         -5    1    1    2    0  502 -0.19411380537E+01  0.29237944937E+02  0.21264133139E+02  0.36508612672E+02  0.47000000000E+01 0.  1.
        -11    1    3    3    0    0 -0.40406196920E+02  0.33547492481E+02 -0.54789596374E+02  0.75894630061E+02  0.00000000000E+00 0. -1.
         11    1    3    3    0    0 -0.54957345956E+02 -0.61656398309E+02 -0.84910249367E+02  0.11845493563E+03  0.00000000000E+00 0.  1.
<mgrwt>
<rscale>  0 0.15318671E+03</rscale>
<asrwt>0</asrwt>
<pdfrwt beam="2">  1        2 0.46266516E-01 0.15973314E+03</pdfrwt>
<pdfrwt beam="1">  1       -2 0.11543223E-01 0.15973314E+03</pdfrwt>
<totfact> 0.55480689E+03</totfact>
</mgrwt>
</event>
<event>
 7    1  0.1378058E-005  0.1450863E+03  0.7546771E-02  0.1216871E+00
         -1   -1    0    0    0  501 -0.00000000000E+00  0.00000000000E+00  0.14340217102E+03  0.14340217102E+03  0.00000000000E+00 0.  1.
          1   -1    0    0  501    0  0.00000000000E+00 -0.00000000000E+00 -0.18722772484E+03  0.18722772484E+03  0.00000000000E+00 0. -1.
         23    2    1    2    0    0  0.19948762257E+02 -0.70906712793E+02 -0.11947007091E+03  0.16700796323E+03  0.90514346400E+02 0.  0.
          5    1    1    2  502    0 -0.38324099911E+02 -0.23839598498E+02  0.90536900337E+01  0.46272263763E+02  0.47000000000E+01 0.  1.
         -5    1    1    2    0  502  0.18375337654E+02  0.94746311291E+02  0.66590827047E+02  0.11734966887E+03  0.47000000000E+01 0.  1.
        -11    1    3    3    0    0  0.55016036762E+02 -0.54888218642E+02 -0.72945540113E+02  0.10658579957E+03  0.00000000000E+00 0. -1.
         11    1    3    3    0    0 -0.35067274504E+02 -0.16018494151E+02 -0.46524530793E+02  0.60422163661E+02  0.00000000000E+00 0.  1.
<mgrwt>
<rscale>  0 0.13739986E+03</rscale>
<asrwt>0</asrwt>
<pdfrwt beam="2">  1        1 0.28804265E-01 0.14508633E+03</pdfrwt>
<pdfrwt beam="1">  1       -1 0.22061873E-01 0.14508633E+03</pdfrwt>
<totfact> 0.26611593E+03</totfact>
</mgrwt>
</event>
<event>
 7    1  0.1378058E-005  0.1552143E+03  0.7546771E-02  0.1201730E+00
          4   -1    0    0  501    0  0.00000000000E+00  0.00000000000E+00  0.10408619892E+03  0.10408619892E+03  0.00000000000E+00 0. -1.
         -4   -1    0    0    0  501 -0.00000000000E+00 -0.00000000000E+00 -0.19813550054E+03  0.19813550054E+03  0.00000000000E+00 0.  1.
         23    2    1    2    0    0 -0.12687876554E+02 -0.91135430577E+02 -0.49549728306E+02  0.14075443695E+03  0.94286727734E+02 0.  0.
          5    1    1    2  502    0  0.25925903868E+02  0.11800401820E+03 -0.20142619665E+02  0.12257616379E+03  0.47000000000E+01 0.  1.
         -5    1    1    2    0  502 -0.13238027315E+02 -0.26868587625E+02 -0.24356953650E+02  0.38891098715E+02  0.47000000000E+01 0.  1.
        -11    1    3    3    0    0 -0.28300881372E+02 -0.61122079630E+02 -0.73201546056E+02  0.99475197158E+02  0.00000000000E+00 0.  1.
         11    1    3    3    0    0  0.15613004819E+02 -0.30013350947E+02  0.23651817750E+02  0.41279239787E+02  0.00000000000E+00 0. -1.
<mgrwt>
<rscale>  0 0.14898135E+03</rscale>
<asrwt>0</asrwt>
<pdfrwt beam="1">  1        4 0.16013262E-01 0.15521425E+03</pdfrwt>
<pdfrwt beam="2">  1       -4 0.30482384E-01 0.15521425E+03</pdfrwt>
<totfact> 0.58915226E+02</totfact>
</mgrwt>
</event>
<event>
 7    1  0.1378058E-005  0.1678090E+03  0.7546771E-02  0.1186969E+00
         -2   -1    0    0    0  501 -0.00000000000E+00  0.00000000000E+00  0.14324387388E+03  0.14324387388E+03  0.00000000000E+00 0.  1.
          2   -1    0    0  501    0  0.00000000000E+00 -0.00000000000E+00 -0.18115369573E+03  0.18115369573E+03  0.00000000000E+00 0. -1.
         23    2    1    2    0    0 -0.10998915086E+03  0.20927455068E+02 -0.58107695146E+02  0.15537740932E+03  0.90719696916E+02 0.  0.
          5    1    1    2  502    0 -0.59655458796E+01 -0.44210649922E+02  0.23440131514E+02  0.50613230183E+02  0.47000000000E+01 0.  1.
         -5    1    1    2    0  502  0.11595469674E+03  0.23283194854E+02 -0.32422582114E+01  0.11840693011E+03  0.47000000000E+01 0.  1.
        -11    1    3    3    0    0 -0.48727961845E+02 -0.35792820057E+02 -0.27967063428E+02  0.66616040636E+02  0.00000000000E+00 0.  1.
         11    1    3    3    0    0 -0.61261189016E+02  0.56720275126E+02 -0.30140631719E+02  0.88761368683E+02  0.00000000000E+00 0. -1.
<mgrwt>
<rscale>  0 0.16153982E+03</rscale>
<asrwt>0</asrwt>
<pdfrwt beam="2">  1        2 0.27869799E-01 0.16780900E+03</pdfrwt>
<pdfrwt beam="1">  1       -2 0.22037519E-01 0.16780900E+03</pdfrwt>
<totfact> 0.32931253E+03</totfact>
</mgrwt>
</event>
<event>
 7    1  0.1378058E-005  0.1251112E+03  0.7546771E-02  0.1242740E+00
          3   -1    0    0  501    0  0.00000000000E+00  0.00000000000E+00  0.77858998674E+03  0.77858998674E+03  0.00000000000E+00 0. -1.
         -3   -1    0    0    0  501 -0.00000000000E+00 -0.00000000000E+00 -0.20685065992E+02  0.20685065992E+02  0.00000000000E+00 0.  1.
         23    2    1    2    0    0  0.58794907339E+02  0.28277303200E+01  0.51627393207E+03  0.52717519137E+03  0.88938587074E+02 0.  0.
          5    1    1    2  502    0  0.37957923528E+01 -0.47506366321E+02  0.99748222225E+02  0.11064836518E+03  0.47000000000E+01 0. -1.
         -5    1    1    2    0  502 -0.62590699691E+02  0.44678636001E+02  0.14188276645E+03  0.16145149618E+03  0.47000000000E+01 0.  1.
        -11    1    3    3    0    0  0.81884503255E+02 -0.51052684674E+01  0.38394577426E+03  0.39261366916E+03  0.00000000000E+00 0. -1.
         11    1    3    3    0    0 -0.23089595916E+02  0.79329987875E+01  0.13232815781E+03  0.13456152221E+03  0.00000000000E+00 0.  1.
<mgrwt>
<rscale>  0 0.12021689E+03</rscale>
<asrwt>0</asrwt>
<pdfrwt beam="1">  1        3 0.11978305E+00 0.12511115E+03</pdfrwt>
<pdfrwt beam="2">  1       -3 0.31823184E-02 0.12511115E+03</pdfrwt>
<totfact> 0.63374861E+02</totfact>
</mgrwt>
</event>
<event>
 7    1  0.1378058E-005  0.1254957E+03  0.7546771E-02  0.1247090E+00
         -1   -1    0    0    0  501 -0.00000000000E+00  0.00000000000E+00  0.60751758359E+03  0.60751758359E+03  0.00000000000E+00 0.  1.
          1   -1    0    0  501    0  0.00000000000E+00 -0.00000000000E+00 -0.20434518602E+02  0.20434518602E+02  0.00000000000E+00 0. -1.
         23    2    1    2    0    0 -0.10356266526E+02 -0.41048950037E+01  0.23430078013E+03  0.25351317262E+03  0.96166369912E+02 0.  0.
          5    1    1    2  502    0  0.44937885190E+02  0.15377638077E+02  0.48827573288E+02  0.68279625009E+02  0.47000000000E+01 0. -1.
         -5    1    1    2    0  502 -0.34581618664E+02 -0.11272743073E+02  0.30395471157E+03  0.30615930457E+03  0.47000000000E+01 0. -1.
        -11    1    3    3    0    0  0.29604513539E+02 -0.13197123278E+02  0.19162144588E+03  0.19434343263E+03  0.00000000000E+00 0.  1.
         11    1    3    3    0    0 -0.39960780065E+02  0.90922282744E+01  0.42679334249E+02  0.59169739989E+02  0.00000000000E+00 0. -1.
<mgrwt>
<rscale>  0 0.11761186E+03</rscale>
<asrwt>0</asrwt>
<pdfrwt beam="2">  1        1 0.31437726E-02 0.12549570E+03</pdfrwt>
<pdfrwt beam="1">  1       -1 0.93464230E-01 0.12549570E+03</pdfrwt>
<totfact> 0.35681750E+03</totfact>
</mgrwt>
</event>
<event>
 7    1  0.1378058E-005  0.1467141E+03  0.7546771E-02  0.1211565E+00
          1   -1    0    0  501    0  0.00000000000E+00  0.00000000000E+00  0.39674379746E+02  0.39674379746E+02  0.00000000000E+00 0. -1.
         -1   -1    0    0    0  501 -0.00000000000E+00 -0.00000000000E+00 -0.47098756989E+03  0.47098756989E+03  0.00000000000E+00 0.  1.
         23    2    1    2    0    0 -0.86724331013E+02  0.35107364746E+01 -0.21305852955E+03  0.24767882315E+03  0.91746539789E+02 0.  0.
          5    1    1    2  502    0  0.83912320176E+01  0.44242335341E+02 -0.32427602542E+02  0.55690541548E+02  0.47000000000E+01 0. -1.
         -5    1    1    2    0  502  0.78333098995E+02 -0.47753071816E+02 -0.18582705806E+03  0.20729258494E+03  0.47000000000E+01 0.  1.
        -11    1    3    3    0    0 -0.96550902970E+02  0.17905889334E+02 -0.20719970676E+03  0.22929111675E+03  0.00000000000E+00 0. -1.
         11    1    3    3    0    0  0.98265719572E+01 -0.14395152860E+02 -0.58588227871E+01  0.18387706402E+02  0.00000000000E+00 0.  1.
<mgrwt>
<rscale>  0 0.14131944E+03</rscale>
<asrwt>0</asrwt>
<pdfrwt beam="1">  1        1 0.61037508E-02 0.14671410E+03</pdfrwt>
<pdfrwt beam="2">  1       -1 0.72459625E-01 0.14671410E+03</pdfrwt>
<totfact> 0.24511235E+03</totfact>
</mgrwt>
</event>
<event>
 7    1  0.1378058E-005  0.2015253E+03  0.7546771E-02  0.1152899E+00
          2   -1    0    0  501    0  0.00000000000E+00  0.00000000000E+00  0.48310614515E+03  0.48310614515E+03  0.00000000000E+00 0.  1.
         -2   -1    0    0    0  501 -0.00000000000E+00 -0.00000000000E+00 -0.79100837609E+02  0.79100837609E+02  0.00000000000E+00 0. -1.
         23    2    1    2    0    0 -0.11445750343E+03 -0.10903279932E+03  0.24840209780E+03  0.30759984389E+03  0.89024661489E+02 0.  0.
          5    1    1    2  502    0  0.59179014669E+02  0.12944411147E+03  0.11065861247E+03  0.18034786465E+03  0.47000000000E+01 0.  1.
         -5    1    1    2    0  502  0.55278488760E+02 -0.20411312147E+02  0.44944597274E+02  0.74259274217E+02  0.47000000000E+01 0.  1.
        -11    1    3    3    0    0 -0.57263477124E+02 -0.11009647252E+03  0.17517183221E+03  0.21467535926E+03  0.00000000000E+00 0.  1.
         11    1    3    3    0    0 -0.57194026305E+02  0.10636732044E+01  0.73230265592E+02  0.92924484633E+02  0.00000000000E+00 0. -1.
<mgrwt>
<rscale>  0 0.19629979E+03</rscale>
<asrwt>0</asrwt>
<pdfrwt beam="1">  1        2 0.74324020E-01 0.20152527E+03</pdfrwt>
<pdfrwt beam="2">  1       -2 0.12169360E-01 0.20152527E+03</pdfrwt>
<totfact> 0.30871485E+03</totfact>
</mgrwt>
</event>
<event>
 7    1  0.1378058E-005  0.3192344E+03  0.7546771E-02  0.1077421E+00
         -1   -1    0    0    0  501 -0.00000000000E+00  0.00000000000E+00  0.73134809499E+02  0.73134809499E+02  0.00000000000E+00 0.  1.
          1   -1    0    0  501    0  0.00000000000E+00 -0.00000000000E+00 -0.14704559236E+04  0.14704559236E+04  0.00000000000E+00 0. -1.
         23    2    1    2    0    0  0.13877178311E+03 -0.25889935647E+03 -0.45777049769E+03  0.55128736563E+03  0.89874614727E+02 0.  0.
          5    1    1    2  502    0 -0.51707675995E+02  0.10800998060E+03 -0.20587917048E+03  0.23821872828E+03  0.47000000000E+01 0.  1.
         -5    1    1    2    0  502 -0.87064107116E+02  0.15088937587E+03 -0.73367144595E+03  0.75408463922E+03  0.47000000000E+01 0.  1.
        -11    1    3    3    0    0  0.73879888982E+02 -0.20894242008E+03 -0.29389946404E+03  0.36809247190E+03  0.00000000000E+00 0.  1.
         11    1    3    3    0    0  0.64891894129E+02 -0.49956936387E+02 -0.16387103365E+03  0.18319489373E+03  0.00000000000E+00 0. -1.
<mgrwt>
<rscale>  0 0.31617901E+03</rscale>
<asrwt>0</asrwt>
<pdfrwt beam="2">  1        1 0.22622397E+00 0.31923442E+03</pdfrwt>
<pdfrwt beam="1">  1       -1 0.11251510E-01 0.31923442E+03</pdfrwt>
<totfact> 0.37836005E+02</totfact>
</mgrwt>
</event>
<event>
 7    1  0.1378058E-005  0.2548988E+03  0.7546771E-02  0.1112588E+00
         -1   -1    0    0    0  501 -0.00000000000E+00  0.00000000000E+00  0.16829743907E+03  0.16829743907E+03  0.00000000000E+00 0.  1.
          1   -1    0    0  501    0  0.00000000000E+00 -0.00000000000E+00 -0.36549412093E+03  0.36549412093E+03  0.00000000000E+00 0. -1.
         23    2    1    2    0    0 -0.19025806269E+03 -0.11467033656E+03 -0.79200825277E+02  0.25290653707E+03  0.91331972838E+02 0.  0.
          5    1    1    2  502    0  0.99968311590E+02  0.12042377787E+03 -0.10694711919E+03  0.18961889648E+03  0.47000000000E+01 0. -1.
         -5    1    1    2    0  502  0.90289751100E+02 -0.57534413119E+01 -0.11048737395E+02  0.91266126458E+02  0.47000000000E+01 0. -1.
        -11    1    3    3    0    0 -0.85655863600E+02 -0.45836987331E+01 -0.11155214334E+02  0.86500728725E+02  0.00000000000E+00 0.  1.
         11    1    3    3    0    0 -0.10460219909E+03 -0.11008663782E+03 -0.68045610942E+02  0.16640580834E+03  0.00000000000E+00 0. -1.
<mgrwt>
<rscale>  0 0.25113796E+03</rscale>
<asrwt>0</asrwt>
<pdfrwt beam="2">  1        1 0.56229865E-01 0.25489875E+03</pdfrwt>
<pdfrwt beam="1">  1       -1 0.25891914E-01 0.25489875E+03</pdfrwt>
<totfact> 0.89524606E+02</totfact>
</mgrwt>
</event>
<event>
 7    1  0.1378058E-005  0.1809853E+03  0.7546771E-02  0.1173328E+00
          1   -1    0    0  501    0  0.00000000000E+00  0.00000000000E+00  0.10083296058E+03  0.10083296058E+03  0.00000000000E+00 0. -1.
         -1   -1    0    0    0  501 -0.00000000000E+00 -0.00000000000E+00 -0.35980126668E+03  0.35980126668E+03  0.00000000000E+00 0.  1.
         23    2    1    2    0    0  0.33573550823E+02 -0.12651384065E+03 -0.14900964319E+02  0.15678470726E+03  0.85008649562E+02 0.  0.
          5    1    1    2  502    0  0.72223363994E+01  0.88317229875E+02 -0.50027484401E+02  0.10186723924E+03  0.47000000000E+01 0. -1.
         -5    1    1    2    0  502 -0.40795887223E+02  0.38196610778E+02 -0.19403985738E+03  0.20198228076E+03  0.47000000000E+01 0. -1.
        -11    1    3    3    0    0 -0.20983163264E+02 -0.69935638066E+01 -0.12444688955E+02  0.25378600404E+02  0.00000000000E+00 0.  1.
         11    1    3    3    0    0  0.54556714088E+02 -0.11952027685E+03 -0.24562753637E+01  0.13140610685E+03  0.00000000000E+00 0. -1.
<mgrwt>
<rscale>  0 0.17440773E+03</rscale>
<asrwt>0</asrwt>
<pdfrwt beam="1">  1        1 0.15512763E-01 0.18098526E+03</pdfrwt>
<pdfrwt beam="2">  1       -1 0.55354040E-01 0.18098526E+03</pdfrwt>
<totfact> 0.11984302E+03</totfact>
</mgrwt>
</event>
<event>
 7    1  0.1378058E-005  0.1398315E+03  0.7546771E-02  0.1224297E+00
          3   -1    0    0  501    0  0.00000000000E+00  0.00000000000E+00  0.22621201338E+03  0.22621201338E+03  0.00000000000E+00 0. -1.
         -3   -1    0    0    0  501 -0.00000000000E+00 -0.00000000000E+00 -0.10906808421E+03  0.10906808421E+03  0.00000000000E+00 0.  1.
         23    2    1    2    0    0 -0.46441326342E+02 -0.42373736762E+02  0.15448262931E+03  0.19054926543E+03  0.92151014307E+02 0.  0.
          5    1    1    2  502    0 -0.37817705589E+02 -0.49604970151E+01  0.56666726363E+01  0.38845676277E+02  0.47000000000E+01 0.  1.
         -5    1    1    2    0  502  0.84259031931E+02  0.47334233777E+02 -0.43005372775E+02  0.10588515588E+03  0.47000000000E+01 0.  1.
        -11    1    3    3    0    0 -0.54770807190E+02 -0.60442643223E+02  0.14907535458E+03  0.16993120898E+03  0.00000000000E+00 0. -1.
         11    1    3    3    0    0  0.83294808479E+01  0.18068906461E+02  0.54072747228E+01  0.20618056451E+02  0.00000000000E+00 0.  1.
<mgrwt>
<rscale>  0 0.13215216E+03</rscale>
<asrwt>0</asrwt>
<pdfrwt beam="1">  1        3 0.34801848E-01 0.13983145E+03</pdfrwt>
<pdfrwt beam="2">  1       -3 0.16779705E-01 0.13983145E+03</pdfrwt>
<totfact> 0.57723082E+02</totfact>
</mgrwt>
</event>
<event>
 7    1  0.1378058E-005  0.1389067E+03  0.7546771E-02  0.1226291E+00
         -2   -1    0    0    0  501 -0.00000000000E+00  0.00000000000E+00  0.29975888260E+02  0.29975888260E+02  0.00000000000E+00 0.  1.
          2   -1    0    0  501    0  0.00000000000E+00 -0.00000000000E+00 -0.54248209596E+03  0.54248209596E+03  0.00000000000E+00 0. -1.
         23    2    1    2    0    0  0.42435552969E+02  0.43150098293E+02 -0.16121314284E+03  0.19469894895E+03  0.90858660347E+02 0.  0.
          5    1    1    2  502    0 -0.30925325846E+02  0.14954842214E+02 -0.29117252312E+03  0.29322951984E+03  0.47000000000E+01 0.  1.
         -5    1    1    2    0  502 -0.11510227123E+02 -0.58104940507E+02 -0.60120541739E+02  0.84529515430E+02  0.47000000000E+01 0.  1.
        -11    1    3    3    0    0  0.13530796301E+02 -0.19424552758E+02 -0.53426527898E+01  0.24268078565E+02  0.00000000000E+00 0.  1.
         11    1    3    3    0    0  0.28904756668E+02  0.62574651052E+02 -0.15587049005E+03  0.17043087039E+03  0.00000000000E+00 0. -1.
<mgrwt>
<rscale>  0 0.13078798E+03</rscale>
<asrwt>0</asrwt>
<pdfrwt beam="2">  1        2 0.83458783E-01 0.13890670E+03</pdfrwt>
<pdfrwt beam="1">  1       -2 0.46116752E-02 0.13890670E+03</pdfrwt>
<totfact> 0.11961004E+04</totfact>
</mgrwt>
</event>
<event>
 7    1  0.1378058E-005  0.1254580E+03  0.7546771E-02  0.1246483E+00
          2   -1    0    0  501    0  0.00000000000E+00  0.00000000000E+00  0.26817409499E+03  0.26817409499E+03  0.00000000000E+00 0. -1.
         -2   -1    0    0    0  501 -0.00000000000E+00 -0.00000000000E+00 -0.13433939904E+03  0.13433939904E+03  0.00000000000E+00 0.  1.
         23    2    1    2    0    0 -0.93536340817E+01 -0.44999852768E+01  0.22631342255E+03  0.24665453433E+03  0.97534372104E+02 0.  0.
          5    1    1    2  502    0 -0.48545769720E+02  0.32440110663E+02 -0.28890391274E+02  0.65313071016E+02  0.47000000000E+01 0.  1.
         -5    1    1    2    0  502  0.57899403802E+02 -0.27940125387E+02 -0.63588335323E+02  0.90545888678E+02  0.47000000000E+01 0.  1.
        -11    1    3    3    0    0  0.35944271770E+02  0.23319558540E+02  0.12663821459E+03  0.13369005153E+03  0.00000000000E+00 0. -1.
         11    1    3    3    0    0 -0.45297905852E+02 -0.27819543817E+02  0.99675207966E+02  0.11296448281E+03  0.00000000000E+00 0.  1.
<mgrwt>
<rscale>  0 0.11797079E+03</rscale>
<asrwt>0</asrwt>
<pdfrwt beam="1">  1        2 0.41257553E-01 0.12545796E+03</pdfrwt>
<pdfrwt beam="2">  1       -2 0.20667600E-01 0.12545796E+03</pdfrwt>
<totfact> 0.23777386E+03</totfact>
</mgrwt>
</event>
<event>
 7    1  0.1378058E-005  0.1380384E+03  0.7546771E-02  0.1227929E+00
          4   -1    0    0  501    0  0.00000000000E+00  0.00000000000E+00  0.19708322159E+03  0.19708322159E+03  0.00000000000E+00 0. -1.
         -4   -1    0    0    0  501 -0.00000000000E+00 -0.00000000000E+00 -0.11442104199E+03  0.11442104199E+03  0.00000000000E+00 0.  1.
         23    2    1    2    0    0 -0.49317898287E+02 -0.31598899246E+02  0.12710659357E+03  0.16648731680E+03  0.90173139015E+02 0.  0.
          5    1    1    2  502    0  0.21637580403E+02  0.58856577527E+02  0.23069874301E+02  0.66982017767E+02  0.47000000000E+01 0.  1.
         -5    1    1    2    0  502  0.27680317884E+02 -0.27257678281E+02 -0.67514288281E+02  0.78034929010E+02  0.47000000000E+01 0.  1.
        -11    1    3    3    0    0 -0.10591122661E+02 -0.44591866577E+02  0.16722855859E+02  0.48787911947E+02  0.00000000000E+00 0.  1.
         11    1    3    3    0    0 -0.38726775627E+02  0.12992967331E+02  0.11038373772E+03  0.11769940485E+03  0.00000000000E+00 0. -1.
<mgrwt>
<rscale>  0 0.12968175E+03</rscale>
<asrwt>0</asrwt>
<pdfrwt beam="1">  1        4 0.30320496E-01 0.13803843E+03</pdfrwt>
<pdfrwt beam="2">  1       -4 0.17603237E-01 0.13803843E+03</pdfrwt>
<totfact> 0.49226647E+02</totfact>
</mgrwt>
</event>
<event>
 7    1  0.1378058E-005  0.1334484E+03  0.7546771E-02  0.1234424E+00
         -2   -1    0    0    0  501 -0.00000000000E+00  0.00000000000E+00  0.34320764478E+02  0.34320764478E+02  0.00000000000E+00 0.  1.
          2   -1    0    0  501    0  0.00000000000E+00 -0.00000000000E+00 -0.41103550254E+03  0.41103550254E+03  0.00000000000E+00 0. -1.
         23    2    1    2    0    0 -0.28103224922E+02 -0.37328628061E+02 -0.16569303109E+03  0.19567918179E+03  0.93021201402E+02 0.  0.
          5    1    1    2  502    0 -0.38894553477E+02  0.37721649884E+01 -0.19416496130E+02  0.43887422353E+02  0.47000000000E+01 0. -1.
         -5    1    1    2    0  502  0.66997778399E+02  0.33556463073E+02 -0.19160521084E+03  0.20578966287E+03  0.47000000000E+01 0. -1.
        -11    1    3    3    0    0 -0.47880554929E+02 -0.16457299059E+00 -0.13594514638E+03  0.14413069572E+03  0.00000000000E+00 0. -1.
         11    1    3    3    0    0  0.19777330007E+02 -0.37164055070E+02 -0.29747884714E+02  0.51548486073E+02  0.00000000000E+00 0.  1.
<mgrwt>
<rscale>  0 0.12541358E+03</rscale>
<asrwt>0</asrwt>
<pdfrwt beam="2">  1        2 0.63236233E-01 0.13344844E+03</pdfrwt>
<pdfrwt beam="1">  1       -2 0.52801174E-02 0.13344844E+03</pdfrwt>
<totfact> 0.13171171E+04</totfact>
</mgrwt>
</event>
<event>
 7    1  0.1378058E-005  0.1294325E+03  0.7546771E-02  0.1243945E+00
          1   -1    0    0  501    0  0.00000000000E+00  0.00000000000E+00  0.63332212362E+03  0.63332212362E+03  0.00000000000E+00 0. -1.
         -1   -1    0    0    0  501 -0.00000000000E+00 -0.00000000000E+00 -0.20538053051E+02  0.20538053051E+02  0.00000000000E+00 0.  1.
         23    2    1    2    0    0  0.10440169387E+02  0.31931225630E+02  0.32471574915E+03  0.33804989198E+03  0.87799837206E+02 0.  0.
          5    1    1    2  502    0 -0.59545194285E+02 -0.99321259902E+01  0.77083950126E+02  0.98021949869E+02  0.47000000000E+01 0. -1.
         -5    1    1    2    0  502  0.49105024898E+02 -0.21999099640E+02  0.21098437129E+03  0.21778833482E+03  0.47000000000E+01 0. -1.
        -11    1    3    3    0    0 -0.38758832290E+02  0.17879817004E+02  0.13800401887E+03  0.14445429783E+03  0.00000000000E+00 0.  1.
         11    1    3    3    0    0  0.49199001677E+02  0.14051408626E+02  0.18671173028E+03  0.19359559415E+03  0.00000000000E+00 0. -1.
<mgrwt>
<rscale>  0 0.11948770E+03</rscale>
<asrwt>0</asrwt>
<pdfrwt beam="1">  1        1 0.97434158E-01 0.12943252E+03</pdfrwt>
<pdfrwt beam="2">  1       -1 0.31597010E-02 0.12943252E+03</pdfrwt>
<totfact> 0.10832638E+04</totfact>
</mgrwt>
</event>
<event>
 7    1  0.1378058E-005  0.1343029E+03  0.7546771E-02  0.1233613E+00
          1   -1    0    0  501    0  0.00000000000E+00  0.00000000000E+00  0.37183305148E+03  0.37183305148E+03  0.00000000000E+00 0. -1.
         -1   -1    0    0    0  501 -0.00000000000E+00 -0.00000000000E+00 -0.42045787577E+02  0.42045787577E+02  0.00000000000E+00 0.  1.
         23    2    1    2    0    0 -0.47647984403E+02  0.11921303071E+02  0.20845378052E+03  0.23288414973E+03  0.91485521795E+02 0.  0.
          5    1    1    2  502    0  0.78854360094E+02 -0.42552468131E+02  0.89253535575E+02  0.12655831171E+03  0.47000000000E+01 0.  1.
         -5    1    1    2    0  502 -0.31206375690E+02  0.30631165060E+02  0.32079947803E+02  0.54436377614E+02  0.47000000000E+01 0.  1.
        -11    1    3    3    0    0 -0.56745696739E+02 -0.27290683682E+02  0.13924849653E+03  0.15282342523E+03  0.00000000000E+00 0.  1.
         11    1    3    3    0    0  0.90977123359E+01  0.39211986753E+02  0.69205283993E+02  0.80060724499E+02  0.00000000000E+00 0. -1.
<mgrwt>
<rscale>  0 0.12593651E+03</rscale>
<asrwt>0</asrwt>
<pdfrwt beam="1">  1        1 0.57205082E-01 0.13430288E+03</pdfrwt>
<pdfrwt beam="2">  1       -1 0.64685830E-02 0.13430288E+03</pdfrwt>
<totfact> 0.75585124E+03</totfact>
</mgrwt>
</event>
<event>
 7    1  0.1378058E-005  0.1299238E+03  0.7546771E-02  0.1241477E+00
         -1   -1    0    0    0  501 -0.00000000000E+00  0.00000000000E+00  0.82466815398E+02  0.82466815398E+02  0.00000000000E+00 0.  1.
          1   -1    0    0  501    0  0.00000000000E+00 -0.00000000000E+00 -0.20746396838E+03  0.20746396838E+03  0.00000000000E+00 0. -1.
         23    2    1    2    0    0 -0.32923545867E+02 -0.13107773297E+02 -0.12670196826E+03  0.15999580162E+03  0.91046659372E+02 0.  0.
          5    1    1    2  502    0 -0.33701200276E+02  0.77100733610E+00 -0.38197074585E+02  0.51161233949E+02  0.47000000000E+01 0. -1.
         -5    1    1    2    0  502  0.66624746143E+02  0.12336765961E+02  0.39901889858E+02  0.78773748211E+02  0.47000000000E+01 0. -1.
        -11    1    3    3    0    0 -0.31435321582E+02 -0.35416681683E+02 -0.20735169999E+02  0.51695919174E+02  0.00000000000E+00 0.  1.
         11    1    3    3    0    0 -0.14882242856E+01  0.22308908385E+02 -0.10596679826E+03  0.10829988245E+03  0.00000000000E+00 0. -1.
<mgrwt>
<rscale>  0 0.12098737E+03</rscale>
<asrwt>0</asrwt>
<pdfrwt beam="2">  1        1 0.31917533E-01 0.12992380E+03</pdfrwt>
<pdfrwt beam="1">  1       -1 0.12687203E-01 0.12992380E+03</pdfrwt>
<totfact> 0.55886104E+03</totfact>
</mgrwt>
</event>
<event>
 7    1  0.1378058E-005  0.1378284E+03  0.7546771E-02  0.1228035E+00
         -2   -1    0    0    0  501 -0.00000000000E+00  0.00000000000E+00  0.22924339340E+02  0.22924339340E+02  0.00000000000E+00 0.  1.
          2   -1    0    0  501    0  0.00000000000E+00 -0.00000000000E+00 -0.68630828371E+03  0.68630828371E+03  0.00000000000E+00 0. -1.
         23    2    1    2    0    0 -0.44614898524E+02 -0.37152168899E+02 -0.36447204435E+03  0.38007463737E+03  0.90807962375E+02 0.  0.
          5    1    1    2  502    0  0.56074928968E+02  0.24455069774E+02 -0.48742463473E+02  0.78360486483E+02  0.47000000000E+01 0.  1.
         -5    1    1    2    0  502 -0.11460030444E+02  0.12697099125E+02 -0.25016943654E+03  0.25079749920E+03  0.47000000000E+01 0.  1.
        -11    1    3    3    0    0  0.27392683892E+02 -0.24908517707E+01 -0.80352262154E+02  0.84929673888E+02  0.00000000000E+00 0.  1.
         11    1    3    3    0    0 -0.72007582416E+02 -0.34661317129E+02 -0.28411978220E+03  0.29514496348E+03  0.00000000000E+00 0. -1.
<mgrwt>
<rscale>  0 0.12961045E+03</rscale>
<asrwt>0</asrwt>
<pdfrwt beam="2">  1        2 0.10558588E+00 0.13782836E+03</pdfrwt>
<pdfrwt beam="1">  1       -2 0.35268217E-02 0.13782836E+03</pdfrwt>
<totfact> 0.13609940E+04</totfact>
</mgrwt>
</event>
<event>
 7    1  0.1378058E-005  0.1490037E+03  0.7546771E-02  0.1214669E+00
          2   -1    0    0  501    0  0.00000000000E+00  0.00000000000E+00  0.13487637214E+03  0.13487637214E+03  0.00000000000E+00 0.  1.
         -2   -1    0    0    0  501 -0.00000000000E+00 -0.00000000000E+00 -0.25251953259E+03  0.25251953259E+03  0.00000000000E+00 0. -1.
         23    2    1    2    0    0  0.70370731249E+02 -0.40302964843E+02  0.81110638599E+02  0.13899061976E+03  0.78505336741E+02 0.  0.
          5    1    1    2  502    0 -0.96840397629E+02  0.19833322180E+02 -0.87378323806E+02  0.13201698661E+03  0.47000000000E+01 0.  1.
         -5    1    1    2    0  502  0.26469666381E+02  0.20469642663E+02 -0.11137547524E+03  0.11638829836E+03  0.47000000000E+01 0.  1.
        -11    1    3    3    0    0  0.85335097905E+02 -0.45872961076E+02  0.68751114178E+02  0.11879866663E+03  0.00000000000E+00 0.  1.
         11    1    3    3    0    0 -0.14964366656E+02  0.55699962329E+01  0.12359524421E+02  0.20191953134E+02  0.00000000000E+00 0. -1.
<mgrwt>
<rscale>  0 0.13900862E+03</rscale>
<asrwt>0</asrwt>
<pdfrwt beam="1">  1        2 0.20750211E-01 0.14900373E+03</pdfrwt>
<pdfrwt beam="2">  1       -2 0.38849159E-01 0.14900373E+03</pdfrwt>
<totfact> 0.16406952E+03</totfact>
</mgrwt>
</event>
<event>
 7    1  0.1378058E-005  0.1437645E+03  0.7546771E-02  0.1218232E+00
         -2   -1    0    0    0  501 -0.00000000000E+00  0.00000000000E+00  0.23860679388E+03  0.23860679388E+03  0.00000000000E+00 0. -1.
          2   -1    0    0  501    0  0.00000000000E+00 -0.00000000000E+00 -0.80343843250E+02  0.80343843250E+02  0.00000000000E+00 0.  1.
         23    2    1    2    0    0 -0.56543718110E+02 -0.42953440170E+02  0.17704012529E+02  0.11789081024E+03  0.92426300367E+02 0.  0.
          5    1    1    2  502    0  0.45545950745E+02 -0.38829983161E+02  0.47184866009E+02  0.76359038769E+02  0.47000000000E+01 0. -1.
         -5    1    1    2    0  502  0.10997767366E+02  0.81783423331E+02  0.93374072096E+02  0.12470078812E+03  0.47000000000E+01 0. -1.
        -11    1    3    3    0    0 -0.36998105618E+02 -0.11007114403E+02 -0.35756762839E+02  0.52617131008E+02  0.00000000000E+00 0.  1.
         11    1    3    3    0    0 -0.19545612492E+02 -0.31946325767E+02  0.53460775368E+02  0.65273679233E+02  0.00000000000E+00 0. -1.
<mgrwt>
<rscale>  0 0.13641763E+03</rscale>
<asrwt>0</asrwt>
<pdfrwt beam="2">  1        2 0.12360591E-01 0.14376453E+03</pdfrwt>
<pdfrwt beam="1">  1       -2 0.36708737E-01 0.14376453E+03</pdfrwt>
<totfact> 0.33290824E+03</totfact>
</mgrwt>
</event>
<event>
 7    1  0.1378058E-005  0.1282380E+03  0.7546771E-02  0.1243538E+00
          2   -1    0    0  501    0  0.00000000000E+00  0.00000000000E+00  0.51965668179E+02  0.51965668179E+02  0.00000000000E+00 0.  1.
         -2   -1    0    0    0  501 -0.00000000000E+00 -0.00000000000E+00 -0.24732940965E+03  0.24732940965E+03  0.00000000000E+00 0. -1.
         23    2    1    2    0    0 -0.80086598869E+01  0.27490942897E+02 -0.70260200530E+02  0.12014185827E+03  0.93154064624E+02 0.  0.
          5    1    1    2  502    0  0.58087559362E+02 -0.83355063098E+01 -0.10742995567E+03  0.12250277790E+03  0.47000000000E+01 0. -1.
         -5    1    1    2    0  502 -0.50078899475E+02 -0.19155436587E+02 -0.17673585269E+02  0.56650441655E+02  0.47000000000E+01 0. -1.
        -11    1    3    3    0    0  0.14888582511E+02  0.51635968845E+02 -0.15268988172E+02  0.55866673138E+02  0.00000000000E+00 0.  1.
         11    1    3    3    0    0 -0.22897242398E+02 -0.24145025948E+02 -0.54991212358E+02  0.64275185134E+02  0.00000000000E+00 0. -1.
<mgrwt>
<rscale>  0 0.11973306E+03</rscale>
<asrwt>0</asrwt>
<pdfrwt beam="1">  1        2 0.79947183E-02 0.12823798E+03</pdfrwt>
<pdfrwt beam="2">  1       -2 0.38050678E-01 0.12823798E+03</pdfrwt>
<totfact> 0.52740003E+03</totfact>
</mgrwt>
</event>
<event>
 7    1  0.1378058E-005  0.1286136E+03  0.7546771E-02  0.1243517E+00
          1   -1    0    0  501    0  0.00000000000E+00  0.00000000000E+00  0.90335451481E+02  0.90335451481E+02  0.00000000000E+00 0. -1.
         -1   -1    0    0    0  501 -0.00000000000E+00 -0.00000000000E+00 -0.14178862985E+03  0.14178862985E+03  0.00000000000E+00 0.  1.
         23    2    1    2    0    0 -0.27759757101E+02  0.12111231326E+02 -0.10839691527E+02  0.97250375417E+02  0.91776089303E+02 0.  0.
          5    1    1    2  502    0  0.26114835682E+02 -0.34207490225E+01  0.43010223625E+02  0.50652300074E+02  0.47000000000E+01 0. -1.
         -5    1    1    2    0  502  0.16449214191E+01 -0.86904823035E+01 -0.83623710472E+02  0.84221405844E+02  0.47000000000E+01 0. -1.
        -11    1    3    3    0    0  0.15737443433E+02  0.39121832860E+02  0.75647958048E+01  0.42841697769E+02  0.00000000000E+00 0.  1.
         11    1    3    3    0    0 -0.43497200533E+02 -0.27010601534E+02 -0.18404487331E+02  0.54408677648E+02  0.00000000000E+00 0. -1.
<mgrwt>
<rscale>  0 0.11974554E+03</rscale>
<asrwt>0</asrwt>
<pdfrwt beam="1">  1        1 0.13897762E-01 0.12861361E+03</pdfrwt>
<pdfrwt beam="2">  1       -1 0.21813635E-01 0.12861361E+03</pdfrwt>
<totfact> 0.68021972E+03</totfact>
</mgrwt>
</event>
<event>
 7    1  0.1378058E-005  0.1605726E+03  0.7546771E-02  0.1194630E+00
         -1   -1    0    0    0  501 -0.00000000000E+00  0.00000000000E+00  0.20597985384E+02  0.20597985384E+02  0.00000000000E+00 0.  1.
          1   -1    0    0  501    0  0.00000000000E+00 -0.00000000000E+00 -0.11578319976E+04  0.11578319976E+04  0.00000000000E+00 0. -1.
         23    2    1    2    0    0 -0.34557356170E+02 -0.94670148762E+02 -0.67376943905E+03  0.68793739985E+03  0.95582222131E+02 0.  0.
          5    1    1    2  502    0 -0.25419626802E+02 -0.16135556818E+02 -0.14098726379E+03  0.14424289297E+03  0.47000000000E+01 0.  1.
         -5    1    1    2    0  502  0.59976982972E+02  0.11080570558E+03 -0.32247730938E+03  0.34624969017E+03  0.47000000000E+01 0.  1.
        -11    1    3    3    0    0  0.99789004658E+01 -0.93632419148E+02 -0.44040045667E+03  0.45035449437E+03  0.00000000000E+00 0.  1.
         11    1    3    3    0    0 -0.44536256636E+02 -0.10377296147E+01 -0.23336898238E+03  0.23758290548E+03  0.00000000000E+00 0. -1.
<mgrwt>
<rscale>  0 0.15485580E+03</rscale>
<asrwt>0</asrwt>
<pdfrwt beam="2">  1        1 0.17812804E+00 0.16057261E+03</pdfrwt>
<pdfrwt beam="1">  1       -1 0.31689201E-02 0.16057261E+03</pdfrwt>
<totfact> 0.42088166E+03</totfact>
</mgrwt>
</event>
<event>
 7    1  0.1378058E-005  0.1357781E+03  0.7546771E-02  0.1232427E+00
         -1   -1    0    0    0  501 -0.00000000000E+00  0.00000000000E+00  0.82856102038E+02  0.82856102038E+02  0.00000000000E+00 0.  1.
          1   -1    0    0  501    0  0.00000000000E+00 -0.00000000000E+00 -0.17259839029E+03  0.17259839029E+03  0.00000000000E+00 0. -1.
         23    2    1    2    0    0  0.44701986517E+02  0.28495022364E+02 -0.31177450547E+02  0.10758452969E+03  0.88273233248E+02 0.  0.
          5    1    1    2  502    0 -0.79367784296E+02  0.48538633113E+01 -0.59669528673E+02  0.99525613915E+02  0.47000000000E+01 0.  1.
         -5    1    1    2    0  502  0.34665797779E+02 -0.33348885676E+02  0.11046909654E+01  0.48344348724E+02  0.47000000000E+01 0.  1.
        -11    1    3    3    0    0  0.21608468353E+02  0.27292207291E+02  0.27598076869E+02  0.44423465986E+02  0.00000000000E+00 0.  1.
         11    1    3    3    0    0  0.23093518164E+02  0.12028150737E+01 -0.58775527416E+02  0.63161063705E+02  0.00000000000E+00 0. -1.
<mgrwt>
<rscale>  0 0.12670616E+03</rscale>
<asrwt>0</asrwt>
<pdfrwt beam="2">  1        1 0.26553598E-01 0.13577807E+03</pdfrwt>
<pdfrwt beam="1">  1       -1 0.12747093E-01 0.13577807E+03</pdfrwt>
<totfact> 0.69964166E+03</totfact>
</mgrwt>
</event>
<event>
 7    1  0.1378058E-005  0.1303911E+03  0.7546771E-02  0.1240014E+00
          2   -1    0    0  501    0  0.00000000000E+00  0.00000000000E+00  0.13920338943E+03  0.13920338943E+03  0.00000000000E+00 0. -1.
         -2   -1    0    0    0  501 -0.00000000000E+00 -0.00000000000E+00 -0.97268177486E+02  0.97268177486E+02  0.00000000000E+00 0.  1.
         23    2    1    2    0    0  0.24120970461E+02 -0.31619929337E+02  0.36244541340E+02  0.10595638261E+03  0.91276760963E+02 0.  0.
          5    1    1    2  502    0 -0.14706320002E+02  0.11096498461E+02  0.64553453328E+02  0.67295218721E+02  0.47000000000E+01 0. -1.
         -5    1    1    2    0  502 -0.94146504590E+01  0.20523430876E+02 -0.58862782725E+02  0.63219965583E+02  0.47000000000E+01 0.  1.
        -11    1    3    3    0    0  0.38445722458E+01 -0.62495690985E+02  0.23598433277E+02  0.66913213797E+02  0.00000000000E+00 0.  1.
         11    1    3    3    0    0  0.20276398215E+02  0.30875761649E+02  0.12646108064E+02  0.39043168815E+02  0.00000000000E+00 0. -1.
<mgrwt>
<rscale>  0 0.12188829E+03</rscale>
<asrwt>0</asrwt>
<pdfrwt beam="1">  1        2 0.21415906E-01 0.13039106E+03</pdfrwt>
<pdfrwt beam="2">  1       -2 0.14964335E-01 0.13039106E+03</pdfrwt>
<totfact> 0.83040929E+03</totfact>
</mgrwt>
</event>
<event>
 7    1  0.1378058E-005  0.1300813E+03  0.7546771E-02  0.1243644E+00
         -1   -1    0    0    0  501 -0.00000000000E+00  0.00000000000E+00  0.21175633618E+02  0.21175633618E+02  0.00000000000E+00 0.  1.
          1   -1    0    0  501    0  0.00000000000E+00 -0.00000000000E+00 -0.67320863556E+03  0.67320863556E+03  0.00000000000E+00 0. -1.
         23    2    1    2    0    0  0.34963356606E+02  0.86325948666E+01 -0.40062761484E+03  0.41131922217E+03  0.85930546128E+02 0.  0.
          5    1    1    2  502    0  0.45466602277E+02  0.10780668609E+02 -0.99416326846E+02  0.10995058336E+03  0.47000000000E+01 0.  1.
         -5    1    1    2    0  502 -0.80429958883E+02 -0.19413263475E+02 -0.15198906026E+03  0.17311446365E+03  0.47000000000E+01 0.  1.
        -11    1    3    3    0    0 -0.80390715144E+00  0.43028804593E+02 -0.20773213808E+03  0.21214326641E+03  0.00000000000E+00 0. -1.
         11    1    3    3    0    0  0.35767263758E+02 -0.34396209726E+02 -0.19289547676E+03  0.19917595576E+03  0.00000000000E+00 0.  1.
<mgrwt>
<rscale>  0 0.11966924E+03</rscale>
<asrwt>0</asrwt>
<pdfrwt beam="2">  1        1 0.10357057E+00 0.13008133E+03</pdfrwt>
<pdfrwt beam="1">  1       -1 0.32577895E-02 0.13008133E+03</pdfrwt>
<totfact> 0.95183477E+03</totfact>
</mgrwt>
</event>
<event>
 7    1  0.1378058E-005  0.1567006E+03  0.7546771E-02  0.1198705E+00
          2   -1    0    0  501    0  0.00000000000E+00  0.00000000000E+00  0.46519758703E+03  0.46519758703E+03  0.00000000000E+00 0. -1.
         -2   -1    0    0    0  501 -0.00000000000E+00 -0.00000000000E+00 -0.48699167849E+02  0.48699167849E+02  0.00000000000E+00 0.  1.
         23    2    1    2    0    0  0.60870132680E+02 -0.72288752049E+02  0.25204515150E+03  0.28674050372E+03  0.98805472310E+02 0.  0.
          5    1    1    2  502    0 -0.41076052123E+02 -0.20164867190E+02  0.10687892289E+03  0.11635745823E+03  0.47000000000E+01 0. -1.
         -5    1    1    2    0  502 -0.19794080557E+02  0.92453619239E+02  0.57574344791E+02  0.11079879292E+03  0.47000000000E+01 0. -1.
        -11    1    3    3    0    0 -0.33089109757E+01 -0.71458105027E+02  0.11542516662E+03  0.13579461975E+03  0.00000000000E+00 0.  1.
         11    1    3    3    0    0  0.64179043656E+02 -0.83064702204E+00  0.13661998488E+03  0.15094588397E+03  0.00000000000E+00 0. -1.
<mgrwt>
<rscale>  0 0.15144814E+03</rscale>
<asrwt>0</asrwt>
<pdfrwt beam="1">  1        2 0.71568857E-01 0.15670062E+03</pdfrwt>
<pdfrwt beam="2">  1       -2 0.74921800E-02 0.15670062E+03</pdfrwt>
<totfact> 0.68354834E+03</totfact>
</mgrwt>
</event>
<event>
 7    1  0.1378058E-005  0.1277465E+03  0.7546771E-02  0.1245753E+00
         -2   -1    0    0    0  501 -0.00000000000E+00  0.00000000000E+00  0.40808399790E+02  0.40808399790E+02  0.00000000000E+00 0.  1.
          2   -1    0    0  501    0  0.00000000000E+00 -0.00000000000E+00 -0.30221834334E+03  0.30221834334E+03  0.00000000000E+00 0. -1.
         23    2    1    2    0    0  0.26349636295E+02 -0.60678543088E+00 -0.10643102801E+03  0.14218446516E+03  0.90521748145E+02 0.  0.
          5    1    1    2  502    0 -0.18068957866E+00  0.50479524077E+02 -0.12906884169E+03  0.13866892549E+03  0.47000000000E+01 0.  1.
         -5    1    1    2    0  502 -0.26168946716E+02 -0.49872738646E+02 -0.25910073839E+02  0.62173352480E+02  0.47000000000E+01 0.  1.
        -11    1    3    3    0    0  0.14959227593E+02 -0.45495773798E+02 -0.56982003325E+02  0.74435157194E+02  0.00000000000E+00 0.  1.
         11    1    3    3    0    0  0.11390408702E+02  0.44888988367E+02 -0.49449024690E+02  0.67749307966E+02  0.00000000000E+00 0. -1.
<mgrwt>
<rscale>  0 0.11840428E+03</rscale>
<asrwt>0</asrwt>
<pdfrwt beam="2">  1        2 0.46495131E-01 0.12774645E+03</pdfrwt>
<pdfrwt beam="1">  1       -2 0.62782152E-02 0.12774645E+03</pdfrwt>
<totfact> 0.14003613E+04</totfact>
</mgrwt>
</event>
<event>
 7    1  0.1378058E-005  0.2050480E+03  0.7546771E-02  0.1150183E+00
          2   -1    0    0  501    0  0.00000000000E+00  0.00000000000E+00  0.16331695401E+03  0.16331695401E+03  0.00000000000E+00 0. -1.
         -2   -1    0    0    0  501 -0.00000000000E+00 -0.00000000000E+00 -0.26562018715E+03  0.26562018715E+03  0.00000000000E+00 0.  1.
         23    2    1    2    0    0 -0.16069694661E+03 -0.24610655838E+02  0.28316761576E+02  0.18581931787E+03  0.85427085150E+02 0.  0.
          5    1    1    2  502    0  0.28083659909E+02 -0.46442839044E+02 -0.37071512163E+02  0.65893977467E+02  0.47000000000E+01 0.  1.
         -5    1    1    2    0  502  0.13261328670E+03  0.71053494881E+02 -0.93548482550E+02  0.17722384583E+03  0.47000000000E+01 0.  1.
        -11    1    3    3    0    0 -0.12130714333E+02  0.24311694418E+02  0.24411436643E+01  0.27279514257E+02  0.00000000000E+00 0.  1.
         11    1    3    3    0    0 -0.14856623227E+03 -0.48922350256E+02  0.25875617911E+02  0.15853980361E+03  0.00000000000E+00 0. -1.
<mgrwt>
<rscale>  0 0.19947518E+03</rscale>
<asrwt>0</asrwt>
<pdfrwt beam="1">  1        2 0.25125686E-01 0.20504803E+03</pdfrwt>
<pdfrwt beam="2">  1       -2 0.40864644E-01 0.20504803E+03</pdfrwt>
<totfact> 0.12145357E+03</totfact>
</mgrwt>
</event>
<event>
 7    1  0.1378058E-005  0.1580909E+03  0.7546771E-02  0.1200351E+00
          1   -1    0    0  501    0  0.00000000000E+00  0.00000000000E+00  0.29606427602E+03  0.29606427602E+03  0.00000000000E+00 0. -1.
         -1   -1    0    0    0  501 -0.00000000000E+00 -0.00000000000E+00 -0.98660791659E+02  0.98660791659E+02  0.00000000000E+00 0.  1.
         23    2    1    2    0    0  0.96383439093E+02 -0.88599667968E+01  0.19871934076E+03  0.23662870073E+03  0.84471884504E+02 0.  0.
          5    1    1    2  502    0 -0.10263936023E+03 -0.19375902123E+02  0.36063055689E+02  0.11060243143E+03  0.47000000000E+01 0. -1.
         -5    1    1    2    0  502  0.62559211373E+01  0.28235868919E+02 -0.37378912090E+02  0.47493935528E+02  0.47000000000E+01 0. -1.
        -11    1    3    3    0    0  0.14291231269E+02  0.17087405868E+02  0.25792998176E+01  0.22424796945E+02  0.00000000000E+00 0.  1.
         11    1    3    3    0    0  0.82092207824E+02 -0.25947372664E+02  0.19614004095E+03  0.21420390378E+03  0.00000000000E+00 0. -1.
<mgrwt>
<rscale>  0 0.15009908E+03</rscale>
<asrwt>0</asrwt>
<pdfrwt beam="1">  1        1 0.45548350E-01 0.15809089E+03</pdfrwt>
<pdfrwt beam="2">  1       -1 0.15178583E-01 0.15809089E+03</pdfrwt>
<totfact> 0.27464163E+03</totfact>
</mgrwt>
</event>
<event>
 7    1  0.1378058E-005  0.2158134E+03  0.7546771E-02  0.1140581E+00
         -1   -1    0    0    0  501 -0.00000000000E+00  0.00000000000E+00  0.64263982318E+02  0.64263982318E+02  0.00000000000E+00 0.  1.
          1   -1    0    0  501    0  0.00000000000E+00 -0.00000000000E+00 -0.66656483155E+03  0.66656483155E+03  0.00000000000E+00 0. -1.
         23    2    1    2    0    0  0.17279634429E+03  0.33035615715E+02 -0.28828662305E+03  0.34980342957E+03  0.91122630590E+02 0.  0.
          5    1    1    2  502    0 -0.82196432071E+02  0.47025355507E+02 -0.13704409032E+03  0.16664576261E+03  0.47000000000E+01 0.  1.
         -5    1    1    2    0  502 -0.90599912214E+02 -0.80060971222E+02 -0.17697013587E+03  0.21437962169E+03  0.47000000000E+01 0.  1.
        -11    1    3    3    0    0  0.11486932758E+03 -0.21933531895E+02 -0.15112597238E+03  0.19108925079E+03  0.00000000000E+00 0. -1.
         11    1    3    3    0    0  0.57927016704E+02  0.54969147610E+02 -0.13716065067E+03  0.15871417878E+03  0.00000000000E+00 0.  1.
<mgrwt>
<rscale>  0 0.21124830E+03</rscale>
<asrwt>0</asrwt>
<pdfrwt beam="2">  1        1 0.10254844E+00 0.21581337E+03</pdfrwt>
<pdfrwt beam="1">  1       -1 0.98867656E-02 0.21581337E+03</pdfrwt>
<totfact> 0.18707135E+03</totfact>
</mgrwt>
</event>
<event>
 7    1  0.1378058E-005  0.1576186E+03  0.7546771E-02  0.1199362E+00
         -2   -1    0    0    0  501 -0.00000000000E+00  0.00000000000E+00  0.48085585974E+02  0.48085585974E+02  0.00000000000E+00 0.  1.
          2   -1    0    0  501    0  0.00000000000E+00 -0.00000000000E+00 -0.46707775390E+03  0.46707775390E+03  0.00000000000E+00 0. -1.
         23    2    1    2    0    0  0.92728299628E+02  0.24896752003E+02 -0.25713860278E+03  0.28924254013E+03  0.91228286009E+02 0.  0.
          5    1    1    2  502    0 -0.12226102362E+03 -0.78339196358E+01 -0.11795580689E+03  0.17013168598E+03  0.47000000000E+01 0.  1.
         -5    1    1    2    0  502  0.29532723997E+02 -0.17062832368E+02 -0.43897758246E+02  0.55789113759E+02  0.47000000000E+01 0.  1.
        -11    1    3    3    0    0  0.44704947287E+02  0.45473396025E+02 -0.68868083561E+02  0.93857205325E+02  0.00000000000E+00 0.  1.
         11    1    3    3    0    0  0.48023352341E+02 -0.20576644022E+02 -0.18827051922E+03  0.19538533481E+03  0.00000000000E+00 0. -1.
<mgrwt>
<rscale>  0 0.15090805E+03</rscale>
<asrwt>0</asrwt>
<pdfrwt beam="2">  1        2 0.71858117E-01 0.15761863E+03</pdfrwt>
<pdfrwt beam="1">  1       -2 0.73977823E-02 0.15761863E+03</pdfrwt>
<totfact> 0.69421783E+03</totfact>
</mgrwt>
</event>
<event>
 7    1  0.1378058E-005  0.1266013E+03  0.7546771E-02  0.1247243E+00
         -2   -1    0    0    0  501 -0.00000000000E+00  0.00000000000E+00  0.30139435897E+03  0.30139435897E+03  0.00000000000E+00 0.  1.
          2   -1    0    0  501    0  0.00000000000E+00 -0.00000000000E+00 -0.75769513775E+02  0.75769513775E+02  0.00000000000E+00 0. -1.
         23    2    1    2    0    0 -0.60742345034E+01  0.19074209653E+02 -0.24219487289E+02  0.97074460778E+02  0.91848492487E+02 0.  0.
          5    1    1    2  502    0  0.54684768241E+01 -0.72049866691E+02  0.12633849908E+03  0.14561797238E+03  0.47000000000E+01 0. -1.
         -5    1    1    2    0  502  0.60575767935E+00  0.52975657039E+02  0.12350583340E+03  0.13447143959E+03  0.47000000000E+01 0. -1.
        -11    1    3    3    0    0 -0.27530265865E+02  0.33843393702E+02 -0.45796619997E+02  0.63250464338E+02  0.00000000000E+00 0. -1.
         11    1    3    3    0    0  0.21456031361E+02 -0.14769184050E+02  0.21577132708E+02  0.33823996440E+02  0.00000000000E+00 0.  1.
<mgrwt>
<rscale>  0 0.11752112E+03</rscale>
<asrwt>0</asrwt>
<pdfrwt beam="2">  1        2 0.11656848E-01 0.12660130E+03</pdfrwt>
<pdfrwt beam="1">  1       -2 0.46368362E-01 0.12660130E+03</pdfrwt>
<totfact> 0.22734245E+03</totfact>
</mgrwt>
</event>
<event>
 7    1  0.1378058E-005  0.1282530E+03  0.7546771E-02  0.1245647E+00
         -2   -1    0    0    0  501 -0.00000000000E+00  0.00000000000E+00  0.40308042000E+03  0.40308042000E+03  0.00000000000E+00 0.  1.
          2   -1    0    0  501    0  0.00000000000E+00 -0.00000000000E+00 -0.31091502225E+02  0.31091502225E+02  0.00000000000E+00 0. -1.
         23    2    1    2    0    0 -0.28655632385E+02  0.16952378061E+01  0.12681440131E+03  0.15747825229E+03  0.88845306379E+02 0.  0.
          5    1    1    2  502    0  0.50646912141E+02 -0.17843142572E+02  0.34040147838E+02  0.63751934175E+02  0.47000000000E+01 0. -1.
         -5    1    1    2    0  502 -0.21991279756E+02  0.16147904766E+02  0.21113436863E+03  0.21294173576E+03  0.47000000000E+01 0. -1.
        -11    1    3    3    0    0 -0.57702037142E+02 -0.89577071726E+01  0.10313416206E+03  0.11851759781E+03  0.00000000000E+00 0. -1.
         11    1    3    3    0    0  0.29046404758E+02  0.10652944979E+02  0.23680239254E+02  0.38960654476E+02  0.00000000000E+00 0.  1.
<mgrwt>
<rscale>  0 0.11846766E+03</rscale>
<asrwt>0</asrwt>
<pdfrwt beam="2">  1        2 0.47833083E-02 0.12825304E+03</pdfrwt>
<pdfrwt beam="1">  1       -2 0.62012368E-01 0.12825304E+03</pdfrwt>
<totfact> 0.39003358E+03</totfact>
</mgrwt>
</event>
<event>
 7    1  0.1378058E-005  0.1576263E+03  0.7546771E-02  0.1205970E+00
         -1   -1    0    0    0  501 -0.00000000000E+00  0.00000000000E+00  0.37228953641E+03  0.37228953641E+03  0.00000000000E+00 0.  1.
          1   -1    0    0  501    0  0.00000000000E+00 -0.00000000000E+00 -0.41779265136E+03  0.41779265136E+03  0.00000000000E+00 0. -1.
         23    2    1    2    0    0 -0.55146067055E+02 -0.40387204870E+02 -0.39251044679E+03  0.40895211542E+03  0.92223461412E+02 0.  0.
          5    1    1    2  502    0 -0.10196169887E+02 -0.11355447008E+02 -0.69835176475E+01  0.17428929280E+02  0.47000000000E+01 0. -1.
         -5    1    1    2    0  502  0.65342236942E+02  0.51742651877E+02  0.35399084949E+03  0.36370114308E+03  0.47000000000E+01 0.  1.
        -11    1    3    3    0    0 -0.63153464141E+02  0.64323276396E+01 -0.17091324288E+03  0.18232134122E+03  0.00000000000E+00 0.  1.
         11    1    3    3    0    0  0.80073970862E+01 -0.46819532510E+02 -0.22159720392E+03  0.22663077420E+03  0.00000000000E+00 0. -1.
<mgrwt>
<rscale>  0 0.14561299E+03</rscale>
<asrwt>0</asrwt>
<pdfrwt beam="2">  1        1 0.64275793E-01 0.15762628E+03</pdfrwt>
<pdfrwt beam="1">  1       -1 0.57275313E-01 0.15762628E+03</pdfrwt>
<totfact> 0.18697989E+02</totfact>
</mgrwt>
</event>
<event>
 7    1  0.2036805E-005  0.2347879E+03  0.7546771E-02  0.1126341E+00
         -2   -1    0    0    0  501 -0.00000000000E+00  0.00000000000E+00  0.25886800435E+02  0.25886800435E+02  0.00000000000E+00 0.  1.
          2   -1    0    0  501    0  0.00000000000E+00 -0.00000000000E+00 -0.20064961594E+04  0.20064961594E+04  0.00000000000E+00 0. -1.
         23    2    1    2    0    0  0.19805623702E+03 -0.16501255583E+02 -0.83336672083E+03  0.86136159919E+03  0.89135563735E+02 0.  0.
          5    1    1    2  502    0 -0.20643857366E+03 -0.80517060520E+01 -0.10567527342E+04  0.10767683809E+04  0.47000000000E+01 0.  1.
         -5    1    1    2    0  502  0.83823366397E+01  0.24552961635E+02 -0.90489903871E+02  0.94252979768E+02  0.47000000000E+01 0.  1.
        -11    1    3    3    0    0  0.48445739962E+02 -0.36403105735E+02 -0.34236279077E+03  0.34768442061E+03  0.00000000000E+00 0. -1.
         11    1    3    3    0    0  0.14961049706E+03  0.19901850152E+02 -0.49100393006E+03  0.51367717859E+03  0.00000000000E+00 0.  1.
<mgrwt>
<rscale>  0 0.23042474E+03</rscale>
<asrwt>0</asrwt>
<pdfrwt beam="2">  1        2 0.30869166E+00 0.23478790E+03</pdfrwt>
<pdfrwt beam="1">  1       -2 0.39825854E-02 0.23478790E+03</pdfrwt>
<totfact> 0.20430655E+03</totfact>
</mgrwt>
</event>
<event>
 7    1  0.1378058E-005  0.1357074E+03  0.7546771E-02  0.1232380E+00
          1   -1    0    0  501    0  0.00000000000E+00  0.00000000000E+00  0.65880002921E+03  0.65880002921E+03  0.00000000000E+00 0. -1.
         -1   -1    0    0    0  501 -0.00000000000E+00 -0.00000000000E+00 -0.21976770678E+02  0.21976770678E+02  0.00000000000E+00 0.  1.
         23    2    1    2    0    0  0.89731929191E+00 -0.52827484025E+02  0.31594640881E+03  0.33238269282E+03  0.88682427776E+02 0.  0.
          5    1    1    2  502    0  0.36566930486E+02  0.58960164147E+02  0.86835080186E+02  0.11124685394E+03  0.47000000000E+01 0. -1.
         -5    1    1    2    0  502 -0.37464249778E+02 -0.61326801215E+01  0.23404176954E+03  0.23714725313E+03  0.47000000000E+01 0. -1.
        -11    1    3    3    0    0 -0.94298173422E+01 -0.75946946994E+02  0.21180130677E+03  0.22520358292E+03  0.00000000000E+00 0.  1.
         11    1    3    3    0    0  0.10327136634E+02  0.23119462968E+02  0.10414510204E+03  0.10717910990E+03  0.00000000000E+00 0. -1.
<mgrwt>
<rscale>  0 0.12673675E+03</rscale>
<asrwt>0</asrwt>
<pdfrwt beam="1">  1        1 0.10135384E+00 0.13570741E+03</pdfrwt>
<pdfrwt beam="2">  1       -1 0.33810421E-02 0.13570741E+03</pdfrwt>
<totfact> 0.93198199E+03</totfact>
</mgrwt>
</event>
<event>
 7    1  0.1378058E-005  0.1250579E+03  0.7546771E-02  0.1250224E+00
          1   -1    0    0  501    0  0.00000000000E+00  0.00000000000E+00  0.24791865857E+03  0.24791865857E+03  0.00000000000E+00 0. -1.
         -1   -1    0    0    0  501 -0.00000000000E+00 -0.00000000000E+00 -0.49785217230E+02  0.49785217230E+02  0.00000000000E+00 0.  1.
         23    2    1    2    0    0  0.84912196231E+00 -0.37518344980E+01  0.11645478709E+03  0.14833557350E+03  0.91798298778E+02 0.  0.
          5    1    1    2  502    0 -0.54836571181E+02 -0.56473037764E+01  0.76098648318E+02  0.94085258435E+02  0.47000000000E+01 0. -1.
         -5    1    1    2    0  502  0.53987449219E+02  0.93991382743E+01  0.55800059361E+01  0.55283043871E+02  0.47000000000E+01 0. -1.
        -11    1    3    3    0    0  0.53353218714E+01 -0.47467962564E+02  0.65100924861E+02  0.80745300465E+02  0.00000000000E+00 0. -1.
         11    1    3    3    0    0 -0.44861999091E+01  0.43716128066E+02  0.51353862227E+02  0.67590273031E+02  0.00000000000E+00 0.  1.
<mgrwt>
<rscale>  0 0.11578101E+03</rscale>
<asrwt>0</asrwt>
<pdfrwt beam="1">  1        1 0.38141331E-01 0.12505794E+03</pdfrwt>
<pdfrwt beam="2">  1       -1 0.76592643E-02 0.12505794E+03</pdfrwt>
<totfact> 0.96449641E+03</totfact>
</mgrwt>
</event>
<event>
 7    1  0.1378058E-005  0.1290587E+03  0.7546771E-02  0.1243036E+00
          2   -1    0    0  501    0  0.00000000000E+00  0.00000000000E+00  0.29257198940E+02  0.29257198940E+02  0.00000000000E+00 0. -1.
         -2   -1    0    0    0  501 -0.00000000000E+00 -0.00000000000E+00 -0.43533987598E+03  0.43533987598E+03  0.00000000000E+00 0.  1.
         23    2    1    2    0    0 -0.36855717024E+01  0.31902565329E+02 -0.16792672994E+03  0.19371996458E+03  0.91086118233E+02 0.  0.
          5    1    1    2  502    0  0.18128063532E+02  0.18157276155E+01 -0.23274266462E+03  0.23350195179E+03  0.47000000000E+01 0. -1.
         -5    1    1    2    0  502 -0.14442491830E+02 -0.33718292945E+02 -0.54132824750E+01  0.37375158548E+02  0.47000000000E+01 0. -1.
        -11    1    3    3    0    0  0.32976574813E+02  0.50524079039E+01 -0.19834095965E+02  0.38812017144E+02  0.00000000000E+00 0. -1.
         11    1    3    3    0    0 -0.36662146515E+02  0.26850157425E+02 -0.14809263397E+03  0.15490794743E+03  0.00000000000E+00 0.  1.
<mgrwt>
<rscale>  0 0.12003677E+03</rscale>
<asrwt>0</asrwt>
<pdfrwt beam="1">  1        2 0.45011076E-02 0.12905872E+03</pdfrwt>
<pdfrwt beam="2">  1       -2 0.66975364E-01 0.12905872E+03</pdfrwt>
<totfact> 0.35994664E+03</totfact>
</mgrwt>
</event>
<event>
 7    1  0.1378058E-005  0.1256439E+03  0.7546771E-02  0.1249491E+00
         -1   -1    0    0    0  501 -0.00000000000E+00  0.00000000000E+00  0.25141389570E+03  0.25141389570E+03  0.00000000000E+00 0.  1.
          1   -1    0    0  501    0  0.00000000000E+00 -0.00000000000E+00 -0.48762725702E+02  0.48762725702E+02  0.00000000000E+00 0. -1.
         23    2    1    2    0    0 -0.12653835909E+02  0.23080642960E+01  0.58576174326E+02  0.10901179072E+03  0.91032717163E+02 0.  0.
          5    1    1    2  502    0  0.59646272312E+02  0.31410378041E+02  0.75093882723E+02  0.10102213060E+03  0.47000000000E+01 0.  1.
         -5    1    1    2    0  502 -0.46992436403E+02 -0.33718442337E+02  0.68981112949E+02  0.90142700073E+02  0.47000000000E+01 0.  1.
        -11    1    3    3    0    0 -0.51235424009E+01 -0.21160877864E+02 -0.18199366085E+02  0.28376933672E+02  0.00000000000E+00 0. -1.
         11    1    3    3    0    0 -0.75302935077E+01  0.23468942160E+02  0.76775540411E+02  0.80634857052E+02  0.00000000000E+00 0.  1.
<mgrwt>
<rscale>  0 0.11620600E+03</rscale>
<asrwt>0</asrwt>
<pdfrwt beam="2">  1        1 0.75019579E-02 0.12564389E+03</pdfrwt>
<pdfrwt beam="1">  1       -1 0.38679060E-01 0.12564389E+03</pdfrwt>
<totfact> 0.58834889E+03</totfact>
</mgrwt>
</event>
<event>
 7    1  0.2407955E-005  0.2376096E+03  0.7546771E-02  0.1124439E+00
         -1   -1    0    0    0  501 -0.00000000000E+00  0.00000000000E+00  0.68996697122E+02  0.68996697122E+02  0.00000000000E+00 0.  1.
          1   -1    0    0  501    0  0.00000000000E+00 -0.00000000000E+00 -0.76625466499E+03  0.76625466499E+03  0.00000000000E+00 0. -1.
         23    2    1    2    0    0  0.27092246695E+02  0.20024852764E+03 -0.37413290587E+03  0.43416764462E+03  0.87707751811E+02 0.  0.
          5    1    1    2  502    0 -0.17079316272E+02 -0.11992759444E+03 -0.81140700481E+02  0.14587746306E+03  0.47000000000E+01 0.  1.
         -5    1    1    2    0  502 -0.10012930423E+02 -0.80320933192E+02 -0.24198436152E+03  0.25520625444E+03  0.47000000000E+01 0.  1.
        -11    1    3    3    0    0 -0.18003251083E+02  0.12586919670E+03 -0.27032368803E+03  0.29873410927E+03  0.00000000000E+00 0. -1.
         11    1    3    3    0    0  0.45095497778E+02  0.74379330933E+02 -0.10380921784E+03  0.13543353535E+03  0.00000000000E+00 0.  1.
<mgrwt>
<rscale>  0 0.23315513E+03</rscale>
<asrwt>0</asrwt>
<pdfrwt beam="2">  1        1 0.11788533E+00 0.23760964E+03</pdfrwt>
<pdfrwt beam="1">  1       -1 0.10614877E-01 0.23760964E+03</pdfrwt>
<totfact> 0.13671525E+03</totfact>
</mgrwt>
</event>
<event>
 7    1  0.1378058E-005  0.1723199E+03  0.7546771E-02  0.1181554E+00
          2   -1    0    0  501    0  0.00000000000E+00  0.00000000000E+00  0.10436425492E+04  0.10436425492E+04  0.00000000000E+00 0. -1.
         -2   -1    0    0    0  501 -0.00000000000E+00 -0.00000000000E+00 -0.26202960295E+02  0.26202960295E+02  0.00000000000E+00 0.  1.
         23    2    1    2    0    0 -0.46705384577E+02 -0.10903294897E+03  0.35708345285E+03  0.38737619769E+03  0.92098584834E+02 0.  0.
          5    1    1    2  502    0  0.54040216194E+02  0.53072651665E+02  0.14180544882E+03  0.16083509143E+03  0.47000000000E+01 0. -1.
         -5    1    1    2    0  502 -0.73348316168E+01  0.55960297309E+02  0.51855068727E+03  0.52163422041E+03  0.47000000000E+01 0. -1.
        -11    1    3    3    0    0  0.88680489269E+01 -0.70615930994E+02  0.10837349924E+03  0.12965364375E+03  0.00000000000E+00 0.  1.
         11    1    3    3    0    0 -0.55573433504E+02 -0.38417017980E+02  0.24870995361E+03  0.25772255393E+03  0.00000000000E+00 0. -1.
<mgrwt>
<rscale>  0 0.16649415E+03</rscale>
<asrwt>0</asrwt>
<pdfrwt beam="1">  1        2 0.16056036E+00 0.17231986E+03</pdfrwt>
<pdfrwt beam="2">  1       -2 0.40312255E-02 0.17231986E+03</pdfrwt>
<totfact> 0.65870222E+03</totfact>
</mgrwt>
</event>
<event>
 7    1  0.1378058E-005  0.1659820E+03  0.7546771E-02  0.1189398E+00
          3   -1    0    0  501    0  0.00000000000E+00  0.00000000000E+00  0.29639874097E+03  0.29639874097E+03  0.00000000000E+00 0. -1.
         -3   -1    0    0    0  501 -0.00000000000E+00 -0.00000000000E+00 -0.79571786663E+02  0.79571786663E+02  0.00000000000E+00 0.  1.
         23    2    1    2    0    0  0.93913399381E+02  0.55694609994E+02  0.96078954592E+02  0.17071431571E+03  0.89390133169E+02 0.  0.
          5    1    1    2  502    0  0.16043958084E+01  0.58699213486E+01 -0.21671298606E+02  0.22994896082E+02  0.47000000000E+01 0. -1.
         -5    1    1    2    0  502 -0.95517795190E+02 -0.61564531342E+02  0.14241929832E+03  0.18226131584E+03  0.47000000000E+01 0. -1.
        -11    1    3    3    0    0 -0.41696909508E+01  0.28446992358E+02 -0.26896727659E+01  0.28876496263E+02  0.00000000000E+00 0. -1.
         11    1    3    3    0    0  0.98083090332E+02  0.27247617635E+02  0.98768627358E+02  0.14183781945E+03  0.00000000000E+00 0.  1.
<mgrwt>
<rscale>  0 0.15938070E+03</rscale>
<asrwt>0</asrwt>
<pdfrwt beam="1">  1        3 0.45599806E-01 0.16598203E+03</pdfrwt>
<pdfrwt beam="2">  1       -3 0.12241813E-01 0.16598203E+03</pdfrwt>
<totfact> 0.60136643E+02</totfact>
</mgrwt>
</event>
<event>
 7    1  0.1378058E-005  0.2519036E+03  0.7546771E-02  0.1114706E+00
         -2   -1    0    0    0  501 -0.00000000000E+00  0.00000000000E+00  0.12821337198E+03  0.12821337198E+03  0.00000000000E+00 0.  1.
          2   -1    0    0  501    0  0.00000000000E+00 -0.00000000000E+00 -0.73059836689E+03  0.73059836689E+03  0.00000000000E+00 0. -1.
         23    2    1    2    0    0 -0.21719134381E+03  0.25647804962E+02 -0.55424935657E+03  0.60235036006E+03  0.88338651097E+02 0.  0.
          5    1    1    2  502    0  0.16343765765E+02 -0.44856799464E+02  0.36301837053E+01  0.48109451995E+02  0.47000000000E+01 0. -1.
         -5    1    1    2    0  502  0.20084757804E+03  0.19208994502E+02 -0.51765822038E+02  0.20835192681E+03  0.47000000000E+01 0. -1.
        -11    1    3    3    0    0 -0.46045682028E+02  0.11326099274E+01 -0.44365390766E+02  0.63951352890E+02  0.00000000000E+00 0.  1.
         11    1    3    3    0    0 -0.17114566178E+03  0.24515195034E+02 -0.50988396581E+03  0.53839900717E+03  0.00000000000E+00 0. -1.
<mgrwt>
<rscale>  0 0.24779519E+03</rscale>
<asrwt>0</asrwt>
<pdfrwt beam="2">  1        2 0.11239975E+00 0.25190355E+03</pdfrwt>
<pdfrwt beam="1">  1       -2 0.19725134E-01 0.25190355E+03</pdfrwt>
<totfact> 0.85910221E+02</totfact>
</mgrwt>
</event>
<event>
 7    1  0.1378058E-005  0.1301367E+03  0.7546771E-02  0.1240935E+00
          1   -1    0    0  501    0  0.00000000000E+00  0.00000000000E+00  0.69756279416E+02  0.69756279416E+02  0.00000000000E+00 0. -1.
         -1   -1    0    0    0  501 -0.00000000000E+00 -0.00000000000E+00 -0.18747960839E+03  0.18747960839E+03  0.00000000000E+00 0.  1.
         23    2    1    2    0    0  0.11671451049E+02 -0.34247456426E+02 -0.44318718657E+02  0.10782436572E+03  0.91393839938E+02 0.  0.
          5    1    1    2  502    0 -0.19408537875E+02  0.32236077869E+02  0.28280338404E+02  0.47304583278E+02  0.47000000000E+01 0. -1.
         -5    1    1    2    0  502  0.77370868257E+01  0.20113785564E+01 -0.10168494872E+03  0.10210693881E+03  0.47000000000E+01 0. -1.
        -11    1    3    3    0    0 -0.71473571643E+01 -0.31354747577E+02  0.21909819881E+02  0.38913302575E+02  0.00000000000E+00 0. -1.
         11    1    3    3    0    0  0.18818808213E+02 -0.28927088493E+01 -0.66228538539E+02  0.68911063147E+02  0.00000000000E+00 0.  1.
<mgrwt>
<rscale>  0 0.12132016E+03</rscale>
<asrwt>0</asrwt>
<pdfrwt beam="1">  1        1 0.10731735E-01 0.13013672E+03</pdfrwt>
<pdfrwt beam="2">  1       -1 0.28843017E-01 0.13013672E+03</pdfrwt>
<totfact> 0.60365634E+03</totfact>
</mgrwt>
</event>
<event>
 7    1  0.1378058E-005  0.1399348E+03  0.7546771E-02  0.1219053E+00
         -1   -1    0    0    0  501 -0.00000000000E+00  0.00000000000E+00  0.34988066944E+03  0.34988066944E+03  0.00000000000E+00 0.  1.
          1   -1    0    0  501    0  0.00000000000E+00 -0.00000000000E+00 -0.49859732503E+02  0.49859732503E+02  0.00000000000E+00 0. -1.
         23    2    1    2    0    0  0.67406023847E+02 -0.46986604721E+02  0.14132651607E+03  0.18816140072E+03  0.93167674124E+02 0.  0.
          5    1    1    2  502    0  0.31672821041E+02  0.68312580735E+01  0.41891976205E+02  0.53168236287E+02  0.47000000000E+01 0. -1.
         -5    1    1    2    0  502 -0.99078844888E+02  0.40155346648E+02  0.11680244466E+03  0.15841076494E+03  0.47000000000E+01 0.  1.
        -11    1    3    3    0    0  0.35150760077E+02 -0.44392709491E+02  0.14493303660E+03  0.15560165066E+03  0.00000000000E+00 0.  1.
         11    1    3    3    0    0  0.32255263770E+02 -0.25938952297E+01 -0.36065205329E+01  0.32559750056E+02  0.00000000000E+00 0. -1.
<mgrwt>
<rscale>  0 0.13582993E+03</rscale>
<asrwt>0</asrwt>
<pdfrwt beam="2">  1        1 0.76707283E-02 0.13993482E+03</pdfrwt>
<pdfrwt beam="1">  1       -1 0.53827794E-01 0.13993482E+03</pdfrwt>
<totfact> 0.31778460E+03</totfact>
</mgrwt>
</event>
<event>
 7    1  0.1378058E-005  0.1640413E+03  0.7546771E-02  0.1192584E+00
         -1   -1    0    0    0  501 -0.00000000000E+00  0.00000000000E+00  0.10225761731E+03  0.10225761731E+03  0.00000000000E+00 0.  1.
          1   -1    0    0  501    0  0.00000000000E+00 -0.00000000000E+00 -0.22163374410E+03  0.22163374410E+03  0.00000000000E+00 0. -1.
         23    2    1    2    0    0  0.77671503278E+02 -0.63775813206E+02 -0.42519045864E+02  0.14273795200E+03  0.92011069491E+02 0.  0.
          5    1    1    2  502    0 -0.13122492292E+02  0.91855620436E+02 -0.51220587022E+02  0.10609096731E+03  0.47000000000E+01 0. -1.
         -5    1    1    2    0  502 -0.64549010986E+02 -0.28079807230E+02 -0.25636493902E+02  0.75062442092E+02  0.47000000000E+01 0.  1.
        -11    1    3    3    0    0  0.51325094765E+02 -0.84093548999E+02 -0.15192472545E+02  0.99683506950E+02  0.00000000000E+00 0.  1.
         11    1    3    3    0    0  0.26346408513E+02  0.20317735793E+02 -0.27326573320E+02  0.43054445051E+02  0.00000000000E+00 0. -1.
<mgrwt>
<rscale>  0 0.15660493E+03</rscale>
<asrwt>0</asrwt>
<pdfrwt beam="2">  1        1 0.34097499E-01 0.16404130E+03</pdfrwt>
<pdfrwt beam="1">  1       -1 0.15731941E-01 0.16404130E+03</pdfrwt>
<totfact> 0.37262327E+03</totfact>
</mgrwt>
</event>
<event>
 7    1  0.1378058E-005  0.1381295E+03  0.7546771E-02  0.1228152E+00
         -4   -1    0    0    0  501 -0.00000000000E+00  0.00000000000E+00  0.48015164723E+02  0.48015164723E+02  0.00000000000E+00 0.  1.
          4   -1    0    0  501    0  0.00000000000E+00 -0.00000000000E+00 -0.37365918041E+03  0.37365918041E+03  0.00000000000E+00 0. -1.
         23    2    1    2    0    0  0.47383819056E+02  0.34761077858E+02 -0.23020582279E+03  0.25378087880E+03  0.89198961630E+02 0.  0.
          5    1    1    2  502    0  0.40053447864E+02  0.63528082986E+01 -0.21525363149E+02  0.46152661004E+02  0.47000000000E+01 0. -1.
         -5    1    1    2    0  502 -0.87437266920E+02 -0.41113886157E+02 -0.73912829750E+02  0.12174080533E+03  0.47000000000E+01 0. -1.
        -11    1    3    3    0    0  0.32543476078E+01  0.39536072949E+02 -0.32880703719E+02  0.51525066906E+02  0.00000000000E+00 0.  1.
         11    1    3    3    0    0  0.44129471448E+02 -0.47749950913E+01 -0.19732511907E+03  0.20225581190E+03  0.00000000000E+00 0. -1.
<mgrwt>
<rscale>  0 0.12953158E+03</rscale>
<asrwt>0</asrwt>
<pdfrwt beam="2">  1        4 0.57486027E-01 0.13812953E+03</pdfrwt>
<pdfrwt beam="1">  1       -4 0.73869485E-02 0.13812953E+03</pdfrwt>
<totfact> 0.60896516E+02</totfact>
</mgrwt>
</event>
<event>
 7    1  0.1378058E-005  0.1405389E+03  0.7546771E-02  0.1223083E+00
          1   -1    0    0  501    0  0.00000000000E+00  0.00000000000E+00  0.38826325572E+03  0.38826325572E+03  0.00000000000E+00 0. -1.
         -1   -1    0    0    0  501 -0.00000000000E+00 -0.00000000000E+00 -0.44752495657E+02  0.44752495657E+02  0.00000000000E+00 0.  1.
         23    2    1    2    0    0  0.73995377652E+01  0.63803237662E+02  0.94456120491E+02  0.14704476161E+03  0.92599119461E+02 0.  0.
          5    1    1    2  502    0  0.49557124472E+02 -0.21398604148E+02  0.46921484630E+02  0.71676527297E+02  0.47000000000E+01 0. -1.
         -5    1    1    2    0  502 -0.56956662237E+02 -0.42404633513E+02  0.20213315494E+03  0.21429446246E+03  0.47000000000E+01 0. -1.
        -11    1    3    3    0    0  0.20289571577E+00  0.41179009193E+02 -0.79351719306E+01  0.41937082855E+02  0.00000000000E+00 0.  1.
         11    1    3    3    0    0  0.71966420494E+01  0.22624228469E+02  0.10239129242E+03  0.10510767876E+03  0.00000000000E+00 0. -1.
<mgrwt>
<rscale>  0 0.13299149E+03</rscale>
<asrwt>0</asrwt>
<pdfrwt beam="1">  1        1 0.59732806E-01 0.14053894E+03</pdfrwt>
<pdfrwt beam="2">  1       -1 0.68849996E-02 0.14053894E+03</pdfrwt>
<totfact> 0.65397244E+03</totfact>
</mgrwt>
</event>
<event>
 7    1  0.1378058E-005  0.2774053E+03  0.7546771E-02  0.1098992E+00
         -2   -1    0    0    0  501 -0.00000000000E+00  0.00000000000E+00  0.15497161534E+03  0.15497161534E+03  0.00000000000E+00 0.  1.
          2   -1    0    0  501    0  0.00000000000E+00 -0.00000000000E+00 -0.61845188440E+03  0.61845188440E+03  0.00000000000E+00 0. -1.
         23    2    1    2    0    0 -0.23618983783E+03  0.74458234416E+02 -0.41480584334E+03  0.49178025165E+03  0.91947050356E+02 0.  0.
          5    1    1    2  502    0  0.22074100546E+03 -0.24025141224E+02 -0.53565708906E+02  0.22846263168E+03  0.47000000000E+01 0. -1.
         -5    1    1    2    0  502  0.15448832367E+02 -0.50433093192E+02  0.48912831871E+01  0.53180616409E+02  0.47000000000E+01 0. -1.
        -11    1    3    3    0    0 -0.18211982921E+02  0.38397636897E+02 -0.81143509640E+02  0.91598711769E+02  0.00000000000E+00 0.  1.
         11    1    3    3    0    0 -0.21797785491E+03  0.36060597520E+02 -0.33366233370E+03  0.40018153988E+03  0.00000000000E+00 0. -1.
<mgrwt>
<rscale>  0 0.27403468E+03</rscale>
<asrwt>0</asrwt>
<pdfrwt beam="2">  1        2 0.95146444E-01 0.27740533E+03</pdfrwt>
<pdfrwt beam="1">  1       -2 0.23841787E-01 0.27740533E+03</pdfrwt>
<totfact> 0.75534968E+02</totfact>
</mgrwt>
</event>
<event>
 7    1  0.1378058E-005  0.1397416E+03  0.7546771E-02  0.1224984E+00
          4   -1    0    0  501    0  0.00000000000E+00  0.00000000000E+00  0.48390341728E+02  0.48390341728E+02  0.00000000000E+00 0. -1.
         -4   -1    0    0    0  501 -0.00000000000E+00 -0.00000000000E+00 -0.32305506304E+03  0.32305506304E+03  0.00000000000E+00 0.  1.
         23    2    1    2    0    0  0.58880992276E+02  0.20836508598E+02 -0.12729095872E+03  0.16835247893E+03  0.90765839646E+02 0.  0.
          5    1    1    2  502    0  0.68820337413E+01 -0.28976615544E+02  0.10407553875E+02  0.31896924844E+02  0.47000000000E+01 0.  1.
         -5    1    1    2    0  502 -0.65763026017E+02  0.81401069459E+01 -0.15778131647E+03  0.17119600100E+03  0.47000000000E+01 0.  1.
        -11    1    3    3    0    0  0.75138292021E+02  0.14838915653E+02 -0.12993072721E+03  0.15082423618E+03  0.00000000000E+00 0.  1.
         11    1    3    3    0    0 -0.16257299746E+02  0.59975929455E+01  0.26397684884E+01  0.17528242748E+02  0.00000000000E+00 0. -1.
<mgrwt>
<rscale>  0 0.13167995E+03</rscale>
<asrwt>0</asrwt>
<pdfrwt beam="1">  1        4 0.74446681E-02 0.13974159E+03</pdfrwt>
<pdfrwt beam="2">  1       -4 0.49700778E-01 0.13974159E+03</pdfrwt>
<totfact> 0.81327514E+02</totfact>
</mgrwt>
</event>
<event>
 7    1  0.1378058E-005  0.3649234E+03  0.7546771E-02  0.1057665E+00
          1   -1    0    0  501    0  0.00000000000E+00  0.00000000000E+00  0.12918059038E+04  0.12918059038E+04  0.00000000000E+00 0. -1.
         -1   -1    0    0    0  501 -0.00000000000E+00 -0.00000000000E+00 -0.11888478922E+03  0.11888478922E+03  0.00000000000E+00 0.  1.
         23    2    1    2    0    0  0.33753605347E+03  0.60086464241E+02  0.85895150444E+03  0.92929065614E+03  0.90788028057E+02 0.  0.
          5    1    1    2  502    0  0.53066117147E+01 -0.11589487411E+02 -0.55342622402E+00  0.13596787375E+02  0.47000000000E+01 0. -1.
         -5    1    1    2    0  502 -0.34284266519E+03 -0.48496976830E+02  0.31452303635E+03  0.46780324949E+03  0.47000000000E+01 0.  1.
        -11    1    3    3    0    0  0.15498343588E+03  0.60423252568E+02  0.49349033115E+03  0.52077206318E+03  0.00000000000E+00 0. -1.
         11    1    3    3    0    0  0.18255261759E+03 -0.33678832781E+00  0.36546117328E+03  0.40851859296E+03  0.00000000000E+00 0.  1.
<mgrwt>
<rscale>  0 0.36232993E+03</rscale>
<asrwt>0</asrwt>
<pdfrwt beam="1">  1        1 0.19873936E+00 0.36492339E+03</pdfrwt>
<pdfrwt beam="2">  1       -1 0.18289968E-01 0.36492339E+03</pdfrwt>
<totfact> 0.22905576E+02</totfact>
</mgrwt>
</event>
<event>
 7    1  0.1378058E-005  0.1334760E+03  0.7546771E-02  0.1235582E+00
          1   -1    0    0  501    0  0.00000000000E+00  0.00000000000E+00  0.95471985268E+02  0.95471985268E+02  0.00000000000E+00 0. -1.
         -1   -1    0    0    0  501 -0.00000000000E+00 -0.00000000000E+00 -0.15308369310E+03  0.15308369310E+03  0.00000000000E+00 0.  1.
         23    2    1    2    0    0 -0.45464247127E+02  0.11169891423E+02  0.37178457628E+01  0.10166402616E+03  0.90166443846E+02 0.  0.
          5    1    1    2  502    0  0.74201232708E+02 -0.46491355433E+02 -0.41157945672E+02  0.96867618724E+02  0.47000000000E+01 0. -1.
         -5    1    1    2    0  502 -0.28736985581E+02  0.35321464010E+02 -0.20171607920E+02  0.50024033486E+02  0.47000000000E+01 0. -1.
        -11    1    3    3    0    0  0.26714539094E+02  0.41071504115E+01 -0.80280851255E+01  0.28195486063E+02  0.00000000000E+00 0.  1.
         11    1    3    3    0    0 -0.72178786221E+02  0.70627410111E+01  0.11745930888E+02  0.73468540093E+02  0.00000000000E+00 0. -1.
<mgrwt>
<rscale>  0 0.12467276E+03</rscale>
<asrwt>0</asrwt>
<pdfrwt beam="1">  1        1 0.14687998E-01 0.13347600E+03</pdfrwt>
<pdfrwt beam="2">  1       -1 0.23551337E-01 0.13347600E+03</pdfrwt>
<totfact> 0.56052213E+03</totfact>
</mgrwt>
</event>
<event>
 7    1  0.1378058E-005  0.1445333E+03  0.7546771E-02  0.1216692E+00
         -1   -1    0    0    0  501 -0.00000000000E+00  0.00000000000E+00  0.24645449109E+03  0.24645449109E+03  0.00000000000E+00 0.  1.
          1   -1    0    0  501    0  0.00000000000E+00 -0.00000000000E+00 -0.72890431702E+02  0.72890431702E+02  0.00000000000E+00 0. -1.
         23    2    1    2    0    0  0.72552160870E+02  0.16573747154E+01  0.47849926876E+02  0.12778834851E+03  0.93667943154E+02 0.  0.
          5    1    1    2  502    0 -0.49075279269E+02  0.34743771437E+02  0.19463739528E+01  0.60343939717E+02  0.47000000000E+01 0.  1.
         -5    1    1    2    0  502 -0.23476881601E+02 -0.36401146153E+02  0.12376775856E+03  0.13121263457E+03  0.47000000000E+01 0.  1.
        -11    1    3    3    0    0  0.59154156910E+02 -0.30342491739E+02 -0.26333208224E+01  0.66534317936E+02  0.00000000000E+00 0. -1.
         11    1    3    3    0    0  0.13398003960E+02  0.31999866454E+02  0.50483247698E+02  0.61254030572E+02  0.00000000000E+00 0.  1.
<mgrwt>
<rscale>  0 0.13753011E+03</rscale>
<asrwt>0</asrwt>
<pdfrwt beam="2">  1        1 0.11213913E-01 0.14453331E+03</pdfrwt>
<pdfrwt beam="1">  1       -1 0.37916075E-01 0.14453331E+03</pdfrwt>
<totfact> 0.35988158E+03</totfact>
</mgrwt>
</event>
<event>
 7    1  0.1378058E-005  0.2225860E+03  0.7546771E-02  0.1131970E+00
          2   -1    0    0  501    0  0.00000000000E+00  0.00000000000E+00  0.47060105089E+03  0.47060105089E+03  0.00000000000E+00 0. -1.
         -2   -1    0    0    0  501 -0.00000000000E+00 -0.00000000000E+00 -0.26319813976E+02  0.26319813976E+02  0.00000000000E+00 0.  1.
         23    2    1    2    0    0 -0.14039893354E+01  0.18008256570E+02  0.22000571112E+03  0.23952975326E+03  0.92982370805E+02 0.  0.
          5    1    1    2  502    0 -0.19376973065E+02  0.50505732139E+02  0.88711301495E+02  0.10401000470E+03  0.47000000000E+01 0. -1.
         -5    1    1    2    0  502  0.20780962401E+02 -0.68513988709E+02  0.13556422431E+03  0.15338110692E+03  0.47000000000E+01 0. -1.
        -11    1    3    3    0    0 -0.42785554501E+02  0.17305912352E+02  0.16079978310E+03  0.16729216515E+03  0.00000000000E+00 0.  1.
         11    1    3    3    0    0  0.41381565165E+02  0.70234421840E+00  0.59205928020E+02  0.72237588108E+02  0.00000000000E+00 0. -1.
<mgrwt>
<rscale>  0 0.22258600E+03</rscale>
<asrwt>0</asrwt>
<pdfrwt beam="1">  1        2 0.72400155E-01 0.22258600E+03</pdfrwt>
<pdfrwt beam="2">  1       -2 0.40492025E-02 0.22258600E+03</pdfrwt>
<totfact> 0.17608486E+04</totfact>
</mgrwt>
</event>
<event>
 7    1  0.1378058E-005  0.1932321E+03  0.7546771E-02  0.1160432E+00
         -1   -1    0    0    0  501 -0.00000000000E+00  0.00000000000E+00  0.19582700350E+03  0.19582700350E+03  0.00000000000E+00 0.  1.
          1   -1    0    0  501    0  0.00000000000E+00 -0.00000000000E+00 -0.17194121254E+03  0.17194121254E+03  0.00000000000E+00 0. -1.
         23    2    1    2    0    0 -0.10660457723E+03 -0.10173226747E+03  0.26357141046E+02  0.17452033411E+03  0.89714313241E+02 0.  0.
          5    1    1    2  502    0 -0.15170162519E+02  0.21249417398E+02  0.33605378338E+02  0.42814518844E+02  0.47000000000E+01 0. -1.
         -5    1    1    2    0  502  0.12177473975E+03  0.80482850076E+02 -0.36076728426E+02  0.15043336309E+03  0.47000000000E+01 0. -1.
        -11    1    3    3    0    0 -0.29511503678E+02 -0.52444920927E+02 -0.29808063860E+02  0.67155932363E+02  0.00000000000E+00 0. -1.
         11    1    3    3    0    0 -0.77093073555E+02 -0.49287346546E+02  0.56165204906E+02  0.10736440174E+03  0.00000000000E+00 0.  1.
<mgrwt>
<rscale>  0 0.18783147E+03</rscale>
<asrwt>0</asrwt>
<pdfrwt beam="2">  1        1 0.26452494E-01 0.19323208E+03</pdfrwt>
<pdfrwt beam="1">  1       -1 0.30127231E-01 0.19323208E+03</pdfrwt>
<totfact> 0.17851344E+03</totfact>
</mgrwt>
</event>
<event>
 7    1  0.1378058E-005  0.1302500E+03  0.7546771E-02  0.1241295E+00
          1   -1    0    0  501    0  0.00000000000E+00  0.00000000000E+00  0.40424146250E+02  0.40424146250E+02  0.00000000000E+00 0. -1.
         -1   -1    0    0    0  501 -0.00000000000E+00 -0.00000000000E+00 -0.37721005079E+03  0.37721005079E+03  0.00000000000E+00 0.  1.
         23    2    1    2    0    0 -0.36234013173E+02 -0.52151619346E+01 -0.67317569171E+02  0.11833796118E+03  0.90178247450E+02 0.  0.
          5    1    1    2  502    0 -0.58752463420E+01  0.32205073168E+02 -0.23740893793E+03  0.23970143735E+03  0.47000000000E+01 0.  1.
         -5    1    1    2    0  502  0.42109259515E+02 -0.26989911233E+02 -0.32059397439E+02  0.59594798509E+02  0.47000000000E+01 0.  1.
        -11    1    3    3    0    0 -0.64155031125E+00 -0.15173630173E+02 -0.78317473595E+02  0.79776420763E+02  0.00000000000E+00 0.  1.
         11    1    3    3    0    0 -0.35592462861E+02  0.99584682388E+01  0.10999904424E+02  0.38561540420E+02  0.00000000000E+00 0. -1.
<mgrwt>
<rscale>  0 0.12109875E+03</rscale>
<asrwt>0</asrwt>
<pdfrwt beam="1">  1        1 0.62190993E-02 0.13024996E+03</pdfrwt>
<pdfrwt beam="2">  1       -1 0.58032316E-01 0.13024996E+03</pdfrwt>
<totfact> 0.36500334E+03</totfact>
</mgrwt>
</event>
<event>
 7    1  0.1378058E-005  0.1534001E+03  0.7546771E-02  0.1204856E+00
         -1   -1    0    0    0  501 -0.00000000000E+00  0.00000000000E+00  0.74043366417E+02  0.74043366417E+02  0.00000000000E+00 0.  1.
          1   -1    0    0  501    0  0.00000000000E+00 -0.00000000000E+00 -0.28159347854E+03  0.28159347854E+03  0.00000000000E+00 0. -1.
         23    2    1    2    0    0 -0.43240550612E+01 -0.88810739198E+02 -0.13569418813E+03  0.18624127490E+03  0.91470514008E+02 0.  0.
          5    1    1    2  502    0  0.57113294440E+02  0.26363348700E+02 -0.59218809655E+02  0.86521164887E+02  0.47000000000E+01 0. -1.
         -5    1    1    2    0  502 -0.52789239378E+02  0.62447390498E+02 -0.12637114335E+02  0.82874405174E+02  0.47000000000E+01 0. -1.
        -11    1    3    3    0    0 -0.18343171068E+02 -0.95619133908E+02 -0.13957696286E+03  0.17017996138E+03  0.00000000000E+00 0.  1.
         11    1    3    3    0    0  0.14019116007E+02  0.68083947101E+01  0.38827747310E+01  0.16061313513E+02  0.00000000000E+00 0. -1.
<mgrwt>
<rscale>  0 0.14648809E+03</rscale>
<asrwt>0</asrwt>
<pdfrwt beam="2">  1        1 0.43322073E-01 0.15340008E+03</pdfrwt>
<pdfrwt beam="1">  1       -1 0.11391287E-01 0.15340008E+03</pdfrwt>
<totfact> 0.45645173E+03</totfact>
</mgrwt>
</event>
<event>
 7    1  0.1378058E-005  0.1348630E+03  0.7546771E-02  0.1233233E+00
         -2   -1    0    0    0  501 -0.00000000000E+00  0.00000000000E+00  0.44955171530E+02  0.44955171530E+02  0.00000000000E+00 0.  1.
          2   -1    0    0  501    0  0.00000000000E+00 -0.00000000000E+00 -0.31593437026E+03  0.31593437026E+03  0.00000000000E+00 0. -1.
         23    2    1    2    0    0 -0.25448299622E+02 -0.43778663944E+02 -0.12364725103E+03  0.16115290455E+03  0.90096773456E+02 0.  0.
          5    1    1    2  502    0 -0.71018163135E+00  0.67583287319E+02 -0.14935178790E+03  0.16400015741E+03  0.47000000000E+01 0.  1.
         -5    1    1    2    0  502  0.26158481254E+02 -0.23804623375E+02  0.20198402072E+01  0.35736479821E+02  0.47000000000E+01 0.  1.
        -11    1    3    3    0    0 -0.40807325422E+01 -0.64405540558E+02 -0.49668074040E+02  0.81434904136E+02  0.00000000000E+00 0.  1.
         11    1    3    3    0    0 -0.21367567080E+02  0.20626876615E+02 -0.73979176994E+02  0.79718000418E+02  0.00000000000E+00 0. -1.
<mgrwt>
<rscale>  0 0.12618251E+03</rscale>
<asrwt>0</asrwt>
<pdfrwt beam="2">  1        2 0.48605288E-01 0.13486297E+03</pdfrwt>
<pdfrwt beam="1">  1       -2 0.69161802E-02 0.13486297E+03</pdfrwt>
<totfact> 0.11580608E+04</totfact>
</mgrwt>
</event>
<event>
 7    1  0.1378058E-005  0.1460371E+03  0.7546771E-02  0.1215470E+00
         -1   -1    0    0    0  501 -0.00000000000E+00  0.00000000000E+00  0.10634901248E+03  0.10634901248E+03  0.00000000000E+00 0.  1.
          1   -1    0    0  501    0  0.00000000000E+00 -0.00000000000E+00 -0.16627251108E+03  0.16627251108E+03  0.00000000000E+00 0. -1.
         23    2    1    2    0    0 -0.49702655934E+02  0.56826823232E+02 -0.10041800619E+02  0.11830039228E+03  0.90523495344E+02 0.  0.
          5    1    1    2  502    0  0.73442743960E+02 -0.50088316296E+01  0.64520469820E+01  0.74044877911E+02  0.47000000000E+01 0.  1.
         -5    1    1    2    0  502 -0.23740088026E+02 -0.51817991602E+02 -0.56333744959E+02  0.80276253364E+02  0.47000000000E+01 0.  1.
        -11    1    3    3    0    0 -0.47663353494E+02  0.70970416915E+02 -0.32684752562E+02  0.91525342902E+02  0.00000000000E+00 0. -1.
         11    1    3    3    0    0 -0.20393024396E+01 -0.14143593683E+02  0.22642951942E+02  0.26775049381E+02  0.00000000000E+00 0.  1.
<mgrwt>
<rscale>  0 0.13842079E+03</rscale>
<asrwt>0</asrwt>
<pdfrwt beam="2">  1        1 0.25580386E-01 0.14603708E+03</pdfrwt>
<pdfrwt beam="1">  1       -1 0.16361387E-01 0.14603708E+03</pdfrwt>
<totfact> 0.49847178E+03</totfact>
</mgrwt>
</event>
<event>
 7    1  0.1378058E-005  0.1612502E+03  0.7546771E-02  0.1194782E+00
         -1   -1    0    0    0  501 -0.00000000000E+00  0.00000000000E+00  0.46453478205E+02  0.46453478205E+02  0.00000000000E+00 0.  1.
          1   -1    0    0  501    0  0.00000000000E+00 -0.00000000000E+00 -0.51817893484E+03  0.51817893484E+03  0.00000000000E+00 0. -1.
         23    2    1    2    0    0  0.96406830359E+02  0.32897180522E+02 -0.29655092299E+03  0.32654049758E+03  0.91157803883E+02 0.  0.
          5    1    1    2  502    0  0.30090321776E+01  0.11600388487E+02 -0.11067222681E+03  0.11141837853E+03  0.47000000000E+01 0.  1.
         -5    1    1    2    0  502 -0.99415862537E+02 -0.44497569009E+02 -0.64502306837E+02  0.12667353693E+03  0.47000000000E+01 0.  1.
        -11    1    3    3    0    0  0.57313789717E+02  0.54690872624E+02 -0.11562682175E+03  0.14016249123E+03  0.00000000000E+00 0.  1.
         11    1    3    3    0    0  0.39093040641E+02 -0.21793692102E+02 -0.18092410124E+03  0.18637800635E+03  0.00000000000E+00 0. -1.
<mgrwt>
<rscale>  0 0.15472680E+03</rscale>
<asrwt>0</asrwt>
<pdfrwt beam="2">  1        1 0.79719843E-01 0.16125025E+03</pdfrwt>
<pdfrwt beam="1">  1       -1 0.71466884E-02 0.16125025E+03</pdfrwt>
<totfact> 0.42966819E+03</totfact>
</mgrwt>
</event>
<event>
 7    1  0.1378058E-005  0.1819233E+03  0.7546771E-02  0.1171730E+00
          1   -1    0    0  501    0  0.00000000000E+00  0.00000000000E+00  0.13985273279E+03  0.13985273279E+03  0.00000000000E+00 0. -1.
         -1   -1    0    0    0  501 -0.00000000000E+00 -0.00000000000E+00 -0.20979501987E+03  0.20979501987E+03  0.00000000000E+00 0.  1.
         23    2    1    2    0    0  0.10427045275E+03 -0.81228349758E+02 -0.17542350413E+02  0.16032835606E+03  0.89034125919E+02 0.  0.
          5    1    1    2  502    0  0.29314467273E+01  0.55416407443E+02 -0.55886743675E+02  0.78898603995E+02  0.47000000000E+01 0. -1.
         -5    1    1    2    0  502 -0.10720189947E+03  0.25811942315E+02  0.34868070121E+01  0.11042079261E+03  0.47000000000E+01 0. -1.
        -11    1    3    3    0    0  0.16386242816E+02 -0.38267541645E+02 -0.42376430382E+02  0.59402656078E+02  0.00000000000E+00 0.  1.
         11    1    3    3    0    0  0.87884209929E+02 -0.42960808113E+02  0.24834079969E+02  0.10092569998E+03  0.00000000000E+00 0. -1.
<mgrwt>
<rscale>  0 0.17600093E+03</rscale>
<asrwt>0</asrwt>
<pdfrwt beam="1">  1        1 0.21515805E-01 0.18192328E+03</pdfrwt>
<pdfrwt beam="2">  1       -1 0.32276157E-01 0.18192328E+03</pdfrwt>
<totfact> 0.20598435E+03</totfact>
</mgrwt>
</event>
<event>
 7    1  0.1378058E-005  0.2273044E+03  0.7546771E-02  0.1162800E+00
         -1   -1    0    0    0  501 -0.00000000000E+00  0.00000000000E+00  0.63457656305E+03  0.63457656305E+03  0.00000000000E+00 0.  1.
          1   -1    0    0  501    0  0.00000000000E+00 -0.00000000000E+00 -0.53358318530E+02  0.53358318530E+02  0.00000000000E+00 0. -1.
         23    2    1    2    0    0 -0.36483157567E+02  0.28705896102E+02  0.54281181939E+02  0.11406210055E+03  0.88930685436E+02 0.  0.
          5    1    1    2  502    0 -0.91078170864E+02  0.14760253551E+02  0.22140906400E+03  0.23991073738E+03  0.47000000000E+01 0. -1.
         -5    1    1    2    0  502  0.12756132843E+03 -0.43466149653E+02  0.30552799859E+03  0.33396204365E+03  0.47000000000E+01 0.  1.
        -11    1    3    3    0    0 -0.21488438187E+02  0.36210078388E+02 -0.13515978988E+02  0.44222216595E+02  0.00000000000E+00 0. -1.
         11    1    3    3    0    0 -0.14994719380E+02 -0.75041822857E+01  0.67797160928E+02  0.69839883955E+02  0.00000000000E+00 0.  1.
<mgrwt>
<rscale>  0 0.18526813E+03</rscale>
<asrwt>0</asrwt>
<pdfrwt beam="2">  1        1 0.82089725E-02 0.22730442E+03</pdfrwt>
<pdfrwt beam="1">  1       -1 0.97627158E-01 0.22730442E+03</pdfrwt>
<totfact> 0.88975917E+02</totfact>
</mgrwt>
</event>
<event>
 7    1  0.1378058E-005  0.1256439E+03  0.7546771E-02  0.1249075E+00
         -1   -1    0    0    0  501 -0.00000000000E+00  0.00000000000E+00  0.31073976257E+02  0.31073976257E+02  0.00000000000E+00 0.  1.
          1   -1    0    0  501    0  0.00000000000E+00 -0.00000000000E+00 -0.38998303502E+03  0.38998303502E+03  0.00000000000E+00 0. -1.
         23    2    1    2    0    0 -0.26185911796E+01 -0.12455951257E+02 -0.17953197870E+03  0.20205350930E+03  0.91825277036E+02 0.  0.
          5    1    1    2  502    0  0.10763412501E+02  0.40712728878E+02 -0.18404468935E+03  0.18885951133E+03  0.47000000000E+01 0. -1.
         -5    1    1    2    0  502 -0.81448213214E+01 -0.28256777621E+02  0.46676092861E+01  0.30143990650E+02  0.47000000000E+01 0. -1.
        -11    1    3    3    0    0  0.44346278008E+01  0.30148651138E+02 -0.19222473302E+02  0.36029301533E+02  0.00000000000E+00 0.  1.
         11    1    3    3    0    0 -0.70532189804E+01 -0.42604602395E+02 -0.16030950540E+03  0.16602420777E+03  0.00000000000E+00 0. -1.
<mgrwt>
<rscale>  0 0.11644741E+03</rscale>
<asrwt>0</asrwt>
<pdfrwt beam="2">  1        1 0.59997384E-01 0.12564393E+03</pdfrwt>
<pdfrwt beam="1">  1       -1 0.47806122E-02 0.12564393E+03</pdfrwt>
<totfact> 0.11097794E+04</totfact>
</mgrwt>
</event>
<event>
 7    1  0.1378058E-005  0.1260143E+03  0.7546771E-02  0.1247171E+00
         -1   -1    0    0    0  501 -0.00000000000E+00  0.00000000000E+00  0.28567288898E+02  0.28567288898E+02  0.00000000000E+00 0.  1.
          1   -1    0    0  501    0  0.00000000000E+00 -0.00000000000E+00 -0.42937060587E+03  0.42937060587E+03  0.00000000000E+00 0. -1.
         23    2    1    2    0    0 -0.74227747516E+01 -0.14101301655E+02 -0.17632313337E+03  0.20050641070E+03  0.94122415378E+02 0.  0.
          5    1    1    2  502    0 -0.18762710877E+02  0.63454162306E+01 -0.22852196182E+03  0.22942685253E+03  0.47000000000E+01 0.  1.
         -5    1    1    2    0  502  0.26185485629E+02  0.77558854244E+01  0.40417782223E+01  0.28004631537E+02  0.47000000000E+01 0.  1.
        -11    1    3    3    0    0 -0.37522283280E+02 -0.27121867810E+02 -0.42922133566E+02  0.63133406417E+02  0.00000000000E+00 0.  1.
         11    1    3    3    0    0  0.30099508528E+02  0.13020566155E+02 -0.13340099981E+03  0.13737300428E+03  0.00000000000E+00 0. -1.
<mgrwt>
<rscale>  0 0.11756350E+03</rscale>
<asrwt>0</asrwt>
<pdfrwt beam="2">  1        1 0.66057012E-01 0.12601435E+03</pdfrwt>
<pdfrwt beam="1">  1       -1 0.43949678E-02 0.12601435E+03</pdfrwt>
<totfact> 0.11128057E+04</totfact>
</mgrwt>
</event>
<event>
 7    1  0.1459190E-005  0.2277904E+03  0.7546771E-02  0.1131230E+00
         -2   -1    0    0    0  501 -0.00000000000E+00  0.00000000000E+00  0.34372716034E+02  0.34372716034E+02  0.00000000000E+00 0.  1.
          2   -1    0    0  501    0  0.00000000000E+00 -0.00000000000E+00 -0.14047825769E+04  0.14047825769E+04  0.00000000000E+00 0. -1.
         23    2    1    2    0    0  0.53357499394E+02  0.18280203778E+03 -0.68267926559E+03  0.71468180261E+03  0.91953746808E+02 0.  0.
          5    1    1    2  502    0 -0.47316062989E+02 -0.74644305731E+01 -0.21218789861E+03  0.21757831201E+03  0.47000000000E+01 0.  1.
         -5    1    1    2    0  502 -0.60414364054E+01 -0.17533760720E+03 -0.47554269671E+03  0.50689517837E+03  0.47000000000E+01 0.  1.
        -11    1    3    3    0    0  0.40733590069E+02  0.15429669429E+03 -0.65084837830E+03  0.67012708255E+03  0.00000000000E+00 0. -1.
         11    1    3    3    0    0  0.12623909326E+02  0.28505343484E+02 -0.31830887297E+02  0.44554720063E+02  0.00000000000E+00 0.  1.
<mgrwt>
<rscale>  0 0.22359557E+03</rscale>
<asrwt>0</asrwt>
<pdfrwt beam="2">  1        2 0.21612037E+00 0.22779040E+03</pdfrwt>
<pdfrwt beam="1">  1       -2 0.52881109E-02 0.22779040E+03</pdfrwt>
<totfact> 0.27585338E+03</totfact>
</mgrwt>
</event>
<event>
 7    1  0.1378058E-005  0.1280138E+03  0.7546771E-02  0.1245251E+00
         -2   -1    0    0    0  501 -0.00000000000E+00  0.00000000000E+00  0.70314046132E+03  0.70314046132E+03  0.00000000000E+00 0.  1.
          2   -1    0    0  501    0  0.00000000000E+00 -0.00000000000E+00 -0.17779623896E+02  0.17779623896E+02  0.00000000000E+00 0. -1.
         23    2    1    2    0    0 -0.13443647616E+02 -0.24042860459E+02  0.25870207713E+03  0.27547060164E+03  0.90545551283E+02 0.  0.
          5    1    1    2  502    0  0.51473998139E+01 -0.23285916830E+02  0.10463451249E+02  0.26463247334E+02  0.47000000000E+01 0.  1.
         -5    1    1    2    0  502  0.82962478023E+01  0.47328777289E+02  0.41619530905E+03  0.41898623624E+03  0.47000000000E+01 0.  1.
        -11    1    3    3    0    0  0.32849947749E+02 -0.23317623264E+02  0.66324616719E+02  0.77600163690E+02  0.00000000000E+00 0.  1.
         11    1    3    3    0    0 -0.46293595366E+02 -0.72523719477E+00  0.19237746041E+03  0.19787043795E+03  0.00000000000E+00 0. -1.
<mgrwt>
<rscale>  0 0.11870384E+03</rscale>
<asrwt>0</asrwt>
<pdfrwt beam="2">  1        2 0.27353273E-02 0.12801385E+03</pdfrwt>
<pdfrwt beam="1">  1       -2 0.10817543E+00 0.12801385E+03</pdfrwt>
<totfact> 0.24103558E+03</totfact>
</mgrwt>
</event>
<event>
 7    1  0.1378058E-005  0.1346432E+03  0.7546771E-02  0.1233495E+00
         -1   -1    0    0    0  501 -0.00000000000E+00  0.00000000000E+00  0.74368720164E+02  0.74368720164E+02  0.00000000000E+00 0.  1.
          1   -1    0    0  501    0  0.00000000000E+00 -0.00000000000E+00 -0.20604190529E+03  0.20604190529E+03  0.00000000000E+00 0. -1.
         23    2    1    2    0    0  0.25739882450E+02  0.42906803563E+02 -0.96236910491E+02  0.14118234076E+03  0.90373530748E+02 0.  0.
          5    1    1    2  502    0  0.45083791851E+02  0.44345231551E+01  0.30171874105E+01  0.45644350178E+02  0.47000000000E+01 0. -1.
         -5    1    1    2    0  502 -0.70823674301E+02 -0.47341326718E+02 -0.38453462042E+02  0.93583934518E+02  0.47000000000E+01 0. -1.
        -11    1    3    3    0    0  0.18248072648E+02  0.22102075190E+02 -0.11096966273E+03  0.11461134293E+03  0.00000000000E+00 0. -1.
         11    1    3    3    0    0  0.74918098020E+01  0.20804728373E+02  0.14732752237E+02  0.26570997822E+02  0.00000000000E+00 0.  1.
<mgrwt>
<rscale>  0 0.12601245E+03</rscale>
<asrwt>0</asrwt>
<pdfrwt beam="2">  1        1 0.31698754E-01 0.13464318E+03</pdfrwt>
<pdfrwt beam="1">  1       -1 0.11441342E-01 0.13464318E+03</pdfrwt>
<totfact> 0.66261175E+03</totfact>
</mgrwt>
</event>
<event>
 7    1  0.1378058E-005  0.1358896E+03  0.7546771E-02  0.1231027E+00
          2   -1    0    0  501    0  0.00000000000E+00  0.00000000000E+00  0.35438882772E+03  0.35438882772E+03  0.00000000000E+00 0. -1.
         -2   -1    0    0    0  501 -0.00000000000E+00 -0.00000000000E+00 -0.41382764755E+02  0.41382764755E+02  0.00000000000E+00 0.  1.
         23    2    1    2    0    0  0.37953744376E+02  0.37399804668E+02  0.15080918237E+03  0.18417335939E+03  0.91308185407E+02 0.  0.
          5    1    1    2  502    0 -0.53467531367E+02 -0.50942682127E+02  0.17278909408E+03  0.18796833458E+03  0.47000000000E+01 0.  1.
         -5    1    1    2    0  502  0.15513786991E+02  0.13542877459E+02 -0.10592213482E+02  0.23629898500E+02  0.47000000000E+01 0.  1.
        -11    1    3    3    0    0  0.17082524567E+02 -0.12444814913E+02  0.12024982204E+03  0.12209302095E+03  0.00000000000E+00 0. -1.
         11    1    3    3    0    0  0.20871219810E+02  0.49844619581E+02  0.30559360325E+02  0.62080338441E+02  0.00000000000E+00 0.  1.
<mgrwt>
<rscale>  0 0.12762257E+03</rscale>
<asrwt>0</asrwt>
<pdfrwt beam="1">  1        2 0.54521356E-01 0.13588960E+03</pdfrwt>
<pdfrwt beam="2">  1       -2 0.63665794E-02 0.13588960E+03</pdfrwt>
<totfact> 0.11638902E+04</totfact>
</mgrwt>
</event>
<event>
 7    1  0.1378058E-005  0.1585011E+03  0.7546771E-02  0.1198078E+00
          3   -1    0    0  501    0  0.00000000000E+00  0.00000000000E+00  0.39763523320E+02  0.39763523320E+02  0.00000000000E+00 0. -1.
         -3   -1    0    0    0  501 -0.00000000000E+00 -0.00000000000E+00 -0.57665572421E+03  0.57665572421E+03  0.00000000000E+00 0.  1.
         23    2    1    2    0    0 -0.90060574921E+02 -0.37235134222E+02 -0.16753374953E+03  0.21448856098E+03  0.91871775763E+02 0.  0.
          5    1    1    2  502    0  0.10461345399E+03 -0.67482612991E+01 -0.19477872625E+03  0.22124727340E+03  0.47000000000E+01 0. -1.
         -5    1    1    2    0  502 -0.14552879072E+02  0.43983395521E+02 -0.17457972510E+03  0.18068341315E+03  0.47000000000E+01 0. -1.
        -11    1    3    3    0    0 -0.46043973972E+02  0.72280903202E+00 -0.14502331412E+03  0.15215890257E+03  0.00000000000E+00 0.  1.
         11    1    3    3    0    0 -0.44016600948E+02 -0.37957943254E+02 -0.22510435415E+02  0.62329658412E+02  0.00000000000E+00 0. -1.
<mgrwt>
<rscale>  0 0.15196564E+03</rscale>
<asrwt>0</asrwt>
<pdfrwt beam="1">  1        3 0.61174658E-02 0.15850114E+03</pdfrwt>
<pdfrwt beam="2">  1       -3 0.88716255E-01 0.15850114E+03</pdfrwt>
<totfact> 0.46422544E+02</totfact>
</mgrwt>
</event>
<event>
 7    1  0.1378058E-005  0.1704197E+03  0.7546771E-02  0.1183896E+00
          2   -1    0    0  501    0  0.00000000000E+00  0.00000000000E+00  0.56942439539E+03  0.56942439539E+03  0.00000000000E+00 0.  1.
         -2   -1    0    0    0  501 -0.00000000000E+00 -0.00000000000E+00 -0.47545790869E+02  0.47545790869E+02  0.00000000000E+00 0. -1.
         23    2    1    2    0    0 -0.15207244172E+01 -0.11582660307E+03  0.32332902241E+03  0.35531239327E+03  0.91033650324E+02 0.  0.
          5    1    1    2  502    0 -0.32886472207E+02 -0.42494203258E+01  0.90273073252E+02  0.96285488946E+02  0.47000000000E+01 0. -1.
         -5    1    1    2    0  502  0.34407196624E+02  0.12007602340E+03  0.10827650885E+03  0.16537230404E+03  0.47000000000E+01 0. -1.
        -11    1    3    3    0    0 -0.42625023941E+02 -0.29896082898E+02  0.11257388644E+03  0.12403043314E+03  0.00000000000E+00 0. -1.
         11    1    3    3    0    0  0.41104299524E+02 -0.85930520176E+02  0.21075513598E+03  0.23128196012E+03  0.00000000000E+00 0.  1.
<mgrwt>
<rscale>  0 0.16432754E+03</rscale>
<asrwt>0</asrwt>
<pdfrwt beam="1">  1        2 0.87603748E-01 0.17041967E+03</pdfrwt>
<pdfrwt beam="2">  1       -2 0.73147375E-02 0.17041967E+03</pdfrwt>
<totfact> 0.56901234E+03</totfact>
</mgrwt>
</event>
<event>
 7    1  0.1378058E-005  0.2251813E+03  0.7546771E-02  0.1130078E+00
         -2   -1    0    0    0  501 -0.00000000000E+00  0.00000000000E+00  0.31735298542E+02  0.31735298542E+02  0.00000000000E+00 0.  1.
          2   -1    0    0  501    0  0.00000000000E+00 -0.00000000000E+00 -0.39944957156E+03  0.39944957156E+03  0.00000000000E+00 0. -1.
         23    2    1    2    0    0 -0.10575119532E+02 -0.11137452705E+02 -0.21202810191E+03  0.23094074553E+03  0.90232122555E+02 0.  0.
          5    1    1    2  502    0  0.17261730090E+02  0.35088915949E+02  0.30489399777E+01  0.39504245129E+02  0.47000000000E+01 0.  1.
         -5    1    1    2    0  502 -0.66866105576E+01 -0.23951463245E+02 -0.15873511108E+03  0.16073987944E+03  0.47000000000E+01 0.  1.
        -11    1    3    3    0    0  0.25765975014E+02  0.21186970140E+02 -0.39566235019E+02  0.51751909392E+02  0.00000000000E+00 0.  1.
         11    1    3    3    0    0 -0.36341094546E+02 -0.32324422844E+02 -0.17246186690E+03  0.17918883614E+03  0.00000000000E+00 0. -1.
<mgrwt>
<rscale>  0 0.22518127E+03</rscale>
<asrwt>0</asrwt>
<pdfrwt beam="2">  1        2 0.61453779E-01 0.22518127E+03</pdfrwt>
<pdfrwt beam="1">  1       -2 0.48823537E-02 0.22518127E+03</pdfrwt>
<totfact> 0.15897687E+04</totfact>
</mgrwt>
</event>
<event>
 7    1  0.1378058E-005  0.1204843E+03  0.7546771E-02  0.1257284E+00
         -2   -1    0    0    0  501 -0.00000000000E+00  0.00000000000E+00  0.39049402593E+02  0.39049402593E+02  0.00000000000E+00 0.  1.
          2   -1    0    0  501    0  0.00000000000E+00 -0.00000000000E+00 -0.30562031760E+03  0.30562031760E+03  0.00000000000E+00 0. -1.
         23    2    1    2    0    0  0.10773013272E+02  0.10859609708E+02 -0.16267371127E+03  0.18557514425E+03  0.87985276533E+02 0.  0.
          5    1    1    2  502    0  0.21451065623E+02 -0.12854267923E+02 -0.12003020911E+03  0.12269768343E+03  0.47000000000E+01 0. -1.
         -5    1    1    2    0  502 -0.32224078896E+02  0.19946582156E+01  0.16133005376E+02  0.36396892512E+02  0.47000000000E+01 0.  1.
        -11    1    3    3    0    0 -0.26491814050E+02 -0.16595728095E+02 -0.24090162985E+02  0.39466065870E+02  0.00000000000E+00 0. -1.
         11    1    3    3    0    0  0.37264827322E+02  0.27455337803E+02 -0.13858354829E+03  0.14610907838E+03  0.00000000000E+00 0.  1.
<mgrwt>
<rscale>  0 0.11179355E+03</rscale>
<asrwt>0</asrwt>
<pdfrwt beam="2">  1        2 0.47018510E-01 0.12048425E+03</pdfrwt>
<pdfrwt beam="1">  1       -2 0.60076004E-02 0.12048425E+03</pdfrwt>
<totfact> 0.14719385E+04</totfact>
</mgrwt>
</event>
<event>
 7    1  0.1378058E-005  0.1497498E+03  0.7546771E-02  0.1210160E+00
         -2   -1    0    0    0  501 -0.00000000000E+00  0.00000000000E+00  0.42410156118E+02  0.42410156118E+02  0.00000000000E+00 0.  1.
          2   -1    0    0  501    0  0.00000000000E+00 -0.00000000000E+00 -0.44558757564E+03  0.44558757564E+03  0.00000000000E+00 0. -1.
         23    2    1    2    0    0  0.24743004832E+02  0.78663717357E+02 -0.21631758683E+03  0.24853668796E+03  0.90426711625E+02 0.  0.
          5    1    1    2  502    0  0.45602862241E+01 -0.31239822862E+02  0.11064412510E+02  0.33782154566E+02  0.47000000000E+01 0.  1.
         -5    1    1    2    0  502 -0.29303291056E+02 -0.47423894495E+02 -0.19792424521E+03  0.20567888923E+03  0.47000000000E+01 0.  1.
        -11    1    3    3    0    0  0.49993490055E+02  0.47429266462E+02 -0.76031354163E+02  0.10261408861E+03  0.00000000000E+00 0.  1.
         11    1    3    3    0    0 -0.25250485223E+02  0.31234450894E+02 -0.14028623266E+03  0.14592259935E+03  0.00000000000E+00 0. -1.
<mgrwt>
<rscale>  0 0.14238145E+03</rscale>
<asrwt>0</asrwt>
<pdfrwt beam="2">  1        2 0.68551935E-01 0.14974977E+03</pdfrwt>
<pdfrwt beam="1">  1       -2 0.65246393E-02 0.14974977E+03</pdfrwt>
<totfact> 0.88326563E+03</totfact>
</mgrwt>
</event>
<event>
 7    1  0.1378058E-005  0.1311369E+03  0.7546771E-02  0.1239194E+00
          2   -1    0    0  501    0  0.00000000000E+00  0.00000000000E+00  0.22815692824E+03  0.22815692824E+03  0.00000000000E+00 0. -1.
         -2   -1    0    0    0  501 -0.00000000000E+00 -0.00000000000E+00 -0.61940910832E+02  0.61940910832E+02  0.00000000000E+00 0.  1.
         23    2    1    2    0    0 -0.28314546442E+02  0.27748620906E+02  0.10725919235E+03  0.14631745300E+03  0.91282874666E+02 0.  0.
          5    1    1    2  502    0  0.27802921049E+02  0.47651721872E+02  0.29053735277E+02  0.62529181586E+02  0.47000000000E+01 0. -1.
         -5    1    1    2    0  502  0.51162539228E+00 -0.75400342778E+02  0.29903089783E+02  0.81251204485E+02  0.47000000000E+01 0. -1.
        -11    1    3    3    0    0 -0.54766708784E+02 -0.52790976035E+01  0.45205817320E+02  0.71209740781E+02  0.00000000000E+00 0.  1.
         11    1    3    3    0    0  0.26452162343E+02  0.33027718510E+02  0.62053375027E+02  0.75107712219E+02  0.00000000000E+00 0. -1.
<mgrwt>
<rscale>  0 0.12239721E+03</rscale>
<asrwt>0</asrwt>
<pdfrwt beam="1">  1        2 0.35101065E-01 0.13113692E+03</pdfrwt>
<pdfrwt beam="2">  1       -2 0.95293710E-02 0.13113692E+03</pdfrwt>
<totfact> 0.99496307E+03</totfact>
</mgrwt>
</event>
<event>
 7    1  0.1378058E-005  0.1257233E+03  0.7546771E-02  0.1248869E+00
          1   -1    0    0  501    0  0.00000000000E+00  0.00000000000E+00  0.42770838514E+02  0.42770838514E+02  0.00000000000E+00 0. -1.
         -1   -1    0    0    0  501 -0.00000000000E+00 -0.00000000000E+00 -0.27946927848E+03  0.27946927848E+03  0.00000000000E+00 0.  1.
         23    2    1    2    0    0 -0.64302558990E+01  0.11685867342E+02 -0.10305332885E+03  0.13875344911E+03  0.91949025923E+02 0.  0.
          5    1    1    2  502    0  0.59317530167E+02  0.19305423307E+02 -0.82370050168E+02  0.10343202560E+03  0.47000000000E+01 0. -1.
         -5    1    1    2    0  502 -0.52887274268E+02 -0.30991290649E+02 -0.51275060954E+02  0.80054642285E+02  0.47000000000E+01 0. -1.
        -11    1    3    3    0    0  0.18437470594E+02 -0.32362125484E+02 -0.66932331418E+02  0.76597548765E+02  0.00000000000E+00 0.  1.
         11    1    3    3    0    0 -0.24867726493E+02  0.44047992826E+02 -0.36120997427E+02  0.62155900348E+02  0.00000000000E+00 0. -1.
<mgrwt>
<rscale>  0 0.11656792E+03</rscale>
<asrwt>0</asrwt>
<pdfrwt beam="1">  1        1 0.65801291E-02 0.12572327E+03</pdfrwt>
<pdfrwt beam="2">  1       -1 0.42995273E-01 0.12572327E+03</pdfrwt>
<totfact> 0.58297449E+03</totfact>
</mgrwt>
</event>
<event>
 7    1  0.1378058E-005  0.1409022E+03  0.7546771E-02  0.1223041E+00
          2   -1    0    0  501    0  0.00000000000E+00  0.00000000000E+00  0.50298186010E+03  0.50298186010E+03  0.00000000000E+00 0. -1.
         -2   -1    0    0    0  501 -0.00000000000E+00 -0.00000000000E+00 -0.51147745550E+02  0.51147745550E+02  0.00000000000E+00 0.  1.
         23    2    1    2    0    0  0.30635544209E+02  0.57361835509E+02  0.37966855136E+03  0.39582200879E+03  0.91093012925E+02 0.  0.
          5    1    1    2  502    0  0.17009983860E+02 -0.14688317422E+02 -0.29940276336E+02  0.37730576019E+02  0.47000000000E+01 0. -1.
         -5    1    1    2    0  502 -0.47645528068E+02 -0.42673518087E+02  0.10210583952E+03  0.12057702084E+03  0.47000000000E+01 0. -1.
        -11    1    3    3    0    0  0.60365413957E+02  0.32866802599E+02  0.18446951541E+03  0.19685835525E+03  0.00000000000E+00 0.  1.
         11    1    3    3    0    0 -0.29729869748E+02  0.24495032910E+02  0.19519903595E+03  0.19896365354E+03  0.00000000000E+00 0. -1.
<mgrwt>
<rscale>  0 0.13302049E+03</rscale>
<asrwt>0</asrwt>
<pdfrwt beam="1">  1        2 0.77381821E-01 0.14090219E+03</pdfrwt>
<pdfrwt beam="2">  1       -2 0.78688843E-02 0.14090219E+03</pdfrwt>
<totfact> 0.57826966E+03</totfact>
</mgrwt>
</event>
<event>
 7    1  0.1378058E-005  0.2641604E+03  0.7546771E-02  0.1106462E+00
         -2   -1    0    0    0  501 -0.00000000000E+00  0.00000000000E+00  0.42257881662E+03  0.42257881662E+03  0.00000000000E+00 0.  1.
          2   -1    0    0  501    0  0.00000000000E+00 -0.00000000000E+00 -0.15785549700E+03  0.15785549700E+03  0.00000000000E+00 0. -1.
         23    2    1    2    0    0 -0.18165335211E+03  0.14545254095E+03  0.13557012098E+03  0.28639130518E+03  0.97397843820E+02 0.  0.
          5    1    1    2  502    0  0.58552896891E+02 -0.54481806181E+02 -0.17502287072E+02  0.82006883808E+02  0.47000000000E+01 0.  1.
         -5    1    1    2    0  502  0.12310045522E+03 -0.90970734767E+02  0.14665548571E+03  0.21203612463E+03  0.47000000000E+01 0.  1.
        -11    1    3    3    0    0 -0.16653032668E+03  0.12851614669E+03  0.15099942873E+03  0.25893933100E+03  0.00000000000E+00 0.  1.
         11    1    3    3    0    0 -0.15123025432E+02  0.16936394262E+02 -0.15429307750E+02  0.27451974182E+02  0.00000000000E+00 0. -1.
<mgrwt>
<rscale>  0 0.26113659E+03</rscale>
<asrwt>0</asrwt>
<pdfrwt beam="2">  1        2 0.24285461E-01 0.26416045E+03</pdfrwt>
<pdfrwt beam="1">  1       -2 0.65012125E-01 0.26416045E+03</pdfrwt>
<totfact> 0.49788075E+02</totfact>
</mgrwt>
</event>
<event>
 7    1  0.1378058E-005  0.1511451E+03  0.7546771E-02  0.1208297E+00
         -2   -1    0    0    0  501 -0.00000000000E+00  0.00000000000E+00  0.20749755649E+03  0.20749755649E+03  0.00000000000E+00 0.  1.
          2   -1    0    0  501    0  0.00000000000E+00 -0.00000000000E+00 -0.99311026640E+02  0.99311026640E+02  0.00000000000E+00 0. -1.
         23    2    1    2    0    0  0.23970502185E+02 -0.81523559418E+02  0.53107662576E+01  0.12397464426E+03  0.90115661608E+02 0.  0.
          5    1    1    2  502    0  0.28088233154E+02  0.43129140194E+02  0.10597238067E+03  0.11790380418E+03  0.47000000000E+01 0. -1.
         -5    1    1    2    0  502 -0.52058735339E+02  0.38394419224E+02 -0.30966170788E+01  0.64930134683E+02  0.47000000000E+01 0. -1.
        -11    1    3    3    0    0  0.47767658734E+01 -0.64435617929E+02  0.43538175842E+02  0.77912380953E+02  0.00000000000E+00 0.  1.
         11    1    3    3    0    0  0.19193736312E+02 -0.17087941489E+02 -0.38227409584E+02  0.46062263312E+02  0.00000000000E+00 0. -1.
<mgrwt>
<rscale>  0 0.14380665E+03</rscale>
<asrwt>0</asrwt>
<pdfrwt beam="2">  1        2 0.15278619E-01 0.15114505E+03</pdfrwt>
<pdfrwt beam="1">  1       -2 0.31922701E-01 0.15114505E+03</pdfrwt>
<totfact> 0.33589529E+03</totfact>
</mgrwt>
</event>
<event>
 7    1  0.1378058E-005  0.1590665E+03  0.7546771E-02  0.1197276E+00
         -2   -1    0    0    0  501 -0.00000000000E+00  0.00000000000E+00  0.14916766187E+03  0.14916766187E+03  0.00000000000E+00 0.  1.
          2   -1    0    0  501    0  0.00000000000E+00 -0.00000000000E+00 -0.14477938368E+03  0.14477938368E+03  0.00000000000E+00 0. -1.
         23    2    1    2    0    0  0.80942915921E+02  0.55901748329E+02  0.16934109449E+01  0.13485768631E+03  0.92233219677E+02 0.  0.
          5    1    1    2  502    0  0.28013853397E+02  0.10054546247E+02  0.91013444235E+01  0.31476886007E+02  0.47000000000E+01 0.  1.
         -5    1    1    2    0  502 -0.10895676932E+03 -0.65956294576E+02 -0.64064771783E+01  0.12761247323E+03  0.47000000000E+01 0.  1.
        -11    1    3    3    0    0  0.51406567137E+02  0.15228701757E+02  0.43842739212E+02  0.69258460015E+02  0.00000000000E+00 0.  1.
         11    1    3    3    0    0  0.29536348783E+02  0.40673046572E+02 -0.42149328267E+02  0.65599226294E+02  0.00000000000E+00 0. -1.
<mgrwt>
<rscale>  0 0.15263161E+03</rscale>
<asrwt>0</asrwt>
<pdfrwt beam="2">  1        2 0.22273751E-01 0.15906653E+03</pdfrwt>
<pdfrwt beam="1">  1       -2 0.22948871E-01 0.15906653E+03</pdfrwt>
<totfact> 0.39270403E+03</totfact>
</mgrwt>
</event>
<event>
 7    1  0.1378058E-005  0.1344887E+03  0.7546771E-02  0.1232987E+00
         -1   -1    0    0    0  501 -0.00000000000E+00  0.00000000000E+00  0.37764592574E+02  0.37764592574E+02  0.00000000000E+00 0.  1.
          1   -1    0    0  501    0  0.00000000000E+00 -0.00000000000E+00 -0.39683833072E+03  0.39683833072E+03  0.00000000000E+00 0. -1.
         23    2    1    2    0    0  0.49171797451E+02  0.66034151446E+01 -0.20411232063E+03  0.22941947071E+03  0.92249570995E+02 0.  0.
          5    1    1    2  502    0 -0.71904305309E+02 -0.31269259469E+02 -0.45886800392E+02  0.90970787398E+02  0.47000000000E+01 0.  1.
         -5    1    1    2    0  502  0.22732507857E+02  0.24665844324E+02 -0.10907461712E+03  0.11421266519E+03  0.47000000000E+01 0.  1.
        -11    1    3    3    0    0  0.41247505709E+02 -0.27956639569E+02 -0.47493366544E+02  0.68837128709E+02  0.00000000000E+00 0.  1.
         11    1    3    3    0    0  0.79242917425E+01  0.34560054714E+02 -0.15661895409E+03  0.16058234200E+03  0.00000000000E+00 0. -1.
<mgrwt>
<rscale>  0 0.12634188E+03</rscale>
<asrwt>0</asrwt>
<pdfrwt beam="2">  1        1 0.61052051E-01 0.13448869E+03</pdfrwt>
<pdfrwt beam="1">  1       -1 0.58099373E-02 0.13448869E+03</pdfrwt>
<totfact> 0.81754638E+03</totfact>
</mgrwt>
</event>
<event>
 7    1  0.1378058E-005  0.1284382E+03  0.7546771E-02  0.1244285E+00
          1   -1    0    0  501    0  0.00000000000E+00  0.00000000000E+00  0.20186768416E+03  0.20186768416E+03  0.00000000000E+00 0. -1.
         -1   -1    0    0    0  501 -0.00000000000E+00 -0.00000000000E+00 -0.62249917416E+02  0.62249917416E+02  0.00000000000E+00 0.  1.
         23    2    1    2    0    0 -0.96898266475E+01  0.27665263387E+02  0.65252958506E+02  0.11570437903E+03  0.90941163360E+02 0.  0.
          5    1    1    2  502    0  0.64619115126E+02 -0.19840083141E+02  0.60947402520E+02  0.91136901487E+02  0.47000000000E+01 0. -1.
         -5    1    1    2    0  502 -0.54929288478E+02 -0.78251802459E+01  0.13417405723E+02  0.57276321067E+02  0.47000000000E+01 0. -1.
        -11    1    3    3    0    0 -0.67100365202E+01 -0.22991018429E+02  0.60103847818E+02  0.64699953949E+02  0.00000000000E+00 0. -1.
         11    1    3    3    0    0 -0.29797901273E+01  0.50656281815E+02  0.51491106880E+01  0.51004425077E+02  0.00000000000E+00 0.  1.
<mgrwt>
<rscale>  0 0.11928250E+03</rscale>
<asrwt>0</asrwt>
<pdfrwt beam="1">  1        1 0.31056567E-01 0.12843816E+03</pdfrwt>
<pdfrwt beam="2">  1       -1 0.95769104E-02 0.12843816E+03</pdfrwt>
<totfact> 0.88903479E+03</totfact>
</mgrwt>
</event>
<event>
 7    1  0.1378058E-005  0.1844906E+03  0.7546771E-02  0.1168968E+00
          2   -1    0    0  501    0  0.00000000000E+00  0.00000000000E+00  0.66934335100E+03  0.66934335100E+03  0.00000000000E+00 0.  1.
         -2   -1    0    0    0  501 -0.00000000000E+00 -0.00000000000E+00 -0.65516602596E+02  0.65516602596E+02  0.00000000000E+00 0. -1.
         23    2    1    2    0    0 -0.52691483792E+02  0.12490991849E+03  0.49406982223E+03  0.52018959841E+03  0.90074129762E+02 0.  0.
          5    1    1    2  502    0 -0.32068474260E+02 -0.63776650307E+01  0.43252022205E+02  0.54423240233E+02  0.47000000000E+01 0. -1.
         -5    1    1    2    0  502  0.84759958052E+02 -0.11853225346E+03  0.66504903966E+02  0.16024711495E+03  0.47000000000E+01 0. -1.
        -11    1    3    3    0    0  0.17305540596E+02 -0.22704324575E+01  0.46670747294E+02  0.49827655492E+02  0.00000000000E+00 0. -1.
         11    1    3    3    0    0 -0.69997024388E+02  0.12718035095E+03  0.44739907493E+03  0.47036194291E+03  0.00000000000E+00 0.  1.
<mgrwt>
<rscale>  0 0.17880122E+03</rscale>
<asrwt>0</asrwt>
<pdfrwt beam="1">  1        2 0.10297590E+00 0.18449059E+03</pdfrwt>
<pdfrwt beam="2">  1       -2 0.10079478E-01 0.18449059E+03</pdfrwt>
<totfact> 0.28672693E+03</totfact>
</mgrwt>
</event>
<event>
 7    1  0.1378058E-005  0.2190933E+03  0.7546771E-02  0.1134561E+00
          1   -1    0    0  501    0  0.00000000000E+00  0.00000000000E+00  0.15605617892E+03  0.15605617892E+03  0.00000000000E+00 0. -1.
         -1   -1    0    0    0  501 -0.00000000000E+00 -0.00000000000E+00 -0.76898381750E+02  0.76898381750E+02  0.00000000000E+00 0.  1.
         23    2    1    2    0    0  0.14172083498E+02 -0.98216039060E+01  0.45844471880E+02  0.10244892153E+03  0.89981965231E+02 0.  0.
          5    1    1    2  502    0  0.38180052298E+02 -0.38737773301E+02  0.13035070552E+02  0.56127841025E+02  0.47000000000E+01 0.  1.
         -5    1    1    2    0  502 -0.52352135796E+02  0.48559377207E+02  0.20278254740E+02  0.74377798116E+02  0.47000000000E+01 0.  1.
        -11    1    3    3    0    0 -0.50270612725E+01  0.33190275610E+02 -0.40749809564E+01  0.33815251143E+02  0.00000000000E+00 0.  1.
         11    1    3    3    0    0  0.19199144771E+02 -0.43011879516E+02  0.49919452836E+02  0.68633670388E+02  0.00000000000E+00 0. -1.
<mgrwt>
<rscale>  0 0.21909329E+03</rscale>
<asrwt>0</asrwt>
<pdfrwt beam="1">  1        1 0.24008643E-01 0.21909329E+03</pdfrwt>
<pdfrwt beam="2">  1       -1 0.11830520E-01 0.21909329E+03</pdfrwt>
<totfact> 0.92156413E+03</totfact>
</mgrwt>
</event>
<event>
 7    1  0.1378058E-005  0.2038810E+03  0.7546771E-02  0.1152658E+00
          2   -1    0    0  501    0  0.00000000000E+00  0.00000000000E+00  0.13727273129E+04  0.13727273129E+04  0.00000000000E+00 0. -1.
         -2   -1    0    0    0  501 -0.00000000000E+00 -0.00000000000E+00 -0.26347101609E+02  0.26347101609E+02  0.00000000000E+00 0.  1.
         23    2    1    2    0    0 -0.87289244152E+02  0.13534913322E+03  0.59806760989E+03  0.62348481304E+03  0.71481788512E+02 0.  0.
          5    1    1    2  502    0  0.39210178347E+02 -0.45398489293E+02  0.83156967679E+02  0.10264322769E+03  0.47000000000E+01 0. -1.
         -5    1    1    2    0  502  0.48079065805E+02 -0.89950643926E+02  0.66515563368E+03  0.67294637374E+03  0.47000000000E+01 0. -1.
        -11    1    3    3    0    0 -0.35905350260E+02  0.85080207259E+02  0.21919943926E+03  0.23785758348E+03  0.00000000000E+00 0.  1.
         11    1    3    3    0    0 -0.51383893891E+02  0.50268925960E+02  0.37886817063E+03  0.38562722957E+03  0.00000000000E+00 0. -1.
<mgrwt>
<rscale>  0 0.19657923E+03</rscale>
<asrwt>0</asrwt>
<pdfrwt beam="1">  1        2 0.21118876E+00 0.20388104E+03</pdfrwt>
<pdfrwt beam="2">  1       -2 0.40534013E-02 0.20388104E+03</pdfrwt>
<totfact> 0.42872598E+03</totfact>
</mgrwt>
</event>
<event>
 7    1  0.1378058E-005  0.2068201E+03  0.7546771E-02  0.1148045E+00
          2   -1    0    0  501    0  0.00000000000E+00  0.00000000000E+00  0.80853944056E+02  0.80853944056E+02  0.00000000000E+00 0. -1.
         -2   -1    0    0    0  501 -0.00000000000E+00 -0.00000000000E+00 -0.69735358142E+03  0.69735358142E+03  0.00000000000E+00 0.  1.
         23    2    1    2    0    0 -0.21807120322E+02 -0.16332081586E+03 -0.82517353948E+02  0.20557182925E+03  0.91112150060E+02 0.  0.
          5    1    1    2  502    0  0.24878863122E+02  0.21379197287E+01 -0.15767537638E+02  0.29903741809E+02  0.47000000000E+01 0.  1.
         -5    1    1    2    0  502 -0.30717427997E+01  0.16118289613E+03 -0.51821474577E+03  0.54273195442E+03  0.47000000000E+01 0.  1.
        -11    1    3    3    0    0 -0.29238277016E+02 -0.25592207300E+02 -0.50951022248E+02  0.64076864667E+02  0.00000000000E+00 0.  1.
         11    1    3    3    0    0  0.74311566941E+01 -0.13772860856E+03 -0.31566331700E+02  0.14149496458E+03  0.00000000000E+00 0. -1.
<mgrwt>
<rscale>  0 0.20202152E+03</rscale>
<asrwt>0</asrwt>
<pdfrwt beam="1">  1        2 0.12439068E-01 0.20682012E+03</pdfrwt>
<pdfrwt beam="2">  1       -2 0.10728517E+00 0.20682012E+03</pdfrwt>
<totfact> 0.35483782E+02</totfact>
</mgrwt>
</event>
<event>
 6    1  0.1378058E-005  0.3168482E+03  0.7546771E-02  0.1077109E+00
          1   -1    0    0  501    0  0.00000000000E+00  0.00000000000E+00  0.13614014601E+03  0.13614014601E+03  0.00000000000E+00 0. -1.
         -1   -1    0    0    0  501 -0.00000000000E+00 -0.00000000000E+00 -0.18435559285E+03  0.18435559285E+03  0.00000000000E+00 0.  1.
          5    1    1    2  502    0 -0.21956242995E+02  0.33015437088E+02 -0.43639854113E+01  0.40165035307E+02  0.47000000000E+01 0.  1.
         -5    1    1    2    0  502  0.29537866383E+02 -0.75963368167E+02 -0.95686412146E+02  0.12578115250E+03  0.47000000000E+01 0.  1.
        -11    1    1    2    0    0 -0.35181282768E+02 -0.42200058647E+02  0.10409226394E+02  0.55918866236E+02  0.00000000000E+00 0.  1.
         11    1    1    2    0    0  0.27599659380E+02  0.85147989727E+02  0.41425724324E+02  0.98630684821E+02  0.00000000000E+00 0. -1.
<mgrwt>
<rscale>  0 0.31684821E+03</rscale>
<asrwt>0</asrwt>
<pdfrwt beam="1">  1        1 0.20944638E-01 0.31684821E+03</pdfrwt>
<pdfrwt beam="2">  1       -1 0.28362399E-01 0.31684821E+03</pdfrwt>
<totfact> 0.27066965E+03</totfact>
</mgrwt>
</event>
<event>
 7    1  0.1378058E-005  0.1324884E+03  0.7546771E-02  0.1236718E+00
          1   -1    0    0  501    0  0.00000000000E+00  0.00000000000E+00  0.33489015610E+03  0.33489015610E+03  0.00000000000E+00 0. -1.
         -1   -1    0    0    0  501 -0.00000000000E+00 -0.00000000000E+00 -0.45064934555E+02  0.45064934555E+02  0.00000000000E+00 0.  1.
         23    2    1    2    0    0  0.38854056879E+02 -0.20880622580E+02  0.18499210725E+03  0.21100789590E+03  0.91414518825E+02 0.  0.
          5    1    1    2  502    0  0.42347538073E+02 -0.95840465292E+01  0.21896412539E+02  0.48853974361E+02  0.47000000000E+01 0. -1.
         -5    1    1    2    0  502 -0.81201594953E+02  0.30464669109E+02  0.82936701758E+02  0.12009322040E+03  0.47000000000E+01 0. -1.
        -11    1    3    3    0    0  0.26688307465E+02  0.23222571726E+02  0.14801099210E+03  0.15218018062E+03  0.00000000000E+00 0. -1.
         11    1    3    3    0    0  0.12165749414E+02 -0.44103194306E+02  0.36981115155E+02  0.58827715279E+02  0.00000000000E+00 0.  1.
<mgrwt>
<rscale>  0 0.12395096E+03</rscale>
<asrwt>0</asrwt>
<pdfrwt beam="1">  1        1 0.51521561E-01 0.13248839E+03</pdfrwt>
<pdfrwt beam="2">  1       -1 0.69330671E-02 0.13248839E+03</pdfrwt>
<totfact> 0.77570359E+03</totfact>
</mgrwt>
</event>
<event>
 7    1  0.1378058E-005  0.1378294E+03  0.7546771E-02  0.1226882E+00
         -1   -1    0    0    0  501 -0.00000000000E+00  0.00000000000E+00  0.75185120881E+02  0.75185120881E+02  0.00000000000E+00 0.  1.
          1   -1    0    0  501    0  0.00000000000E+00 -0.00000000000E+00 -0.22018874819E+03  0.22018874819E+03  0.00000000000E+00 0. -1.
         23    2    1    2    0    0 -0.47846154527E+02  0.32900616492E+02 -0.10378063524E+03  0.15151183054E+03  0.93881358499E+02 0.  0.
          5    1    1    2  502    0 -0.40404740567E+02  0.62096626399E+01 -0.10774622363E+02  0.42535696273E+02  0.47000000000E+01 0. -1.
         -5    1    1    2    0  502  0.88250895094E+02 -0.39110279132E+02 -0.30448369713E+02  0.10132634227E+03  0.47000000000E+01 0. -1.
        -11    1    3    3    0    0 -0.45373849001E+02 -0.11700402763E+02 -0.95084806754E+02  0.10600380217E+03  0.00000000000E+00 0. -1.
         11    1    3    3    0    0 -0.24723055256E+01  0.44601019255E+02 -0.86958284825E+01  0.45508028371E+02  0.00000000000E+00 0.  1.
<mgrwt>
<rscale>  0 0.13038766E+03</rscale>
<asrwt>0</asrwt>
<pdfrwt beam="2">  1        1 0.33875192E-01 0.13782943E+03</pdfrwt>
<pdfrwt beam="1">  1       -1 0.11566942E-01 0.13782943E+03</pdfrwt>
<totfact> 0.60095782E+03</totfact>
</mgrwt>
</event>
<event>
 7    1  0.1378058E-005  0.1895519E+03  0.7546771E-02  0.1181838E+00
         -1   -1    0    0    0  501 -0.00000000000E+00  0.00000000000E+00  0.57073535479E+03  0.57073535479E+03  0.00000000000E+00 0.  1.
          1   -1    0    0  501    0  0.00000000000E+00 -0.00000000000E+00 -0.40204815862E+02  0.40204815862E+02  0.00000000000E+00 0. -1.
         23    2    1    2    0    0 -0.45549652037E+02 -0.51348384197E+02  0.22506597626E+03  0.25144258101E+03  0.88641133304E+02 0.  0.
          5    1    1    2  502    0  0.91462186155E+02 -0.17093002347E+02  0.93346565778E+02  0.13188318152E+03  0.47000000000E+01 0. -1.
         -5    1    1    2    0  502 -0.45912534118E+02  0.68441386544E+02  0.21211799689E+03  0.22761440812E+03  0.47000000000E+01 0.  1.
        -11    1    3    3    0    0 -0.54580121470E+02 -0.34147405198E+02  0.22276188430E+03  0.23187904614E+03  0.00000000000E+00 0.  1.
         11    1    3    3    0    0  0.90304694324E+01 -0.17200978999E+02  0.23040919570E+01  0.19563534866E+02  0.00000000000E+00 0. -1.
<mgrwt>
<rscale>  0 0.16622919E+03</rscale>
<asrwt>0</asrwt>
<pdfrwt beam="2">  1        1 0.61853567E-02 0.18955189E+03</pdfrwt>
<pdfrwt beam="1">  1       -1 0.87805433E-01 0.18955189E+03</pdfrwt>
<totfact> 0.16389613E+03</totfact>
</mgrwt>
</event>
<event>
 7    1  0.1378058E-005  0.2232784E+03  0.7546771E-02  0.1131462E+00
         -1   -1    0    0    0  501 -0.00000000000E+00  0.00000000000E+00  0.41180087135E+02  0.41180087135E+02  0.00000000000E+00 0.  1.
          1   -1    0    0  501    0  0.00000000000E+00 -0.00000000000E+00 -0.30265378099E+03  0.30265378099E+03  0.00000000000E+00 0. -1.
         23    2    1    2    0    0  0.26661193493E+02 -0.16272162746E+02 -0.11321835277E+03  0.14743166250E+03  0.89118444685E+02 0.  0.
          5    1    1    2  502    0  0.42632480171E+02 -0.12876290028E+02 -0.92236612044E+02  0.10253296939E+03  0.47000000000E+01 0.  1.
         -5    1    1    2    0  502 -0.69293673664E+02  0.29148452775E+02 -0.56018729038E+02  0.93869236239E+02  0.47000000000E+01 0.  1.
        -11    1    3    3    0    0  0.53446212873E+01 -0.40384062740E+02 -0.10721494107E+03  0.11469298623E+03  0.00000000000E+00 0. -1.
         11    1    3    3    0    0  0.21316572205E+02  0.24111899994E+02 -0.60034116994E+01  0.32738676270E+02  0.00000000000E+00 0.  1.
<mgrwt>
<rscale>  0 0.22327838E+03</rscale>
<asrwt>0</asrwt>
<pdfrwt beam="2">  1        1 0.46562120E-01 0.22327838E+03</pdfrwt>
<pdfrwt beam="1">  1       -1 0.63353981E-02 0.22327838E+03</pdfrwt>
<totfact> 0.10435913E+04</totfact>
</mgrwt>
</event>
<event>
 7    1  0.1378058E-005  0.1401057E+03  0.7546771E-02  0.1224460E+00
          1   -1    0    0  501    0  0.00000000000E+00  0.00000000000E+00  0.22282806763E+03  0.22282806763E+03  0.00000000000E+00 0. -1.
         -1   -1    0    0    0  501 -0.00000000000E+00 -0.00000000000E+00 -0.95420839510E+02  0.95420839510E+02  0.00000000000E+00 0.  1.
         23    2    1    2    0    0  0.16796820800E+02 -0.61010573911E+02  0.13909233717E+03  0.17765681023E+03  0.90613689038E+02 0.  0.
          5    1    1    2  502    0 -0.38659960582E+02  0.51672961786E+02 -0.58914501958E+02  0.87508262884E+02  0.47000000000E+01 0. -1.
         -5    1    1    2    0  502  0.21863139782E+02  0.93376121241E+01  0.47229392904E+02  0.53083834030E+02  0.47000000000E+01 0. -1.
        -11    1    3    3    0    0 -0.34664008045E+02 -0.59799076416E+01  0.43612907430E+02  0.56030691979E+02  0.00000000000E+00 0. -1.
         11    1    3    3    0    0  0.51460828846E+02 -0.55030666269E+02  0.95479429744E+02  0.12162611825E+03  0.00000000000E+00 0.  1.
<mgrwt>
<rscale>  0 0.13203973E+03</rscale>
<asrwt>0</asrwt>
<pdfrwt beam="1">  1        1 0.34281241E-01 0.14010566E+03</pdfrwt>
<pdfrwt beam="2">  1       -1 0.14680129E-01 0.14010566E+03</pdfrwt>
<totfact> 0.40939672E+03</totfact>
</mgrwt>
</event>
<event>
 7    1  0.1378058E-005  0.1257620E+03  0.7546771E-02  0.1249294E+00
          1   -1    0    0  501    0  0.00000000000E+00  0.00000000000E+00  0.12260281877E+03  0.12260281877E+03  0.00000000000E+00 0. -1.
         -1   -1    0    0    0  501 -0.00000000000E+00 -0.00000000000E+00 -0.97278182725E+02  0.97278182725E+02  0.00000000000E+00 0.  1.
         23    2    1    2    0    0 -0.37003846812E+01  0.13323305487E+02  0.18872939442E+02  0.93953661029E+02  0.90993951786E+02 0.  0.
          5    1    1    2  502    0  0.29247980087E+02 -0.24129959828E+02 -0.49956398949E+02  0.62892218091E+02  0.47000000000E+01 0.  1.
         -5    1    1    2    0  502 -0.25547595405E+02  0.10806654340E+02  0.56408095554E+02  0.63035122377E+02  0.47000000000E+01 0.  1.
        -11    1    3    3    0    0  0.39746279625E+02  0.23730780250E+02  0.24552257246E+01  0.46356712660E+02  0.00000000000E+00 0. -1.
         11    1    3    3    0    0 -0.43446664306E+02 -0.10407474762E+02  0.16417713718E+02  0.47596948369E+02  0.00000000000E+00 0.  1.
<mgrwt>
<rscale>  0 0.11632002E+03</rscale>
<asrwt>0</asrwt>
<pdfrwt beam="1">  1        1 0.18861972E-01 0.12576196E+03</pdfrwt>
<pdfrwt beam="2">  1       -1 0.14965874E-01 0.12576196E+03</pdfrwt>
<totfact> 0.83431149E+03</totfact>
</mgrwt>
</event>
<event>
 7    1  0.1378058E-005  0.2370539E+03  0.7546771E-02  0.1124558E+00
         -2   -1    0    0    0  501 -0.00000000000E+00  0.00000000000E+00  0.51709211498E+02  0.51709211498E+02  0.00000000000E+00 0. -1.
          2   -1    0    0  501    0  0.00000000000E+00 -0.00000000000E+00 -0.11932452245E+04  0.11932452245E+04  0.00000000000E+00 0.  1.
         23    2    1    2    0    0  0.78607802209E+02  0.18544552771E+03 -0.79427692204E+03  0.82449821859E+03  0.91390662775E+02 0.  0.
          5    1    1    2  502    0 -0.63014995132E-01 -0.67208937249E+02 -0.31801728646E+02  0.74501578251E+02  0.47000000000E+01 0. -1.
         -5    1    1    2    0  502 -0.78544787214E+02 -0.11823659046E+03 -0.31545736234E+03  0.34595463919E+03  0.47000000000E+01 0. -1.
        -11    1    3    3    0    0  0.72350363988E+02  0.14782297569E+03 -0.74050630546E+03  0.75857484518E+03  0.00000000000E+00 0.  1.
         11    1    3    3    0    0  0.62574382209E+01  0.37622552019E+02 -0.53770616586E+02  0.65923373408E+02  0.00000000000E+00 0. -1.
<mgrwt>
<rscale>  0 0.23298223E+03</rscale>
<asrwt>0</asrwt>
<pdfrwt beam="2">  1        2 0.18357619E+00 0.23705391E+03</pdfrwt>
<pdfrwt beam="1">  1       -2 0.79552633E-02 0.23705391E+03</pdfrwt>
<totfact> 0.19227443E+03</totfact>
</mgrwt>
</event>
<event>
 7    1  0.1378058E-005  0.1585669E+03  0.7546771E-02  0.1197983E+00
         -2   -1    0    0    0  501 -0.00000000000E+00  0.00000000000E+00  0.83067804622E+02  0.83067804622E+02  0.00000000000E+00 0. -1.
          2   -1    0    0  501    0  0.00000000000E+00 -0.00000000000E+00 -0.26754459091E+03  0.26754459091E+03  0.00000000000E+00 0.  1.
         23    2    1    2    0    0 -0.86774742341E+02  0.44600906964E+02 -0.11833259170E+03  0.17880282413E+03  0.91917086815E+02 0.  0.
          5    1    1    2  502    0 -0.14929418824E+02 -0.57986640732E+01 -0.60441952474E+02  0.62704319392E+02  0.47000000000E+01 0.  1.
         -5    1    1    2    0  502  0.10170416117E+03 -0.38802242891E+02 -0.57022421198E+01  0.10910525201E+03  0.47000000000E+01 0.  1.
        -11    1    3    3    0    0 -0.51677627030E+02  0.18493340252E+02 -0.24526888569E+01  0.54941755084E+02  0.00000000000E+00 0. -1.
         11    1    3    3    0    0 -0.35097115311E+02  0.26107566712E+02 -0.11587990284E+03  0.12386106905E+03  0.00000000000E+00 0.  1.
<mgrwt>
<rscale>  0 0.15204477E+03</rscale>
<asrwt>0</asrwt>
<pdfrwt beam="2">  1        2 0.41160706E-01 0.15856694E+03</pdfrwt>
<pdfrwt beam="1">  1       -2 0.12779662E-01 0.15856694E+03</pdfrwt>
<totfact> 0.53352639E+03</totfact>
</mgrwt>
</event>
<event>
 7    1  0.1413864E-005  0.1358672E+03  0.7546771E-02  0.1230609E+00
          1   -1    0    0  501    0  0.00000000000E+00  0.00000000000E+00  0.72044723973E+03  0.72044723973E+03  0.00000000000E+00 0. -1.
         -1   -1    0    0    0  501 -0.00000000000E+00 -0.00000000000E+00 -0.20575892585E+02  0.20575892585E+02  0.00000000000E+00 0.  1.
         23    2    1    2    0    0 -0.40633493192E+02  0.34415588744E+02  0.34068037268E+03  0.35699443094E+03  0.92446708282E+02 0.  0.
          5    1    1    2  502    0  0.40564856714E+01  0.41230509203E+02  0.19633724538E+03  0.20071575396E+03  0.47000000000E+01 0.  1.
         -5    1    1    2    0  502  0.36577007521E+02 -0.75646097947E+02  0.16285372909E+03  0.18331294742E+03  0.47000000000E+01 0.  1.
        -11    1    3    3    0    0 -0.58453708391E+01  0.58298665188E+02  0.13723733299E+03  0.14922127291E+03  0.00000000000E+00 0.  1.
         11    1    3    3    0    0 -0.34788122353E+02 -0.23883076444E+02  0.20344303969E+03  0.20777315802E+03  0.00000000000E+00 0. -1.
<mgrwt>
<rscale>  0 0.12789771E+03</rscale>
<asrwt>0</asrwt>
<pdfrwt beam="1">  1        1 0.11083802E+00 0.13586717E+03</pdfrwt>
<pdfrwt beam="2">  1       -1 0.31655225E-02 0.13586717E+03</pdfrwt>
<totfact> 0.90356907E+03</totfact>
</mgrwt>
</event>
<event>
 7    1  0.1378058E-005  0.3235070E+03  0.7546771E-02  0.1100460E+00
         -1   -1    0    0    0  501 -0.00000000000E+00  0.00000000000E+00  0.37754145143E+02  0.37754145143E+02  0.00000000000E+00 0.  1.
          1   -1    0    0  501    0  0.00000000000E+00 -0.00000000000E+00 -0.16068711468E+04  0.16068711468E+04  0.00000000000E+00 0. -1.
         23    2    1    2    0    0 -0.12291048729E+02  0.12939125980E+03 -0.67504821796E+03  0.69382784471E+03  0.93881912718E+02 0.  0.
          5    1    1    2  502    0  0.13371453574E+03 -0.76609595480E+01 -0.24425142420E+03  0.27860207392E+03  0.47000000000E+01 0. -1.
         -5    1    1    2    0  502 -0.12142348701E+03 -0.12173030025E+03 -0.64981735946E+03  0.67219537327E+03  0.47000000000E+01 0.  1.
        -11    1    3    3    0    0 -0.34013489000E+02  0.35983033769E+02 -0.10907914780E+03  0.11979130452E+03  0.00000000000E+00 0.  1.
         11    1    3    3    0    0  0.21722440271E+02  0.93408226030E+02 -0.56596907015E+03  0.57403654019E+03  0.00000000000E+00 0. -1.
<mgrwt>
<rscale>  0 0.27143708E+03</rscale>
<asrwt>0</asrwt>
<pdfrwt beam="2">  1        1 0.24721095E+00 0.32350703E+03</pdfrwt>
<pdfrwt beam="1">  1       -1 0.58083299E-02 0.32350703E+03</pdfrwt>
<totfact> 0.85040308E+02</totfact>
</mgrwt>
</event>
<event>
 7    1  0.1378058E-005  0.4038239E+03  0.7546771E-02  0.1042996E+00
         -1   -1    0    0    0  501 -0.00000000000E+00  0.00000000000E+00  0.77926360266E+02  0.77926360266E+02  0.00000000000E+00 0.  1.
          1   -1    0    0  501    0  0.00000000000E+00 -0.00000000000E+00 -0.20718210702E+04  0.20718210702E+04  0.00000000000E+00 0. -1.
         23    2    1    2    0    0 -0.31920829130E+03  0.21949767946E+03 -0.91089354648E+03  0.99390778963E+03  0.89735593486E+02 0.  0.
          5    1    1    2  502    0  0.14955852662E+03 -0.16083924576E+03 -0.50833188544E+03  0.55376927652E+03  0.47000000000E+01 0. -1.
         -5    1    1    2    0  502  0.16964976468E+03 -0.58658433697E+02 -0.57466927797E+03  0.60207036427E+03  0.47000000000E+01 0.  1.
        -11    1    3    3    0    0 -0.27483501582E+03  0.22167806513E+03 -0.81684937523E+03  0.88989794487E+03  0.00000000000E+00 0.  1.
         11    1    3    3    0    0 -0.44373275479E+02 -0.21803856794E+01 -0.94044171254E+02  0.10400984475E+03  0.00000000000E+00 0. -1.
<mgrwt>
<rscale>  0 0.40227155E+03</rscale>
<asrwt>0</asrwt>
<pdfrwt beam="2">  1        1 0.31874173E+00 0.40382392E+03</pdfrwt>
<pdfrwt beam="1">  1       -1 0.11988670E-01 0.40382392E+03</pdfrwt>
<totfact> 0.13560985E+02</totfact>
</mgrwt>
</event>
<event>
 7    1  0.1378058E-005  0.1880834E+03  0.7546771E-02  0.1164249E+00
          2   -1    0    0  501    0  0.00000000000E+00  0.00000000000E+00  0.27373656758E+03  0.27373656758E+03  0.00000000000E+00 0. -1.
         -2   -1    0    0    0  501 -0.00000000000E+00 -0.00000000000E+00 -0.12510542384E+03  0.12510542384E+03  0.00000000000E+00 0.  1.
         23    2    1    2    0    0 -0.13932978148E+03  0.18410478658E+02  0.11879412783E+03  0.20840670003E+03  0.97824199859E+02 0.  0.
          5    1    1    2  502    0 -0.27199180050E+01  0.24205197022E+02 -0.22105893396E+02  0.33227248451E+02  0.47000000000E+01 0.  1.
         -5    1    1    2    0  502  0.14204969948E+03 -0.42615675680E+02  0.51942909304E+02  0.15720804294E+03  0.47000000000E+01 0.  1.
        -11    1    3    3    0    0 -0.11886773575E+03 -0.44085647962E+01  0.12959590869E+03  0.17590927660E+03  0.00000000000E+00 0. -1.
         11    1    3    3    0    0 -0.20462045730E+02  0.22819043454E+02 -0.10801780859E+02  0.32497423426E+02  0.00000000000E+00 0.  1.
<mgrwt>
<rscale>  0 0.18372181E+03</rscale>
<asrwt>0</asrwt>
<pdfrwt beam="1">  1        2 0.42113318E-01 0.18808337E+03</pdfrwt>
<pdfrwt beam="2">  1       -2 0.19246988E-01 0.18808337E+03</pdfrwt>
<totfact> 0.26680133E+03</totfact>
</mgrwt>
</event>
<event>
 7    1  0.1378058E-005  0.1353768E+03  0.7546771E-02  0.1232189E+00
         -1   -1    0    0    0  501 -0.00000000000E+00  0.00000000000E+00  0.29840038781E+02  0.29840038781E+02  0.00000000000E+00 0.  1.
          1   -1    0    0  501    0  0.00000000000E+00 -0.00000000000E+00 -0.72260629937E+03  0.72260629937E+03  0.00000000000E+00 0. -1.
         23    2    1    2    0    0  0.41509693748E+01  0.51817579605E+02 -0.53258619953E+03  0.54272144760E+03  0.90532964395E+02 0.  0.
          5    1    1    2  502    0  0.20028469647E+02  0.48659333510E+01 -0.14439831760E+03  0.14593759293E+03  0.47000000000E+01 0. -1.
         -5    1    1    2    0  502 -0.24179439022E+02 -0.56683512956E+02 -0.15781743458E+02  0.63787297631E+02  0.47000000000E+01 0. -1.
        -11    1    3    3    0    0 -0.10293654022E+01 -0.26179564311E+02 -0.12839761461E+03  0.13104341501E+03  0.00000000000E+00 0.  1.
         11    1    3    3    0    0  0.51803347770E+01  0.77997143917E+02 -0.40418858492E+03  0.41167803258E+03  0.00000000000E+00 0. -1.
<mgrwt>
<rscale>  0 0.12686127E+03</rscale>
<asrwt>0</asrwt>
<pdfrwt beam="2">  1        1 0.11117019E+00 0.13537680E+03</pdfrwt>
<pdfrwt beam="1">  1       -1 0.45907757E-02 0.13537680E+03</pdfrwt>
<totfact> 0.52154922E+03</totfact>
</mgrwt>
</event>
<event>
 7    1  0.1378058E-005  0.1476319E+03  0.7546771E-02  0.1225710E+00
         -1   -1    0    0    0  501 -0.00000000000E+00  0.00000000000E+00  0.25027137325E+02  0.25027137325E+02  0.00000000000E+00 0.  1.
          1   -1    0    0  501    0  0.00000000000E+00 -0.00000000000E+00 -0.62053186519E+03  0.62053186519E+03  0.00000000000E+00 0. -1.
         23    2    1    2    0    0  0.94475961341E+01 -0.53936596629E+01 -0.32023030458E+03  0.33319513869E+03  0.91395863349E+02 0.  0.
          5    1    1    2  502    0 -0.56445384320E+02 -0.34385475669E+02 -0.21904392770E+03  0.22884661809E+03  0.47000000000E+01 0. -1.
         -5    1    1    2    0  502  0.46997788186E+02  0.39779135332E+02 -0.56230495587E+02  0.83517245740E+02  0.47000000000E+01 0.  1.
        -11    1    3    3    0    0  0.92187968180E+01 -0.47466361369E+02 -0.20184196663E+03  0.20755293583E+03  0.00000000000E+00 0. -1.
         11    1    3    3    0    0  0.22879931602E+00  0.42072701706E+02 -0.11838833795E+03  0.12564220286E+03  0.00000000000E+00 0.  1.
<mgrwt>
<rscale>  0 0.13118389E+03</rscale>
<asrwt>0</asrwt>
<pdfrwt beam="2">  1        1 0.95466439E-01 0.14763189E+03</pdfrwt>
<pdfrwt beam="1">  1       -1 0.38503289E-02 0.14763189E+03</pdfrwt>
<totfact> 0.84151730E+03</totfact>
</mgrwt>
</event>
<event>
 7    1  0.1378058E-005  0.1555983E+03  0.7546771E-02  0.1202200E+00
          2   -1    0    0  501    0  0.00000000000E+00  0.00000000000E+00  0.36478144153E+03  0.36478144153E+03  0.00000000000E+00 0. -1.
         -2   -1    0    0    0  501 -0.00000000000E+00 -0.00000000000E+00 -0.57934752192E+02  0.57934752192E+02  0.00000000000E+00 0.  1.
         23    2    1    2    0    0  0.92441353436E+02  0.63299840018E+01  0.98420918470E+02  0.16261593717E+03  0.90397971814E+02 0.  0.
          5    1    1    2  502    0 -0.87852369841E+02 -0.25862166785E+01  0.49472069061E+02  0.10096684119E+03  0.47000000000E+01 0.  1.
         -5    1    1    2    0  502 -0.45889835955E+01 -0.37437673233E+01  0.15895370180E+03  0.15913341535E+03  0.47000000000E+01 0.  1.
        -11    1    3    3    0    0  0.27234292732E+02 -0.40569018424E+02  0.42331408423E+02  0.64649053323E+02  0.00000000000E+00 0.  1.
         11    1    3    3    0    0  0.65207060704E+02  0.46899002426E+02  0.56089510047E+02  0.97966883851E+02  0.00000000000E+00 0. -1.
<mgrwt>
<rscale>  0 0.14860352E+03</rscale>
<asrwt>0</asrwt>
<pdfrwt beam="1">  1        2 0.56120221E-01 0.15559833E+03</pdfrwt>
<pdfrwt beam="2">  1       -2 0.89130390E-02 0.15559833E+03</pdfrwt>
<totfact> 0.67823464E+03</totfact>
</mgrwt>
</event>
<event>
 7    1  0.1378058E-005  0.1842033E+03  0.7546771E-02  0.1168998E+00
         -1   -1    0    0    0  501 -0.00000000000E+00  0.00000000000E+00  0.46928102948E+02  0.46928102948E+02  0.00000000000E+00 0.  1.
          1   -1    0    0  501    0  0.00000000000E+00 -0.00000000000E+00 -0.65013347872E+03  0.65013347872E+03  0.00000000000E+00 0. -1.
         23    2    1    2    0    0  0.13037312858E+03  0.36128944707E+02 -0.24925007572E+03  0.29804378731E+03  0.91662672911E+02 0.  0.
          5    1    1    2  502    0 -0.91421493987E+02  0.27855681203E+02 -0.26974582091E+03  0.28621447628E+03  0.47000000000E+01 0. -1.
         -5    1    1    2    0  502 -0.38951634595E+02 -0.63984625910E+02 -0.84209479139E+02  0.11280331807E+03  0.47000000000E+01 0. -1.
        -11    1    3    3    0    0  0.16933380216E+02  0.33593916017E+02 -0.20851296982E+02  0.43012406870E+02  0.00000000000E+00 0.  1.
         11    1    3    3    0    0  0.11343974837E+03  0.25350286899E+01 -0.22839877874E+03  0.25503138044E+03  0.00000000000E+00 0. -1.
<mgrwt>
<rscale>  0 0.17877058E+03</rscale>
<asrwt>0</asrwt>
<pdfrwt beam="2">  1        1 0.10002053E+00 0.18420327E+03</pdfrwt>
<pdfrwt beam="1">  1       -1 0.72197087E-02 0.18420327E+03</pdfrwt>
<totfact> 0.31215437E+03</totfact>
</mgrwt>
</event>
<event>
 7    1  0.1378058E-005  0.1604281E+03  0.7546771E-02  0.1211703E+00
          1   -1    0    0  501    0  0.00000000000E+00  0.00000000000E+00  0.96573056565E+02  0.96573056565E+02  0.00000000000E+00 0. -1.
         -1   -1    0    0    0  501 -0.00000000000E+00 -0.00000000000E+00 -0.18062357049E+03  0.18062357049E+03  0.00000000000E+00 0.  1.
         23    2    1    2    0    0 -0.32378280246E+02  0.11287248941E+01 -0.49536951730E+00  0.96313692484E+02  0.90699806600E+02 0.  0.
          5    1    1    2  502    0  0.78192677523E+01 -0.77954561903E+02 -0.51984765330E+02  0.94141173224E+02  0.47000000000E+01 0. -1.
         -5    1    1    2    0  502  0.24559012494E+02  0.76825837009E+02 -0.31570379081E+02  0.86741761350E+02  0.47000000000E+01 0.  1.
        -11    1    3    3    0    0 -0.14475899079E+02 -0.44743974126E+02 -0.16767563877E+01  0.47057267098E+02  0.00000000000E+00 0. -1.
         11    1    3    3    0    0 -0.17902381167E+02  0.45872699020E+02  0.11813868704E+01  0.49256425386E+02  0.00000000000E+00 0.  1.
<mgrwt>
<rscale>  0 0.14121502E+03</rscale>
<asrwt>0</asrwt>
<pdfrwt beam="1">  1        1 0.14857394E-01 0.16042810E+03</pdfrwt>
<pdfrwt beam="2">  1       -1 0.27788241E-01 0.16042810E+03</pdfrwt>
<totfact> 0.42508504E+03</totfact>
</mgrwt>
</event>
<event>
 7    1  0.1378058E-005  0.1756322E+03  0.7546771E-02  0.1198860E+00
         -1   -1    0    0    0  501 -0.00000000000E+00  0.00000000000E+00  0.46122032529E+03  0.46122032529E+03  0.00000000000E+00 0.  1.
          1   -1    0    0  501    0  0.00000000000E+00 -0.00000000000E+00 -0.20928663583E+03  0.20928663583E+03  0.00000000000E+00 0. -1.
         23    2    1    2    0    0  0.33560698023E+02  0.46867098610E+00 -0.17992440526E+03  0.20430091864E+03  0.90771876941E+02 0.  0.
          5    1    1    2  502    0  0.78261026467E+01 -0.49670237047E+02  0.38035607692E+03  0.38369416933E+03  0.47000000000E+01 0. -1.
         -5    1    1    2    0  502 -0.41386800670E+02  0.49201566061E+02  0.51502017796E+02  0.82511873143E+02  0.47000000000E+01 0.  1.
        -11    1    3    3    0    0 -0.96040370942E+01  0.36844900681E+02 -0.51762124843E+02  0.64258087452E+02  0.00000000000E+00 0.  1.
         11    1    3    3    0    0  0.43164735118E+02 -0.36376229695E+02 -0.12816228042E+03  0.14004283118E+03  0.00000000000E+00 0. -1.
<mgrwt>
<rscale>  0 0.15132049E+03</rscale>
<asrwt>0</asrwt>
<pdfrwt beam="2">  1        1 0.32197944E-01 0.17563217E+03</pdfrwt>
<pdfrwt beam="1">  1       -1 0.70956973E-01 0.17563217E+03</pdfrwt>
<totfact> 0.29248706E+02</totfact>
</mgrwt>
</event>
<event>
 7    1  0.1378058E-005  0.1856469E+03  0.7546771E-02  0.1167805E+00
          4   -1    0    0  501    0  0.00000000000E+00  0.00000000000E+00  0.14376306996E+03  0.14376306996E+03  0.00000000000E+00 0. -1.
         -4   -1    0    0    0  501 -0.00000000000E+00 -0.00000000000E+00 -0.21510786513E+03  0.21510786513E+03  0.00000000000E+00 0.  1.
         23    2    1    2    0    0 -0.13642797685E+03 -0.15056805177E+02 -0.14423255623E+02  0.16469364233E+03  0.89870269116E+02 0.  0.
          5    1    1    2  502    0  0.40256672102E+02  0.17553798526E+02 -0.83323311152E+02  0.94305883553E+02  0.47000000000E+01 0. -1.
         -5    1    1    2    0  502  0.96171304748E+02 -0.24969933489E+01  0.26401771608E+02  0.99871409206E+02  0.47000000000E+01 0. -1.
        -11    1    3    3    0    0 -0.72854380387E+02 -0.13334377372E+02  0.37107299008E+02  0.82840316279E+02  0.00000000000E+00 0. -1.
         11    1    3    3    0    0 -0.63573596463E+02 -0.17224278048E+01 -0.51530554631E+02  0.81853326049E+02  0.00000000000E+00 0.  1.
<mgrwt>
<rscale>  0 0.17999770E+03</rscale>
<asrwt>0</asrwt>
<pdfrwt beam="1">  1        4 0.22117395E-01 0.18564687E+03</pdfrwt>
<pdfrwt beam="2">  1       -4 0.33093518E-01 0.18564687E+03</pdfrwt>
<totfact> 0.29081985E+02</totfact>
</mgrwt>
</event>
<event>
 7    1  0.1378058E-005  0.1303427E+03  0.7546771E-02  0.1240894E+00
          1   -1    0    0  501    0  0.00000000000E+00  0.00000000000E+00  0.61188704089E+03  0.61188704089E+03  0.00000000000E+00 0. -1.
         -1   -1    0    0    0  501 -0.00000000000E+00 -0.00000000000E+00 -0.36349343550E+02  0.36349343550E+02  0.00000000000E+00 0.  1.
         23    2    1    2    0    0 -0.18358981947E+02 -0.32049627306E+02  0.47123250317E+03  0.48129689722E+03  0.90677452566E+02 0.  0.
          5    1    1    2  502    0  0.13235368172E+02 -0.47027886603E+02  0.26465455757E+02  0.55761164241E+02  0.47000000000E+01 0.  1.
         -5    1    1    2    0  502  0.51236137745E+01  0.79077513909E+02  0.77839738420E+02  0.11117832298E+03  0.47000000000E+01 0.  1.
        -11    1    3    3    0    0  0.25153011095E+02  0.18322964402E+02  0.13519814273E+03  0.13873335140E+03  0.00000000000E+00 0.  1.
         11    1    3    3    0    0 -0.43511993042E+02 -0.50372591708E+02  0.33603436043E+03  0.34256354582E+03  0.00000000000E+00 0. -1.
<mgrwt>
<rscale>  0 0.12134539E+03</rscale>
<asrwt>0</asrwt>
<pdfrwt beam="1">  1        1 0.94136460E-01 0.13034270E+03</pdfrwt>
<pdfrwt beam="2">  1       -1 0.55922072E-02 0.13034270E+03</pdfrwt>
<totfact> 0.49108960E+03</totfact>
</mgrwt>
</event>
<event>
 7    1  0.1378058E-005  0.1414671E+03  0.7546771E-02  0.1222288E+00
          2   -1    0    0  501    0  0.00000000000E+00  0.00000000000E+00  0.50837662819E+03  0.50837662819E+03  0.00000000000E+00 0. -1.
         -2   -1    0    0    0  501 -0.00000000000E+00 -0.00000000000E+00 -0.31761280471E+02  0.31761280471E+02  0.00000000000E+00 0.  1.
         23    2    1    2    0    0 -0.20230538258E+02 -0.63096559131E+02  0.22465339050E+03  0.25117809895E+03  0.90723982926E+02 0.  0.
          5    1    1    2  502    0  0.48899642588E+02  0.29906081174E+02  0.23461659076E+03  0.24156279390E+03  0.47000000000E+01 0.  1.
         -5    1    1    2    0  502 -0.28669104331E+02  0.33190477956E+02  0.17345366461E+02  0.47397015811E+02  0.47000000000E+01 0.  1.
        -11    1    3    3    0    0 -0.33416728679E+02  0.63691945091E+01  0.35160318884E+02  0.48923332044E+02  0.00000000000E+00 0.  1.
         11    1    3    3    0    0  0.13186190421E+02 -0.69465753640E+02  0.18949307161E+03  0.20225476691E+03  0.00000000000E+00 0. -1.
<mgrwt>
<rscale>  0 0.13354560E+03</rscale>
<asrwt>0</asrwt>
<pdfrwt beam="1">  1        2 0.78211783E-01 0.14146711E+03</pdfrwt>
<pdfrwt beam="2">  1       -2 0.48863512E-02 0.14146711E+03</pdfrwt>
<totfact> 0.11801411E+04</totfact>
</mgrwt>
</event>
<event>
 7    1  0.1378058E-005  0.1273544E+03  0.7546771E-02  0.1246152E+00
          2   -1    0    0  501    0  0.00000000000E+00  0.00000000000E+00  0.96949245516E+03  0.96949245516E+03  0.00000000000E+00 0. -1.
         -2   -1    0    0    0  501 -0.00000000000E+00 -0.00000000000E+00 -0.12680060412E+02  0.12680060412E+02  0.00000000000E+00 0.  1.
         23    2    1    2    0    0  0.19629101900E+02  0.14474227088E+02  0.40853490281E+03  0.41929833584E+03  0.91189488039E+02 0.  0.
          5    1    1    2  502    0 -0.23697447140E+02 -0.21315140250E+02  0.55197811649E+03  0.55291756645E+03  0.47000000000E+01 0. -1.
         -5    1    1    2    0  502  0.40683452397E+01  0.68409131621E+01 -0.37006245587E+01  0.99566132799E+01  0.47000000000E+01 0. -1.
        -11    1    3    3    0    0  0.18473554462E+02 -0.35113612756E+02  0.11624633390E+03  0.12283097395E+03  0.00000000000E+00 0.  1.
         11    1    3    3    0    0  0.11555474379E+01  0.49587839844E+02  0.29228856891E+03  0.29646736189E+03  0.00000000000E+00 0. -1.
<mgrwt>
<rscale>  0 0.11816724E+03</rscale>
<asrwt>0</asrwt>
<pdfrwt beam="1">  1        2 0.14915263E+00 0.12735436E+03</pdfrwt>
<pdfrwt beam="2">  1       -2 0.19507793E-02 0.12735436E+03</pdfrwt>
<totfact> 0.20846151E+04</totfact>
</mgrwt>
</event>
<event>
 7    1  0.1378058E-005  0.1379850E+03  0.7546771E-02  0.1234175E+00
          2   -1    0    0  501    0  0.00000000000E+00  0.00000000000E+00  0.97179505286E+02  0.97179505286E+02  0.00000000000E+00 0. -1.
         -2   -1    0    0    0  501 -0.00000000000E+00 -0.00000000000E+00 -0.20738899692E+03  0.20738899692E+03  0.00000000000E+00 0.  1.
         23    2    1    2    0    0  0.58184840385E+02 -0.53468256235E+01  0.38071628655E+02  0.10201687411E+03  0.74457568456E+02 0.  0.
          5    1    1    2  502    0  0.65739146530E+01  0.43207524740E+02 -0.98723202222E+01  0.45051739751E+02  0.47000000000E+01 0.  1.
         -5    1    1    2    0  502 -0.64758755038E+02 -0.37860699116E+02 -0.13840880006E+03  0.15749988834E+03  0.47000000000E+01 0.  1.
        -11    1    3    3    0    0  0.26455819420E+02 -0.27231485723E+02  0.48967614578E+02  0.61962016376E+02  0.00000000000E+00 0. -1.
         11    1    3    3    0    0  0.31729020966E+02  0.21884660100E+02 -0.10895985923E+02  0.40054857737E+02  0.00000000000E+00 0.  1.
<mgrwt>
<rscale>  0 0.12557418E+03</rscale>
<asrwt>0</asrwt>
<pdfrwt beam="1">  1        2 0.14950693E-01 0.13798504E+03</pdfrwt>
<pdfrwt beam="2">  1       -2 0.31905999E-01 0.13798504E+03</pdfrwt>
<totfact> 0.34310042E+03</totfact>
</mgrwt>
</event>
<event>
 7    1  0.1378058E-005  0.1291006E+03  0.7546771E-02  0.1243654E+00
         -2   -1    0    0    0  501 -0.00000000000E+00  0.00000000000E+00  0.22036872526E+03  0.22036872526E+03  0.00000000000E+00 0.  1.
          2   -1    0    0  501    0  0.00000000000E+00 -0.00000000000E+00 -0.58899221203E+02  0.58899221203E+02  0.00000000000E+00 0. -1.
         23    2    1    2    0    0  0.10964220401E+02 -0.30383883991E+02  0.44953849620E+02  0.10536317689E+03  0.89650186349E+02 0.  0.
          5    1    1    2  502    0  0.36842128456E+01 -0.28013558330E+02  0.10941140544E+03  0.11309853454E+03  0.47000000000E+01 0.  1.
         -5    1    1    2    0  502 -0.14648433246E+02  0.58397442321E+02  0.71042490009E+01  0.60806235042E+02  0.47000000000E+01 0.  1.
        -11    1    3    3    0    0 -0.28662813286E+02  0.20104651189E+01 -0.98507375128E+01  0.30374921646E+02  0.00000000000E+00 0.  1.
         11    1    3    3    0    0  0.39627033687E+02 -0.32394349110E+02  0.54804587133E+02  0.74988255239E+02  0.00000000000E+00 0. -1.
<mgrwt>
<rscale>  0 0.11966311E+03</rscale>
<asrwt>0</asrwt>
<pdfrwt beam="2">  1        2 0.90614188E-02 0.12910062E+03</pdfrwt>
<pdfrwt beam="1">  1       -2 0.33902880E-01 0.12910062E+03</pdfrwt>
<totfact> 0.55910416E+03</totfact>
</mgrwt>
</event>
<event>
 7    1  0.1378058E-005  0.1797459E+03  0.7546771E-02  0.1173824E+00
          1   -1    0    0  501    0  0.00000000000E+00  0.00000000000E+00  0.41264099058E+02  0.41264099058E+02  0.00000000000E+00 0. -1.
         -1   -1    0    0    0  501 -0.00000000000E+00 -0.00000000000E+00 -0.72363343057E+03  0.72363343057E+03  0.00000000000E+00 0.  1.
         23    2    1    2    0    0  0.10196169623E+03 -0.79294226122E+02 -0.23655758521E+03  0.28421395399E+03  0.90190458088E+02 0.  0.
          5    1    1    2  502    0 -0.41258245415E+02 -0.18502126004E+02 -0.24493477731E+03  0.24911785688E+03  0.47000000000E+01 0. -1.
         -5    1    1    2    0  502 -0.60703450815E+02  0.97796352126E+02 -0.20087696900E+03  0.23156571876E+03  0.47000000000E+01 0. -1.
        -11    1    3    3    0    0 -0.12269842988E+02 -0.31282678467E+02 -0.52500394999E+02  0.62333349774E+02  0.00000000000E+00 0.  1.
         11    1    3    3    0    0  0.11423153922E+03 -0.48011547655E+02 -0.18405719021E+03  0.22188060422E+03  0.00000000000E+00 0. -1.
<mgrwt>
<rscale>  0 0.17391629E+03</rscale>
<asrwt>0</asrwt>
<pdfrwt beam="1">  1        1 0.63483235E-02 0.17974589E+03</pdfrwt>
<pdfrwt beam="2">  1       -1 0.11132821E+00 0.17974589E+03</pdfrwt>
<totfact> 0.93520843E+02</totfact>
</mgrwt>
</event>
<event>
 7    1  0.1378058E-005  0.2015458E+03  0.7546771E-02  0.1152438E+00
          1   -1    0    0  501    0  0.00000000000E+00  0.00000000000E+00  0.85037016485E+03  0.85037016485E+03  0.00000000000E+00 0. -1.
         -1   -1    0    0    0  501 -0.00000000000E+00 -0.00000000000E+00 -0.43692815869E+02  0.43692815869E+02  0.00000000000E+00 0.  1.
         23    2    1    2    0    0  0.75821387185E+02 -0.13873340896E+03  0.35901953816E+03  0.40312690771E+03  0.92846289260E+02 0.  0.
          5    1    1    2  502    0 -0.10766082514E+03  0.93509442156E+02  0.35927190135E+03  0.38656598161E+03  0.47000000000E+01 0. -1.
         -5    1    1    2    0  502  0.31839437958E+02  0.45223966803E+02  0.88385909471E+02  0.10437009139E+03  0.47000000000E+01 0. -1.
        -11    1    3    3    0    0  0.16315368841E+02 -0.78555547533E+02  0.87463346007E+02  0.11868867765E+03  0.00000000000E+00 0.  1.
         11    1    3    3    0    0  0.59506018344E+02 -0.60177861426E+02  0.27155619215E+03  0.28443823006E+03  0.00000000000E+00 0. -1.
<mgrwt>
<rscale>  0 0.19683350E+03</rscale>
<asrwt>0</asrwt>
<pdfrwt beam="1">  1        1 0.13082617E+00 0.20154581E+03</pdfrwt>
<pdfrwt beam="2">  1       -1 0.67219723E-02 0.20154581E+03</pdfrwt>
<totfact> 0.23395515E+03</totfact>
</mgrwt>
</event>
<event>
 7    1  0.1378058E-005  0.1361018E+03  0.7546771E-02  0.1230814E+00
         -2   -1    0    0    0  501 -0.00000000000E+00  0.00000000000E+00  0.83512346071E+02  0.83512346071E+02  0.00000000000E+00 0.  1.
          2   -1    0    0  501    0  0.00000000000E+00 -0.00000000000E+00 -0.18591864005E+03  0.18591864005E+03  0.00000000000E+00 0. -1.
         23    2    1    2    0    0 -0.48678404815E+01 -0.53619185607E+02 -0.77530301736E+02  0.13107450111E+03  0.90944291837E+02 0.  0.
          5    1    1    2  502    0  0.45642342632E+02  0.70843813655E+02 -0.37096629173E+02  0.92197176042E+02  0.47000000000E+01 0.  1.
         -5    1    1    2    0  502 -0.40774502151E+02 -0.17224628048E+02  0.12220636935E+02  0.46159308965E+02  0.47000000000E+01 0.  1.
        -11    1    3    3    0    0 -0.97196175903E+01 -0.43627744387E+02 -0.98041150800E+02  0.10774933084E+03  0.00000000000E+00 0. -1.
         11    1    3    3    0    0  0.48517771088E+01 -0.99914412200E+01  0.20510849064E+02  0.23325170269E+02  0.00000000000E+00 0.  1.
<mgrwt>
<rscale>  0 0.12776224E+03</rscale>
<asrwt>0</asrwt>
<pdfrwt beam="2">  1        2 0.28602868E-01 0.13610181E+03</pdfrwt>
<pdfrwt beam="1">  1       -2 0.12848053E-01 0.13610181E+03</pdfrwt>
<totfact> 0.77483481E+03</totfact>
</mgrwt>
</event>
<event>
 7    1  0.1378058E-005  0.1359068E+03  0.7546771E-02  0.1231421E+00
         -2   -1    0    0    0  501 -0.00000000000E+00  0.00000000000E+00  0.95905127501E+02  0.95905127501E+02  0.00000000000E+00 0.  1.
          2   -1    0    0  501    0  0.00000000000E+00 -0.00000000000E+00 -0.16043377688E+03  0.16043377688E+03  0.00000000000E+00 0. -1.
         23    2    1    2    0    0  0.33955634354E+02  0.41164761977E+02 -0.59074547852E+02  0.12032272597E+03  0.90223242281E+02 0.  0.
          5    1    1    2  502    0 -0.14358774413E+02  0.41392960067E+02  0.18397741898E+02  0.47750585889E+02  0.47000000000E+01 0. -1.
         -5    1    1    2    0  502 -0.19596859941E+02 -0.82557722045E+02 -0.23851843425E+02  0.88265592523E+02  0.47000000000E+01 0. -1.
        -11    1    3    3    0    0 -0.24635248920E+02  0.39075589433E+02 -0.25731526058E+02  0.52876352107E+02  0.00000000000E+00 0. -1.
         11    1    3    3    0    0  0.58590883274E+02  0.20891725442E+01 -0.33343021795E+02  0.67446373862E+02  0.00000000000E+00 0.  1.
<mgrwt>
<rscale>  0 0.12736335E+03</rscale>
<asrwt>0</asrwt>
<pdfrwt beam="2">  1        2 0.24682119E-01 0.13590678E+03</pdfrwt>
<pdfrwt beam="1">  1       -2 0.14754635E-01 0.13590678E+03</pdfrwt>
<totfact> 0.72785599E+03</totfact>
</mgrwt>
</event>
<event>
 7    1  0.1378058E-005  0.1505168E+03  0.7546771E-02  0.1210926E+00
          1   -1    0    0  501    0  0.00000000000E+00  0.00000000000E+00  0.16415428604E+03  0.16415428604E+03  0.00000000000E+00 0. -1.
         -1   -1    0    0    0  501 -0.00000000000E+00 -0.00000000000E+00 -0.11105725605E+03  0.11105725605E+03  0.00000000000E+00 0.  1.
         23    2    1    2    0    0  0.17361396848E+02  0.82190096464E+02  0.11915312449E+02  0.11916268343E+03  0.83672817540E+02 0.  0.
          5    1    1    2  502    0 -0.71256267359E+02 -0.53859772098E+02  0.24980671935E+02  0.92867942040E+02  0.47000000000E+01 0.  1.
         -5    1    1    2    0  502  0.53894870511E+02 -0.28330324366E+02  0.16201045603E+02  0.63180916618E+02  0.47000000000E+01 0.  1.
        -11    1    3    3    0    0 -0.50586760339E+01  0.81853564685E+02 -0.15794783880E+02  0.83516893217E+02  0.00000000000E+00 0.  1.
         11    1    3    3    0    0  0.22420072882E+02  0.33653177920E+00  0.27710096328E+02  0.35645790217E+02  0.00000000000E+00 0. -1.
<mgrwt>
<rscale>  0 0.14180068E+03</rscale>
<asrwt>0</asrwt>
<pdfrwt beam="1">  1        1 0.25254506E-01 0.15051682E+03</pdfrwt>
<pdfrwt beam="2">  1       -1 0.17085732E-01 0.15051682E+03</pdfrwt>
<totfact> 0.47382276E+03</totfact>
</mgrwt>
</event>
<event>
 7    1  0.1378058E-005  0.1773822E+03  0.7546771E-02  0.1176170E+00
          2   -1    0    0  501    0  0.00000000000E+00  0.00000000000E+00  0.49144471735E+03  0.49144471735E+03  0.00000000000E+00 0. -1.
         -2   -1    0    0    0  501 -0.00000000000E+00 -0.00000000000E+00 -0.59402096852E+02  0.59402096852E+02  0.00000000000E+00 0.  1.
         23    2    1    2    0    0 -0.29050661781E+02 -0.12243052090E+03  0.26485672235E+03  0.30709369838E+03  0.91237507717E+02 0.  0.
          5    1    1    2  502    0  0.52243469629E+02  0.62056615905E+00  0.60813682009E+02  0.80312882782E+02  0.47000000000E+01 0.  1.
         -5    1    1    2    0  502 -0.23192807849E+02  0.12180995474E+03  0.10637221614E+03  0.16344023304E+03  0.47000000000E+01 0.  1.
        -11    1    3    3    0    0 -0.32760229174E+02 -0.98085424530E+02  0.26276171385E+03  0.28237864896E+03  0.00000000000E+00 0. -1.
         11    1    3    3    0    0  0.37095673933E+01 -0.24345096369E+02  0.20950084988E+01  0.24715049425E+02  0.00000000000E+00 0.  1.
<mgrwt>
<rscale>  0 0.17161846E+03</rscale>
<asrwt>0</asrwt>
<pdfrwt beam="1">  1        2 0.75606877E-01 0.17738223E+03</pdfrwt>
<pdfrwt beam="2">  1       -2 0.91387845E-02 0.17738223E+03</pdfrwt>
<totfact> 0.47539560E+03</totfact>
</mgrwt>
</event>
<event>
 7    1  0.1378058E-005  0.1853721E+03  0.7546771E-02  0.1167843E+00
          1   -1    0    0  501    0  0.00000000000E+00  0.00000000000E+00  0.25774634435E+02  0.25774634435E+02  0.00000000000E+00 0. -1.
         -1   -1    0    0    0  501 -0.00000000000E+00 -0.00000000000E+00 -0.12413008630E+04  0.12413008630E+04  0.00000000000E+00 0.  1.
         23    2    1    2    0    0  0.10174407301E+03  0.91587642156E+02 -0.44265152825E+03  0.47228111997E+03  0.91481846427E+02 0.  0.
          5    1    1    2  502    0  0.16535482803E+02  0.16444537926E+02 -0.13605180274E+03  0.13811599491E+03  0.47000000000E+01 0. -1.
         -5    1    1    2    0  502 -0.11827955581E+03 -0.10803218008E+03 -0.63682289761E+03  0.65667838261E+03  0.47000000000E+01 0. -1.
        -11    1    3    3    0    0  0.54580133873E+02  0.88939372620E+02 -0.20556642761E+03  0.23053580888E+03  0.00000000000E+00 0. -1.
         11    1    3    3    0    0  0.47163939136E+02  0.26482695358E+01 -0.23708510064E+03  0.24174531109E+03  0.00000000000E+00 0.  1.
<mgrwt>
<rscale>  0 0.17995858E+03</rscale>
<asrwt>0</asrwt>
<pdfrwt beam="1">  1        1 0.39653273E-02 0.18537206E+03</pdfrwt>
<pdfrwt beam="2">  1       -1 0.19096941E+00 0.18537206E+03</pdfrwt>
<totfact> 0.44167907E+02</totfact>
</mgrwt>
</event>
<event>
 7    1  0.1378058E-005  0.1284457E+03  0.7546771E-02  0.1244848E+00
         -2   -1    0    0    0  501 -0.00000000000E+00  0.00000000000E+00  0.24040637327E+02  0.24040637327E+02  0.00000000000E+00 0.  1.
          2   -1    0    0  501    0  0.00000000000E+00 -0.00000000000E+00 -0.61047093045E+03  0.61047093045E+03  0.00000000000E+00 0. -1.
         23    2    1    2    0    0 -0.16483501405E+02  0.24525136818E+02 -0.37849924524E+03  0.39010696278E+03  0.89713854039E+02 0.  0.
          5    1    1    2  502    0  0.45146852813E+02 -0.59652065490E+02 -0.85185019300E+02  0.11346887128E+03  0.47000000000E+01 0. -1.
         -5    1    1    2    0  502 -0.28663351408E+02  0.35126928672E+02 -0.12274602858E+03  0.13093573372E+03  0.47000000000E+01 0. -1.
        -11    1    3    3    0    0 -0.52643551225E+02  0.21644598861E+02 -0.19906418362E+03  0.20704197967E+03  0.00000000000E+00 0. -1.
         11    1    3    3    0    0  0.36160049820E+02  0.28805379571E+01 -0.17943506162E+03  0.18306498310E+03  0.00000000000E+00 0.  1.
<mgrwt>
<rscale>  0 0.11894493E+03</rscale>
<asrwt>0</asrwt>
<pdfrwt beam="2">  1        2 0.93918605E-01 0.12844567E+03</pdfrwt>
<pdfrwt beam="1">  1       -2 0.36985596E-02 0.12844567E+03</pdfrwt>
<totfact> 0.14455506E+04</totfact>
</mgrwt>
</event>
<event>
 7    1  0.1378058E-005  0.2193748E+03  0.7546771E-02  0.1134350E+00
         -1   -1    0    0    0  501 -0.00000000000E+00  0.00000000000E+00  0.10324756177E+03  0.10324756177E+03  0.00000000000E+00 0.  1.
          1   -1    0    0  501    0  0.00000000000E+00 -0.00000000000E+00 -0.11652893000E+03  0.11652893000E+03  0.00000000000E+00 0. -1.
         23    2    1    2    0    0  0.15489159469E+02 -0.34379129228E+01 -0.19961760413E+02  0.93595639806E+02  0.90055197549E+02 0.  0.
          5    1    1    2  502    0 -0.66914424528E+02  0.22547148465E+02  0.70516557912E+01  0.71117719052E+02  0.47000000000E+01 0. -1.
         -5    1    1    2    0  502  0.51425265059E+02 -0.19109235542E+02 -0.37126360003E+00  0.55063132912E+02  0.47000000000E+01 0. -1.
        -11    1    3    3    0    0  0.51688633115E+02  0.99296843926E+01 -0.14713234727E+02  0.54651557174E+02  0.00000000000E+00 0. -1.
         11    1    3    3    0    0 -0.36199473645E+02 -0.13367597315E+02 -0.52485256860E+01  0.38944082632E+02  0.00000000000E+00 0.  1.
<mgrwt>
<rscale>  0 0.21937482E+03</rscale>
<asrwt>0</asrwt>
<pdfrwt beam="2">  1        1 0.17927528E-01 0.21937482E+03</pdfrwt>
<pdfrwt beam="1">  1       -1 0.15884240E-01 0.21937482E+03</pdfrwt>
<totfact> 0.84340884E+03</totfact>
</mgrwt>
</event>
<event>
 7    1  0.1378058E-005  0.1554624E+03  0.7546771E-02  0.1204792E+00
         -3   -1    0    0    0  501 -0.00000000000E+00  0.00000000000E+00  0.90606586972E+03  0.90606586972E+03  0.00000000000E+00 0.  1.
          3   -1    0    0  501    0  0.00000000000E+00 -0.00000000000E+00 -0.35049655255E+02  0.35049655255E+02  0.00000000000E+00 0. -1.
         23    2    1    2    0    0 -0.35931411275E+02 -0.72481842472E+02  0.11136919204E+03  0.16572390723E+03  0.92285603893E+02 0.  0.
          5    1    1    2  502    0 -0.24587579105E+02  0.11447772663E+02  0.30118391456E+02  0.40802059373E+02  0.47000000000E+01 0. -1.
         -5    1    1    2    0  502  0.60518990380E+02  0.61034069809E+02  0.72952863096E+03  0.73458955837E+03  0.47000000000E+01 0.  1.
        -11    1    3    3    0    0  0.16107428522E+01  0.18384539461E+02  0.40564438199E+02  0.44565226692E+02  0.00000000000E+00 0.  1.
         11    1    3    3    0    0 -0.37542154127E+02 -0.90866381933E+02  0.70804753845E+02  0.12115868054E+03  0.00000000000E+00 0. -1.
<mgrwt>
<rscale>  0 0.14653856E+03</rscale>
<asrwt>0</asrwt>
<pdfrwt beam="2">  1        3 0.53922553E-02 0.15546241E+03</pdfrwt>
<pdfrwt beam="1">  1       -3 0.13939473E+00 0.15546241E+03</pdfrwt>
<totfact> 0.19763507E+02</totfact>
</mgrwt>
</event>
<event>
 6    1  0.1634764E-005  0.5221668E+03  0.7546771E-02  0.1008150E+00
          2   -1    0    0  501    0  0.00000000000E+00  0.00000000000E+00  0.10612817760E+04  0.10612817760E+04  0.00000000000E+00 0. -1.
         -2   -1    0    0    0  501 -0.00000000000E+00 -0.00000000000E+00 -0.64228499702E+02  0.64228499702E+02  0.00000000000E+00 0.  1.
          5    1    1    2  502    0  0.14278248979E+02  0.80499422872E+01  0.24356684564E+02  0.29732272831E+02  0.47000000000E+01 0. -1.
         -5    1    1    2    0  502 -0.17490119462E+03 -0.15593107822E+03  0.39785444027E+03  0.46175228714E+03  0.47000000000E+01 0. -1.
        -11    1    1    2    0    0  0.10025437973E+03  0.10583798811E+03  0.52574023915E+03  0.54557805990E+03  0.00000000000E+00 0. -1.
         11    1    1    2    0    0  0.60368565911E+02  0.42043147819E+02  0.49101912302E+02  0.88447655822E+02  0.00000000000E+00 0.  1.
<mgrwt>
<rscale>  0 0.52216678E+03</rscale>
<asrwt>0</asrwt>
<pdfrwt beam="1">  1        2 0.16327411E+00 0.52216678E+03</pdfrwt>
<pdfrwt beam="2">  1       -2 0.98813084E-02 0.52216678E+03</pdfrwt>
<totfact> 0.16251726E+03</totfact>
</mgrwt>
</event>
<event>
 7    1  0.1378058E-005  0.1119449E+03  0.7546771E-02  0.1266389E+00
         -2   -1    0    0    0  501 -0.00000000000E+00  0.00000000000E+00  0.20355602160E+03  0.20355602160E+03  0.00000000000E+00 0.  1.
          2   -1    0    0  501    0  0.00000000000E+00 -0.00000000000E+00 -0.12572081962E+03  0.12572081962E+03  0.00000000000E+00 0. -1.
         23    2    1    2    0    0 -0.24319731250E+00 -0.89481500620E+01 -0.88693858707E+02  0.12861895914E+03  0.92715195867E+02 0.  0.
          5    1    1    2  502    0 -0.95667585144E+01  0.59124681294E+02  0.80055841875E+02  0.10009135140E+03  0.47000000000E+01 0. -1.
         -5    1    1    2    0  502  0.98099558269E+01 -0.50176531232E+02  0.86473218816E+02  0.10056653068E+03  0.47000000000E+01 0.  1.
        -11    1    3    3    0    0 -0.12554166074E+02  0.37314072488E+02 -0.62993864136E+02  0.74284412970E+02  0.00000000000E+00 0.  1.
         11    1    3    3    0    0  0.12310968762E+02 -0.46262222550E+02 -0.25699994571E+02  0.54334546175E+02  0.00000000000E+00 0. -1.
<mgrwt>
<rscale>  0 0.10691647E+03</rscale>
<asrwt>0</asrwt>
<pdfrwt beam="2">  1        2 0.19341664E-01 0.11194489E+03</pdfrwt>
<pdfrwt beam="1">  1       -2 0.31316311E-01 0.11194489E+03</pdfrwt>
<totfact> 0.26082896E+03</totfact>
</mgrwt>
</event>
<event>
 7    1  0.1378058E-005  0.1300389E+03  0.7546771E-02  0.1241618E+00
         -1   -1    0    0    0  501 -0.00000000000E+00  0.00000000000E+00  0.92369769592E+02  0.92369769592E+02  0.00000000000E+00 0. -1.
          1   -1    0    0  501    0  0.00000000000E+00 -0.00000000000E+00 -0.16222695978E+03  0.16222695978E+03  0.00000000000E+00 0.  1.
         23    2    1    2    0    0 -0.28970205295E+02 -0.21046734615E+02 -0.77570301188E+02  0.12432927827E+03  0.90323750896E+02 0.  0.
          5    1    1    2  502    0  0.51714465391E+02  0.14768629452E+02 -0.46310876236E+02  0.71128655297E+02  0.47000000000E+01 0. -1.
         -5    1    1    2    0  502 -0.22744260096E+02  0.62781051636E+01  0.54023987238E+02  0.59138795802E+02  0.47000000000E+01 0. -1.
        -11    1    3    3    0    0 -0.61250309116E+02 -0.64254216211E+01 -0.46003236177E+02  0.76871217946E+02  0.00000000000E+00 0. -1.
         11    1    3    3    0    0  0.32280103820E+02 -0.14621312994E+02 -0.31567065012E+02  0.47458060325E+02  0.00000000000E+00 0.  1.
<mgrwt>
<rscale>  0 0.12090104E+03</rscale>
<asrwt>0</asrwt>
<pdfrwt beam="2">  1        1 0.24957993E-01 0.13003890E+03</pdfrwt>
<pdfrwt beam="1">  1       -1 0.14210734E-01 0.13003890E+03</pdfrwt>
<totfact> 0.63669585E+03</totfact>
</mgrwt>
</event>
<event>
 7    1  0.1378058E-005  0.1596900E+03  0.7546771E-02  0.1196462E+00
          2   -1    0    0  501    0  0.00000000000E+00  0.00000000000E+00  0.10468122181E+04  0.10468122181E+04  0.00000000000E+00 0. -1.
         -2   -1    0    0    0  501 -0.00000000000E+00 -0.00000000000E+00 -0.22147854863E+02  0.22147854863E+02  0.00000000000E+00 0.  1.
         23    2    1    2    0    0 -0.36370151319E+02 -0.92484058385E+02  0.60293493519E+03  0.61800929755E+03  0.92351864234E+02 0.  0.
          5    1    1    2  502    0 -0.12801511885E+02 -0.27070868964E+02  0.77233404932E+02  0.82968665714E+02  0.47000000000E+01 0.  1.
         -5    1    1    2    0  502  0.49171663204E+02  0.11955492735E+03  0.34449602315E+03  0.36798210973E+03  0.47000000000E+01 0.  1.
        -11    1    3    3    0    0 -0.44914664208E+02 -0.10275402793E+02  0.13040381278E+03  0.13830424921E+03  0.00000000000E+00 0.  1.
         11    1    3    3    0    0  0.85445128892E+01 -0.82208655592E+02  0.47253112241E+03  0.47970504834E+03  0.00000000000E+00 0. -1.
<mgrwt>
<rscale>  0 0.15331163E+03</rscale>
<asrwt>0</asrwt>
<pdfrwt beam="1">  1        2 0.16104799E+00 0.15968999E+03</pdfrwt>
<pdfrwt beam="2">  1       -2 0.34073631E-02 0.15968999E+03</pdfrwt>
<totfact> 0.83974573E+03</totfact>
</mgrwt>
</event>
<event>
 7    1  0.1378058E-005  0.1658582E+03  0.7546771E-02  0.1189273E+00
          1   -1    0    0  501    0  0.00000000000E+00  0.00000000000E+00  0.88069440797E+03  0.88069440797E+03  0.00000000000E+00 0. -1.
         -1   -1    0    0    0  501 -0.00000000000E+00 -0.00000000000E+00 -0.28181883034E+02  0.28181883034E+02  0.00000000000E+00 0.  1.
         23    2    1    2    0    0  0.47933696040E+02 -0.97908694293E+02  0.49217977074E+03  0.51220434073E+03  0.90711676773E+02 0.  0.
          5    1    1    2  502    0 -0.70228449181E+02  0.71411347677E+02  0.13243625124E+03  0.16611160794E+03  0.47000000000E+01 0.  1.
         -5    1    1    2    0  502  0.22294753141E+02  0.26497346616E+02  0.22789650296E+03  0.23056034233E+03  0.47000000000E+01 0.  1.
        -11    1    3    3    0    0  0.67160958582E+02 -0.10153852627E+03  0.43781091919E+03  0.45442168482E+03  0.00000000000E+00 0.  1.
         11    1    3    3    0    0 -0.19227262541E+02  0.36298319749E+01  0.54368851558E+02  0.57782655916E+02  0.00000000000E+00 0. -1.
<mgrwt>
<rscale>  0 0.15949078E+03</rscale>
<asrwt>0</asrwt>
<pdfrwt beam="1">  1        1 0.13549143E+00 0.16585820E+03</pdfrwt>
<pdfrwt beam="2">  1       -1 0.43356750E-02 0.16585820E+03</pdfrwt>
<totfact> 0.42424903E+03</totfact>
</mgrwt>
</event>
<event>
 7    1  0.1378058E-005  0.1281808E+03  0.7546771E-02  0.1243794E+00
          1   -1    0    0  501    0  0.00000000000E+00  0.00000000000E+00  0.74962482281E+03  0.74962482281E+03  0.00000000000E+00 0. -1.
         -1   -1    0    0    0  501 -0.00000000000E+00 -0.00000000000E+00 -0.16952606156E+02  0.16952606156E+02  0.00000000000E+00 0.  1.
         23    2    1    2    0    0  0.43762829726E+01  0.27928617437E+02  0.29999819631E+03  0.31531572269E+03  0.92875872342E+02 0.  0.
          5    1    1    2  502    0 -0.57831642975E+02 -0.41672145737E+02  0.21071425953E+03  0.22249417033E+03  0.47000000000E+01 0. -1.
         -5    1    1    2    0  502  0.53455360003E+02  0.13743528300E+02  0.22195976081E+03  0.22876753595E+03  0.47000000000E+01 0. -1.
        -11    1    3    3    0    0  0.26819862778E+02 -0.15440529248E+02  0.38990482923E+02  0.49779240065E+02  0.00000000000E+00 0.  1.
         11    1    3    3    0    0 -0.22443579805E+02  0.43369146685E+02  0.26100771339E+03  0.26553648263E+03  0.00000000000E+00 0. -1.
<mgrwt>
<rscale>  0 0.11957845E+03</rscale>
<asrwt>0</asrwt>
<pdfrwt beam="1">  1        1 0.11532687E+00 0.12818081E+03</pdfrwt>
<pdfrwt beam="2">  1       -1 0.26080938E-02 0.12818081E+03</pdfrwt>
<totfact> 0.11259785E+04</totfact>
</mgrwt>
</event>
<event>
 7    1  0.1378058E-005  0.1863541E+03  0.7546771E-02  0.1167375E+00
          2   -1    0    0  501    0  0.00000000000E+00  0.00000000000E+00  0.43156705557E+03  0.43156705557E+03  0.00000000000E+00 0. -1.
         -2   -1    0    0    0  501 -0.00000000000E+00 -0.00000000000E+00 -0.72002728193E+02  0.72002728193E+02  0.00000000000E+00 0.  1.
         23    2    1    2    0    0 -0.12039783516E+03  0.67871700647E+02  0.19758884700E+03  0.25666110204E+03  0.87928166022E+02 0.  0.
          5    1    1    2  502    0  0.13298312996E+03 -0.68428200383E+02  0.17356392510E+03  0.22915814967E+03  0.47000000000E+01 0. -1.
         -5    1    1    2    0  502 -0.12585294799E+02  0.55649973505E+00 -0.11588444725E+02  0.17750532057E+02  0.47000000000E+01 0. -1.
        -11    1    3    3    0    0 -0.41898708931E+02  0.66506544894E+02  0.62536668159E+02  0.10044629007E+03  0.00000000000E+00 0.  1.
         11    1    3    3    0    0 -0.78499126232E+02  0.13651557539E+01  0.13505217884E+03  0.15621481197E+03  0.00000000000E+00 0. -1.
<mgrwt>
<rscale>  0 0.18044256E+03</rscale>
<asrwt>0</asrwt>
<pdfrwt beam="1">  1        2 0.66394930E-01 0.18635407E+03</pdfrwt>
<pdfrwt beam="2">  1       -2 0.11077343E-01 0.18635407E+03</pdfrwt>
<totfact> 0.40514789E+03</totfact>
</mgrwt>
</event>
<event>
 7    1  0.1378058E-005  0.1446936E+03  0.7546771E-02  0.1217817E+00
          2   -1    0    0  501    0  0.00000000000E+00  0.00000000000E+00  0.41843432956E+03  0.41843432956E+03  0.00000000000E+00 0. -1.
         -2   -1    0    0    0  501 -0.00000000000E+00 -0.00000000000E+00 -0.55698545208E+02  0.55698545208E+02  0.00000000000E+00 0.  1.
         23    2    1    2    0    0 -0.44336339354E+02 -0.57808585392E+02  0.29019944236E+03  0.31227562980E+03  0.89402511653E+02 0.  0.
          5    1    1    2  502    0  0.46164787143E+02  0.86466633551E+02  0.17609530407E+02  0.99698805664E+02  0.47000000000E+01 0. -1.
         -5    1    1    2    0  502 -0.18284477886E+01 -0.28658048159E+02  0.54926811590E+02  0.62158439306E+02  0.47000000000E+01 0. -1.
        -11    1    3    3    0    0 -0.78819197018E+01  0.11231708805E+02  0.22189768851E+01  0.13899633063E+02  0.00000000000E+00 0.  1.
         11    1    3    3    0    0 -0.36454419653E+02 -0.69040294197E+02  0.28798046547E+03  0.29837599674E+03  0.00000000000E+00 0. -1.
<mgrwt>
<rscale>  0 0.13671619E+03</rscale>
<asrwt>0</asrwt>
<pdfrwt beam="1">  1        2 0.64374510E-01 0.14469363E+03</pdfrwt>
<pdfrwt beam="2">  1       -2 0.85690072E-02 0.14469363E+03</pdfrwt>
<totfact> 0.61987847E+03</totfact>
</mgrwt>
</event>
<event>
 7    1  0.1378058E-005  0.6792322E+03  0.7546771E-02  0.1031501E+00
          2   -1    0    0  501    0  0.00000000000E+00  0.00000000000E+00  0.11068742229E+04  0.11068742229E+04  0.00000000000E+00 0. -1.
         -2   -1    0    0    0  501 -0.00000000000E+00 -0.00000000000E+00 -0.14599142242E+03  0.14599142242E+03  0.00000000000E+00 0.  1.
         23    2    1    2    0    0  0.34926677833E+02 -0.62103419862E+02  0.20982826631E+03  0.24022588321E+03  0.92757026897E+02 0.  0.
          5    1    1    2  502    0 -0.10228914784E+03  0.78541496498E+02  0.86749210433E+03  0.87703846980E+03  0.47000000000E+01 0. -1.
         -5    1    1    2    0  502  0.67362470007E+02 -0.16438076637E+02 -0.11643757016E+03  0.13560129230E+03  0.47000000000E+01 0.  1.
        -11    1    3    3    0    0 -0.45706754732E+01  0.96735323416E+01 -0.38574890649E+01  0.11373149262E+02  0.00000000000E+00 0. -1.
         11    1    3    3    0    0  0.39497353307E+02 -0.71776952203E+02  0.21368575537E+03  0.22885273394E+03  0.00000000000E+00 0.  1.
<mgrwt>
<rscale>  0 0.43754904E+03</rscale>
<asrwt>0</asrwt>
<pdfrwt beam="1">  1        2 0.17028834E+00 0.67923219E+03</pdfrwt>
<pdfrwt beam="2">  1       -2 0.22460219E-01 0.67923219E+03</pdfrwt>
<totfact> 0.37917954E+02</totfact>
</mgrwt>
</event>
<event>
 7    1  0.1378058E-005  0.2223228E+03  0.7546771E-02  0.1170376E+00
         -1   -1    0    0    0  501 -0.00000000000E+00  0.00000000000E+00  0.66759615726E+03  0.66759615726E+03  0.00000000000E+00 0.  1.
          1   -1    0    0  501    0  0.00000000000E+00 -0.00000000000E+00 -0.53109772355E+02  0.53109772355E+02  0.00000000000E+00 0. -1.
         23    2    1    2    0    0  0.71717387127E+01 -0.10271097293E+02  0.29294143944E+02  0.94704831385E+02  0.89184802194E+02 0.  0.
          5    1    1    2  502    0  0.42790036801E+02 -0.75885665186E+02  0.44793308216E+03  0.45635047663E+03  0.47000000000E+01 0. -1.
         -5    1    1    2    0  502 -0.49961775514E+02  0.86156762479E+02  0.13725915881E+03  0.16965062160E+03  0.47000000000E+01 0.  1.
        -11    1    3    3    0    0  0.30571250795E+02  0.29821277192E+02  0.20837360991E+02  0.47519528213E+02  0.00000000000E+00 0.  1.
         11    1    3    3    0    0 -0.23399512082E+02 -0.40092374485E+02  0.84567829530E+01  0.47185303172E+02  0.00000000000E+00 0. -1.
<mgrwt>
<rscale>  0 0.17736639E+03</rscale>
<asrwt>0</asrwt>
<pdfrwt beam="2">  1        1 0.81707347E-02 0.22232277E+03</pdfrwt>
<pdfrwt beam="1">  1       -1 0.10270710E+00 0.22232277E+03</pdfrwt>
<totfact> 0.79951637E+02</totfact>
</mgrwt>
</event>
<event>
 7    1  0.1378058E-005  0.1169722E+03  0.7546771E-02  0.1259365E+00
         -1   -1    0    0    0  501 -0.00000000000E+00  0.00000000000E+00  0.81032217887E+03  0.81032217887E+03  0.00000000000E+00 0.  1.
          1   -1    0    0  501    0  0.00000000000E+00 -0.00000000000E+00 -0.17075358967E+02  0.17075358967E+02  0.00000000000E+00 0. -1.
         23    2    1    2    0    0 -0.23549782041E+02 -0.26144353180E+01  0.17813483113E+03  0.20126237004E+03  0.90626133238E+02 0.  0.
          5    1    1    2  502    0 -0.27242042608E+02  0.28419385104E+02  0.95707431833E+02  0.10359436685E+03  0.47000000000E+01 0. -1.
         -5    1    1    2    0  502  0.50791824648E+02 -0.25804949786E+02  0.51940455694E+03  0.52254080095E+03  0.47000000000E+01 0.  1.
        -11    1    3    3    0    0  0.26871292163E+02 -0.26200163411E+02  0.61957064178E+02  0.72437508977E+02  0.00000000000E+00 0.  1.
         11    1    3    3    0    0 -0.50421074204E+02  0.23585728093E+02  0.11617776695E+03  0.12882486106E+03  0.00000000000E+00 0. -1.
<mgrwt>
<rscale>  0 0.11065343E+03</rscale>
<asrwt>0</asrwt>
<pdfrwt beam="2">  1        1 0.26269789E-02 0.11697217E+03</pdfrwt>
<pdfrwt beam="1">  1       -1 0.12466492E+00 0.11697217E+03</pdfrwt>
<totfact> 0.23779588E+03</totfact>
</mgrwt>
</event>
<event>
 7    1  0.1378058E-005  0.2216426E+03  0.7546771E-02  0.1135987E+00
         -1   -1    0    0    0  501 -0.00000000000E+00  0.00000000000E+00  0.93913689751E+02  0.93913689751E+02  0.00000000000E+00 0.  1.
          1   -1    0    0  501    0  0.00000000000E+00 -0.00000000000E+00 -0.48342122344E+03  0.48342122344E+03  0.00000000000E+00 0. -1.
         23    2    1    2    0    0 -0.18131131784E+03  0.25030295841E+02 -0.19302104963E+03  0.28113841434E+03  0.91002047942E+02 0.  0.
          5    1    1    2  502    0  0.14543432906E+03 -0.60833487410E+02 -0.18663442092E+03  0.24434883739E+03  0.47000000000E+01 0. -1.
         -5    1    1    2    0  502  0.35876988785E+02  0.35803191569E+02 -0.98520631307E+01  0.51847661459E+02  0.47000000000E+01 0. -1.
        -11    1    3    3    0    0 -0.55394447952E+02 -0.34303714817E+02 -0.58561347078E+02  0.87605485477E+02  0.00000000000E+00 0.  1.
         11    1    3    3    0    0 -0.12591686989E+03  0.59334010658E+02 -0.13445970255E+03  0.19353292886E+03  0.00000000000E+00 0. -1.
<mgrwt>
<rscale>  0 0.21720165E+03</rscale>
<asrwt>0</asrwt>
<pdfrwt beam="2">  1        1 0.74372497E-01 0.22164257E+03</pdfrwt>
<pdfrwt beam="1">  1       -1 0.14448260E-01 0.22164257E+03</pdfrwt>
<totfact> 0.16060292E+03</totfact>
</mgrwt>
</event>
<event>
 7    1  0.1378058E-005  0.1569362E+03  0.7546771E-02  0.1200480E+00
          1   -1    0    0  501    0  0.00000000000E+00  0.00000000000E+00  0.72333635452E+03  0.72333635452E+03  0.00000000000E+00 0. -1.
         -1   -1    0    0    0  501 -0.00000000000E+00 -0.00000000000E+00 -0.35969511312E+02  0.35969511312E+02  0.00000000000E+00 0.  1.
         23    2    1    2    0    0 -0.34815638362E+01 -0.94827338860E+02  0.48973923067E+03  0.50694570246E+03  0.90250128559E+02 0.  0.
          5    1    1    2  502    0 -0.37146653867E+02  0.29282224821E+02  0.88031433313E+01  0.48341575445E+02  0.47000000000E+01 0.  1.
         -5    1    1    2    0  502  0.40628217703E+02  0.65545114039E+02  0.18882446921E+03  0.20401858793E+03  0.47000000000E+01 0.  1.
        -11    1    3    3    0    0 -0.38499422039E+02 -0.81956987925E+02  0.39214549814E+03  0.40246396743E+03  0.00000000000E+00 0.  1.
         11    1    3    3    0    0  0.35017858202E+02 -0.12870350934E+02  0.97593732528E+02  0.10448173503E+03  0.00000000000E+00 0. -1.
<mgrwt>
<rscale>  0 0.14999391E+03</rscale>
<asrwt>0</asrwt>
<pdfrwt beam="1">  1        1 0.11128251E+00 0.15693623E+03</pdfrwt>
<pdfrwt beam="2">  1       -1 0.55337715E-02 0.15693623E+03</pdfrwt>
<totfact> 0.39727670E+03</totfact>
</mgrwt>
</event>
<event>
 7    1  0.1378058E-005  0.6756310E+03  0.7546771E-02  0.1019468E+00
          2   -1    0    0  501    0  0.00000000000E+00  0.00000000000E+00  0.68999298945E+03  0.68999298945E+03  0.00000000000E+00 0. -1.
         -2   -1    0    0    0  501 -0.00000000000E+00 -0.00000000000E+00 -0.30024094343E+03  0.30024094343E+03  0.00000000000E+00 0.  1.
         23    2    1    2    0    0  0.45831446624E+02 -0.13523606277E+03  0.24637300732E+03  0.29955685834E+03  0.92980312282E+02 0.  0.
          5    1    1    2  502    0  0.24741409844E+03  0.48230943995E+02  0.26104280811E+03  0.36291238299E+03  0.47000000000E+01 0. -1.
         -5    1    1    2    0  502 -0.29324554506E+03  0.87005118778E+02 -0.11766376940E+03  0.32776469154E+03  0.47000000000E+01 0.  1.
        -11    1    3    3    0    0 -0.14083433084E+02  0.48621480240E+01  0.87548364163E+01  0.17280935493E+02  0.00000000000E+00 0.  1.
         11    1    3    3    0    0  0.59914879708E+02 -0.14009821080E+03  0.23761817090E+03  0.28227592285E+03  0.00000000000E+00 0. -1.
<mgrwt>
<rscale>  0 0.47879187E+03</rscale>
<asrwt>0</asrwt>
<pdfrwt beam="1">  1        2 0.10615277E+00 0.67563102E+03</pdfrwt>
<pdfrwt beam="2">  1       -2 0.46190915E-01 0.67563102E+03</pdfrwt>
<totfact> 0.18795270E+02</totfact>
</mgrwt>
</event>
<event>
 7    1  0.1378058E-005  0.1910009E+03  0.7546771E-02  0.1162655E+00
         -1   -1    0    0    0  501 -0.00000000000E+00  0.00000000000E+00  0.21442485286E+03  0.21442485286E+03  0.00000000000E+00 0.  1.
          1   -1    0    0  501    0  0.00000000000E+00 -0.00000000000E+00 -0.56748386723E+03  0.56748386723E+03  0.00000000000E+00 0. -1.
         23    2    1    2    0    0  0.14440475019E+03 -0.18731768947E+01 -0.50824455937E+03  0.53581141611E+03  0.89023035402E+02 0.  0.
          5    1    1    2  502    0 -0.47368041128E+02  0.16551109085E+02 -0.12340047188E+02  0.51884846505E+02  0.47000000000E+01 0. -1.
         -5    1    1    2    0  502 -0.97036709063E+02 -0.14677932190E+02  0.16752559219E+03  0.19421245747E+03  0.47000000000E+01 0. -1.
        -11    1    3    3    0    0  0.89649447990E+02  0.40798482886E+02 -0.33488496776E+03  0.34906945063E+03  0.00000000000E+00 0. -1.
         11    1    3    3    0    0  0.54755302201E+02 -0.42671659781E+02 -0.17335959162E+03  0.18674196548E+03  0.00000000000E+00 0.  1.
<mgrwt>
<rscale>  0 0.18542376E+03</rscale>
<asrwt>0</asrwt>
<pdfrwt beam="2">  1        1 0.87305211E-01 0.19100086E+03</pdfrwt>
<pdfrwt beam="1">  1       -1 0.32988439E-01 0.19100086E+03</pdfrwt>
<totfact> 0.33481917E+02</totfact>
</mgrwt>
</event>
<event>
 7    1  0.1378058E-005  0.1453863E+03  0.7546771E-02  0.1214922E+00
          1   -1    0    0  501    0  0.00000000000E+00  0.00000000000E+00  0.68083428414E+03  0.68083428414E+03  0.00000000000E+00 0. -1.
         -1   -1    0    0    0  501 -0.00000000000E+00 -0.00000000000E+00 -0.29793261578E+02  0.29793261578E+02  0.00000000000E+00 0.  1.
         23    2    1    2    0    0  0.73440490842E+02  0.10925820042E+02  0.42515024312E+03  0.44199429808E+03  0.95359063945E+02 0.  0.
          5    1    1    2  502    0  0.35162391910E+02 -0.45299272252E+01  0.44795836369E+02  0.57320772862E+02  0.47000000000E+01 0. -1.
         -5    1    1    2    0  502 -0.10860288275E+03 -0.63958928167E+01  0.18109494307E+03  0.21131247477E+03  0.47000000000E+01 0. -1.
        -11    1    3    3    0    0  0.85880728709E+02  0.12767823828E+02  0.41917213556E+03  0.42806984958E+03  0.00000000000E+00 0. -1.
         11    1    3    3    0    0 -0.12440237866E+02 -0.18420037857E+01  0.59781075536E+01  0.13924448500E+02  0.00000000000E+00 0.  1.
<mgrwt>
<rscale>  0 0.13882251E+03</rscale>
<asrwt>0</asrwt>
<pdfrwt beam="1">  1        1 0.10474372E+00 0.14538630E+03</pdfrwt>
<pdfrwt beam="2">  1       -1 0.45835792E-02 0.14538630E+03</pdfrwt>
<totfact> 0.57124312E+03</totfact>
</mgrwt>
</event>
<event>
 7    1  0.1378058E-005  0.1475994E+03  0.7546771E-02  0.1213257E+00
          2   -1    0    0  501    0  0.00000000000E+00  0.00000000000E+00  0.33462536406E+03  0.33462536406E+03  0.00000000000E+00 0.  1.
         -2   -1    0    0    0  501 -0.00000000000E+00 -0.00000000000E+00 -0.53543124621E+02  0.53543124621E+02  0.00000000000E+00 0. -1.
         23    2    1    2    0    0  0.28225359784E+02 -0.73224339104E+02  0.13716535350E+03  0.18201890097E+03  0.90322042371E+02 0.  0.
          5    1    1    2  502    0 -0.67142287037E+02  0.40740091725E+02  0.35378491388E+02  0.86264531733E+02  0.47000000000E+01 0.  1.
         -5    1    1    2    0  502  0.38916927253E+02  0.32484247379E+02  0.10853839455E+03  0.11988505597E+03  0.47000000000E+01 0.  1.
        -11    1    3    3    0    0  0.18719808616E+02  0.18582952524E+02  0.21422556353E+02  0.33980630951E+02  0.00000000000E+00 0. -1.
         11    1    3    3    0    0  0.95055511671E+01 -0.91807291629E+02  0.11574279715E+03  0.14803827002E+03  0.00000000000E+00 0.  1.
<mgrwt>
<rscale>  0 0.14005326E+03</rscale>
<asrwt>0</asrwt>
<pdfrwt beam="1">  1        2 0.51480824E-01 0.14759940E+03</pdfrwt>
<pdfrwt beam="2">  1       -2 0.82374041E-02 0.14759940E+03</pdfrwt>
<totfact> 0.83781696E+03</totfact>
</mgrwt>
</event>
<event>
 7    1  0.1378058E-005  0.1423111E+03  0.7546771E-02  0.1226092E+00
         -2   -1    0    0    0  501 -0.00000000000E+00  0.00000000000E+00  0.15139940795E+03  0.15139940795E+03  0.00000000000E+00 0.  1.
          2   -1    0    0  501    0  0.00000000000E+00 -0.00000000000E+00 -0.98909745631E+02  0.98909745631E+02  0.00000000000E+00 0. -1.
         23    2    1    2    0    0  0.66301868395E+02  0.15274700371E+02  0.29740947323E+02  0.10619129263E+03  0.75913190275E+02 0.  0.
          5    1    1    2  502    0 -0.43108569129E+02 -0.25023573852E+02 -0.47707768170E+02  0.69156699780E+02  0.47000000000E+01 0. -1.
         -5    1    1    2    0  502 -0.23193299265E+02  0.97488734802E+01  0.70456483168E+02  0.74961161179E+02  0.47000000000E+01 0. -1.
        -11    1    3    3    0    0  0.79367659984E+02 -0.29166958822E+01  0.25339069731E+02  0.83365466598E+02  0.00000000000E+00 0. -1.
         11    1    3    3    0    0 -0.13065791589E+02  0.18191396254E+02  0.44018775918E+01  0.22825826028E+02  0.00000000000E+00 0.  1.
<mgrwt>
<rscale>  0 0.13092327E+03</rscale>
<asrwt>0</asrwt>
<pdfrwt beam="2">  1        2 0.15216884E-01 0.14231112E+03</pdfrwt>
<pdfrwt beam="1">  1       -2 0.23292217E-01 0.14231112E+03</pdfrwt>
<totfact> 0.58812229E+03</totfact>
</mgrwt>
</event>
<event>
 7    1  0.1378058E-005  0.1569013E+03  0.7546771E-02  0.1199820E+00
         -1   -1    0    0    0  501 -0.00000000000E+00  0.00000000000E+00  0.55270705737E+02  0.55270705737E+02  0.00000000000E+00 0.  1.
          1   -1    0    0  501    0  0.00000000000E+00 -0.00000000000E+00 -0.39140137200E+03  0.39140137200E+03  0.00000000000E+00 0. -1.
         23    2    1    2    0    0  0.73411600910E+02 -0.60041562434E+02 -0.19261305076E+03  0.23403314381E+03  0.93152953312E+02 0.  0.
          5    1    1    2  502    0 -0.52038371085E+02  0.83497190188E+02 -0.43633639372E+02  0.10773002051E+03  0.47000000000E+01 0.  1.
         -5    1    1    2    0  502 -0.21373229825E+02 -0.23455627754E+02 -0.99883976128E+02  0.10490891341E+03  0.47000000000E+01 0.  1.
        -11    1    3    3    0    0  0.43796422454E+02 -0.31571320033E+02 -0.18439794530E+03  0.19213921281E+03  0.00000000000E+00 0. -1.
         11    1    3    3    0    0  0.29615178456E+02 -0.28470242401E+02 -0.82151054675E+01  0.41893931006E+02  0.00000000000E+00 0.  1.
<mgrwt>
<rscale>  0 0.15053231E+03</rscale>
<asrwt>0</asrwt>
<pdfrwt beam="2">  1        1 0.60215595E-01 0.15690128E+03</pdfrwt>
<pdfrwt beam="1">  1       -1 0.85031856E-02 0.15690128E+03</pdfrwt>
<totfact> 0.47369515E+03</totfact>
</mgrwt>
</event>
<event>
 7    1  0.1378058E-005  0.1704177E+03  0.7546771E-02  0.1183886E+00
          2   -1    0    0  501    0  0.00000000000E+00  0.00000000000E+00  0.55569836018E+03  0.55569836018E+03  0.00000000000E+00 0. -1.
         -2   -1    0    0    0  501 -0.00000000000E+00 -0.00000000000E+00 -0.48511926193E+02  0.48511926193E+02  0.00000000000E+00 0.  1.
         23    2    1    2    0    0 -0.99993113373E+02 -0.58379882048E+02  0.31229806176E+03  0.34532095633E+03  0.91157282520E+02 0.  0.
          5    1    1    2  502    0  0.90030912767E+02  0.13079687829E+02  0.44393033816E+02  0.10133841788E+03  0.47000000000E+01 0.  1.
         -5    1    1    2    0  502  0.99622006057E+01  0.45300194219E+02  0.15049533841E+03  0.15755091215E+03  0.47000000000E+01 0.  1.
        -11    1    3    3    0    0 -0.94422107483E+02 -0.69534732373E+02  0.31148417712E+03  0.33282578924E+03  0.00000000000E+00 0. -1.
         11    1    3    3    0    0 -0.55710058905E+01  0.11154850325E+02  0.81388463321E+00  0.12495167090E+02  0.00000000000E+00 0.  1.
<mgrwt>
<rscale>  0 0.16433679E+03</rscale>
<asrwt>0</asrwt>
<pdfrwt beam="1">  1        2 0.85492051E-01 0.17041774E+03</pdfrwt>
<pdfrwt beam="2">  1       -2 0.74633736E-02 0.17041774E+03</pdfrwt>
<totfact> 0.56704421E+03</totfact>
</mgrwt>
</event>
<event>
 7    1  0.1378058E-005  0.1609027E+03  0.7546771E-02  0.1195300E+00
          2   -1    0    0  501    0  0.00000000000E+00  0.00000000000E+00  0.29488755746E+03  0.29488755746E+03  0.00000000000E+00 0. -1.
         -2   -1    0    0    0  501 -0.00000000000E+00 -0.00000000000E+00 -0.76499878324E+02  0.76499878324E+02  0.00000000000E+00 0.  1.
         23    2    1    2    0    0 -0.43130412694E+01 -0.10122290585E+03  0.12824818207E+03  0.18695641145E+03  0.90776784398E+02 0.  0.
          5    1    1    2  502    0  0.62751517696E+02  0.43106300468E+02  0.28581245036E+02  0.81454795323E+02  0.47000000000E+01 0. -1.
         -5    1    1    2    0  502 -0.58438476427E+02  0.58116605381E+02  0.61558252037E+02  0.10297622901E+03  0.47000000000E+01 0. -1.
        -11    1    3    3    0    0 -0.39307027947E+02 -0.30554866044E+02  0.21476215152E+02  0.54220568996E+02  0.00000000000E+00 0.  1.
         11    1    3    3    0    0  0.34993986678E+02 -0.70668039804E+02  0.10677196691E+03  0.13273584245E+03  0.00000000000E+00 0. -1.
<mgrwt>
<rscale>  0 0.15428862E+03</rscale>
<asrwt>0</asrwt>
<pdfrwt beam="1">  1        2 0.45367316E-01 0.16090268E+03</pdfrwt>
<pdfrwt beam="2">  1       -2 0.11769212E-01 0.16090268E+03</pdfrwt>
<totfact> 0.54945867E+03</totfact>
</mgrwt>
</event>
<event>
 7    1  0.1378058E-005  0.2029040E+03  0.7546771E-02  0.1151197E+00
          2   -1    0    0  501    0  0.00000000000E+00  0.00000000000E+00  0.11096849478E+04  0.11096849478E+04  0.00000000000E+00 0. -1.
         -2   -1    0    0    0  501 -0.00000000000E+00 -0.00000000000E+00 -0.34669261798E+02  0.34669261798E+02  0.00000000000E+00 0.  1.
         23    2    1    2    0    0 -0.68988079367E+02  0.14417446491E+03  0.59814812375E+03  0.62611421521E+03  0.93231974720E+02 0.  0.
          5    1    1    2  502    0 -0.29189604044E+02 -0.32637111695E+02  0.52157650333E+02  0.68262174975E+02  0.47000000000E+01 0. -1.
         -5    1    1    2    0  502  0.98177683411E+02 -0.11153735322E+03  0.42470991188E+03  0.44997781938E+03  0.47000000000E+01 0. -1.
        -11    1    3    3    0    0 -0.41441922978E+02  0.83946143778E+01  0.20369522020E+03  0.20803760541E+03  0.00000000000E+00 0. -1.
         11    1    3    3    0    0 -0.27546156389E+02  0.13577985054E+03  0.39445290355E+03  0.41807660980E+03  0.00000000000E+00 0.  1.
<mgrwt>
<rscale>  0 0.19828104E+03</rscale>
<asrwt>0</asrwt>
<pdfrwt beam="1">  1        2 0.17072073E+00 0.20290397E+03</pdfrwt>
<pdfrwt beam="2">  1       -2 0.53337334E-02 0.20290397E+03</pdfrwt>
<totfact> 0.39698818E+03</totfact>
</mgrwt>
</event>
<event>
 7    1  0.1378058E-005  0.1274745E+03  0.7546771E-02  0.1247558E+00
         -1   -1    0    0    0  501 -0.00000000000E+00  0.00000000000E+00  0.25108143371E+03  0.25108143371E+03  0.00000000000E+00 0.  1.
          1   -1    0    0  501    0  0.00000000000E+00 -0.00000000000E+00 -0.53760225202E+02  0.53760225202E+02  0.00000000000E+00 0. -1.
         23    2    1    2    0    0 -0.24363316937E+02  0.55707584775E+01  0.33903232270E+02  0.97585330534E+02  0.88027626430E+02 0.  0.
          5    1    1    2  502    0  0.41486000988E+01  0.18156063946E+01 -0.20761964287E+02  0.21763650209E+02  0.47000000000E+01 0.  1.
         -5    1    1    2    0  502  0.20214716838E+02 -0.73863648720E+01  0.18417994052E+03  0.18549267817E+03  0.47000000000E+01 0.  1.
        -11    1    3    3    0    0  0.12095714054E+02  0.32137231049E+02 -0.88211997937E+01  0.35453088494E+02  0.00000000000E+00 0. -1.
         11    1    3    3    0    0 -0.36459030991E+02 -0.26566472571E+02  0.42724432064E+02  0.62132242040E+02  0.00000000000E+00 0.  1.
<mgrwt>
<rscale>  0 0.11733584E+03</rscale>
<asrwt>0</asrwt>
<pdfrwt beam="2">  1        1 0.82708040E-02 0.12747451E+03</pdfrwt>
<pdfrwt beam="1">  1       -1 0.38627912E-01 0.12747451E+03</pdfrwt>
<totfact> 0.51801240E+03</totfact>
</mgrwt>
</event>
<event>
 7    1  0.1378058E-005  0.1374820E+03  0.7546771E-02  0.1227556E+00
          2   -1    0    0  501    0  0.00000000000E+00  0.00000000000E+00  0.30638999346E+03  0.30638999346E+03  0.00000000000E+00 0. -1.
         -2   -1    0    0    0  501 -0.00000000000E+00 -0.00000000000E+00 -0.95215184398E+02  0.95215184398E+02  0.00000000000E+00 0.  1.
         23    2    1    2    0    0 -0.34647721357E+02  0.45565431637E+02  0.23752049851E+03  0.26162158280E+03  0.93558496240E+02 0.  0.
          5    1    1    2  502    0 -0.20344582106E+02 -0.46419517563E+01  0.39434722389E+02  0.44862423776E+02  0.47000000000E+01 0. -1.
         -5    1    1    2    0  502  0.54992303463E+02 -0.40923479880E+02 -0.65780411834E+02  0.95121171286E+02  0.47000000000E+01 0. -1.
        -11    1    3    3    0    0 -0.39016977544E+02 -0.17528079834E+02  0.64400627350E+02  0.77311053041E+02  0.00000000000E+00 0.  1.
         11    1    3    3    0    0  0.43692561861E+01  0.63093511471E+02  0.17311987116E+03  0.18431052975E+03  0.00000000000E+00 0. -1.
<mgrwt>
<rscale>  0 0.12993228E+03</rscale>
<asrwt>0</asrwt>
<pdfrwt beam="1">  1        2 0.47136922E-01 0.13748204E+03</pdfrwt>
<pdfrwt beam="2">  1       -2 0.14648490E-01 0.13748204E+03</pdfrwt>
<totfact> 0.36742509E+03</totfact>
</mgrwt>
</event>
<event>
 7    1  0.1378058E-005  0.1467257E+03  0.7546771E-02  0.1217567E+00
         -1   -1    0    0    0  501 -0.00000000000E+00  0.00000000000E+00  0.12876265726E+03  0.12876265726E+03  0.00000000000E+00 0.  1.
          1   -1    0    0  501    0  0.00000000000E+00 -0.00000000000E+00 -0.12925347638E+03  0.12925347638E+03  0.00000000000E+00 0. -1.
         23    2    1    2    0    0  0.76802638881E+02  0.24924884764E+01  0.33949316252E+01  0.11123902568E+03  0.80360048755E+02 0.  0.
          5    1    1    2  502    0 -0.15926803759E+02  0.33838952219E+02 -0.49595875732E+02  0.62294290709E+02  0.47000000000E+01 0.  1.
         -5    1    1    2    0  502 -0.60875835122E+02 -0.36331440695E+02  0.45710124987E+02  0.84482817254E+02  0.47000000000E+01 0.  1.
        -11    1    3    3    0    0  0.14440155785E+02  0.20759737629E+02 -0.29126549507E+02  0.38572538051E+02  0.00000000000E+00 0. -1.
         11    1    3    3    0    0  0.62362483096E+02 -0.18267249152E+02  0.32521481132E+02  0.72666487630E+02  0.00000000000E+00 0.  1.
<mgrwt>
<rscale>  0 0.13689679E+03</rscale>
<asrwt>0</asrwt>
<pdfrwt beam="2">  1        1 0.19885150E-01 0.14672566E+03</pdfrwt>
<pdfrwt beam="1">  1       -1 0.19809640E-01 0.14672566E+03</pdfrwt>
<totfact> 0.50557562E+03</totfact>
</mgrwt>
</event>
<event>
 7    1  0.1378058E-005  0.1585952E+03  0.7546771E-02  0.1198014E+00
         -2   -1    0    0    0  501 -0.00000000000E+00  0.00000000000E+00  0.75004195613E+02  0.75004195613E+02  0.00000000000E+00 0.  1.
          2   -1    0    0  501    0  0.00000000000E+00 -0.00000000000E+00 -0.44207828196E+03  0.44207828196E+03  0.00000000000E+00 0. -1.
         23    2    1    2    0    0  0.67648307688E+02  0.70360170116E+02 -0.32723015063E+03  0.35355882773E+03  0.91637471144E+02 0.  0.
          5    1    1    2  502    0 -0.10089641976E+03 -0.69055040738E+02 -0.18582037286E+02  0.12375810390E+03  0.47000000000E+01 0. -1.
         -5    1    1    2    0  502  0.33248112068E+02 -0.13051293780E+01 -0.21261898432E+02  0.39765545938E+02  0.47000000000E+01 0. -1.
        -11    1    3    3    0    0 -0.13067835436E+02 -0.71082959453E+01 -0.12154765663E+02  0.19210271278E+02  0.00000000000E+00 0.  1.
         11    1    3    3    0    0  0.80716143124E+02  0.77468466061E+02 -0.31507538496E+03  0.33434855646E+03  0.00000000000E+00 0. -1.
<mgrwt>
<rscale>  0 0.15201896E+03</rscale>
<asrwt>0</asrwt>
<pdfrwt beam="2">  1        2 0.68012042E-01 0.15859522E+03</pdfrwt>
<pdfrwt beam="1">  1       -2 0.11539107E-01 0.15859522E+03</pdfrwt>
<totfact> 0.36726382E+03</totfact>
</mgrwt>
</event>
<event>
 7    1  0.1378058E-005  0.4516923E+03  0.7546771E-02  0.1063148E+00
          2   -1    0    0  501    0  0.00000000000E+00  0.00000000000E+00  0.60893726018E+03  0.60893726018E+03  0.00000000000E+00 0. -1.
         -2   -1    0    0    0  501 -0.00000000000E+00 -0.00000000000E+00 -0.18011203739E+03  0.18011203739E+03  0.00000000000E+00 0.  1.
         23    2    1    2    0    0  0.17395382719E+02  0.12033541001E+03  0.26262189777E+03  0.30774950350E+03  0.10467227652E+03 0.  0.
          5    1    1    2  502    0 -0.73816789267E+02 -0.69935535377E+02  0.30588419309E+03  0.32237730545E+03  0.47000000000E+01 0. -1.
         -5    1    1    2    0  502  0.56421406549E+02 -0.50399874635E+02 -0.13968086808E+03  0.15892248861E+03  0.47000000000E+01 0.  1.
        -11    1    3    3    0    0  0.10217005198E+01  0.10622485350E+03  0.26548159576E+03  0.28594622058E+03  0.00000000000E+00 0.  1.
         11    1    3    3    0    0  0.16373682199E+02  0.14110556509E+02 -0.28596979871E+01  0.21803282925E+02  0.00000000000E+00 0. -1.
<mgrwt>
<rscale>  0 0.34870408E+03</rscale>
<asrwt>0</asrwt>
<pdfrwt beam="1">  1        2 0.93682654E-01 0.45169231E+03</pdfrwt>
<pdfrwt beam="2">  1       -2 0.27709545E-01 0.45169231E+03</pdfrwt>
<totfact> 0.58535794E+02</totfact>
</mgrwt>
</event>
<event>
 7    1  0.1378058E-005  0.1745089E+03  0.7546771E-02  0.1198337E+00
          1   -1    0    0  501    0  0.00000000000E+00  0.00000000000E+00  0.45645770390E+02  0.45645770390E+02  0.00000000000E+00 0. -1.
         -1   -1    0    0    0  501 -0.00000000000E+00 -0.00000000000E+00 -0.41276425305E+03  0.41276425305E+03  0.00000000000E+00 0.  1.
         23    2    1    2    0    0 -0.74196469943E+01  0.40983280936E+02 -0.12466531412E+03  0.15968455562E+03  0.90680958758E+02 0.  0.
          5    1    1    2  502    0  0.55942395452E+02  0.35882314857E+02 -0.42494985920E+02  0.79025350089E+02  0.47000000000E+01 0. -1.
         -5    1    1    2    0  502 -0.48522748458E+02 -0.76865595792E+02 -0.19995818262E+03  0.21970011773E+03  0.47000000000E+01 0.  1.
        -11    1    3    3    0    0 -0.36829052785E+01 -0.16542723959E+02 -0.91750056580E+02  0.93302188558E+02  0.00000000000E+00 0. -1.
         11    1    3    3    0    0 -0.37367417157E+01  0.57526004895E+02 -0.32915257539E+02  0.66382367062E+02  0.00000000000E+00 0.  1.
<mgrwt>
<rscale>  0 0.15175158E+03</rscale>
<asrwt>0</asrwt>
<pdfrwt beam="1">  1        1 0.70224259E-02 0.17450893E+03</pdfrwt>
<pdfrwt beam="2">  1       -1 0.63502196E-01 0.17450893E+03</pdfrwt>
<totfact> 0.26471760E+03</totfact>
</mgrwt>
</event>
<event>
 7    1  0.1378058E-005  0.1330420E+03  0.7546771E-02  0.1236400E+00
          2   -1    0    0  501    0  0.00000000000E+00  0.00000000000E+00  0.25781034462E+02  0.25781034462E+02  0.00000000000E+00 0. -1.
         -2   -1    0    0    0  501 -0.00000000000E+00 -0.00000000000E+00 -0.53822091278E+03  0.53822091278E+03  0.00000000000E+00 0.  1.
         23    2    1    2    0    0 -0.86201016383E+00  0.45550435804E+02 -0.18840885630E+03  0.21372166395E+03  0.90019260413E+02 0.  0.
          5    1    1    2  502    0 -0.69228870816E+01 -0.11090352797E+02 -0.31251863823E+03  0.31282728707E+03  0.47000000000E+01 0. -1.
         -5    1    1    2    0  502  0.77848972454E+01 -0.34460083007E+02 -0.11512383787E+02  0.37452996228E+02  0.47000000000E+01 0. -1.
        -11    1    3    3    0    0  0.16418034822E+02 -0.19059847761E+02 -0.98520575060E+02  0.10168152917E+03  0.00000000000E+00 0.  1.
         11    1    3    3    0    0 -0.17280044986E+02  0.64610283565E+02 -0.89888281240E+02  0.11204013478E+03  0.00000000000E+00 0. -1.
<mgrwt>
<rscale>  0 0.12415236E+03</rscale>
<asrwt>0</asrwt>
<pdfrwt beam="1">  1        2 0.39663134E-02 0.13304200E+03</pdfrwt>
<pdfrwt beam="2">  1       -2 0.82803209E-01 0.13304200E+03</pdfrwt>
<totfact> 0.26999183E+03</totfact>
</mgrwt>
</event>
<event>
 7    1  0.1378058E-005  0.1531685E+03  0.7546771E-02  0.1205314E+00
          2   -1    0    0  501    0  0.00000000000E+00  0.00000000000E+00  0.54278580585E+02  0.54278580585E+02  0.00000000000E+00 0. -1.
         -2   -1    0    0    0  501 -0.00000000000E+00 -0.00000000000E+00 -0.40508920953E+03  0.40508920953E+03  0.00000000000E+00 0.  1.
         23    2    1    2    0    0  0.59582441541E+02  0.65466498179E+02 -0.85456055377E+02  0.15297971362E+03  0.90907236535E+02 0.  0.
          5    1    1    2  502    0 -0.72179283485E+02 -0.94601168759E+02 -0.22734222915E+03  0.25664335030E+03  0.47000000000E+01 0.  1.
         -5    1    1    2    0  502  0.12596841944E+02  0.29134670581E+02 -0.38012344412E+02  0.49744726198E+02  0.47000000000E+01 0.  1.
        -11    1    3    3    0    0  0.31047975449E+02  0.64716482251E+02 -0.98268441644E+02  0.12169176832E+03  0.00000000000E+00 0.  1.
         11    1    3    3    0    0  0.28534466092E+02  0.75001592764E+00  0.12812386266E+02  0.31287945296E+02  0.00000000000E+00 0. -1.
<mgrwt>
<rscale>  0 0.14612705E+03</rscale>
<asrwt>0</asrwt>
<pdfrwt beam="1">  1        2 0.83505511E-02 0.15316855E+03</pdfrwt>
<pdfrwt beam="2">  1       -2 0.62321415E-01 0.15316855E+03</pdfrwt>
<totfact> 0.19105069E+03</totfact>
</mgrwt>
</event>
<event>
 7    1  0.1378058E-005  0.1387861E+03  0.7546771E-02  0.1225440E+00
          1   -1    0    0  501    0  0.00000000000E+00  0.00000000000E+00  0.32385966445E+03  0.32385966445E+03  0.00000000000E+00 0. -1.
         -1   -1    0    0    0  501 -0.00000000000E+00 -0.00000000000E+00 -0.52152139827E+02  0.52152139827E+02  0.00000000000E+00 0.  1.
         23    2    1    2    0    0 -0.20510101083E+02 -0.56700266807E+02  0.17275147432E+03  0.20555979319E+03  0.93681226480E+02 0.  0.
          5    1    1    2  502    0  0.42433320398E+02  0.88811712279E+02  0.60884041579E+02  0.11583204840E+03  0.47000000000E+01 0. -1.
         -5    1    1    2    0  502 -0.21923219314E+02 -0.32111445472E+02  0.38072008730E+02  0.54619962689E+02  0.47000000000E+01 0. -1.
        -11    1    3    3    0    0 -0.30039613156E+02 -0.78618488304E+02  0.15272074317E+03  0.17437565902E+03  0.00000000000E+00 0. -1.
         11    1    3    3    0    0  0.95295120733E+01  0.21918221497E+02  0.20030731143E+02  0.31184134172E+02  0.00000000000E+00 0.  1.
<mgrwt>
<rscale>  0 0.13136773E+03</rscale>
<asrwt>0</asrwt>
<pdfrwt beam="1">  1        1 0.49824563E-01 0.13878612E+03</pdfrwt>
<pdfrwt beam="2">  1       -1 0.80234063E-02 0.13878612E+03</pdfrwt>
<totfact> 0.65117143E+03</totfact>
</mgrwt>
</event>
<event>
 7    1  0.1378058E-005  0.2180952E+03  0.7546771E-02  0.1138664E+00
          1   -1    0    0  501    0  0.00000000000E+00  0.00000000000E+00  0.23578852106E+03  0.23578852106E+03  0.00000000000E+00 0. -1.
         -1   -1    0    0    0  501 -0.00000000000E+00 -0.00000000000E+00 -0.31678830019E+03  0.31678830019E+03  0.00000000000E+00 0.  1.
         23    2    1    2    0    0  0.14935844748E+03  0.98151147707E+02  0.13771637976E+03  0.24370426224E+03  0.92110653836E+02 0.  0.
          5    1    1    2  502    0 -0.99386376666E+02  0.87075423437E+01 -0.10610088323E+03  0.14571534093E+03  0.47000000000E+01 0. -1.
         -5    1    1    2    0  502 -0.49972070814E+02 -0.10685869005E+03 -0.11261527566E+03  0.16315721808E+03  0.47000000000E+01 0. -1.
        -11    1    3    3    0    0  0.29722329781E+02 -0.14829304766E+02  0.79844996584E+01  0.34162514577E+02  0.00000000000E+00 0. -1.
         11    1    3    3    0    0  0.11963611770E+03  0.11298045247E+03  0.12973188010E+03  0.20954174766E+03  0.00000000000E+00 0.  1.
<mgrwt>
<rscale>  0 0.21370618E+03</rscale>
<asrwt>0</asrwt>
<pdfrwt beam="1">  1        1 0.36275157E-01 0.21809516E+03</pdfrwt>
<pdfrwt beam="2">  1       -1 0.48736662E-01 0.21809516E+03</pdfrwt>
<totfact> 0.51516102E+02</totfact>
</mgrwt>
</event>
<event>
 7    1  0.1378058E-005  0.3547904E+03  0.7546771E-02  0.1061734E+00
          1   -1    0    0  501    0  0.00000000000E+00  0.00000000000E+00  0.13760178590E+04  0.13760178590E+04  0.00000000000E+00 0. -1.
         -1   -1    0    0    0  501 -0.00000000000E+00 -0.00000000000E+00 -0.98791007163E+02  0.98791007163E+02  0.00000000000E+00 0.  1.
         23    2    1    2    0    0  0.38291958554E+02 -0.32982707924E+03  0.86441316276E+03  0.93048230612E+03  0.91296384231E+02 0.  0.
          5    1    1    2  502    0 -0.16678549870E+02  0.36058868122E+02  0.36948742282E+01  0.40176586360E+02  0.47000000000E+01 0. -1.
         -5    1    1    2    0  502 -0.21613408683E+02  0.29376821112E+03  0.40911881487E+03  0.50414997370E+03  0.47000000000E+01 0. -1.
        -11    1    3    3    0    0 -0.22891321710E+02 -0.10881186563E+03  0.35070503496E+03  0.36791039162E+03  0.00000000000E+00 0. -1.
         11    1    3    3    0    0  0.61183280264E+02 -0.22101521361E+03  0.51370812779E+03  0.56257191451E+03  0.00000000000E+00 0.  1.
<mgrwt>
<rscale>  0 0.35215485E+03</rscale>
<asrwt>0</asrwt>
<pdfrwt beam="1">  1        1 0.21169504E+00 0.35479045E+03</pdfrwt>
<pdfrwt beam="2">  1       -1 0.15198618E-01 0.35479045E+03</pdfrwt>
<totfact> 0.27079542E+02</totfact>
</mgrwt>
</event>
<event>
 7    1  0.1378058E-005  0.1402562E+03  0.7546771E-02  0.1223923E+00
          2   -1    0    0  501    0  0.00000000000E+00  0.00000000000E+00  0.12512302438E+03  0.12512302438E+03  0.00000000000E+00 0. -1.
         -2   -1    0    0    0  501 -0.00000000000E+00 -0.00000000000E+00 -0.12671793924E+03  0.12671793924E+03  0.00000000000E+00 0.  1.
         23    2    1    2    0    0 -0.48217394622E+02 -0.41495956646E+02 -0.53181136490E+01  0.11153540460E+03  0.91460552065E+02 0.  0.
          5    1    1    2  502    0  0.82556512933E+02 -0.90939801690E+00  0.15877383541E+02  0.84205618224E+02  0.47000000000E+01 0. -1.
         -5    1    1    2    0  502 -0.34339118311E+02  0.42405354663E+02 -0.12154184759E+02  0.56099940799E+02  0.47000000000E+01 0. -1.
        -11    1    3    3    0    0  0.15520363976E+02 -0.28577876602E+02 -0.27740609110E+02  0.42744802290E+02  0.00000000000E+00 0.  1.
         11    1    3    3    0    0 -0.63737758598E+02 -0.12918080044E+02  0.22422495461E+02  0.68790602308E+02  0.00000000000E+00 0. -1.
<mgrwt>
<rscale>  0 0.13241008E+03</rscale>
<asrwt>0</asrwt>
<pdfrwt beam="1">  1        2 0.19249696E-01 0.14025615E+03</pdfrwt>
<pdfrwt beam="2">  1       -2 0.19495068E-01 0.14025615E+03</pdfrwt>
<totfact> 0.60715329E+03</totfact>
</mgrwt>
</event>
<event>
 7    1  0.1378058E-005  0.1330791E+03  0.7546771E-02  0.1234915E+00
          1   -1    0    0  501    0  0.00000000000E+00  0.00000000000E+00  0.11448480314E+03  0.11448480314E+03  0.00000000000E+00 0. -1.
         -1   -1    0    0    0  501 -0.00000000000E+00 -0.00000000000E+00 -0.14581438579E+03  0.14581438579E+03  0.00000000000E+00 0.  1.
         23    2    1    2    0    0 -0.44239517114E+02 -0.11094545800E+02  0.37497992927E+02  0.11047502057E+03  0.93372409607E+02 0.  0.
          5    1    1    2  502    0  0.85715239635E+02  0.57231215100E+01 -0.26232401845E+02  0.89944901646E+02  0.47000000000E+01 0.  1.
         -5    1    1    2    0  502 -0.41475722521E+02  0.53714242899E+01 -0.42595173726E+02  0.59879266714E+02  0.47000000000E+01 0.  1.
        -11    1    3    3    0    0 -0.39948512774E+02 -0.44935144906E+02  0.45543863400E+02  0.75427411555E+02  0.00000000000E+00 0.  1.
         11    1    3    3    0    0 -0.42910043408E+01  0.33840599106E+02 -0.80458704725E+01  0.35047609016E+02  0.00000000000E+00 0. -1.
<mgrwt>
<rscale>  0 0.12509889E+03</rscale>
<asrwt>0</asrwt>
<pdfrwt beam="1">  1        1 0.17613047E-01 0.13307910E+03</pdfrwt>
<pdfrwt beam="2">  1       -1 0.22432982E-01 0.13307910E+03</pdfrwt>
<totfact> 0.48006105E+03</totfact>
</mgrwt>
</event>
<event>
 7    1  0.1378058E-005  0.1180651E+03  0.7546771E-02  0.1257044E+00
          1   -1    0    0  501    0  0.00000000000E+00  0.00000000000E+00  0.10976544626E+03  0.10976544626E+03  0.00000000000E+00 0. -1.
         -1   -1    0    0    0  501 -0.00000000000E+00 -0.00000000000E+00 -0.10627615129E+03  0.10627615129E+03  0.00000000000E+00 0.  1.
         23    2    1    2    0    0  0.21888129467E+02  0.14100447799E+02  0.18147618908E+02  0.97069996080E+02  0.91735136275E+02 0.  0.
          5    1    1    2  502    0 -0.61662210066E+02  0.16525054382E+02 -0.22698804051E+02  0.67916355010E+02  0.47000000000E+01 0. -1.
         -5    1    1    2    0  502  0.39774080599E+02 -0.30625502181E+02  0.80404801116E+01  0.51055246467E+02  0.47000000000E+01 0.  1.
        -11    1    3    3    0    0  0.30830400631E+02 -0.53533510078E+01 -0.30637698267E+02  0.43793156146E+02  0.00000000000E+00 0.  1.
         11    1    3    3    0    0 -0.89422711645E+01  0.19453798806E+02  0.48785317175E+02  0.53276839935E+02  0.00000000000E+00 0. -1.
<mgrwt>
<rscale>  0 0.11192604E+03</rscale>
<asrwt>0</asrwt>
<pdfrwt beam="1">  1        1 0.16886992E-01 0.11806513E+03</pdfrwt>
<pdfrwt beam="2">  1       -1 0.16350177E-01 0.11806513E+03</pdfrwt>
<totfact> 0.83220434E+03</totfact>
</mgrwt>
</event>
<event>
 7    1  0.1378058E-005  0.1557959E+03  0.7546771E-02  0.1201853E+00
         -1   -1    0    0    0  501 -0.00000000000E+00  0.00000000000E+00  0.73331634970E+03  0.73331634970E+03  0.00000000000E+00 0.  1.
          1   -1    0    0  501    0  0.00000000000E+00 -0.00000000000E+00 -0.31532199338E+02  0.31532199338E+02  0.00000000000E+00 0. -1.
         23    2    1    2    0    0  0.17554159639E+02 -0.91318415518E+02  0.19232471387E+03  0.23209975673E+03  0.90743043689E+02 0.  0.
          5    1    1    2  502    0 -0.32918464231E+02  0.11695207388E+03  0.35195328246E+03  0.37236355341E+03  0.47000000000E+01 0. -1.
         -5    1    1    2    0  502  0.15364304593E+02 -0.25633658366E+02  0.15750615403E+03  0.16038523889E+03  0.47000000000E+01 0. -1.
        -11    1    3    3    0    0 -0.27480688909E+02 -0.19874014675E+02  0.17999736908E+02  0.38394729469E+02  0.00000000000E+00 0. -1.
         11    1    3    3    0    0  0.45034848548E+02 -0.71444400843E+02  0.17432497696E+03  0.19370502726E+03  0.00000000000E+00 0.  1.
<mgrwt>
<rscale>  0 0.14888240E+03</rscale>
<asrwt>0</asrwt>
<pdfrwt beam="2">  1        1 0.48511082E-02 0.15579589E+03</pdfrwt>
<pdfrwt beam="1">  1       -1 0.11281789E+00 0.15579589E+03</pdfrwt>
<totfact> 0.13059578E+03</totfact>
</mgrwt>
</event>
<event>
 7    1  0.1378058E-005  0.1608243E+03  0.7546771E-02  0.1199499E+00
          1   -1    0    0  501    0  0.00000000000E+00  0.00000000000E+00  0.10879180321E+03  0.10879180321E+03  0.00000000000E+00 0. -1.
         -1   -1    0    0    0  501 -0.00000000000E+00 -0.00000000000E+00 -0.34457053512E+03  0.34457053512E+03  0.00000000000E+00 0.  1.
         23    2    1    2    0    0 -0.69853100713E+02  0.44102543216E+02  0.42988123849E+02  0.13153097338E+03  0.92886641497E+02 0.  0.
          5    1    1    2  502    0  0.30392328968E+01 -0.14406922655E+02  0.13499635456E+02  0.20521367265E+02  0.47000000000E+01 0. -1.
         -5    1    1    2    0  502  0.66813867816E+02 -0.29695620561E+02 -0.29226649122E+03  0.30130999768E+03  0.47000000000E+01 0.  1.
        -11    1    3    3    0    0 -0.29336845831E+02 -0.24733194079E+02 -0.44544133341E+01  0.38629305078E+02  0.00000000000E+00 0.  1.
         11    1    3    3    0    0 -0.40516254882E+02  0.68835737295E+02  0.47442537183E+02  0.92901668300E+02  0.00000000000E+00 0. -1.
<mgrwt>
<rscale>  0 0.15079550E+03</rscale>
<asrwt>0</asrwt>
<pdfrwt beam="1">  1        1 0.16737201E-01 0.16082434E+03</pdfrwt>
<pdfrwt beam="2">  1       -1 0.53010850E-01 0.16082434E+03</pdfrwt>
<totfact> 0.11740707E+03</totfact>
</mgrwt>
</event>
<event>
 7    1  0.1378058E-005  0.1468444E+03  0.7546771E-02  0.1211068E+00
          1   -1    0    0  501    0  0.00000000000E+00  0.00000000000E+00  0.35060746074E+03  0.35060746074E+03  0.00000000000E+00 0. -1.
         -1   -1    0    0    0  501 -0.00000000000E+00 -0.00000000000E+00 -0.34586346211E+03  0.34586346211E+03  0.00000000000E+00 0.  1.
         23    2    1    2    0    0  0.67080523041E+02  0.58550576476E+02  0.32234210351E+03  0.34656829736E+03  0.90979044066E+02 0.  0.
          5    1    1    2  502    0 -0.19597524234E+02 -0.42818249441E+02 -0.25976155638E+02  0.53984406110E+02  0.47000000000E+01 0. -1.
         -5    1    1    2    0  502 -0.47482998806E+02 -0.15732327034E+02 -0.29162194924E+03  0.29591821939E+03  0.47000000000E+01 0.  1.
        -11    1    3    3    0    0  0.89333179215E+02  0.54561586792E+02  0.26707111880E+03  0.28685251639E+03  0.00000000000E+00 0. -1.
         11    1    3    3    0    0 -0.22252656174E+02  0.39889896831E+01  0.55270984714E+02  0.59715780969E+02  0.00000000000E+00 0.  1.
<mgrwt>
<rscale>  0 0.14169345E+03</rscale>
<asrwt>0</asrwt>
<pdfrwt beam="1">  1        1 0.53939609E-01 0.14684445E+03</pdfrwt>
<pdfrwt beam="2">  1       -1 0.53209764E-01 0.14684445E+03</pdfrwt>
<totfact> 0.26810013E+02</totfact>
</mgrwt>
</event>
<event>
 7    1  0.1378058E-005  0.1278293E+03  0.7546771E-02  0.1246870E+00
          1   -1    0    0  501    0  0.00000000000E+00  0.00000000000E+00  0.17469688934E+03  0.17469688934E+03  0.00000000000E+00 0. -1.
         -1   -1    0    0    0  501 -0.00000000000E+00 -0.00000000000E+00 -0.98642245141E+02  0.98642245141E+02  0.00000000000E+00 0.  1.
         23    2    1    2    0    0  0.11710234441E+02 -0.24101897539E+02  0.10770060361E+03  0.14165092053E+03  0.88020067108E+02 0.  0.
          5    1    1    2  502    0  0.53989839827E+02 -0.17516650916E+00  0.11481636575E+01  0.54206473484E+02  0.47000000000E+01 0.  1.
         -5    1    1    2    0  502 -0.65700074268E+02  0.24277064048E+02 -0.32794123068E+02  0.77481740465E+02  0.47000000000E+01 0.  1.
        -11    1    3    3    0    0 -0.27794600954E+02 -0.18353619489E+02  0.79998023331E+01  0.34254810288E+02  0.00000000000E+00 0.  1.
         11    1    3    3    0    0  0.39504835395E+02 -0.57482780496E+01  0.99700801274E+02  0.10739611024E+03  0.00000000000E+00 0. -1.
<mgrwt>
<rscale>  0 0.11774153E+03</rscale>
<asrwt>0</asrwt>
<pdfrwt beam="1">  1        1 0.26876444E-01 0.12782926E+03</pdfrwt>
<pdfrwt beam="2">  1       -1 0.15175730E-01 0.12782926E+03</pdfrwt>
<totfact> 0.52313128E+03</totfact>
</mgrwt>
</event>
<event>
 7    1  0.1378058E-005  0.1480127E+03  0.7546771E-02  0.1212284E+00
          1   -1    0    0  501    0  0.00000000000E+00  0.00000000000E+00  0.35390685609E+03  0.35390685609E+03  0.00000000000E+00 0. -1.
         -1   -1    0    0    0  501 -0.00000000000E+00 -0.00000000000E+00 -0.66443212443E+02  0.66443212443E+02  0.00000000000E+00 0.  1.
         23    2    1    2    0    0  0.21834973429E+02 -0.76183900364E+02  0.23305383493E+03  0.26265353936E+03  0.91608072926E+02 0.  0.
          5    1    1    2  502    0 -0.40035184694E+02 -0.77540321942E+01 -0.18416204772E+02  0.44990972727E+02  0.47000000000E+01 0. -1.
         -5    1    1    2    0  502  0.18200211265E+02  0.83937932559E+02  0.72826013490E+02  0.11270555644E+03  0.47000000000E+01 0. -1.
        -11    1    3    3    0    0  0.57371365011E+02 -0.53497759365E+02  0.13960693149E+03  0.16013612678E+03  0.00000000000E+00 0.  1.
         11    1    3    3    0    0 -0.35536391582E+02 -0.22686141000E+02  0.93446903444E+02  0.10251741259E+03  0.00000000000E+00 0. -1.
<mgrwt>
<rscale>  0 0.14077917E+03</rscale>
<asrwt>0</asrwt>
<pdfrwt beam="1">  1        1 0.54447208E-01 0.14801273E+03</pdfrwt>
<pdfrwt beam="2">  1       -1 0.10222033E-01 0.14801273E+03</pdfrwt>
<totfact> 0.40485565E+03</totfact>
</mgrwt>
</event>
<event>
 7    1  0.1378058E-005  0.2910893E+03  0.7546771E-02  0.1091576E+00
          1   -1    0    0  501    0  0.00000000000E+00  0.00000000000E+00  0.22082138528E+04  0.22082138528E+04  0.00000000000E+00 0. -1.
         -1   -1    0    0    0  501 -0.00000000000E+00 -0.00000000000E+00 -0.36620696648E+02  0.36620696648E+02  0.00000000000E+00 0.  1.
         23    2    1    2    0    0  0.25739940365E+03  0.53428047821E+02  0.10482477956E+04  0.10843873094E+04  0.89237808717E+02 0.  0.
          5    1    1    2  502    0 -0.20155965533E+03  0.91350639624E+01  0.88548895486E+03  0.90819740323E+03  0.47000000000E+01 0.  1.
         -5    1    1    2    0  502 -0.55839748319E+02 -0.62563111784E+02  0.23785640571E+03  0.25224983684E+03  0.47000000000E+01 0.  1.
        -11    1    3    3    0    0  0.55418277495E+02  0.50116261520E+02  0.32318997777E+03  0.33171461662E+03  0.00000000000E+00 0. -1.
         11    1    3    3    0    0  0.20198112616E+03  0.33117863010E+01  0.72505781778E+03  0.75267269273E+03  0.00000000000E+00 0.  1.
<mgrwt>
<rscale>  0 0.28766172E+03</rscale>
<asrwt>0</asrwt>
<pdfrwt beam="1">  1        1 0.33972510E+00 0.29108933E+03</pdfrwt>
<pdfrwt beam="2">  1       -1 0.56339551E-02 0.29108933E+03</pdfrwt>
<totfact> 0.36152858E+02</totfact>
</mgrwt>
</event>
<event>
 7    1  0.1378058E-005  0.1576317E+03  0.7546771E-02  0.1199264E+00
         -2   -1    0    0    0  501 -0.00000000000E+00  0.00000000000E+00  0.20700158904E+02  0.20700158904E+02  0.00000000000E+00 0.  1.
          2   -1    0    0  501    0  0.00000000000E+00 -0.00000000000E+00 -0.10394829964E+04  0.10394829964E+04  0.00000000000E+00 0. -1.
         23    2    1    2    0    0 -0.95896544216E+02 -0.52781178934E+01 -0.39050937664E+03  0.41243683983E+03  0.91556364498E+02 0.  0.
          5    1    1    2  502    0  0.43661746418E+02 -0.45136212611E+02 -0.13296171599E+03  0.14712081330E+03  0.47000000000E+01 0. -1.
         -5    1    1    2    0  502  0.52234797798E+02  0.50414330504E+02 -0.49531174486E+03  0.50062550216E+03  0.47000000000E+01 0. -1.
        -11    1    3    3    0    0 -0.88662658458E+02  0.30110063595E+02 -0.23915552575E+03  0.25683272461E+03  0.00000000000E+00 0. -1.
         11    1    3    3    0    0 -0.72338857586E+01 -0.35388181489E+02 -0.15135385090E+03  0.15560411522E+03  0.00000000000E+00 0.  1.
<mgrwt>
<rscale>  0 0.15098785E+03</rscale>
<asrwt>0</asrwt>
<pdfrwt beam="2">  1        2 0.15992044E+00 0.15763168E+03</pdfrwt>
<pdfrwt beam="1">  1       -2 0.31846403E-02 0.15763168E+03</pdfrwt>
<totfact> 0.93683501E+03</totfact>
</mgrwt>
</event>
<event>
 7    1  0.1378058E-005  0.1267459E+03  0.7546771E-02  0.1248548E+00
          1   -1    0    0  501    0  0.00000000000E+00  0.00000000000E+00  0.62738132073E+02  0.62738132073E+02  0.00000000000E+00 0. -1.
         -1   -1    0    0    0  501 -0.00000000000E+00 -0.00000000000E+00 -0.24380520470E+03  0.24380520470E+03  0.00000000000E+00 0.  1.
         23    2    1    2    0    0  0.18713640523E+02  0.94610682769E+01 -0.74275289166E+01  0.91566122764E+02  0.88822713861E+02 0.  0.
          5    1    1    2  502    0  0.26759168036E+02 -0.23909988565E+02 -0.14316938512E+01  0.36219889211E+02  0.47000000000E+01 0. -1.
         -5    1    1    2    0  502 -0.45472808559E+02  0.14448920288E+02 -0.17220784986E+03  0.17875732480E+03  0.47000000000E+01 0. -1.
        -11    1    3    3    0    0  0.46887838928E+02  0.19865647270E+02 -0.25042988621E+02  0.56747375797E+02  0.00000000000E+00 0.  1.
         11    1    3    3    0    0 -0.28174198405E+02 -0.10404578993E+02  0.17615459705E+02  0.34818746967E+02  0.00000000000E+00 0. -1.
<mgrwt>
<rscale>  0 0.11675504E+03</rscale>
<asrwt>0</asrwt>
<pdfrwt beam="1">  1        1 0.96520204E-02 0.12674585E+03</pdfrwt>
<pdfrwt beam="2">  1       -1 0.37508493E-01 0.12674585E+03</pdfrwt>
<totfact> 0.44366452E+03</totfact>
</mgrwt>
</event>
<event>
 7    1  0.1378058E-005  0.1328649E+03  0.7546771E-02  0.1236381E+00
          3   -1    0    0  501    0  0.00000000000E+00  0.00000000000E+00  0.19019390942E+03  0.19019390942E+03  0.00000000000E+00 0. -1.
         -3   -1    0    0    0  501 -0.00000000000E+00 -0.00000000000E+00 -0.89819103636E+02  0.89819103636E+02  0.00000000000E+00 0.  1.
         23    2    1    2    0    0 -0.11965782966E+02 -0.43389332671E+02  0.10650072497E+03  0.14700695420E+03  0.90790010521E+02 0.  0.
          5    1    1    2  502    0  0.65941938366E+02  0.26708933483E+02 -0.21126930499E+02  0.74364934987E+02  0.47000000000E+01 0. -1.
         -5    1    1    2    0  502 -0.53976155400E+02  0.16680399188E+02  0.15001011310E+02  0.58641123874E+02  0.47000000000E+01 0. -1.
        -11    1    3    3    0    0  0.28397310126E+02 -0.52740204050E+02  0.63494056414E+02  0.87289355282E+02  0.00000000000E+00 0. -1.
         11    1    3    3    0    0 -0.40363093092E+02  0.93508713791E+01  0.43006668560E+02  0.59717598915E+02  0.00000000000E+00 0.  1.
<mgrwt>
<rscale>  0 0.12416433E+03</rscale>
<asrwt>0</asrwt>
<pdfrwt beam="1">  1        3 0.29260601E-01 0.13286491E+03</pdfrwt>
<pdfrwt beam="2">  1       -3 0.13818324E-01 0.13286491E+03</pdfrwt>
<totfact> 0.11038772E+03</totfact>
</mgrwt>
</event>
<event>
 7    1  0.1378058E-005  0.1406151E+03  0.7546771E-02  0.1221666E+00
         -2   -1    0    0    0  501 -0.00000000000E+00  0.00000000000E+00  0.35497714448E+02  0.35497714448E+02  0.00000000000E+00 0.  1.
          2   -1    0    0  501    0  0.00000000000E+00 -0.00000000000E+00 -0.50273770097E+03  0.50273770097E+03  0.00000000000E+00 0. -1.
         23    2    1    2    0    0  0.31748308972E+02 -0.56048240751E+02 -0.13791201138E+03  0.18014391596E+03  0.96347014275E+02 0.  0.
          5    1    1    2  502    0  0.43916582111E+02  0.35224062519E+02 -0.18874963049E+03  0.19702262249E+03  0.47000000000E+01 0. -1.
         -5    1    1    2    0  502 -0.75664891083E+02  0.20824178232E+02 -0.14057834465E+03  0.16106887696E+03  0.47000000000E+01 0. -1.
        -11    1    3    3    0    0  0.64262505247E+01 -0.43288963357E+02 -0.47774834516E+01  0.44023350536E+02  0.00000000000E+00 0.  1.
         11    1    3    3    0    0  0.25322058447E+02 -0.12759277394E+02 -0.13313452793E+03  0.13612056542E+03  0.00000000000E+00 0. -1.
<mgrwt>
<rscale>  0 0.13398062E+03</rscale>
<asrwt>0</asrwt>
<pdfrwt beam="2">  1        2 0.77344260E-01 0.14061510E+03</pdfrwt>
<pdfrwt beam="1">  1       -2 0.54611869E-02 0.14061510E+03</pdfrwt>
<totfact> 0.10101206E+04</totfact>
</mgrwt>
</event>
<event>
 7    1  0.1378058E-005  0.1525202E+03  0.7546771E-02  0.1205508E+00
          1   -1    0    0  501    0  0.00000000000E+00  0.00000000000E+00  0.55984062036E+03  0.55984062036E+03  0.00000000000E+00 0. -1.
         -1   -1    0    0    0  501 -0.00000000000E+00 -0.00000000000E+00 -0.46640839436E+02  0.46640839436E+02  0.00000000000E+00 0.  1.
         23    2    1    2    0    0  0.24104310986E+02  0.84015011054E+02  0.38986797958E+03  0.41033572307E+03  0.93481678626E+02 0.  0.
          5    1    1    2  502    0  0.19652018258E+02 -0.98730226435E+02  0.10691471521E+03  0.14692414969E+03  0.47000000000E+01 0.  1.
         -5    1    1    2    0  502 -0.43756329244E+02  0.14715215381E+02  0.16417086128E+02  0.49221587028E+02  0.47000000000E+01 0.  1.
        -11    1    3    3    0    0  0.54715299149E+02  0.28732332705E+02  0.14880903744E+03  0.16113174898E+03  0.00000000000E+00 0.  1.
         11    1    3    3    0    0 -0.30610988163E+02  0.55282678348E+02  0.24105894214E+03  0.24920397410E+03  0.00000000000E+00 0. -1.
<mgrwt>
<rscale>  0 0.14597530E+03</rscale>
<asrwt>0</asrwt>
<pdfrwt beam="1">  1        1 0.86129322E-01 0.15252022E+03</pdfrwt>
<pdfrwt beam="2">  1       -1 0.71755141E-02 0.15252022E+03</pdfrwt>
<totfact> 0.38434719E+03</totfact>
</mgrwt>
</event>
<event>
 7    1  0.1378058E-005  0.1290058E+03  0.7546771E-02  0.1242284E+00
         -1   -1    0    0    0  501 -0.00000000000E+00  0.00000000000E+00  0.44626886159E+03  0.44626886159E+03  0.00000000000E+00 0.  1.
          1   -1    0    0  501    0  0.00000000000E+00 -0.00000000000E+00 -0.49936499560E+02  0.49936499560E+02  0.00000000000E+00 0. -1.
         23    2    1    2    0    0 -0.18813497461E+02 -0.25766417628E+02  0.22483391093E+02  0.10072393070E+03  0.92854463420E+02 0.  0.
          5    1    1    2  502    0  0.33428134459E+02 -0.27679162434E+02  0.47838249089E+02  0.64762367795E+02  0.47000000000E+01 0. -1.
         -5    1    1    2    0  502 -0.14614636998E+02  0.53445580062E+02  0.32601072184E+03  0.33071906265E+03  0.47000000000E+01 0. -1.
        -11    1    3    3    0    0 -0.32745940346E+02 -0.52785741166E+02  0.30618874246E+02  0.69254216765E+02  0.00000000000E+00 0.  1.
         11    1    3    3    0    0  0.13932442885E+02  0.27019323538E+02 -0.81354831525E+01  0.31469713938E+02  0.00000000000E+00 0. -1.
<mgrwt>
<rscale>  0 0.12049405E+03</rscale>
<asrwt>0</asrwt>
<pdfrwt beam="2">  1        1 0.76825387E-02 0.12900585E+03</pdfrwt>
<pdfrwt beam="1">  1       -1 0.68656745E-01 0.12900585E+03</pdfrwt>
<totfact> 0.19865109E+03</totfact>
</mgrwt>
</event>
<event>
 7    1  0.1378058E-005  0.1378369E+03  0.7546771E-02  0.1227755E+00
          2   -1    0    0  501    0  0.00000000000E+00  0.00000000000E+00  0.65509624289E+02  0.65509624289E+02  0.00000000000E+00 0. -1.
         -2   -1    0    0    0  501 -0.00000000000E+00 -0.00000000000E+00 -0.24922072746E+03  0.24922072746E+03  0.00000000000E+00 0.  1.
         23    2    1    2    0    0 -0.33235049096E+02  0.47613677070E+02 -0.39815614187E+02  0.11546939483E+03  0.91521949697E+02 0.  0.
          5    1    1    2  502    0  0.31196469583E+02  0.37980425050E+02 -0.34355149307E+02  0.60150633291E+02  0.47000000000E+01 0. -1.
         -5    1    1    2    0  502  0.20385795136E+01 -0.85594102120E+02 -0.10954033968E+03  0.13911032363E+03  0.47000000000E+01 0. -1.
        -11    1    3    3    0    0 -0.36937935144E+02  0.71049437067E+02 -0.15629849720E+02  0.81588760026E+02  0.00000000000E+00 0. -1.
         11    1    3    3    0    0  0.37028860482E+01 -0.23435759997E+02 -0.24185764468E+02  0.33880634802E+02  0.00000000000E+00 0.  1.
<mgrwt>
<rscale>  0 0.12979836E+03</rscale>
<asrwt>0</asrwt>
<pdfrwt beam="1">  1        2 0.10078404E-01 0.13783692E+03</pdfrwt>
<pdfrwt beam="2">  1       -2 0.38341650E-01 0.13783692E+03</pdfrwt>
<totfact> 0.39210273E+03</totfact>
</mgrwt>
</event>
<event>
 7    1  0.1378058E-005  0.1891506E+03  0.7546771E-02  0.1163934E+00
          2   -1    0    0  501    0  0.00000000000E+00  0.00000000000E+00  0.44871590014E+03  0.44871590014E+03  0.00000000000E+00 0. -1.
         -2   -1    0    0    0  501 -0.00000000000E+00 -0.00000000000E+00 -0.71718307710E+02  0.71718307710E+02  0.00000000000E+00 0.  1.
         23    2    1    2    0    0  0.36293484580E+02 -0.13725214726E+03  0.18256297167E+03  0.24917276726E+03  0.92749449425E+02 0.  0.
          5    1    1    2  502    0 -0.95030619587E+00  0.20470634645E+02  0.13285643867E+03  0.13450975155E+03  0.47000000000E+01 0. -1.
         -5    1    1    2    0  502 -0.35343178384E+02  0.11678151262E+03  0.61578182091E+02  0.13675168905E+03  0.47000000000E+01 0. -1.
        -11    1    3    3    0    0  0.54042926143E+02 -0.75132666857E+02  0.59050114109E+02  0.10978374867E+03  0.00000000000E+00 0.  1.
         11    1    3    3    0    0 -0.17749441563E+02 -0.62119480404E+02  0.12351285756E+03  0.13938901859E+03  0.00000000000E+00 0. -1.
<mgrwt>
<rscale>  0 0.18405613E+03</rscale>
<asrwt>0</asrwt>
<pdfrwt beam="1">  1        2 0.69033213E-01 0.18915059E+03</pdfrwt>
<pdfrwt beam="2">  1       -2 0.11033586E-01 0.18915059E+03</pdfrwt>
<totfact> 0.39098663E+03</totfact>
</mgrwt>
</event>
<event>
 7    1  0.1378058E-005  0.1756286E+03  0.7546771E-02  0.1176421E+00
         -4   -1    0    0    0  501 -0.00000000000E+00  0.00000000000E+00  0.16621089120E+03  0.16621089120E+03  0.00000000000E+00 0.  1.
          4   -1    0    0  501    0  0.00000000000E+00 -0.00000000000E+00 -0.17645752224E+03  0.17645752224E+03  0.00000000000E+00 0. -1.
         23    2    1    2    0    0 -0.28809976995E+02 -0.11998685738E+03 -0.40884020158E+02  0.16438759544E+03  0.10062265009E+03 0.  0.
          5    1    1    2  502    0 -0.17410065121E+02  0.28067711437E+02 -0.40974506857E+02  0.52838499269E+02  0.47000000000E+01 0.  1.
         -5    1    1    2    0  502  0.46220042116E+02  0.91919145942E+02  0.71611895976E+02  0.12544231873E+03  0.47000000000E+01 0.  1.
        -11    1    3    3    0    0 -0.26042192173E+02 -0.35701596222E+02 -0.63234517471E+02  0.77145342995E+02  0.00000000000E+00 0. -1.
         11    1    3    3    0    0 -0.27677848221E+01 -0.84285261157E+02  0.22350497313E+02  0.87242252443E+02  0.00000000000E+00 0.  1.
<mgrwt>
<rscale>  0 0.17137500E+03</rscale>
<asrwt>0</asrwt>
<pdfrwt beam="2">  1        4 0.27147311E-01 0.17562859E+03</pdfrwt>
<pdfrwt beam="1">  1       -4 0.25570906E-01 0.17562859E+03</pdfrwt>
<totfact> 0.32125031E+02</totfact>
</mgrwt>
</event>
<event>
 7    1  0.1378058E-005  0.1340743E+03  0.7546771E-02  0.1240894E+00
         -3   -1    0    0    0  501 -0.00000000000E+00  0.00000000000E+00  0.81362970704E+03  0.81362970704E+03  0.00000000000E+00 0.  1.
          3   -1    0    0  501    0  0.00000000000E+00 -0.00000000000E+00 -0.17528706640E+02  0.17528706640E+02  0.00000000000E+00 0. -1.
         23    2    1    2    0    0  0.37595882033E+02  0.30600077524E+02  0.18751017752E+03  0.20797408588E+03  0.75784817972E+02 0.  0.
          5    1    1    2  502    0 -0.32918183332E+02  0.29391755602E+01  0.57249544210E+03  0.57346784284E+03  0.47000000000E+01 0.  1.
         -5    1    1    2    0  502 -0.46776987017E+01 -0.33539253084E+02  0.36095380775E+02  0.49716484951E+02  0.47000000000E+01 0.  1.
        -11    1    3    3    0    0  0.40441449630E+02  0.67994289456E+01  0.17719517810E+03  0.18187873494E+03  0.00000000000E+00 0.  1.
         11    1    3    3    0    0 -0.28455675966E+01  0.23800648578E+02  0.10314999418E+02  0.26095350940E+02  0.00000000000E+00 0. -1.
<mgrwt>
<rscale>  0 0.12134555E+03</rscale>
<asrwt>0</asrwt>
<pdfrwt beam="2">  1        3 0.26967247E-02 0.13407430E+03</pdfrwt>
<pdfrwt beam="1">  1       -3 0.12517377E+00 0.13407430E+03</pdfrwt>
<totfact> 0.74288093E+02</totfact>
</mgrwt>
</event>
<event>
 7    1  0.1378058E-005  0.1643831E+03  0.7546771E-02  0.1192378E+00
          2   -1    0    0  501    0  0.00000000000E+00  0.00000000000E+00  0.50814375446E+03  0.50814375446E+03  0.00000000000E+00 0. -1.
         -2   -1    0    0    0  501 -0.00000000000E+00 -0.00000000000E+00 -0.48241646331E+02  0.48241646331E+02  0.00000000000E+00 0.  1.
         23    2    1    2    0    0 -0.54084223479E+02  0.92004807602E+02  0.28816362651E+03  0.31865465039E+03  0.84335773649E+02 0.  0.
          5    1    1    2  502    0 -0.47663264972E+01  0.14309707369E+02 -0.10264398252E+02  0.18839677936E+02  0.47000000000E+01 0. -1.
         -5    1    1    2    0  502  0.58850549976E+02 -0.10631451497E+03  0.18200287987E+03  0.21889107247E+03  0.47000000000E+01 0. -1.
        -11    1    3    3    0    0 -0.70302453417E+02  0.74087718070E+02  0.17229278422E+03  0.20029036027E+03  0.00000000000E+00 0.  1.
         11    1    3    3    0    0  0.16218229938E+02  0.17917089532E+02  0.11587084230E+03  0.11836429011E+03  0.00000000000E+00 0. -1.
<mgrwt>
<rscale>  0 0.15678218E+03</rscale>
<asrwt>0</asrwt>
<pdfrwt beam="1">  1        2 0.78175958E-01 0.16438310E+03</pdfrwt>
<pdfrwt beam="2">  1       -2 0.74217921E-02 0.16438310E+03</pdfrwt>
<totfact> 0.63101501E+03</totfact>
</mgrwt>
</event>
<event>
 7    1  0.1378058E-005  0.1387957E+03  0.7546771E-02  0.1232069E+00
          1   -1    0    0  501    0  0.00000000000E+00  0.00000000000E+00  0.20155373831E+03  0.20155373831E+03  0.00000000000E+00 0. -1.
         -1   -1    0    0    0  501 -0.00000000000E+00 -0.00000000000E+00 -0.78247397330E+02  0.78247397330E+02  0.00000000000E+00 0.  1.
         23    2    1    2    0    0  0.33514901532E+02  0.50161890083E+02  0.99399071401E+02  0.13896146337E+03  0.76096314398E+02 0.  0.
          5    1    1    2  502    0  0.27307104822E+02  0.21243750713E+02  0.30953009699E+02  0.46659979935E+02  0.47000000000E+01 0.  1.
         -5    1    1    2    0  502 -0.60822006354E+02 -0.71405640796E+02 -0.70457401205E+01  0.94179692335E+02  0.47000000000E+01 0.  1.
        -11    1    3    3    0    0 -0.38973339913E+01  0.40438018414E+02  0.10407838546E+02  0.41937401549E+02  0.00000000000E+00 0.  1.
         11    1    3    3    0    0  0.37412235523E+02  0.97238716688E+01  0.88991232855E+02  0.97024061820E+02  0.00000000000E+00 0. -1.
<mgrwt>
<rscale>  0 0.12693948E+03</rscale>
<asrwt>0</asrwt>
<pdfrwt beam="1">  1        1 0.31008267E-01 0.13879573E+03</pdfrwt>
<pdfrwt beam="2">  1       -1 0.12038061E-01 0.13879573E+03</pdfrwt>
<totfact> 0.63092408E+03</totfact>
</mgrwt>
</event>
<event>
 7    1  0.1378058E-005  0.1659509E+03  0.7546771E-02  0.1189361E+00
         -2   -1    0    0    0  501 -0.00000000000E+00  0.00000000000E+00  0.21954506333E+03  0.21954506333E+03  0.00000000000E+00 0.  1.
          2   -1    0    0  501    0  0.00000000000E+00 -0.00000000000E+00 -0.15017262468E+03  0.15017262468E+03  0.00000000000E+00 0. -1.
         23    2    1    2    0    0 -0.10912964919E+03  0.23441256529E+01 -0.65618828284E+02  0.15579636463E+03  0.89732387401E+02 0.  0.
          5    1    1    2  502    0  0.13668033306E+03  0.55400738246E+01  0.11308617940E+03  0.17754655681E+03  0.47000000000E+01 0.  1.
         -5    1    1    2    0  502 -0.27550683868E+02 -0.78841994775E+01  0.21905087542E+02  0.36374766573E+02  0.47000000000E+01 0.  1.
        -11    1    3    3    0    0 -0.83737159350E+02 -0.28411444186E+02 -0.12399582584E+02  0.89290938315E+02  0.00000000000E+00 0.  1.
         11    1    3    3    0    0 -0.25392489841E+02  0.30755569839E+02 -0.53219245700E+02  0.66505426315E+02  0.00000000000E+00 0. -1.
<mgrwt>
<rscale>  0 0.15941268E+03</rscale>
<asrwt>0</asrwt>
<pdfrwt beam="2">  1        2 0.23103481E-01 0.16595087E+03</pdfrwt>
<pdfrwt beam="1">  1       -2 0.33776164E-01 0.16595087E+03</pdfrwt>
<totfact> 0.18951325E+03</totfact>
</mgrwt>
</event>
<event>
 7    1  0.1378058E-005  0.1500962E+03  0.7546771E-02  0.1209957E+00
          1   -1    0    0  501    0  0.00000000000E+00  0.00000000000E+00  0.33418359748E+02  0.33418359748E+02  0.00000000000E+00 0. -1.
         -1   -1    0    0    0  501 -0.00000000000E+00 -0.00000000000E+00 -0.62083710500E+03  0.62083710500E+03  0.00000000000E+00 0.  1.
         23    2    1    2    0    0 -0.73660457953E+02  0.38456041323E+02 -0.15997538381E+03  0.20122490477E+03  0.89412575699E+02 0.  0.
          5    1    1    2  502    0  0.42503164057E+02  0.41566312912E+02 -0.12334682480E+03  0.13700659295E+03  0.47000000000E+01 0.  1.
         -5    1    1    2    0  502  0.31157293895E+02 -0.80022354234E+02 -0.30409653664E+03  0.31602396703E+03  0.47000000000E+01 0.  1.
        -11    1    3    3    0    0 -0.52881947419E+02 -0.11110141840E+02 -0.32931838843E+02  0.63280657583E+02  0.00000000000E+00 0. -1.
         11    1    3    3    0    0 -0.20778510534E+02  0.49566183162E+02 -0.12704354497E+03  0.13794424719E+03  0.00000000000E+00 0.  1.
<mgrwt>
<rscale>  0 0.14253551E+03</rscale>
<asrwt>0</asrwt>
<pdfrwt beam="1">  1        1 0.51412860E-02 0.15009617E+03</pdfrwt>
<pdfrwt beam="2">  1       -1 0.95513403E-01 0.15009617E+03</pdfrwt>
<totfact> 0.17471699E+03</totfact>
</mgrwt>
</event>
<event>
 7    1  0.1378058E-005  0.1446828E+03  0.7546771E-02  0.1217701E+00
         -1   -1    0    0    0  501 -0.00000000000E+00  0.00000000000E+00  0.34363428931E+02  0.34363428931E+02  0.00000000000E+00 0.  1.
          1   -1    0    0  501    0  0.00000000000E+00 -0.00000000000E+00 -0.53265938873E+03  0.53265938873E+03  0.00000000000E+00 0. -1.
         23    2    1    2    0    0 -0.67529567303E+02 -0.27354461147E+02 -0.30032176703E+03  0.32181497836E+03  0.89795364833E+02 0.  0.
          5    1    1    2  502    0  0.65384519247E+02  0.62600524683E+02 -0.76473764674E+02  0.11859294975E+03  0.47000000000E+01 0. -1.
         -5    1    1    2    0  502  0.21450480561E+01 -0.35246063536E+02 -0.12150042810E+03  0.12661488955E+03  0.47000000000E+01 0. -1.
        -11    1    3    3    0    0  0.82476283666E+01 -0.35291992142E+02 -0.13500615457E+03  0.13978630067E+03  0.00000000000E+00 0. -1.
         11    1    3    3    0    0 -0.75777195669E+02  0.79375309954E+01 -0.16531561246E+03  0.18202867770E+03  0.00000000000E+00 0.  1.
<mgrwt>
<rscale>  0 0.13679997E+03</rscale>
<asrwt>0</asrwt>
<pdfrwt beam="2">  1        1 0.81947600E-01 0.14468277E+03</pdfrwt>
<pdfrwt beam="1">  1       -1 0.52866813E-02 0.14468277E+03</pdfrwt>
<totfact> 0.64674132E+03</totfact>
</mgrwt>
</event>
<event>
 7    1  0.1378058E-005  0.1582678E+03  0.7546771E-02  0.1198973E+00
          1   -1    0    0  501    0  0.00000000000E+00  0.00000000000E+00  0.24880912965E+03  0.24880912965E+03  0.00000000000E+00 0. -1.
         -1   -1    0    0    0  501 -0.00000000000E+00 -0.00000000000E+00 -0.99055303658E+02  0.99055303658E+02  0.00000000000E+00 0.  1.
         23    2    1    2    0    0  0.18348444998E+02  0.95183295540E+02  0.13523985291E+03  0.18893256909E+03  0.89493981162E+02 0.  0.
          5    1    1    2  502    0 -0.72956443452E+01  0.53319265226E+01  0.50483741314E+02  0.51501009737E+02  0.47000000000E+01 0. -1.
         -5    1    1    2    0  502 -0.11052800653E+02 -0.10051522206E+03 -0.35969768229E+02  0.10743085448E+03  0.47000000000E+01 0. -1.
        -11    1    3    3    0    0  0.33627976013E+01 -0.15000277329E+02  0.21809874222E+01  0.15526539659E+02  0.00000000000E+00 0.  1.
         11    1    3    3    0    0  0.14985647397E+02  0.11018357287E+03  0.13305886549E+03  0.17340602943E+03  0.00000000000E+00 0. -1.
<mgrwt>
<rscale>  0 0.15122750E+03</rscale>
<asrwt>0</asrwt>
<pdfrwt beam="1">  1        1 0.38278327E-01 0.15826775E+03</pdfrwt>
<pdfrwt beam="2">  1       -1 0.15239278E-01 0.15826775E+03</pdfrwt>
<totfact> 0.33872569E+03</totfact>
</mgrwt>
</event>
<event>
 7    1  0.1378058E-005  0.1765327E+03  0.7546771E-02  0.1180561E+00
         -2   -1    0    0    0  501 -0.00000000000E+00  0.00000000000E+00  0.16173201806E+03  0.16173201806E+03  0.00000000000E+00 0.  1.
          2   -1    0    0  501    0  0.00000000000E+00 -0.00000000000E+00 -0.49036321754E+03  0.49036321754E+03  0.00000000000E+00 0. -1.
         23    2    1    2    0    0  0.88630166836E+02  0.62879299321E+02 -0.42682801832E+03  0.45008922847E+03  0.92677093176E+02 0.  0.
          5    1    1    2  502    0 -0.31483028207E+02 -0.13628471476E+01 -0.33191700694E+02  0.46008884060E+02  0.47000000000E+01 0. -1.
         -5    1    1    2    0  502 -0.57147138629E+02 -0.61516452173E+02  0.13138851953E+03  0.15599712307E+03  0.47000000000E+01 0.  1.
        -11    1    3    3    0    0  0.47512011113E+02  0.75559823461E+02 -0.35766266149E+03  0.36863160140E+03  0.00000000000E+00 0. -1.
         11    1    3    3    0    0  0.41118155723E+02 -0.12680524141E+02 -0.69165356832E+02  0.81457627073E+02  0.00000000000E+00 0.  1.
<mgrwt>
<rscale>  0 0.16742404E+03</rscale>
<asrwt>0</asrwt>
<pdfrwt beam="2">  1        2 0.75440495E-01 0.17653275E+03</pdfrwt>
<pdfrwt beam="1">  1       -2 0.24881849E-01 0.17653275E+03</pdfrwt>
<totfact> 0.91203383E+02</totfact>
</mgrwt>
</event>
<event>
 7    1  0.1378058E-005  0.1818551E+03  0.7546771E-02  0.1171379E+00
          3   -1    0    0  501    0  0.00000000000E+00  0.00000000000E+00  0.53931883399E+02  0.53931883399E+02  0.00000000000E+00 0. -1.
         -3   -1    0    0    0  501 -0.00000000000E+00 -0.00000000000E+00 -0.55620351937E+03  0.55620351937E+03  0.00000000000E+00 0.  1.
         23    2    1    2    0    0  0.12906762978E+03 -0.28090081421E+02 -0.19162531465E+03  0.25017373254E+03  0.91755814570E+02 0.  0.
          5    1    1    2  502    0  0.19755837978E+02 -0.45947301306E-02 -0.90224392930E+02  0.92481480498E+02  0.47000000000E+01 0.  1.
         -5    1    1    2    0  502 -0.14882346776E+03  0.28094676151E+02 -0.22042192839E+03  0.26748018973E+03  0.47000000000E+01 0.  1.
        -11    1    3    3    0    0  0.85948432995E+02  0.71082892712E+00 -0.17624666614E+03  0.19608805608E+03  0.00000000000E+00 0.  1.
         11    1    3    3    0    0  0.43119196783E+02 -0.28800910348E+02 -0.15378648510E+02  0.54085676460E+02  0.00000000000E+00 0. -1.
<mgrwt>
<rscale>  0 0.17635450E+03</rscale>
<asrwt>0</asrwt>
<pdfrwt beam="1">  1        3 0.82972126E-02 0.18185507E+03</pdfrwt>
<pdfrwt beam="2">  1       -3 0.85569775E-01 0.18185507E+03</pdfrwt>
<totfact> 0.31200265E+02</totfact>
</mgrwt>
</event>
<event>
 7    1  0.1378058E-005  0.1587178E+03  0.7546771E-02  0.1198157E+00
         -3   -1    0    0    0  501 -0.00000000000E+00  0.00000000000E+00  0.16519193034E+04  0.16519193034E+04  0.00000000000E+00 0.  1.
          3   -1    0    0  501    0  0.00000000000E+00 -0.00000000000E+00 -0.31075868548E+02  0.31075868548E+02  0.00000000000E+00 0. -1.
         23    2    1    2    0    0 -0.63670251428E+02 -0.74249376875E+02  0.13831160329E+03  0.19199149583E+03  0.90353549926E+02 0.  0.
          5    1    1    2  502    0  0.23797741777E+02 -0.34473722329E+02  0.45869158885E+03  0.46062439550E+03  0.47000000000E+01 0.  1.
         -5    1    1    2    0  502  0.39872509652E+02  0.10872309920E+03  0.10238402427E+04  0.10303792806E+04  0.47000000000E+01 0.  1.
        -11    1    3    3    0    0 -0.57954620909E+02 -0.91152164052E+01  0.31062561981E+02  0.66383040091E+02  0.00000000000E+00 0. -1.
         11    1    3    3    0    0 -0.57156305189E+01 -0.65134160470E+02  0.10724904130E+03  0.12560845574E+03  0.00000000000E+00 0.  1.
<mgrwt>
<rscale>  0 0.15190067E+03</rscale>
<asrwt>0</asrwt>
<pdfrwt beam="2">  1        3 0.47809041E-02 0.15871777E+03</pdfrwt>
<pdfrwt beam="1">  1       -3 0.25414136E+00 0.15871777E+03</pdfrwt>
<totfact> 0.46287535E+01</totfact>
</mgrwt>
</event>
<event>
 7    1  0.1378058E-005  0.1300650E+03  0.7546771E-02  0.1240829E+00
          1   -1    0    0  501    0  0.00000000000E+00  0.00000000000E+00  0.10038311037E+03  0.10038311037E+03  0.00000000000E+00 0. -1.
         -1   -1    0    0    0  501 -0.00000000000E+00 -0.00000000000E+00 -0.15537472661E+03  0.15537472661E+03  0.00000000000E+00 0.  1.
         23    2    1    2    0    0 -0.34627725263E+02  0.96243399421E+01  0.26633789027E+02  0.10220131489E+03  0.91891472788E+02 0.  0.
          5    1    1    2  502    0  0.45354227006E+02 -0.30337374421E+02  0.12746598531E+02  0.56231023182E+02  0.47000000000E+01 0. -1.
         -5    1    1    2    0  502 -0.10726501743E+02  0.20713034479E+02 -0.94372003801E+02  0.97325498911E+02  0.47000000000E+01 0. -1.
        -11    1    3    3    0    0 -0.14948068290E+02 -0.41313234989E+02  0.14470500483E+02  0.46256064630E+02  0.00000000000E+00 0. -1.
         11    1    3    3    0    0 -0.19679656974E+02  0.50937574931E+02  0.12163288544E+02  0.55945250260E+02  0.00000000000E+00 0.  1.
<mgrwt>
<rscale>  0 0.12138540E+03</rscale>
<asrwt>0</asrwt>
<pdfrwt beam="1">  1        1 0.15443556E-01 0.13006498E+03</pdfrwt>
<pdfrwt beam="2">  1       -1 0.23903804E-01 0.13006498E+03</pdfrwt>
<totfact> 0.51185003E+03</totfact>
</mgrwt>
</event>
<event>
 7    1  0.1378058E-005  0.1408332E+03  0.7546771E-02  0.1223285E+00
          2   -1    0    0  501    0  0.00000000000E+00  0.00000000000E+00  0.15069552328E+03  0.15069552328E+03  0.00000000000E+00 0. -1.
         -2   -1    0    0    0  501 -0.00000000000E+00 -0.00000000000E+00 -0.10670169549E+03  0.10670169549E+03  0.00000000000E+00 0.  1.
         23    2    1    2    0    0  0.64880541473E+02 -0.38622006171E-01  0.32185366913E+02  0.11606985969E+03  0.90701865100E+02 0.  0.
          5    1    1    2  502    0 -0.63522106632E+02 -0.48029776597E+02  0.35732759846E+02  0.87411884759E+02  0.47000000000E+01 0.  1.
         -5    1    1    2    0  502 -0.13584348412E+01  0.48068398603E+02 -0.23924298972E+02  0.53915474317E+02  0.47000000000E+01 0.  1.
        -11    1    3    3    0    0  0.71673636864E+02  0.24075608438E+02  0.41535573514E+00  0.75610301304E+02  0.00000000000E+00 0.  1.
         11    1    3    3    0    0 -0.67930953907E+01 -0.24114230444E+02  0.31770011177E+02  0.40459558390E+02  0.00000000000E+00 0. -1.
<mgrwt>
<rscale>  0 0.13285111E+03</rscale>
<asrwt>0</asrwt>
<pdfrwt beam="1">  1        2 0.23183927E-01 0.14083317E+03</pdfrwt>
<pdfrwt beam="2">  1       -2 0.16415645E-01 0.14083317E+03</pdfrwt>
<totfact> 0.65648475E+03</totfact>
</mgrwt>
</event>
<event>
 7    1  0.1378058E-005  0.1286604E+03  0.7546771E-02  0.1248406E+00
         -3   -1    0    0    0  501 -0.00000000000E+00  0.00000000000E+00  0.62154024889E+02  0.62154024889E+02  0.00000000000E+00 0.  1.
          3   -1    0    0  501    0  0.00000000000E+00 -0.00000000000E+00 -0.18988490373E+03  0.18988490373E+03  0.00000000000E+00 0. -1.
         23    2    1    2    0    0 -0.13690159332E+02  0.27198375961E+02 -0.64345660677E+02  0.10861237767E+03  0.82031167350E+02 0.  0.
          5    1    1    2  502    0  0.78190713715E+01 -0.35706432746E+02  0.31123899540E+02  0.48237685881E+02  0.47000000000E+01 0. -1.
         -5    1    1    2    0  502  0.58710879610E+01  0.85080567851E+01 -0.94509117703E+02  0.95188865069E+02  0.47000000000E+01 0. -1.
        -11    1    3    3    0    0 -0.34844638737E+02  0.23192718649E+02 -0.11756385387E+01  0.41874015487E+02  0.00000000000E+00 0.  1.
         11    1    3    3    0    0  0.21154479405E+02  0.40056573128E+01 -0.63170022138E+02  0.66738362179E+02  0.00000000000E+00 0. -1.
<mgrwt>
<rscale>  0 0.11683847E+03</rscale>
<asrwt>0</asrwt>
<pdfrwt beam="2">  1        3 0.29213062E-01 0.12866037E+03</pdfrwt>
<pdfrwt beam="1">  1       -3 0.95621578E-02 0.12866037E+03</pdfrwt>
<totfact> 0.20361613E+03</totfact>
</mgrwt>
</event>
<event>
 7    1  0.1378058E-005  0.1554812E+03  0.7546771E-02  0.1203484E+00
          1   -1    0    0  501    0  0.00000000000E+00  0.00000000000E+00  0.30223120966E+03  0.30223120966E+03  0.00000000000E+00 0. -1.
         -1   -1    0    0    0  501 -0.00000000000E+00 -0.00000000000E+00 -0.68117459721E+02  0.68117459721E+02  0.00000000000E+00 0.  1.
         23    2    1    2    0    0 -0.86838713602E+02  0.31769933204E+02  0.14055030852E+03  0.18888649252E+03  0.85868661309E+02 0.  0.
          5    1    1    2  502    0 -0.55874747955E+01 -0.29274414558E+01  0.83651752272E+02  0.84020803652E+02  0.47000000000E+01 0.  1.
         -5    1    1    2    0  502  0.92426188397E+02 -0.28842491748E+02  0.99116891500E+01  0.97441373213E+02  0.47000000000E+01 0.  1.
        -11    1    3    3    0    0 -0.36095460487E+02 -0.29085695404E+02  0.43186280573E+02  0.63355463653E+02  0.00000000000E+00 0. -1.
         11    1    3    3    0    0 -0.50743253115E+02  0.60855628608E+02  0.97364027944E+02  0.12553102886E+03  0.00000000000E+00 0.  1.
<mgrwt>
<rscale>  0 0.14757540E+03</rscale>
<asrwt>0</asrwt>
<pdfrwt beam="1">  1        1 0.46497109E-01 0.15548120E+03</pdfrwt>
<pdfrwt beam="2">  1       -1 0.10479609E-01 0.15548120E+03</pdfrwt>
<totfact> 0.47568138E+03</totfact>
</mgrwt>
</event>
<event>
 6    1  0.1378058E-005  0.1163437E+03  0.7546771E-02  0.1327915E+00
         -1   -1    0    0    0  501 -0.00000000000E+00  0.00000000000E+00  0.52490023239E+02  0.52490023239E+02  0.00000000000E+00 0.  1.
          1   -1    0    0  501    0  0.00000000000E+00 -0.00000000000E+00 -0.11739717551E+03  0.11739717551E+03  0.00000000000E+00 0. -1.
          5    1    1    2  502    0 -0.26057276414E+02  0.42583093045E+02 -0.40038535453E+02  0.64167560251E+02  0.47000000000E+01 0. -1.
         -5    1    1    2    0  502  0.22541171183E+02 -0.44709763327E+02  0.19567477211E+02  0.53963353301E+02  0.47000000000E+01 0.  1.
        -11    1    1    2    0    0  0.12872974714E+02  0.83059812100E+01 -0.26013576128E+02  0.30189550259E+02  0.00000000000E+00 0. -1.
         11    1    1    2    0    0 -0.93568694829E+01 -0.61793109281E+01 -0.18422517898E+02  0.21566734935E+02  0.00000000000E+00 0.  1.
<mgrwt>
<rscale>  0 0.80401647E+02</rscale>
<asrwt>0</asrwt>
<pdfrwt beam="2">  1        1 0.18061104E-01 0.11634367E+03</pdfrwt>
<pdfrwt beam="1">  1       -1 0.80753883E-02 0.11634367E+03</pdfrwt>
<totfact> 0.22513226E+04</totfact>
</mgrwt>
</event>
<event>
 7    1  0.1378058E-005  0.4355579E+03  0.7546771E-02  0.1032781E+00
         -1   -1    0    0    0  501 -0.00000000000E+00  0.00000000000E+00  0.81112702014E+03  0.81112702014E+03  0.00000000000E+00 0.  1.
          1   -1    0    0  501    0  0.00000000000E+00 -0.00000000000E+00 -0.23347535210E+03  0.23347535210E+03  0.00000000000E+00 0. -1.
         23    2    1    2    0    0  0.33679292321E+03 -0.24628754022E+03  0.21685194765E+03  0.47901670415E+03  0.91352121229E+02 0.  0.
          5    1    1    2  502    0 -0.23445609016E+03  0.17878644472E+03  0.32265866313E+03  0.43710977331E+03  0.47000000000E+01 0. -1.
         -5    1    1    2    0  502 -0.10233683305E+03  0.67501095501E+02  0.38141057251E+02  0.12847589479E+03  0.47000000000E+01 0. -1.
        -11    1    3    3    0    0  0.28977058071E+03 -0.16965528086E+03  0.18664232187E+03  0.38416827053E+03  0.00000000000E+00 0.  1.
         11    1    3    3    0    0  0.47022342504E+02 -0.76632259360E+02  0.30209625786E+02  0.94848433616E+02  0.00000000000E+00 0. -1.
<mgrwt>
<rscale>  0 0.43343317E+03</rscale>
<asrwt>0</asrwt>
<pdfrwt beam="2">  1        1 0.35919285E-01 0.43555793E+03</pdfrwt>
<pdfrwt beam="1">  1       -1 0.12478877E+00 0.43555793E+03</pdfrwt>
<totfact> 0.71464590E+01</totfact>
</mgrwt>
</event>
<event>
 7    1  0.1378058E-005  0.1296576E+03  0.7546771E-02  0.1241430E+00
         -1   -1    0    0    0  501 -0.00000000000E+00  0.00000000000E+00  0.57117282685E+02  0.57117282685E+02  0.00000000000E+00 0.  1.
          1   -1    0    0  501    0  0.00000000000E+00 -0.00000000000E+00 -0.23059472025E+03  0.23059472025E+03  0.00000000000E+00 0. -1.
         23    2    1    2    0    0 -0.34375726076E+02 -0.17700396411E+01 -0.58863795793E+02  0.11465886745E+03  0.92178554159E+02 0.  0.
          5    1    1    2  502    0  0.53175482321E+02 -0.47428649015E+02 -0.40763963288E+02  0.82224688327E+02  0.47000000000E+01 0.  1.
         -5    1    1    2    0  502 -0.18799756245E+02  0.49198688657E+02 -0.73849678482E+02  0.90828447153E+02  0.47000000000E+01 0.  1.
        -11    1    3    3    0    0 -0.64420553987E+02 -0.40951628584E+01 -0.24728236865E+02  0.69124987040E+02  0.00000000000E+00 0. -1.
         11    1    3    3    0    0  0.30044827911E+02  0.23251232173E+01 -0.34135558927E+02  0.45533880413E+02  0.00000000000E+00 0.  1.
<mgrwt>
<rscale>  0 0.12101594E+03</rscale>
<asrwt>0</asrwt>
<pdfrwt beam="2">  1        1 0.35476111E-01 0.12965763E+03</pdfrwt>
<pdfrwt beam="1">  1       -1 0.87872742E-02 0.12965763E+03</pdfrwt>
<totfact> 0.85979761E+03</totfact>
</mgrwt>
</event>
<event>
 7    1  0.1378058E-005  0.1509985E+03  0.7546771E-02  0.1208120E+00
         -2   -1    0    0    0  501 -0.00000000000E+00  0.00000000000E+00  0.12210271529E+03  0.12210271529E+03  0.00000000000E+00 0.  1.
          2   -1    0    0  501    0  0.00000000000E+00 -0.00000000000E+00 -0.17836946900E+03  0.17836946900E+03  0.00000000000E+00 0. -1.
         23    2    1    2    0    0 -0.76214524419E+02 -0.36983007168E+02 -0.79233060180E+02  0.14773715276E+03  0.91498589758E+02 0.  0.
          5    1    1    2  502    0  0.10204602398E+03  0.16681274507E+02 -0.12384981560E+02  0.10424554521E+03  0.47000000000E+01 0.  1.
         -5    1    1    2    0  502 -0.25831499559E+02  0.20301732661E+02  0.35351288029E+02  0.48489486322E+02  0.47000000000E+01 0.  1.
        -11    1    3    3    0    0 -0.64594025983E+01  0.12006123625E+02  0.15270648081E+02  0.20471042456E+02  0.00000000000E+00 0.  1.
         11    1    3    3    0    0 -0.69755121821E+02 -0.48989130793E+02 -0.94503708261E+02  0.12726611030E+03  0.00000000000E+00 0. -1.
<mgrwt>
<rscale>  0 0.14394285E+03</rscale>
<asrwt>0</asrwt>
<pdfrwt beam="2">  1        2 0.27441457E-01 0.15099847E+03</pdfrwt>
<pdfrwt beam="1">  1       -2 0.18785033E-01 0.15099847E+03</pdfrwt>
<totfact> 0.43717246E+03</totfact>
</mgrwt>
</event>
<event>
 7    1  0.1378058E-005  0.1251867E+03  0.7546771E-02  0.1250105E+00
          1   -1    0    0  501    0  0.00000000000E+00  0.00000000000E+00  0.18221812557E+03  0.18221812557E+03  0.00000000000E+00 0. -1.
         -1   -1    0    0    0  501 -0.00000000000E+00 -0.00000000000E+00 -0.87945791509E+02  0.87945791509E+02  0.00000000000E+00 0.  1.
         23    2    1    2    0    0  0.68881863199E+01  0.36421248806E+00  0.11079344406E+03  0.14389171872E+03  0.91553589268E+02 0.  0.
          5    1    1    2  502    0  0.51475113788E+02  0.79819478857E+01  0.20856617484E+02  0.56307080588E+02  0.47000000000E+01 0. -1.
         -5    1    1    2    0  502 -0.58363300108E+02 -0.83461603737E+01 -0.37377727486E+02  0.69965117769E+02  0.47000000000E+01 0. -1.
        -11    1    3    3    0    0 -0.42155787716E+02  0.36730998045E+01  0.57472776889E+02  0.71370317243E+02  0.00000000000E+00 0.  1.
         11    1    3    3    0    0  0.49043974036E+02 -0.33088873165E+01  0.53320667172E+02  0.72521401477E+02  0.00000000000E+00 0. -1.
<mgrwt>
<rscale>  0 0.11584969E+03</rscale>
<asrwt>0</asrwt>
<pdfrwt beam="1">  1        1 0.28033558E-01 0.12518674E+03</pdfrwt>
<pdfrwt beam="2">  1       -1 0.13530122E-01 0.12518674E+03</pdfrwt>
<totfact> 0.59280220E+03</totfact>
</mgrwt>
</event>
<event>
 7    1  0.1378058E-005  0.2072640E+03  0.7546771E-02  0.1147717E+00
          1   -1    0    0  501    0  0.00000000000E+00  0.00000000000E+00  0.89947675607E+03  0.89947675607E+03  0.00000000000E+00 0. -1.
         -1   -1    0    0    0  501 -0.00000000000E+00 -0.00000000000E+00 -0.52717563093E+02  0.52717563093E+02  0.00000000000E+00 0.  1.
         23    2    1    2    0    0 -0.85140549316E+02 -0.14172184469E+03  0.60527592522E+03  0.63396083640E+03  0.90627821541E+02 0.  0.
          5    1    1    2  502    0  0.11697325983E+03  0.11700422291E+03  0.20660972846E+03  0.26473080967E+03  0.47000000000E+01 0. -1.
         -5    1    1    2    0  502 -0.31832710515E+02  0.24717621779E+02  0.34873539298E+02  0.53502673095E+02  0.47000000000E+01 0. -1.
        -11    1    3    3    0    0 -0.98678000415E+02 -0.95287736216E+02  0.39326202841E+03  0.41649984806E+03  0.00000000000E+00 0.  1.
         11    1    3    3    0    0  0.13537451099E+02 -0.46434108471E+02  0.21201389681E+03  0.21746098834E+03  0.00000000000E+00 0. -1.
<mgrwt>
<rscale>  0 0.20241558E+03</rscale>
<asrwt>0</asrwt>
<pdfrwt beam="1">  1        1 0.13838103E+00 0.20726404E+03</pdfrwt>
<pdfrwt beam="2">  1       -1 0.81103950E-02 0.20726404E+03</pdfrwt>
<totfact> 0.16091570E+03</totfact>
</mgrwt>
</event>
<event>
 7    1  0.1378058E-005  0.1479506E+03  0.7546771E-02  0.1210988E+00
          1   -1    0    0  501    0  0.00000000000E+00  0.00000000000E+00  0.41817123888E+02  0.41817123888E+02  0.00000000000E+00 0. -1.
         -1   -1    0    0    0  501 -0.00000000000E+00 -0.00000000000E+00 -0.44683324294E+03  0.44683324294E+03  0.00000000000E+00 0.  1.
         23    2    1    2    0    0  0.47329587789E+01  0.79012731098E+02 -0.16718544420E+03  0.20855610479E+03  0.96328933966E+02 0.  0.
          5    1    1    2  502    0 -0.29013284325E+02 -0.43392982459E+01 -0.18006635252E+03  0.18250090818E+03  0.47000000000E+01 0.  1.
         -5    1    1    2    0  502  0.24280325546E+02 -0.74673432852E+02 -0.57764322331E+02  0.97593353856E+02  0.47000000000E+01 0.  1.
        -11    1    3    3    0    0 -0.33125478685E+02  0.80230811913E+02 -0.11645881325E+03  0.14524784233E+03  0.00000000000E+00 0. -1.
         11    1    3    3    0    0  0.37858437464E+02 -0.12180808156E+01 -0.50726630948E+02  0.63308262458E+02  0.00000000000E+00 0.  1.
<mgrwt>
<rscale>  0 0.14175394E+03</rscale>
<asrwt>0</asrwt>
<pdfrwt beam="1">  1        1 0.64334034E-02 0.14795055E+03</pdfrwt>
<pdfrwt beam="2">  1       -1 0.68743579E-01 0.14795055E+03</pdfrwt>
<totfact> 0.25339755E+03</totfact>
</mgrwt>
</event>
<event>
 7    1  0.1378058E-005  0.1257849E+03  0.7546771E-02  0.1249006E+00
         -1   -1    0    0    0  501 -0.00000000000E+00  0.00000000000E+00  0.24328749452E+03  0.24328749452E+03  0.00000000000E+00 0.  1.
          1   -1    0    0  501    0  0.00000000000E+00 -0.00000000000E+00 -0.78518047606E+02  0.78518047606E+02  0.00000000000E+00 0. -1.
         23    2    1    2    0    0  0.10819369994E+02  0.88929445155E+01 -0.23429379174E+02  0.95441569695E+02  0.91454984491E+02 0.  0.
          5    1    1    2  502    0 -0.62658011711E+02 -0.24726692427E+02  0.75960070036E+02  0.10163394113E+03  0.47000000000E+01 0.  1.
         -5    1    1    2    0  502  0.51838641717E+02  0.15833747912E+02  0.11223875605E+03  0.12473003130E+03  0.47000000000E+01 0.  1.
        -11    1    3    3    0    0  0.45514621303E+02  0.11945037648E+02 -0.35104427980E+02  0.58707627618E+02  0.00000000000E+00 0. -1.
         11    1    3    3    0    0 -0.34695251309E+02 -0.30520931325E+01  0.11675048807E+02  0.36733942077E+02  0.00000000000E+00 0.  1.
<mgrwt>
<rscale>  0 0.11648813E+03</rscale>
<asrwt>0</asrwt>
<pdfrwt beam="2">  1        1 0.12079700E-01 0.12578494E+03</pdfrwt>
<pdfrwt beam="1">  1       -1 0.37428845E-01 0.12578494E+03</pdfrwt>
<totfact> 0.33120345E+03</totfact>
</mgrwt>
</event>
<event>
 7    1  0.1378058E-005  0.1261397E+03  0.7546771E-02  0.1248505E+00
          3   -1    0    0  501    0  0.00000000000E+00  0.00000000000E+00  0.18916921351E+03  0.18916921351E+03  0.00000000000E+00 0. -1.
         -3   -1    0    0    0  501 -0.00000000000E+00 -0.00000000000E+00 -0.64980377831E+02  0.64980377831E+02  0.00000000000E+00 0.  1.
         23    2    1    2    0    0  0.16503664059E+02 -0.37384849063E+01  0.73213759506E+02  0.11809933489E+03  0.91109006816E+02 0.  0.
          5    1    1    2  502    0 -0.74734725873E+01 -0.57228248394E+02  0.46159555489E+02  0.74052142236E+02  0.47000000000E+01 0.  1.
         -5    1    1    2    0  502 -0.90301914721E+01  0.60966733300E+02  0.48155206856E+01  0.61998114220E+02  0.47000000000E+01 0.  1.
        -11    1    3    3    0    0  0.30566129037E+02 -0.74463098328E+01 -0.10473640109E+02  0.33157697622E+02  0.00000000000E+00 0.  1.
         11    1    3    3    0    0 -0.14062464978E+02  0.37078249266E+01  0.83687399615E+02  0.84941637265E+02  0.00000000000E+00 0. -1.
<mgrwt>
<rscale>  0 0.11678046E+03</rscale>
<asrwt>0</asrwt>
<pdfrwt beam="1">  1        3 0.29102956E-01 0.12613966E+03</pdfrwt>
<pdfrwt beam="2">  1       -3 0.99969813E-02 0.12613966E+03</pdfrwt>
<totfact> 0.18987425E+03</totfact>
</mgrwt>
</event>
<event>
 7    1  0.1378058E-005  0.2133115E+03  0.7546771E-02  0.1144779E+00
          2   -1    0    0  501    0  0.00000000000E+00  0.00000000000E+00  0.43997668652E+03  0.43997668652E+03  0.00000000000E+00 0. -1.
         -2   -1    0    0    0  501 -0.00000000000E+00 -0.00000000000E+00 -0.10575249851E+03  0.10575249851E+03  0.00000000000E+00 0.  1.
         23    2    1    2    0    0  0.13560484718E+03  0.86917088233E+02  0.26097997127E+03  0.32019316154E+03  0.92031844977E+02 0.  0.
          5    1    1    2  502    0 -0.17022675918E+02  0.36703558846E+02  0.48180543028E+01  0.41014953061E+02  0.47000000000E+01 0. -1.
         -5    1    1    2    0  502 -0.11858217126E+03 -0.12362064708E+03  0.68426162449E+02  0.18452107043E+03  0.47000000000E+01 0.  1.
        -11    1    3    3    0    0  0.36743781016E+02 -0.63584780281E+01  0.17161680067E+02  0.41049469532E+02  0.00000000000E+00 0.  1.
         11    1    3    3    0    0  0.98861066160E+02  0.93275566262E+02  0.24381829120E+03  0.27914369201E+03  0.00000000000E+00 0. -1.
<mgrwt>
<rscale>  0 0.20599238E+03</rscale>
<asrwt>0</asrwt>
<pdfrwt beam="1">  1        2 0.67688720E-01 0.21331147E+03</pdfrwt>
<pdfrwt beam="2">  1       -2 0.16269615E-01 0.21331147E+03</pdfrwt>
<totfact> 0.21297892E+03</totfact>
</mgrwt>
</event>
<event>
 7    1  0.1378058E-005  0.1215732E+03  0.7546771E-02  0.1260181E+00
          1   -1    0    0  501    0  0.00000000000E+00  0.00000000000E+00  0.12445503129E+03  0.12445503129E+03  0.00000000000E+00 0. -1.
         -1   -1    0    0    0  501 -0.00000000000E+00 -0.00000000000E+00 -0.90025635228E+02  0.90025635228E+02  0.00000000000E+00 0.  1.
         23    2    1    2    0    0 -0.31944717906E+02 -0.55483233443E+01  0.42851287501E+02  0.92616155265E+02  0.75433881523E+02 0.  0.
          5    1    1    2  502    0  0.17444524860E+02  0.44647861171E+02  0.36468297107E+02  0.60413323437E+02  0.47000000000E+01 0. -1.
         -5    1    1    2    0  502  0.14500193046E+02 -0.39099537827E+02 -0.44890188544E+02  0.61451187817E+02  0.47000000000E+01 0.  1.
        -11    1    3    3    0    0  0.15300267403E+02  0.15291750536E+02 -0.50155946016E+01  0.22205675091E+02  0.00000000000E+00 0. -1.
         11    1    3    3    0    0 -0.47244985308E+02 -0.20840073880E+02  0.47866882102E+02  0.70410480174E+02  0.00000000000E+00 0.  1.
<mgrwt>
<rscale>  0 0.11021050E+03</rscale>
<asrwt>0</asrwt>
<pdfrwt beam="1">  1        1 0.19146928E-01 0.12157315E+03</pdfrwt>
<pdfrwt beam="2">  1       -1 0.13850098E-01 0.12157315E+03</pdfrwt>
<totfact> 0.92110937E+03</totfact>
</mgrwt>
</event>
<event>
 7    1  0.1378058E-005  0.1357085E+03  0.7546771E-02  0.1231391E+00
          2   -1    0    0  501    0  0.00000000000E+00  0.00000000000E+00  0.11595080729E+04  0.11595080729E+04  0.00000000000E+00 0.  1.
         -2   -1    0    0    0  501 -0.00000000000E+00 -0.00000000000E+00 -0.12945622719E+02  0.12945622719E+02  0.00000000000E+00 0. -1.
         23    2    1    2    0    0  0.48687298848E+02  0.20495226219E+02  0.60779323690E+03  0.61685575798E+03  0.91147682219E+02 0.  0.
          5    1    1    2  502    0 -0.83423316691E+02 -0.13996055730E+02  0.23616614929E+03  0.25090213115E+03  0.47000000000E+01 0. -1.
         -5    1    1    2    0  502  0.34736017842E+02 -0.64991704888E+01  0.30260306402E+03  0.30469580652E+03  0.47000000000E+01 0. -1.
        -11    1    3    3    0    0 -0.25954435575E+02  0.16161267036E+02  0.17326299064E+03  0.17593999887E+03  0.00000000000E+00 0. -1.
         11    1    3    3    0    0  0.74641734423E+02  0.43339591832E+01  0.43453024626E+03  0.44091575911E+03  0.00000000000E+00 0.  1.
<mgrwt>
<rscale>  0 0.12738343E+03</rscale>
<asrwt>0</asrwt>
<pdfrwt beam="1">  1        2 0.17838578E+00 0.13570852E+03</pdfrwt>
<pdfrwt beam="2">  1       -2 0.19916352E-02 0.13570852E+03</pdfrwt>
<totfact> 0.15760626E+04</totfact>
</mgrwt>
</event>
<event>
 7    1  0.1378058E-005  0.1254569E+03  0.7546771E-02  0.1250013E+00
         -1   -1    0    0    0  501 -0.00000000000E+00  0.00000000000E+00  0.45339790168E+02  0.45339790168E+02  0.00000000000E+00 0.  1.
          1   -1    0    0  501    0  0.00000000000E+00 -0.00000000000E+00 -0.29096188737E+03  0.29096188737E+03  0.00000000000E+00 0. -1.
         23    2    1    2    0    0  0.85549384414E+01 -0.63071243107E+01 -0.16049337216E+03  0.18468921976E+03  0.90769039866E+02 0.  0.
          5    1    1    2  502    0  0.36605998634E+02  0.18123753057E+02  0.12768393049E+02  0.43053355524E+02  0.47000000000E+01 0.  1.
         -5    1    1    2    0  502 -0.45160937075E+02 -0.11816628747E+02 -0.97897118091E+02  0.10855910226E+03  0.47000000000E+01 0.  1.
        -11    1    3    3    0    0  0.21103354851E+02  0.23146560563E+02 -0.14639276161E+03  0.14970623068E+03  0.00000000000E+00 0. -1.
         11    1    3    3    0    0 -0.12548416410E+02 -0.29453684874E+02 -0.14100610551E+02  0.34982989080E+02  0.00000000000E+00 0.  1.
<mgrwt>
<rscale>  0 0.11590300E+03</rscale>
<asrwt>0</asrwt>
<pdfrwt beam="2">  1        1 0.44763367E-01 0.12545692E+03</pdfrwt>
<pdfrwt beam="1">  1       -1 0.69753524E-02 0.12545692E+03</pdfrwt>
<totfact> 0.91116511E+03</totfact>
</mgrwt>
</event>
<event>
 7    1  0.1378058E-005  0.1447145E+03  0.7546771E-02  0.1216981E+00
          1   -1    0    0  501    0  0.00000000000E+00  0.00000000000E+00  0.43156738337E+03  0.43156738337E+03  0.00000000000E+00 0. -1.
         -1   -1    0    0    0  501 -0.00000000000E+00 -0.00000000000E+00 -0.41738921247E+02  0.41738921247E+02  0.00000000000E+00 0.  1.
         23    2    1    2    0    0 -0.66757956532E+02 -0.29368519205E+02  0.22653736760E+03  0.25511768175E+03  0.91906027763E+02 0.  0.
          5    1    1    2  502    0  0.24226671483E+02  0.15486131696E+01 -0.17524833207E+02  0.30307418115E+02  0.47000000000E+01 0. -1.
         -5    1    1    2    0  502  0.42531285049E+02  0.27819906035E+02  0.18081592773E+03  0.18788120475E+03  0.47000000000E+01 0. -1.
        -11    1    3    3    0    0 -0.19596904729E+02 -0.52285394437E+02  0.16542226247E+03  0.17459188431E+03  0.00000000000E+00 0.  1.
         11    1    3    3    0    0 -0.47161051803E+02  0.22916875232E+02  0.61115105137E+02  0.80525797441E+02  0.00000000000E+00 0. -1.
<mgrwt>
<rscale>  0 0.13732022E+03</rscale>
<asrwt>0</asrwt>
<pdfrwt beam="1">  1        1 0.66394979E-01 0.14471452E+03</pdfrwt>
<pdfrwt beam="2">  1       -1 0.64213728E-02 0.14471452E+03</pdfrwt>
<totfact> 0.63607891E+03</totfact>
</mgrwt>
</event>
<event>
 7    1  0.1378058E-005  0.2020941E+03  0.7546771E-02  0.1152140E+00
         -2   -1    0    0    0  501 -0.00000000000E+00  0.00000000000E+00  0.62134849591E+02  0.62134849591E+02  0.00000000000E+00 0.  1.
          2   -1    0    0  501    0  0.00000000000E+00 -0.00000000000E+00 -0.60004832941E+03  0.60004832941E+03  0.00000000000E+00 0. -1.
         23    2    1    2    0    0  0.69395686336E+02 -0.14283367195E+03 -0.27887377607E+03  0.33363548579E+03  0.91240535280E+02 0.  0.
          5    1    1    2  502    0 -0.41339222483E+02  0.10482546390E+03 -0.25742374504E+03  0.28104516311E+03  0.47000000000E+01 0.  1.
         -5    1    1    2    0  502 -0.28056463852E+02  0.38008208052E+02 -0.16159587118E+01  0.47502530099E+02  0.47000000000E+01 0.  1.
        -11    1    3    3    0    0  0.16221197310E+02 -0.10888114266E+03 -0.22574492857E+03  0.25115533688E+03  0.00000000000E+00 0.  1.
         11    1    3    3    0    0  0.53174489026E+02 -0.33952529287E+02 -0.53128847502E+02  0.82480148915E+02  0.00000000000E+00 0. -1.
<mgrwt>
<rscale>  0 0.19718047E+03</rscale>
<asrwt>0</asrwt>
<pdfrwt beam="2">  1        2 0.92315126E-01 0.20209408E+03</pdfrwt>
<pdfrwt beam="1">  1       -2 0.95592078E-02 0.20209408E+03</pdfrwt>
<totfact> 0.35531537E+03</totfact>
</mgrwt>
</event>
<event>
 6    1  0.1378058E-005  0.1284927E+03  0.7546771E-02  0.1288727E+00
          1   -1    0    0  501    0  0.00000000000E+00  0.00000000000E+00  0.13552736482E+02  0.13552736482E+02  0.00000000000E+00 0. -1.
         -1   -1    0    0    0  501 -0.00000000000E+00 -0.00000000000E+00 -0.62767774108E+03  0.62767774108E+03  0.00000000000E+00 0.  1.
          5    1    1    2  502    0 -0.28284872758E+02 -0.68197975792E+02 -0.33272182309E+03  0.34084732578E+03  0.47000000000E+01 0. -1.
         -5    1    1    2    0  502  0.20938430870E+01  0.54137387555E+02 -0.22265572567E+03  0.22920057392E+03  0.47000000000E+01 0.  1.
        -11    1    1    2    0    0  0.12515413111E+02 -0.59939335710E+01 -0.11335117702E+02  0.17917803948E+02  0.00000000000E+00 0. -1.
         11    1    1    2    0    0  0.13675616560E+02  0.20054521808E+02 -0.47412338131E+02  0.53264773915E+02  0.00000000000E+00 0.  1.
<mgrwt>
<rscale>  0 0.96095691E+02</rscale>
<asrwt>0</asrwt>
<pdfrwt beam="1">  1        1 0.20850362E-02 0.12849275E+03</pdfrwt>
<pdfrwt beam="2">  1       -1 0.96565817E-01 0.12849275E+03</pdfrwt>
<totfact> 0.58872226E+03</totfact>
</mgrwt>
</event>
<event>
 7    1  0.1378058E-005  0.1354211E+03  0.7546771E-02  0.1233071E+00
         -2   -1    0    0    0  501 -0.00000000000E+00  0.00000000000E+00  0.17253998524E+03  0.17253998524E+03  0.00000000000E+00 0.  1.
          2   -1    0    0  501    0  0.00000000000E+00 -0.00000000000E+00 -0.29085520338E+03  0.29085520338E+03  0.00000000000E+00 0. -1.
         23    2    1    2    0    0  0.61867641261E+01 -0.51692234769E+02 -0.25266699876E+03  0.27263548985E+03  0.88199404073E+02 0.  0.
          5    1    1    2  502    0 -0.11012688472E+02 -0.25537859720E+02  0.10358140717E+03  0.10735296688E+03  0.47000000000E+01 0.  1.
         -5    1    1    2    0  502  0.48259243461E+01  0.77230094489E+02  0.30770373450E+02  0.83406731880E+02  0.47000000000E+01 0.  1.
        -11    1    3    3    0    0 -0.26873350018E+02 -0.62122945819E+02 -0.16242799750E+03  0.17596673467E+03  0.00000000000E+00 0.  1.
         11    1    3    3    0    0  0.33060114144E+02  0.10430711049E+02 -0.90239001257E+02  0.96668755180E+02  0.00000000000E+00 0. -1.
<mgrwt>
<rscale>  0 0.12628710E+03</rscale>
<asrwt>0</asrwt>
<pdfrwt beam="2">  1        2 0.44746954E-01 0.13542105E+03</pdfrwt>
<pdfrwt beam="1">  1       -2 0.26544613E-01 0.13542105E+03</pdfrwt>
<totfact> 0.14196261E+03</totfact>
</mgrwt>
</event>
<event>
 7    1  0.1378058E-005  0.1457527E+03  0.7546771E-02  0.1214566E+00
         -2   -1    0    0    0  501 -0.00000000000E+00  0.00000000000E+00  0.25098082995E+02  0.25098082995E+02  0.00000000000E+00 0.  1.
          2   -1    0    0  501    0  0.00000000000E+00 -0.00000000000E+00 -0.70803020899E+03  0.70803020899E+03  0.00000000000E+00 0. -1.
         23    2    1    2    0    0 -0.73638563623E+02 -0.13548143766E+02 -0.31122861887E+03  0.33386978415E+03  0.94866165253E+02 0.  0.
          5    1    1    2  502    0 -0.33366249649E+02  0.18472008270E+02 -0.10487076720E+03  0.11168925426E+03  0.47000000000E+01 0.  1.
         -5    1    1    2    0  502  0.10700481327E+03 -0.49238645041E+01 -0.26683273992E+03  0.28756925357E+03  0.47000000000E+01 0.  1.
        -11    1    3    3    0    0 -0.18577611123E+02  0.51867007936E+01 -0.21970758134E+01  0.19412795839E+02  0.00000000000E+00 0.  1.
         11    1    3    3    0    0 -0.55060952500E+02 -0.18734844559E+02 -0.30903154306E+03  0.31445698831E+03  0.00000000000E+00 0. -1.
<mgrwt>
<rscale>  0 0.13908430E+03</rscale>
<asrwt>0</asrwt>
<pdfrwt beam="2">  1        2 0.10892770E+00 0.14575273E+03</pdfrwt>
<pdfrwt beam="1">  1       -2 0.38612442E-02 0.14575273E+03</pdfrwt>
<totfact> 0.11510317E+04</totfact>
</mgrwt>
</event>
<event>
 7    1  0.1378058E-005  0.2410330E+03  0.7546771E-02  0.1119107E+00
         -1   -1    0    0    0  501 -0.00000000000E+00  0.00000000000E+00  0.22209089135E+03  0.22209089135E+03  0.00000000000E+00 0.  1.
          1   -1    0    0  501    0  0.00000000000E+00 -0.00000000000E+00 -0.65397663118E+02  0.65397663118E+02  0.00000000000E+00 0. -1.
         23    2    1    2    0    0 -0.25470673086E+01  0.32084588781E+02  0.18509412708E+02  0.98396537448E+02  0.91122839254E+02 0.  0.
          5    1    1    2  502    0 -0.59120185478E+01 -0.20050892404E+02  0.16051666871E+03  0.16194036304E+03  0.47000000000E+01 0.  1.
         -5    1    1    2    0  502  0.84590858564E+01 -0.12033696378E+02 -0.22332853187E+02  0.27151653974E+02  0.47000000000E+01 0.  1.
        -11    1    3    3    0    0  0.42385154613E+02  0.29342171270E+02  0.11794290238E+02  0.52882602324E+02  0.00000000000E+00 0.  1.
         11    1    3    3    0    0 -0.44932221922E+02  0.27424175114E+01  0.67151224699E+01  0.45513935123E+02  0.00000000000E+00 0. -1.
<mgrwt>
<rscale>  0 0.24103299E+03</rscale>
<asrwt>0</asrwt>
<pdfrwt beam="2">  1        1 0.10061179E-01 0.24103299E+03</pdfrwt>
<pdfrwt beam="1">  1       -1 0.34167829E-01 0.24103299E+03</pdfrwt>
<totfact> 0.51231715E+03</totfact>
</mgrwt>
</event>
<event>
 7    1  0.1378058E-005  0.1306292E+03  0.7546771E-02  0.1243224E+00
         -2   -1    0    0    0  501 -0.00000000000E+00  0.00000000000E+00  0.84492962665E+02  0.84492962665E+02  0.00000000000E+00 0.  1.
          2   -1    0    0  501    0  0.00000000000E+00 -0.00000000000E+00 -0.15626639132E+03  0.15626639132E+03  0.00000000000E+00 0. -1.
         23    2    1    2    0    0  0.79436994928E+01 -0.37083317862E+02 -0.57959906163E+02  0.10940185874E+03  0.84682590582E+02 0.  0.
          5    1    1    2  502    0 -0.53756357729E+02  0.38679945797E+02 -0.40828294125E+02  0.77941797544E+02  0.47000000000E+01 0. -1.
         -5    1    1    2    0  502  0.45812658236E+02 -0.15966279348E+01  0.27014771628E+02  0.53415697707E+02  0.47000000000E+01 0. -1.
        -11    1    3    3    0    0  0.28723729482E+02 -0.49193524401E+01  0.10487115616E+02  0.30971474904E+02  0.00000000000E+00 0.  1.
         11    1    3    3    0    0 -0.20780029989E+02 -0.32163965422E+02 -0.68447021779E+02  0.78430383835E+02  0.00000000000E+00 0. -1.
<mgrwt>
<rscale>  0 0.11992282E+03</rscale>
<asrwt>0</asrwt>
<pdfrwt beam="2">  1        2 0.24040983E-01 0.13062916E+03</pdfrwt>
<pdfrwt beam="1">  1       -2 0.12998917E-01 0.13062916E+03</pdfrwt>
<totfact> 0.91728442E+03</totfact>
</mgrwt>
</event>
<event>
 7    1  0.1378058E-005  0.1262609E+03  0.7546771E-02  0.1245398E+00
         -1   -1    0    0    0  501 -0.00000000000E+00  0.00000000000E+00  0.27149245498E+02  0.27149245498E+02  0.00000000000E+00 0.  1.
          1   -1    0    0  501    0  0.00000000000E+00 -0.00000000000E+00 -0.58711957777E+03  0.58711957777E+03  0.00000000000E+00 0. -1.
         23    2    1    2    0    0 -0.33976814380E+02  0.16807582388E+02 -0.39192391569E+03  0.40407509473E+03  0.90749147382E+02 0.  0.
          5    1    1    2  502    0 -0.23530084308E+02  0.36114931147E+02 -0.34589540203E+02  0.55466020325E+02  0.47000000000E+01 0. -1.
         -5    1    1    2    0  502  0.57506898688E+02 -0.52922513535E+02 -0.13345687638E+03  0.15472770821E+03  0.47000000000E+01 0.  1.
        -11    1    3    3    0    0 -0.80850933125E+01 -0.37402548036E+02 -0.15040327959E+03  0.15519492854E+03  0.00000000000E+00 0.  1.
         11    1    3    3    0    0 -0.25891721068E+02  0.54210130424E+02 -0.24152063610E+03  0.24888016619E+03  0.00000000000E+00 0. -1.
<mgrwt>
<rscale>  0 0.11861591E+03</rscale>
<asrwt>0</asrwt>
<pdfrwt beam="2">  1        1 0.90326093E-01 0.12626086E+03</pdfrwt>
<pdfrwt beam="1">  1       -1 0.41768068E-02 0.12626086E+03</pdfrwt>
<totfact> 0.79751267E+03</totfact>
</mgrwt>
</event>
<event>
 7    1  0.1378058E-005  0.1304895E+03  0.7546771E-02  0.1240364E+00
          1   -1    0    0  501    0  0.00000000000E+00  0.00000000000E+00  0.38159615664E+02  0.38159615664E+02  0.00000000000E+00 0. -1.
         -1   -1    0    0    0  501 -0.00000000000E+00 -0.00000000000E+00 -0.35654953875E+03  0.35654953875E+03  0.00000000000E+00 0.  1.
         23    2    1    2    0    0 -0.20627828102E+01  0.37372555462E+02 -0.10107691775E+03  0.14122847870E+03  0.91257749911E+02 0.  0.
          5    1    1    2  502    0  0.52618292330E+02 -0.53552822911E+02 -0.10498462578E+03  0.12915282103E+03  0.47000000000E+01 0. -1.
         -5    1    1    2    0  502 -0.50555509520E+02  0.16180267449E+02 -0.11232837956E+03  0.12432785469E+03  0.47000000000E+01 0. -1.
        -11    1    3    3    0    0 -0.25065829199E+02 -0.22981960401E+02 -0.36762488835E+02  0.50079405774E+02  0.00000000000E+00 0.  1.
         11    1    3    3    0    0  0.23003046389E+02  0.60354515864E+02 -0.64314428917E+02  0.91149072926E+02  0.00000000000E+00 0. -1.
<mgrwt>
<rscale>  0 0.12167178E+03</rscale>
<asrwt>0</asrwt>
<pdfrwt beam="1">  1        1 0.58707103E-02 0.13048950E+03</pdfrwt>
<pdfrwt beam="2">  1       -1 0.54853773E-01 0.13048950E+03</pdfrwt>
<totfact> 0.43858263E+03</totfact>
</mgrwt>
</event>
<event>
 7    1  0.1378058E-005  0.1467871E+03  0.7546771E-02  0.1214394E+00
          4   -1    0    0  501    0  0.00000000000E+00  0.00000000000E+00  0.29311851823E+03  0.29311851823E+03  0.00000000000E+00 0. -1.
         -4   -1    0    0    0  501 -0.00000000000E+00 -0.00000000000E+00 -0.63332810741E+02  0.63332810741E+02  0.00000000000E+00 0.  1.
         23    2    1    2    0    0 -0.20322870829E+02 -0.74228077089E+02  0.14319080041E+03  0.18602498495E+03  0.90437067612E+02 0.  0.
          5    1    1    2  502    0  0.11520288583E+02  0.12754248888E+02  0.10419597219E+03  0.10570846009E+03  0.47000000000E+01 0.  1.
         -5    1    1    2    0  502  0.88025822456E+01  0.61473828201E+02 -0.17601065105E+02  0.64717883933E+02  0.47000000000E+01 0.  1.
        -11    1    3    3    0    0  0.84364798869E+01 -0.28608254333E+02  0.12591156260E+03  0.12939601232E+03  0.00000000000E+00 0. -1.
         11    1    3    3    0    0 -0.28759350716E+02 -0.45619822757E+02  0.17279237808E+02  0.56628972631E+02  0.00000000000E+00 0.  1.
<mgrwt>
<rscale>  0 0.13921142E+03</rscale>
<asrwt>0</asrwt>
<pdfrwt beam="1">  1        4 0.45095156E-01 0.14678713E+03</pdfrwt>
<pdfrwt beam="2">  1       -4 0.97435095E-02 0.14678713E+03</pdfrwt>
<totfact> 0.63839666E+02</totfact>
</mgrwt>
</event>
<event>
 7    1  0.1378058E-005  0.1288750E+03  0.7546771E-02  0.1242684E+00
         -1   -1    0    0    0  501 -0.00000000000E+00  0.00000000000E+00  0.11495490863E+03  0.11495490863E+03  0.00000000000E+00 0.  1.
          1   -1    0    0  501    0  0.00000000000E+00 -0.00000000000E+00 -0.13288742561E+03  0.13288742561E+03  0.00000000000E+00 0. -1.
         23    2    1    2    0    0  0.56817073428E+01 -0.30843033719E+02 -0.57093534793E+02  0.11314879194E+03  0.92517041003E+02 0.  0.
          5    1    1    2  502    0 -0.56152245241E+02 -0.15338562557E+02  0.29555979807E+02  0.65452212256E+02  0.47000000000E+01 0.  1.
         -5    1    1    2    0  502  0.50470537898E+02  0.46181596276E+02  0.96050380068E+01  0.69241330038E+02  0.47000000000E+01 0.  1.
        -11    1    3    3    0    0 -0.91912792059E+01 -0.51438150749E+02 -0.67784526805E+02  0.85586827491E+02  0.00000000000E+00 0. -1.
         11    1    3    3    0    0  0.14872986549E+02  0.20595117029E+02  0.10690992012E+02  0.27561964453E+02  0.00000000000E+00 0.  1.
<mgrwt>
<rscale>  0 0.12025053E+03</rscale>
<asrwt>0</asrwt>
<pdfrwt beam="2">  1        1 0.20444219E-01 0.12887500E+03</pdfrwt>
<pdfrwt beam="1">  1       -1 0.17685371E-01 0.12887500E+03</pdfrwt>
<totfact> 0.58012718E+03</totfact>
</mgrwt>
</event>
<event>
 7    1  0.1378058E-005  0.1484421E+03  0.7546771E-02  0.1211005E+00
          1   -1    0    0  501    0  0.00000000000E+00  0.00000000000E+00  0.18735565549E+03  0.18735565549E+03  0.00000000000E+00 0.  1.
         -1   -1    0    0    0  501 -0.00000000000E+00 -0.00000000000E+00 -0.10507297799E+03  0.10507297799E+03  0.00000000000E+00 0. -1.
         23    2    1    2    0    0 -0.65992761320E+02 -0.45292094244E+02  0.73710926249E+02  0.14373923823E+03  0.93921507710E+02 0.  0.
          5    1    1    2  502    0  0.90801869262E+02  0.71618667422E+01 -0.21820144522E+02  0.93778891567E+02  0.47000000000E+01 0.  1.
         -5    1    1    2    0  502 -0.24809107942E+02  0.38130227501E+02  0.30391895772E+02  0.54910503684E+02  0.47000000000E+01 0.  1.
        -11    1    3    3    0    0  0.15856634040E+02 -0.90415142326E+01  0.46847040882E+02  0.50277500555E+02  0.00000000000E+00 0.  1.
         11    1    3    3    0    0 -0.81849395360E+02 -0.36250580011E+02  0.26863885367E+02  0.93461737674E+02  0.00000000000E+00 0. -1.
<mgrwt>
<rscale>  0 0.14174150E+03</rscale>
<asrwt>0</asrwt>
<pdfrwt beam="1">  1        1 0.28823947E-01 0.14844211E+03</pdfrwt>
<pdfrwt beam="2">  1       -1 0.16165074E-01 0.14844211E+03</pdfrwt>
<totfact> 0.43791260E+03</totfact>
</mgrwt>
</event>
<event>
 7    1  0.1378058E-005  0.1750251E+03  0.7546771E-02  0.1178501E+00
         -2   -1    0    0    0  501 -0.00000000000E+00  0.00000000000E+00  0.76964658193E+02  0.76964658193E+02  0.00000000000E+00 0.  1.
          2   -1    0    0  501    0  0.00000000000E+00 -0.00000000000E+00 -0.57606748990E+03  0.57606748990E+03  0.00000000000E+00 0. -1.
         23    2    1    2    0    0  0.12093337297E+03  0.19609584264E+02 -0.44361806935E+03  0.46942291948E+03  0.92474155212E+02 0.  0.
          5    1    1    2  502    0 -0.13918038702E+03  0.23071654541E+01 -0.64281406014E+02  0.15339717175E+03  0.47000000000E+01 0.  1.
         -5    1    1    2    0  502  0.18247014054E+02 -0.21916749718E+02  0.87966436597E+01  0.30212056861E+02  0.47000000000E+01 0.  1.
        -11    1    3    3    0    0  0.13039466857E+02 -0.62769536939E+00 -0.66671480077E+00  0.13071580088E+02  0.00000000000E+00 0.  1.
         11    1    3    3    0    0  0.10789390611E+03  0.20237279633E+02 -0.44295135455E+03  0.45635133939E+03  0.00000000000E+00 0. -1.
<mgrwt>
<rscale>  0 0.16937497E+03</rscale>
<asrwt>0</asrwt>
<pdfrwt beam="2">  1        2 0.88625765E-01 0.17502511E+03</pdfrwt>
<pdfrwt beam="1">  1       -2 0.11840717E-01 0.17502511E+03</pdfrwt>
<totfact> 0.26363952E+03</totfact>
</mgrwt>
</event>
<event>
 7    1  0.1378058E-005  0.1442651E+03  0.7546771E-02  0.1217958E+00
          1   -1    0    0  501    0  0.00000000000E+00  0.00000000000E+00  0.10819436832E+03  0.10819436832E+03  0.00000000000E+00 0. -1.
         -1   -1    0    0    0  501 -0.00000000000E+00 -0.00000000000E+00 -0.15655598573E+03  0.15655598573E+03  0.00000000000E+00 0.  1.
         23    2    1    2    0    0  0.63923487863E+00 -0.72020222826E+02 -0.20012590773E+02  0.11772624178E+03  0.90948573913E+02 0.  0.
          5    1    1    2  502    0 -0.25140429246E+02 -0.29095985014E+02 -0.16842958830E+02  0.42242073680E+02  0.47000000000E+01 0. -1.
         -5    1    1    2    0  502  0.24501194368E+02  0.10111620784E+03 -0.11506067807E+02  0.10478203858E+03  0.47000000000E+01 0. -1.
        -11    1    3    3    0    0 -0.30663889875E+02 -0.78081250259E+02 -0.17877036899E+02  0.85770299245E+02  0.00000000000E+00 0.  1.
         11    1    3    3    0    0  0.31303124753E+02  0.60610274331E+01 -0.21355538739E+01  0.31955942534E+02  0.00000000000E+00 0. -1.
<mgrwt>
<rscale>  0 0.13661470E+03</rscale>
<asrwt>0</asrwt>
<pdfrwt beam="1">  1        1 0.16645288E-01 0.14426511E+03</pdfrwt>
<pdfrwt beam="2">  1       -1 0.24085536E-01 0.14426511E+03</pdfrwt>
<totfact> 0.46195178E+03</totfact>
</mgrwt>
</event>
<event>
 7    1  0.1378058E-005  0.2370450E+03  0.7546771E-02  0.1124424E+00
          1   -1    0    0  501    0  0.00000000000E+00  0.00000000000E+00  0.43335266148E+03  0.43335266148E+03  0.00000000000E+00 0. -1.
         -1   -1    0    0    0  501 -0.00000000000E+00 -0.00000000000E+00 -0.12261509747E+03  0.12261509747E+03  0.00000000000E+00 0.  1.
         23    2    1    2    0    0 -0.47269357034E+00 -0.20139979143E+03  0.12423151720E+03  0.25434736674E+03  0.93257780766E+02 0.  0.
          5    1    1    2  502    0  0.12387682511E+02  0.87398591039E+02  0.16164837337E+03  0.18423966730E+03  0.47000000000E+01 0.  1.
         -5    1    1    2    0  502 -0.11914988940E+02  0.11400120039E+03  0.24857673426E+02  0.11738072491E+03  0.47000000000E+01 0.  1.
        -11    1    3    3    0    0 -0.21314058375E+02 -0.11673227942E+03  0.23229738231E+02  0.12091457680E+03  0.00000000000E+00 0.  1.
         11    1    3    3    0    0  0.20841364804E+02 -0.84667512008E+02  0.10100177897E+03  0.13343278994E+03  0.00000000000E+00 0. -1.
<mgrwt>
<rscale>  0 0.23317608E+03</rscale>
<asrwt>0</asrwt>
<pdfrwt beam="1">  1        1 0.66669639E-01 0.23704505E+03</pdfrwt>
<pdfrwt beam="2">  1       -1 0.18863861E-01 0.23704505E+03</pdfrwt>
<totfact> 0.12105116E+03</totfact>
</mgrwt>
</event>
<event>
 7    1  0.1378058E-005  0.1283413E+03  0.7546771E-02  0.1244413E+00
         -1   -1    0    0    0  501 -0.00000000000E+00  0.00000000000E+00  0.60312077545E+02  0.60312077545E+02  0.00000000000E+00 0. -1.
          1   -1    0    0  501    0  0.00000000000E+00 -0.00000000000E+00 -0.31638931450E+03  0.31638931450E+03  0.00000000000E+00 0.  1.
         23    2    1    2    0    0  0.47323324534E+01  0.25494285576E+02 -0.22531405130E+03  0.24472462176E+03  0.91931307031E+02 0.  0.
          5    1    1    2  502    0  0.17769813932E+02  0.43201724855E+02 -0.36270057370E+02  0.59327585314E+02  0.47000000000E+01 0. -1.
         -5    1    1    2    0  502 -0.22502146386E+02 -0.68696010431E+02  0.55068717190E+01  0.72649184973E+02  0.47000000000E+01 0. -1.
        -11    1    3    3    0    0 -0.27753628065E+01 -0.34713774993E+02 -0.79808972201E+02  0.87075948784E+02  0.00000000000E+00 0. -1.
         11    1    3    3    0    0  0.75076952599E+01  0.60208060570E+02 -0.14550507910E+03  0.15764867297E+03  0.00000000000E+00 0.  1.
<mgrwt>
<rscale>  0 0.11920552E+03</rscale>
<asrwt>0</asrwt>
<pdfrwt beam="2">  1        1 0.48675280E-01 0.12834132E+03</pdfrwt>
<pdfrwt beam="1">  1       -1 0.92787810E-02 0.12834132E+03</pdfrwt>
<totfact> 0.53533577E+03</totfact>
</mgrwt>
</event>
<event>
 7    1  0.1378058E-005  0.1480823E+03  0.7546771E-02  0.1212194E+00
         -2   -1    0    0    0  501 -0.00000000000E+00  0.00000000000E+00  0.15941166160E+03  0.15941166160E+03  0.00000000000E+00 0.  1.
          2   -1    0    0  501    0  0.00000000000E+00 -0.00000000000E+00 -0.13278908028E+03  0.13278908028E+03  0.00000000000E+00 0. -1.
         23    2    1    2    0    0  0.74170599064E+02  0.28369479629E+02 -0.42965055046E+02  0.12858285873E+03  0.91550261958E+02 0.  0.
          5    1    1    2  502    0 -0.29774412787E+02 -0.67028002128E+02  0.15298404626E+01  0.73509857420E+02  0.47000000000E+01 0. -1.
         -5    1    1    2    0  502 -0.44396186277E+02  0.38658522500E+02  0.68057795907E+02  0.90108025733E+02  0.47000000000E+01 0. -1.
        -11    1    3    3    0    0  0.40478571603E+02  0.61030858722E+02 -0.34283796117E+02  0.80861975932E+02  0.00000000000E+00 0.  1.
         11    1    3    3    0    0  0.33692027461E+02 -0.32661379093E+02 -0.86812589289E+01  0.47720882800E+02  0.00000000000E+00 0. -1.
<mgrwt>
<rscale>  0 0.14084651E+03</rscale>
<asrwt>0</asrwt>
<pdfrwt beam="2">  1        2 0.20429089E-01 0.14808232E+03</pdfrwt>
<pdfrwt beam="1">  1       -2 0.24524871E-01 0.14808232E+03</pdfrwt>
<totfact> 0.38413217E+03</totfact>
</mgrwt>
</event>
<event>
 7    1  0.1378058E-005  0.1395262E+03  0.7546771E-02  0.1225205E+00
          1   -1    0    0  501    0  0.00000000000E+00  0.00000000000E+00  0.32973805894E+02  0.32973805894E+02  0.00000000000E+00 0. -1.
         -1   -1    0    0    0  501 -0.00000000000E+00 -0.00000000000E+00 -0.47298470342E+03  0.47298470342E+03  0.00000000000E+00 0.  1.
         23    2    1    2    0    0 -0.10160162047E+02  0.61154504733E+02 -0.19966400940E+03  0.22804811407E+03  0.91088546696E+02 0.  0.
          5    1    1    2  502    0 -0.50375264020E+02 -0.51099283023E+02 -0.16914818235E+03  0.18379880724E+03  0.47000000000E+01 0. -1.
         -5    1    1    2    0  502  0.60535426067E+02 -0.10055221711E+02 -0.71198705782E+02  0.94111588011E+02  0.47000000000E+01 0. -1.
        -11    1    3    3    0    0  0.20310131809E+02  0.93260916031E+00 -0.35416932064E+01  0.20637703475E+02  0.00000000000E+00 0.  1.
         11    1    3    3    0    0 -0.30470293856E+02  0.60221895573E+02 -0.19612231619E+03  0.20741041059E+03  0.00000000000E+00 0. -1.
<mgrwt>
<rscale>  0 0.13152859E+03</rscale>
<asrwt>0</asrwt>
<pdfrwt beam="1">  1        1 0.50728931E-02 0.13952620E+03</pdfrwt>
<pdfrwt beam="2">  1       -1 0.72766878E-01 0.13952620E+03</pdfrwt>
<totfact> 0.31197169E+03</totfact>
</mgrwt>
</event>
<event>
 7    1  0.1378058E-005  0.1319746E+03  0.7546771E-02  0.1238122E+00
         -2   -1    0    0    0  501 -0.00000000000E+00  0.00000000000E+00  0.20567905570E+03  0.20567905570E+03  0.00000000000E+00 0.  1.
          2   -1    0    0  501    0  0.00000000000E+00 -0.00000000000E+00 -0.99975050112E+02  0.99975050112E+02  0.00000000000E+00 0. -1.
         23    2    1    2    0    0 -0.37760240785E+02 -0.19133418277E+02 -0.41390057254E+02  0.10803335892E+03  0.90366732380E+02 0.  0.
          5    1    1    2  502    0 -0.29829363334E+02 -0.28023726012E+02  0.84555516998E+02  0.94057671624E+02  0.47000000000E+01 0. -1.
         -5    1    1    2    0  502  0.67589604120E+02  0.47157144289E+02  0.62538545842E+02  0.10356307527E+03  0.47000000000E+01 0. -1.
        -11    1    3    3    0    0 -0.55108776405E+02 -0.91636613290E+01  0.63929329898E+01  0.56230058848E+02  0.00000000000E+00 0.  1.
         11    1    3    3    0    0  0.17348535620E+02 -0.99697569476E+01 -0.47782990244E+02  0.51803300072E+02  0.00000000000E+00 0. -1.
<mgrwt>
<rscale>  0 0.12306645E+03</rscale>
<asrwt>0</asrwt>
<pdfrwt beam="2">  1        2 0.15380777E-01 0.13197460E+03</pdfrwt>
<pdfrwt beam="1">  1       -2 0.31642932E-01 0.13197460E+03</pdfrwt>
<totfact> 0.33608318E+03</totfact>
</mgrwt>
</event>
<event>
 7    1  0.1378058E-005  0.1366537E+03  0.7546771E-02  0.1230434E+00
          1   -1    0    0  501    0  0.00000000000E+00  0.00000000000E+00  0.27015063728E+02  0.27015063728E+02  0.00000000000E+00 0. -1.
         -1   -1    0    0    0  501 -0.00000000000E+00 -0.00000000000E+00 -0.54155019006E+03  0.54155019006E+03  0.00000000000E+00 0.  1.
         23    2    1    2    0    0  0.55007266616E+02  0.48491191472E+01 -0.22760757686E+03  0.25075766461E+03  0.89581716774E+02 0.  0.
          5    1    1    2  502    0  0.10028208137E+02 -0.27230742900E+02 -0.21921124502E+03  0.22117354783E+03  0.47000000000E+01 0. -1.
         -5    1    1    2    0  502 -0.65035474753E+02  0.22381623753E+02 -0.67716304453E+02  0.96634041347E+02  0.47000000000E+01 0. -1.
        -11    1    3    3    0    0 -0.12999056497E+02 -0.22096763900E+02 -0.10412451259E+03  0.10723412034E+03  0.00000000000E+00 0.  1.
         11    1    3    3    0    0  0.68006323114E+02  0.26945883047E+02 -0.12348306428E+03  0.14352354427E+03  0.00000000000E+00 0. -1.
<mgrwt>
<rscale>  0 0.12801332E+03</rscale>
<asrwt>0</asrwt>
<pdfrwt beam="1">  1        1 0.41561638E-02 0.13665374E+03</pdfrwt>
<pdfrwt beam="2">  1       -1 0.83315411E-01 0.13665374E+03</pdfrwt>
<totfact> 0.31105029E+03</totfact>
</mgrwt>
</event>
<event>
 7    1  0.1378058E-005  0.1652532E+03  0.7546771E-02  0.1189606E+00
         -2   -1    0    0    0  501 -0.00000000000E+00  0.00000000000E+00  0.56263125648E+02  0.56263125648E+02  0.00000000000E+00 0.  1.
          2   -1    0    0  501    0  0.00000000000E+00 -0.00000000000E+00 -0.42052009354E+03  0.42052009354E+03  0.00000000000E+00 0. -1.
         23    2    1    2    0    0  0.65384830487E+02  0.86076669620E+02 -0.16420533756E+03  0.21730437216E+03  0.92592808389E+02 0.  0.
          5    1    1    2  502    0 -0.42601931440E+02  0.15174207801E+02 -0.16128856009E+02  0.48243249693E+02  0.47000000000E+01 0. -1.
         -5    1    1    2    0  502 -0.22782899047E+02 -0.10125087742E+03 -0.18392277432E+03  0.21123559733E+03  0.47000000000E+01 0. -1.
        -11    1    3    3    0    0  0.94706655171E+01  0.51293923675E+02 -0.13601523496E+03  0.14567396560E+03  0.00000000000E+00 0. -1.
         11    1    3    3    0    0  0.55914164970E+02  0.34782745945E+02 -0.28190102602E+02  0.71630406564E+02  0.00000000000E+00 0.  1.
<mgrwt>
<rscale>  0 0.15919756E+03</rscale>
<asrwt>0</asrwt>
<pdfrwt beam="2">  1        2 0.64695400E-01 0.16525319E+03</pdfrwt>
<pdfrwt beam="1">  1       -2 0.86558654E-02 0.16525319E+03</pdfrwt>
<totfact> 0.61151078E+03</totfact>
</mgrwt>
</event>
<event>
 7    1  0.1378058E-005  0.2233024E+03  0.7546771E-02  0.1161597E+00
          1   -1    0    0  501    0  0.00000000000E+00  0.00000000000E+00  0.35010777318E+03  0.35010777318E+03  0.00000000000E+00 0. -1.
         -1   -1    0    0    0  501 -0.00000000000E+00 -0.00000000000E+00 -0.13317021476E+03  0.13317021476E+03  0.00000000000E+00 0.  1.
         23    2    1    2    0    0  0.46167178438E+02 -0.16406020345E+02  0.23528500931E+03  0.25922314020E+03  0.97144402522E+02 0.  0.
          5    1    1    2  502    0  0.28489341804E+02 -0.85176479110E+02 -0.35600183134E+02  0.96727132849E+02  0.47000000000E+01 0. -1.
         -5    1    1    2    0  502 -0.74656520242E+02  0.10158249945E+03  0.17252732241E+02  0.12732771489E+03  0.47000000000E+01 0.  1.
        -11    1    3    3    0    0 -0.11888837812E+02 -0.41976719827E+02  0.11923345714E+03  0.12696458866E+03  0.00000000000E+00 0. -1.
         11    1    3    3    0    0  0.58056016249E+02  0.25570699482E+02  0.11605155216E+03  0.13225855154E+03  0.00000000000E+00 0.  1.
<mgrwt>
<rscale>  0 0.18656405E+03</rscale>
<asrwt>0</asrwt>
<pdfrwt beam="1">  1        1 0.53862734E-01 0.22330236E+03</pdfrwt>
<pdfrwt beam="2">  1       -1 0.20487725E-01 0.22330236E+03</pdfrwt>
<totfact> 0.13899199E+03</totfact>
</mgrwt>
</event>
<event>
 7    1  0.1378058E-005  0.1315204E+03  0.7546771E-02  0.1238375E+00
          4   -1    0    0  501    0  0.00000000000E+00  0.00000000000E+00  0.11605787097E+03  0.11605787097E+03  0.00000000000E+00 0.  1.
         -4   -1    0    0    0  501 -0.00000000000E+00 -0.00000000000E+00 -0.11649170694E+03  0.11649170694E+03  0.00000000000E+00 0. -1.
         23    2    1    2    0    0  0.40700298332E+02 -0.38608900582E+01  0.88578972973E+01  0.10070134055E+03  0.91601729717E+02 0.  0.
          5    1    1    2  502    0 -0.48958620959E+02 -0.44528427517E+01  0.50561614163E+02  0.70677727762E+02  0.47000000000E+01 0. -1.
         -5    1    1    2    0  502  0.82583226271E+01  0.83137328099E+01 -0.59853347436E+02  0.61170509603E+02  0.47000000000E+01 0. -1.
        -11    1    3    3    0    0  0.33271097445E+02 -0.45299617792E+02 -0.48812786850E+01  0.56416736691E+02  0.00000000000E+00 0.  1.
         11    1    3    3    0    0  0.74292008869E+01  0.41438727734E+02  0.13739175982E+02  0.44284603856E+02  0.00000000000E+00 0. -1.
<mgrwt>
<rscale>  0 0.12290853E+03</rscale>
<asrwt>0</asrwt>
<pdfrwt beam="1">  1        4 0.17855057E-01 0.13152042E+03</pdfrwt>
<pdfrwt beam="2">  1       -4 0.17921801E-01 0.13152042E+03</pdfrwt>
<totfact> 0.12454638E+03</totfact>
</mgrwt>
</event>
<event>
 7    1  0.1378058E-005  0.1602067E+03  0.7546771E-02  0.1196452E+00
          2   -1    0    0  501    0  0.00000000000E+00  0.00000000000E+00  0.10984488619E+04  0.10984488619E+04  0.00000000000E+00 0. -1.
         -2   -1    0    0    0  501 -0.00000000000E+00 -0.00000000000E+00 -0.20311284979E+02  0.20311284979E+02  0.00000000000E+00 0.  1.
         23    2    1    2    0    0  0.92704411199E+02 -0.38043495727E+02  0.58562380635E+03  0.60084510972E+03  0.89544334812E+02 0.  0.
          5    1    1    2  502    0 -0.82135446760E+02  0.78133277924E+02  0.29554649054E+03  0.31657678185E+03  0.47000000000E+01 0.  1.
         -5    1    1    2    0  502 -0.10568964439E+02 -0.40089782197E+02  0.19696727999E+03  0.20133825526E+03  0.47000000000E+01 0.  1.
        -11    1    3    3    0    0  0.10223610966E+03 -0.89688229387E+01  0.48165795752E+03  0.49247035438E+03  0.00000000000E+00 0. -1.
         11    1    3    3    0    0 -0.95316984588E+01 -0.29074672789E+02  0.10396584883E+03  0.10837475534E+03  0.00000000000E+00 0.  1.
<mgrwt>
<rscale>  0 0.15332004E+03</rscale>
<asrwt>0</asrwt>
<pdfrwt beam="1">  1        2 0.16899209E+00 0.16020665E+03</pdfrwt>
<pdfrwt beam="2">  1       -2 0.31248139E-02 0.16020665E+03</pdfrwt>
<totfact> 0.89077216E+03</totfact>
</mgrwt>
</event>
<event>
 7    1  0.1378058E-005  0.1715611E+03  0.7546771E-02  0.1176719E+00
          2   -1    0    0  501    0  0.00000000000E+00  0.00000000000E+00  0.12767939325E+03  0.12767939325E+03  0.00000000000E+00 0. -1.
         -2   -1    0    0    0  501 -0.00000000000E+00 -0.00000000000E+00 -0.23448027701E+03  0.23448027701E+03  0.00000000000E+00 0.  1.
         23    2    1    2    0    0 -0.95734480011E+02 -0.68145878563E+02 -0.22992785401E+02  0.17122245465E+03  0.12239080589E+03 0.  0.
          5    1    1    2  502    0  0.93610578983E+02  0.78822060395E+01 -0.89944323323E+02  0.13014277148E+03  0.47000000000E+01 0.  1.
         -5    1    1    2    0  502  0.21239010277E+01  0.60263672524E+02  0.61362249662E+01  0.60794444141E+02  0.47000000000E+01 0.  1.
        -11    1    3    3    0    0 -0.12065442884E+02 -0.83677465726E+02 -0.98388580798E+01  0.85113432022E+02  0.00000000000E+00 0.  1.
         11    1    3    3    0    0 -0.83669037127E+02  0.15531587163E+02 -0.13153927321E+02  0.86109022626E+02  0.00000000000E+00 0. -1.
<mgrwt>
<rscale>  0 0.17108679E+03</rscale>
<asrwt>0</asrwt>
<pdfrwt beam="1">  1        2 0.19642984E-01 0.17156113E+03</pdfrwt>
<pdfrwt beam="2">  1       -2 0.36073889E-01 0.17156113E+03</pdfrwt>
<totfact> 0.20174698E+03</totfact>
</mgrwt>
</event>
<event>
 7    1  0.1378058E-005  0.1415075E+03  0.7546771E-02  0.1221288E+00
         -1   -1    0    0    0  501 -0.00000000000E+00  0.00000000000E+00  0.13183255057E+04  0.13183255057E+04  0.00000000000E+00 0.  1.
          1   -1    0    0  501    0  0.00000000000E+00 -0.00000000000E+00 -0.13647137594E+02  0.13647137594E+02  0.00000000000E+00 0. -1.
         23    2    1    2    0    0  0.46347729986E+02  0.47486483874E+02  0.39287857975E+03  0.40925749980E+03  0.93461459910E+02 0.  0.
          5    1    1    2  502    0  0.41312652041E+02 -0.98827465244E+01  0.19835480975E+03  0.20290668902E+03  0.47000000000E+01 0.  1.
         -5    1    1    2    0  502 -0.87660382027E+02 -0.37603737350E+02  0.71344497856E+03  0.71980845443E+03  0.47000000000E+01 0.  1.
        -11    1    3    3    0    0 -0.33250594946E+01 -0.10039265633E+02  0.16365561414E+01  0.10701457429E+02  0.00000000000E+00 0. -1.
         11    1    3    3    0    0  0.49672789480E+02  0.57525749507E+02  0.39124202361E+03  0.39855604237E+03  0.00000000000E+00 0.  1.
<mgrwt>
<rscale>  0 0.13424599E+03</rscale>
<asrwt>0</asrwt>
<pdfrwt beam="2">  1        1 0.20995607E-02 0.14150753E+03</pdfrwt>
<pdfrwt beam="1">  1       -1 0.20281921E+00 0.14150753E+03</pdfrwt>
<totfact> 0.88866801E+02</totfact>
</mgrwt>
</event>
<event>
 7    1  0.1378058E-005  0.1712995E+03  0.7546771E-02  0.1182853E+00
         -2   -1    0    0    0  501 -0.00000000000E+00  0.00000000000E+00  0.24622629290E+02  0.24622629290E+02  0.00000000000E+00 0.  1.
          2   -1    0    0  501    0  0.00000000000E+00 -0.00000000000E+00 -0.10941239026E+04  0.10941239026E+04  0.00000000000E+00 0. -1.
         23    2    1    2    0    0 -0.30589663068E+02 -0.11306892024E+03 -0.62457263704E+03  0.64198139604E+03  0.91262400354E+02 0.  0.
          5    1    1    2  502    0  0.74197337830E+02  0.82408159581E+02 -0.35677165940E+03  0.37363679779E+03  0.47000000000E+01 0. -1.
         -5    1    1    2    0  502 -0.43607674762E+02  0.30660760657E+02 -0.88156976919E+02  0.10312833811E+03  0.47000000000E+01 0. -1.
        -11    1    3    3    0    0  0.29526532000E+02 -0.26602386433E+02 -0.11598847680E+03  0.12260844101E+03  0.00000000000E+00 0.  1.
         11    1    3    3    0    0 -0.60116195068E+02 -0.86466533805E+02 -0.50858416024E+03  0.51937295503E+03  0.00000000000E+00 0. -1.
<mgrwt>
<rscale>  0 0.16528785E+03</rscale>
<asrwt>0</asrwt>
<pdfrwt beam="2">  1        2 0.16832678E+00 0.17129946E+03</pdfrwt>
<pdfrwt beam="1">  1       -2 0.37880962E-02 0.17129946E+03</pdfrwt>
<totfact> 0.67511059E+03</totfact>
</mgrwt>
</event>
<event>
 7    1  0.1378058E-005  0.1280285E+03  0.7546771E-02  0.1246637E+00
         -2   -1    0    0    0  501 -0.00000000000E+00  0.00000000000E+00  0.62274737243E+02  0.62274737243E+02  0.00000000000E+00 0.  1.
          2   -1    0    0  501    0  0.00000000000E+00 -0.00000000000E+00 -0.20597839987E+03  0.20597839987E+03  0.00000000000E+00 0. -1.
         23    2    1    2    0    0  0.19224913827E+01  0.11055236379E+02 -0.92192071178E+02  0.13025048874E+03  0.91323039832E+02 0.  0.
          5    1    1    2  502    0 -0.91510163047E+01 -0.60782678555E+02 -0.60913497112E+02  0.86664982790E+02  0.47000000000E+01 0. -1.
         -5    1    1    2    0  502  0.72285249220E+01  0.49727442175E+02  0.94019056605E+01  0.51337665587E+02  0.47000000000E+01 0. -1.
        -11    1    3    3    0    0 -0.37612671916E+02  0.28915252734E+02 -0.58512712797E+02  0.75329559193E+02  0.00000000000E+00 0.  1.
         11    1    3    3    0    0  0.39535163299E+02 -0.17860016355E+02 -0.33679358381E+02  0.54920929546E+02  0.00000000000E+00 0. -1.
<mgrwt>
<rscale>  0 0.11787955E+03</rscale>
<asrwt>0</asrwt>
<pdfrwt beam="2">  1        2 0.31688984E-01 0.12802846E+03</pdfrwt>
<pdfrwt beam="1">  1       -2 0.95807290E-02 0.12802846E+03</pdfrwt>
<totfact> 0.10989147E+04</totfact>
</mgrwt>
</event>
<event>
 7    1  0.1378058E-005  0.1422462E+03  0.7546771E-02  0.1220283E+00
          1   -1    0    0  501    0  0.00000000000E+00  0.00000000000E+00  0.11629341701E+03  0.11629341701E+03  0.00000000000E+00 0. -1.
         -1   -1    0    0    0  501 -0.00000000000E+00 -0.00000000000E+00 -0.14287246190E+03  0.14287246190E+03  0.00000000000E+00 0.  1.
         23    2    1    2    0    0 -0.30222403034E+02 -0.60762789221E+02 -0.18170799815E+02  0.11667135087E+03  0.93147817742E+02 0.  0.
          5    1    1    2  502    0  0.48695293306E+02 -0.11823782828E+02 -0.36701550631E+02  0.62290667433E+02  0.47000000000E+01 0.  1.
         -5    1    1    2    0  502 -0.18472890272E+02  0.72586572048E+02  0.28293305547E+02  0.80203860602E+02  0.47000000000E+01 0.  1.
        -11    1    3    3    0    0 -0.70626594283E+01 -0.80500768215E+02 -0.26635309426E+02  0.85086394621E+02  0.00000000000E+00 0.  1.
         11    1    3    3    0    0 -0.23159743605E+02  0.19737978994E+02  0.84645096107E+01  0.31584956254E+02  0.00000000000E+00 0. -1.
<mgrwt>
<rscale>  0 0.13495489E+03</rscale>
<asrwt>0</asrwt>
<pdfrwt beam="1">  1        1 0.17891295E-01 0.14224624E+03</pdfrwt>
<pdfrwt beam="2">  1       -1 0.21980379E-01 0.14224624E+03</pdfrwt>
<totfact> 0.48830911E+03</totfact>
</mgrwt>
</event>
<event>
 7    1  0.1378058E-005  0.1360981E+03  0.7546771E-02  0.1230912E+00
          1   -1    0    0  501    0  0.00000000000E+00  0.00000000000E+00  0.27370869742E+03  0.27370869742E+03  0.00000000000E+00 0. -1.
         -1   -1    0    0    0  501 -0.00000000000E+00 -0.00000000000E+00 -0.70946362097E+02  0.70946362097E+02  0.00000000000E+00 0.  1.
         23    2    1    2    0    0 -0.10165313575E+02  0.52876334073E+02  0.17713731975E+03  0.20616558720E+03  0.90704900592E+02 0.  0.
          5    1    1    2  502    0 -0.20764355807E+02 -0.29620759733E+02  0.70298794055E+02  0.79199484372E+02  0.47000000000E+01 0.  1.
         -5    1    1    2    0  502  0.30929669382E+02 -0.23255574341E+02 -0.44673778487E+02  0.59289987943E+02  0.47000000000E+01 0.  1.
        -11    1    3    3    0    0 -0.13201352864E+02  0.29873637500E+02  0.17986259660E+03  0.18280389381E+03  0.00000000000E+00 0. -1.
         11    1    3    3    0    0  0.30360392883E+01  0.23002696573E+02 -0.27252768502E+01  0.23361693391E+02  0.00000000000E+00 0.  1.
<mgrwt>
<rscale>  0 0.12769810E+03</rscale>
<asrwt>0</asrwt>
<pdfrwt beam="1">  1        1 0.42109030E-01 0.13609810E+03</pdfrwt>
<pdfrwt beam="2">  1       -1 0.10914825E-01 0.13609810E+03</pdfrwt>
<totfact> 0.50157424E+03</totfact>
</mgrwt>
</event>
<event>
 7    1  0.1378058E-005  0.1423247E+03  0.7546771E-02  0.1224273E+00
         -1   -1    0    0    0  501 -0.00000000000E+00  0.00000000000E+00  0.82107935102E+03  0.82107935102E+03  0.00000000000E+00 0.  1.
          1   -1    0    0  501    0  0.00000000000E+00 -0.00000000000E+00 -0.20364692283E+02  0.20364692283E+02  0.00000000000E+00 0. -1.
         23    2    1    2    0    0  0.38607945012E+02  0.56038634035E+02  0.22896239230E+03  0.25224375286E+03  0.81069302716E+02 0.  0.
          5    1    1    2  502    0  0.10150301893E+01  0.38731689279E+02  0.13680652438E+03  0.14226485565E+03  0.47000000000E+01 0.  1.
         -5    1    1    2    0  502 -0.39622975201E+02 -0.94770323314E+02  0.43494574206E+03  0.44693543480E+03  0.47000000000E+01 0.  1.
        -11    1    3    3    0    0  0.57115730491E+02  0.60222152925E+02  0.20810903913E+03  0.22404974121E+03  0.00000000000E+00 0.  1.
         11    1    3    3    0    0 -0.18507785480E+02 -0.41835188898E+01  0.20853353178E+02  0.28194011641E+02  0.00000000000E+00 0. -1.
<mgrwt>
<rscale>  0 0.13216842E+03</rscale>
<asrwt>0</asrwt>
<pdfrwt beam="2">  1        1 0.31330302E-02 0.14232473E+03</pdfrwt>
<pdfrwt beam="1">  1       -1 0.12631987E+00 0.14232473E+03</pdfrwt>
<totfact> 0.18239664E+03</totfact>
</mgrwt>
</event>
<event>
 7    1  0.1378058E-005  0.1723419E+03  0.7546771E-02  0.1181895E+00
         -1   -1    0    0    0  501 -0.00000000000E+00  0.00000000000E+00  0.19908041507E+02  0.19908041507E+02  0.00000000000E+00 0.  1.
          1   -1    0    0  501    0  0.00000000000E+00 -0.00000000000E+00 -0.12968328918E+04  0.12968328918E+04  0.00000000000E+00 0. -1.
         23    2    1    2    0    0 -0.10969284458E+03  0.45222967303E+02 -0.60248510240E+03  0.62062981178E+03  0.90085668855E+02 0.  0.
          5    1    1    2  502    0  0.12484551013E+03 -0.51923335992E+02 -0.65973763906E+03  0.67346735379E+03  0.47000000000E+01 0.  1.
         -5    1    1    2    0  502 -0.15152665553E+02  0.67003686890E+01 -0.14702108861E+02  0.22643767771E+02  0.47000000000E+01 0.  1.
        -11    1    3    3    0    0 -0.13570278367E+02 -0.25811499652E+02 -0.10348524123E+03  0.10751549248E+03  0.00000000000E+00 0.  1.
         11    1    3    3    0    0 -0.96122566210E+02  0.71034466955E+02 -0.49899986117E+03  0.51311431930E+03  0.00000000000E+00 0. -1.
<mgrwt>
<rscale>  0 0.16617675E+03</rscale>
<asrwt>0</asrwt>
<pdfrwt beam="2">  1        1 0.19951284E+00 0.17234187E+03</pdfrwt>
<pdfrwt beam="1">  1       -1 0.30627742E-02 0.17234187E+03</pdfrwt>
<totfact> 0.35596084E+03</totfact>
</mgrwt>
</event>
<event>
 7    1  0.1378058E-005  0.1456486E+03  0.7546771E-02  0.1215247E+00
          2   -1    0    0  501    0  0.00000000000E+00  0.00000000000E+00  0.41261725541E+03  0.41261725541E+03  0.00000000000E+00 0. -1.
         -2   -1    0    0    0  501 -0.00000000000E+00 -0.00000000000E+00 -0.57648571717E+02  0.57648571717E+02  0.00000000000E+00 0.  1.
         23    2    1    2    0    0 -0.74064309699E+02 -0.10224687598E+02  0.28436361285E+03  0.30840600243E+03  0.93067350953E+02 0.  0.
          5    1    1    2  502    0  0.97345476340E+00 -0.42362447501E+02 -0.66193263224E+01  0.43144293405E+02  0.47000000000E+01 0. -1.
         -5    1    1    2    0  502  0.73090854935E+02  0.52587135100E+02  0.77224397170E+02  0.11871553130E+03  0.47000000000E+01 0. -1.
        -11    1    3    3    0    0  0.22064042073E+02 -0.30601860125E+01  0.41267384562E+02  0.46895455212E+02  0.00000000000E+00 0.  1.
         11    1    3    3    0    0 -0.96128351772E+02 -0.71645015860E+01  0.24309622829E+03  0.26151054722E+03  0.00000000000E+00 0. -1.
<mgrwt>
<rscale>  0 0.13858390E+03</rscale>
<asrwt>0</asrwt>
<pdfrwt beam="1">  1        2 0.63479576E-01 0.14564864E+03</pdfrwt>
<pdfrwt beam="2">  1       -2 0.88690113E-02 0.14564864E+03</pdfrwt>
<totfact> 0.59668460E+03</totfact>
</mgrwt>
</event>
<event>
 7    1  0.1378058E-005  0.1333345E+03  0.7546771E-02  0.1235656E+00
         -1   -1    0    0    0  501 -0.00000000000E+00  0.00000000000E+00  0.53979764120E+02  0.53979764120E+02  0.00000000000E+00 0.  1.
          1   -1    0    0  501    0  0.00000000000E+00 -0.00000000000E+00 -0.26928233510E+03  0.26928233510E+03  0.00000000000E+00 0. -1.
         23    2    1    2    0    0  0.30239323460E+02  0.35213952192E+02 -0.12951906196E+03  0.16471589192E+03  0.90563229445E+02 0.  0.
          5    1    1    2  502    0 -0.20538708195E+02  0.35215043642E+02 -0.76344291743E+02  0.86674556329E+02  0.47000000000E+01 0.  1.
         -5    1    1    2    0  502 -0.97006152653E+01 -0.70428995834E+02 -0.94392172794E+01  0.71871650973E+02  0.47000000000E+01 0.  1.
        -11    1    3    3    0    0  0.10797999339E+02  0.65071177426E+02 -0.79417581049E+02  0.10323762444E+03  0.00000000000E+00 0. -1.
         11    1    3    3    0    0  0.19441324121E+02 -0.29857225234E+02 -0.50101480909E+02  0.61478267474E+02  0.00000000000E+00 0.  1.
<mgrwt>
<rscale>  0 0.12462542E+03</rscale>
<asrwt>0</asrwt>
<pdfrwt beam="2">  1        1 0.41428051E-01 0.13333450E+03</pdfrwt>
<pdfrwt beam="1">  1       -1 0.83045792E-02 0.13333450E+03</pdfrwt>
<totfact> 0.77477579E+03</totfact>
</mgrwt>
</event>
<event>
 7    1  0.1378058E-005  0.2429771E+03  0.7546771E-02  0.1140465E+00
          2   -1    0    0  501    0  0.00000000000E+00  0.00000000000E+00  0.23832388339E+03  0.23832388339E+03  0.00000000000E+00 0. -1.
         -2   -1    0    0    0  501 -0.00000000000E+00 -0.00000000000E+00 -0.16493092674E+03  0.16493092674E+03  0.00000000000E+00 0.  1.
         23    2    1    2    0    0  0.84861276130E+02 -0.78893181435E+02  0.79274708658E+02  0.16020658031E+03  0.77175764844E+02 0.  0.
          5    1    1    2  502    0  0.42241605338E+02  0.10286595116E+03  0.13719799691E+02  0.11214312299E+03  0.47000000000E+01 0. -1.
         -5    1    1    2    0  502 -0.12710288147E+03 -0.23972769726E+02 -0.19601551698E+02  0.13090510683E+03  0.47000000000E+01 0.  1.
        -11    1    3    3    0    0  0.39990768940E+02 -0.81470069681E+02  0.69247619527E+02  0.11415720154E+03  0.00000000000E+00 0. -1.
         11    1    3    3    0    0  0.44870507191E+02  0.25768882454E+01  0.10027089131E+02  0.46049378769E+02  0.00000000000E+00 0.  1.
<mgrwt>
<rscale>  0 0.21139652E+03</rscale>
<asrwt>0</asrwt>
<pdfrwt beam="1">  1        2 0.36665213E-01 0.24297705E+03</pdfrwt>
<pdfrwt beam="2">  1       -2 0.25373989E-01 0.24297705E+03</pdfrwt>
<totfact> 0.19353116E+03</totfact>
</mgrwt>
</event>
<event>
 7    1  0.1378058E-005  0.1393286E+03  0.7546771E-02  0.1225132E+00
         -1   -1    0    0    0  501 -0.00000000000E+00  0.00000000000E+00  0.31291366405E+03  0.31291366405E+03  0.00000000000E+00 0. -1.
          1   -1    0    0  501    0  0.00000000000E+00 -0.00000000000E+00 -0.51881097399E+02  0.51881097399E+02  0.00000000000E+00 0.  1.
         23    2    1    2    0    0  0.28761729944E+01  0.61757414069E+02  0.81612214432E+02  0.13762934219E+03  0.91972994533E+02 0.  0.
          5    1    1    2  502    0 -0.12000709900E+02 -0.92728720248E+02  0.82094218663E+02  0.12451579552E+03  0.47000000000E+01 0. -1.
         -5    1    1    2    0  502  0.91245369061E+01  0.30971306180E+02  0.97326133556E+02  0.10264962374E+03  0.47000000000E+01 0. -1.
        -11    1    3    3    0    0 -0.21225879380E+02 -0.17663487950E+02  0.16789472808E+02  0.32317536404E+02  0.00000000000E+00 0.  1.
         11    1    3    3    0    0  0.24102052375E+02  0.79420902019E+02  0.64822741623E+02  0.10531180579E+03  0.00000000000E+00 0. -1.
<mgrwt>
<rscale>  0 0.13157874E+03</rscale>
<asrwt>0</asrwt>
<pdfrwt beam="2">  1        1 0.79817075E-02 0.13932862E+03</pdfrwt>
<pdfrwt beam="1">  1       -1 0.48140563E-01 0.13932862E+03</pdfrwt>
<totfact> 0.36961409E+03</totfact>
</mgrwt>
</event>
<event>
 7    1  0.1406620E-005  0.3064001E+03  0.7546771E-02  0.1083481E+00
         -2   -1    0    0    0  501 -0.00000000000E+00  0.00000000000E+00  0.16850859510E+03  0.16850859510E+03  0.00000000000E+00 0. -1.
          2   -1    0    0  501    0  0.00000000000E+00 -0.00000000000E+00 -0.54599104934E+03  0.54599104934E+03  0.00000000000E+00 0.  1.
         23    2    1    2    0    0  0.20954050197E+03  0.18533337156E+03 -0.23147159181E+03  0.37508810831E+03  0.94107973088E+02 0.  0.
          5    1    1    2  502    0 -0.26167306638E+02 -0.55611423323E+01 -0.64441245978E+02  0.69931526681E+02  0.47000000000E+01 0.  1.
         -5    1    1    2    0  502 -0.18337319533E+03 -0.17977222922E+03 -0.81569616445E+02  0.26948000945E+03  0.47000000000E+01 0.  1.
        -11    1    3    3    0    0  0.18034879168E+03  0.15490966005E+03 -0.14392060186E+03  0.27791334814E+03  0.00000000000E+00 0. -1.
         11    1    3    3    0    0  0.29191710293E+02  0.30423711509E+02 -0.87550989949E+02  0.97174760164E+02  0.00000000000E+00 0.  1.
<mgrwt>
<rscale>  0 0.30354733E+03</rscale>
<asrwt>0</asrwt>
<pdfrwt beam="2">  1        2 0.83998623E-01 0.30640010E+03</pdfrwt>
<pdfrwt beam="1">  1       -2 0.25924399E-01 0.30640010E+03</pdfrwt>
<totfact> 0.75230119E+02</totfact>
</mgrwt>
</event>
<event>
 7    1  0.1378058E-005  0.2435417E+03  0.7546771E-02  0.1156303E+00
         -1   -1    0    0    0  501 -0.00000000000E+00  0.00000000000E+00  0.61271821591E+02  0.61271821591E+02  0.00000000000E+00 0.  1.
          1   -1    0    0  501    0  0.00000000000E+00 -0.00000000000E+00 -0.53901409562E+03  0.53901409562E+03  0.00000000000E+00 0. -1.
         23    2    1    2    0    0  0.29354826041E+02  0.23857737291E+02 -0.24778943338E+03  0.26533688218E+03  0.87023906540E+02 0.  0.
          5    1    1    2  502    0  0.10434724969E+03 -0.96004974351E+01 -0.13161096599E+03  0.16829751762E+03  0.47000000000E+01 0. -1.
         -5    1    1    2    0  502 -0.13370207573E+03 -0.14257239856E+02 -0.98341874656E+02  0.16665151741E+03  0.47000000000E+01 0.  1.
        -11    1    3    3    0    0  0.24265890295E+02 -0.24461228104E+02 -0.17122692893E+03  0.17465922908E+03  0.00000000000E+00 0.  1.
         11    1    3    3    0    0  0.50889357463E+01  0.48318965396E+02 -0.76562504451E+02  0.90677653100E+02  0.00000000000E+00 0. -1.
<mgrwt>
<rscale>  0 0.19241315E+03</rscale>
<asrwt>0</asrwt>
<pdfrwt beam="2">  1        1 0.82925244E-01 0.24354167E+03</pdfrwt>
<pdfrwt beam="1">  1       -1 0.94264343E-02 0.24354167E+03</pdfrwt>
<totfact> 0.27105770E+03</totfact>
</mgrwt>
</event>
<event>
 7    1  0.1378058E-005  0.1300717E+03  0.7546771E-02  0.1241496E+00
          2   -1    0    0  501    0  0.00000000000E+00  0.00000000000E+00  0.53407454029E+03  0.53407454029E+03  0.00000000000E+00 0. -1.
         -2   -1    0    0    0  501 -0.00000000000E+00 -0.00000000000E+00 -0.25301076078E+02  0.25301076078E+02  0.00000000000E+00 0.  1.
         23    2    1    2    0    0  0.32808059018E+02 -0.14731149538E+02  0.27694616800E+03  0.29355132313E+03  0.90442378537E+02 0.  0.
          5    1    1    2  502    0 -0.44787775828E+01  0.28425463163E+02  0.23218401630E+03  0.23400763626E+03  0.47000000000E+01 0. -1.
         -5    1    1    2    0  502 -0.28329281435E+02 -0.13694313626E+02 -0.35672008390E+00  0.31816656982E+02  0.47000000000E+01 0. -1.
        -11    1    3    3    0    0  0.47341990867E+02  0.68948447341E+01  0.25510423969E+03  0.25955149025E+03  0.00000000000E+00 0. -1.
         11    1    3    3    0    0 -0.14533931849E+02 -0.21625994272E+02  0.21841928309E+02  0.33999832874E+02  0.00000000000E+00 0.  1.
<mgrwt>
<rscale>  0 0.12097603E+03</rscale>
<asrwt>0</asrwt>
<pdfrwt beam="1">  1        2 0.82165306E-01 0.13007175E+03</pdfrwt>
<pdfrwt beam="2">  1       -2 0.38924736E-02 0.13007175E+03</pdfrwt>
<totfact> 0.15589280E+04</totfact>
</mgrwt>
</event>
<event>
 7    1  0.1378058E-005  0.1418315E+03  0.7546771E-02  0.1222099E+00
         -2   -1    0    0    0  501 -0.00000000000E+00  0.00000000000E+00  0.64309987091E+02  0.64309987091E+02  0.00000000000E+00 0.  1.
          2   -1    0    0  501    0  0.00000000000E+00 -0.00000000000E+00 -0.39258059579E+03  0.39258059579E+03  0.00000000000E+00 0. -1.
         23    2    1    2    0    0 -0.64635442008E+02 -0.17738257385E+02 -0.28871055703E+03  0.30964527925E+03  0.89632734448E+02 0.  0.
          5    1    1    2  502    0 -0.85156598481E+01  0.57581058856E+02 -0.15718566823E+02  0.60475268868E+02  0.47000000000E+01 0.  1.
         -5    1    1    2    0  502  0.73151101856E+02 -0.39842801471E+02 -0.23841484841E+02  0.86770034754E+02  0.47000000000E+01 0.  1.
        -11    1    3    3    0    0 -0.40053878885E+02 -0.51898063920E+02 -0.13201177062E+03  0.14739345248E+03  0.00000000000E+00 0.  1.
         11    1    3    3    0    0 -0.24581563123E+02  0.34159806535E+02 -0.15669878641E+03  0.16225182678E+03  0.00000000000E+00 0. -1.
<mgrwt>
<rscale>  0 0.13367738E+03</rscale>
<asrwt>0</asrwt>
<pdfrwt beam="2">  1        2 0.60397014E-01 0.14183153E+03</pdfrwt>
<pdfrwt beam="1">  1       -2 0.98938443E-02 0.14183153E+03</pdfrwt>
<totfact> 0.52958497E+03</totfact>
</mgrwt>
</event>
<event>
 7    1  0.1378058E-005  0.3339792E+03  0.7546771E-02  0.1070615E+00
         -2   -1    0    0    0  501 -0.00000000000E+00  0.00000000000E+00  0.14442595925E+03  0.14442595925E+03  0.00000000000E+00 0.  1.
          2   -1    0    0  501    0  0.00000000000E+00 -0.00000000000E+00 -0.77054714113E+03  0.77054714113E+03  0.00000000000E+00 0. -1.
         23    2    1    2    0    0 -0.27589668317E+03 -0.14072680325E+03 -0.38794928557E+03  0.50476830388E+03  0.91451514409E+02 0.  0.
          5    1    1    2  502    0  0.17662296099E+03  0.11086031613E+03 -0.85112789340E+02  0.22528194990E+03  0.47000000000E+01 0. -1.
         -5    1    1    2    0  502  0.99273722182E+02  0.29866487120E+02 -0.15305910697E+03  0.18492284660E+03  0.47000000000E+01 0. -1.
        -11    1    3    3    0    0 -0.62723016076E+02 -0.62494382371E+01 -0.12806180389E+03  0.14273422099E+03  0.00000000000E+00 0. -1.
         11    1    3    3    0    0 -0.21317366710E+03 -0.13447736501E+03 -0.25988748168E+03  0.36203408289E+03  0.00000000000E+00 0.  1.
<mgrwt>
<rscale>  0 0.33118301E+03</rscale>
<asrwt>0</asrwt>
<pdfrwt beam="2">  1        2 0.11854571E+00 0.33397923E+03</pdfrwt>
<pdfrwt beam="1">  1       -2 0.22219378E-01 0.33397923E+03</pdfrwt>
<totfact> 0.65237542E+02</totfact>
</mgrwt>
</event>
<event>
 7    1  0.1378058E-005  0.1305057E+03  0.7546771E-02  0.1239767E+00
         -2   -1    0    0    0  501 -0.00000000000E+00  0.00000000000E+00  0.16246131124E+02  0.16246131124E+02  0.00000000000E+00 0.  1.
          2   -1    0    0  501    0  0.00000000000E+00 -0.00000000000E+00 -0.81918634255E+03  0.81918634255E+03  0.00000000000E+00 0. -1.
         23    2    1    2    0    0  0.16304293626E+01 -0.37461477589E+02 -0.37304673609E+03  0.38616624266E+03  0.92490426828E+02 0.  0.
          5    1    1    2  502    0 -0.50469220747E+02  0.34265209340E+02 -0.11226310448E+03  0.12785281163E+03  0.47000000000E+01 0. -1.
         -5    1    1    2    0  502  0.48838791384E+02  0.31962682497E+01 -0.31763037085E+03  0.32141341938E+03  0.47000000000E+01 0. -1.
        -11    1    3    3    0    0  0.14877191754E+02 -0.66289724182E+02 -0.24466457149E+03  0.25392205676E+03  0.00000000000E+00 0.  1.
         11    1    3    3    0    0 -0.13246762392E+02  0.28828246592E+02 -0.12838216460E+03  0.13224418590E+03  0.00000000000E+00 0. -1.
<mgrwt>
<rscale>  0 0.12204144E+03</rscale>
<asrwt>0</asrwt>
<pdfrwt beam="2">  1        2 0.12602865E+00 0.13050573E+03</pdfrwt>
<pdfrwt beam="1">  1       -2 0.24994051E-02 0.13050573E+03</pdfrwt>
<totfact> 0.18130477E+04</totfact>
</mgrwt>
</event>
<event>
 7    1  0.1378058E-005  0.1490044E+03  0.7546771E-02  0.1208089E+00
         -1   -1    0    0    0  501 -0.00000000000E+00  0.00000000000E+00  0.60171986112E+03  0.60171986112E+03  0.00000000000E+00 0.  1.
          1   -1    0    0  501    0  0.00000000000E+00 -0.00000000000E+00 -0.36998175363E+02  0.36998175363E+02  0.00000000000E+00 0. -1.
         23    2    1    2    0    0 -0.44056704553E+02 -0.68096656819E+02  0.15195295021E+03  0.19987828320E+03  0.10140750037E+03 0.  0.
          5    1    1    2  502    0  0.44568310494E+02  0.83176320205E+02  0.41234476658E+03  0.42303065027E+03  0.47000000000E+01 0.  1.
         -5    1    1    2    0  502 -0.51160594166E+00 -0.15079663385E+02  0.42396897168E+00  0.15809103015E+02  0.47000000000E+01 0.  1.
        -11    1    3    3    0    0  0.16191327574E+02 -0.38423867289E+02  0.11691779336E+03  0.12413026653E+03  0.00000000000E+00 0.  1.
         11    1    3    3    0    0 -0.60248032127E+02 -0.29672789530E+02  0.35035156857E+02  0.75748016671E+02  0.00000000000E+00 0. -1.
<mgrwt>
<rscale>  0 0.14396658E+03</rscale>
<asrwt>0</asrwt>
<pdfrwt beam="2">  1        1 0.56920274E-02 0.14900436E+03</pdfrwt>
<pdfrwt beam="1">  1       -1 0.92572279E-01 0.14900436E+03</pdfrwt>
<totfact> 0.16259167E+03</totfact>
</mgrwt>
</event>
<event>
 7    1  0.1378058E-005  0.2008588E+03  0.7546771E-02  0.1153175E+00
          1   -1    0    0  501    0  0.00000000000E+00  0.00000000000E+00  0.11678138266E+03  0.11678138266E+03  0.00000000000E+00 0. -1.
         -1   -1    0    0    0  501 -0.00000000000E+00 -0.00000000000E+00 -0.61485998709E+03  0.61485998709E+03  0.00000000000E+00 0.  1.
         23    2    1    2    0    0  0.86855856822E+02 -0.13104654568E+03  0.13000943632E+02  0.18250880504E+03  0.91778550773E+02 0.  0.
          5    1    1    2  502    0  0.26834233146E+02  0.87287892636E+01 -0.39014775474E+02  0.48378823216E+02  0.47000000000E+01 0.  1.
         -5    1    1    2    0  502 -0.11369008997E+03  0.12231775642E+03 -0.47206477259E+03  0.50075374149E+03  0.47000000000E+01 0.  1.
        -11    1    3    3    0    0  0.83446635941E+02 -0.55956937681E+02  0.31135453669E+02  0.10518524801E+03  0.00000000000E+00 0. -1.
         11    1    3    3    0    0  0.34092208813E+01 -0.75089608002E+02 -0.18134510038E+02  0.77323557027E+02  0.00000000000E+00 0.  1.
<mgrwt>
<rscale>  0 0.19598055E+03</rscale>
<asrwt>0</asrwt>
<pdfrwt beam="1">  1        1 0.17966367E-01 0.20085883E+03</pdfrwt>
<pdfrwt beam="2">  1       -1 0.94593844E-01 0.20085883E+03</pdfrwt>
<totfact> 0.33700804E+02</totfact>
</mgrwt>
</event>
<event>
 7    1  0.1378058E-005  0.1250587E+03  0.7546771E-02  0.1248162E+00
          2   -1    0    0  501    0  0.00000000000E+00  0.00000000000E+00  0.65972086481E+03  0.65972086481E+03  0.00000000000E+00 0. -1.
         -2   -1    0    0    0  501 -0.00000000000E+00 -0.00000000000E+00 -0.18590020274E+02  0.18590020274E+02  0.00000000000E+00 0.  1.
         23    2    1    2    0    0 -0.15856785834E+01  0.33931417203E+01  0.30465600395E+03  0.31934708998E+03  0.95672646803E+02 0.  0.
          5    1    1    2  502    0  0.59175681643E+02  0.12663003108E+02  0.21631901498E+03  0.22467336110E+03  0.47000000000E+01 0. -1.
         -5    1    1    2    0  502 -0.57590003059E+02 -0.16056144829E+02  0.12015582561E+03  0.13429043401E+03  0.47000000000E+01 0. -1.
        -11    1    3    3    0    0 -0.25912875086E+02 -0.34151168063E+02  0.21402306761E+03  0.21827426060E+03  0.00000000000E+00 0. -1.
         11    1    3    3    0    0  0.24327196502E+02  0.37544309783E+02  0.90632936343E+02  0.10107282937E+03  0.00000000000E+00 0.  1.
<mgrwt>
<rscale>  0 0.11698108E+03</rscale>
<asrwt>0</asrwt>
<pdfrwt beam="1">  1        2 0.10149550E+00 0.12505874E+03</pdfrwt>
<pdfrwt beam="2">  1       -2 0.28600036E-02 0.12505874E+03</pdfrwt>
<totfact> 0.19258674E+04</totfact>
</mgrwt>
</event>
<event>
 6    1  0.1378058E-005  0.1349552E+03  0.7546771E-02  0.1263817E+00
         -2   -1    0    0    0  501 -0.00000000000E+00  0.00000000000E+00  0.26434872274E+03  0.26434872274E+03  0.00000000000E+00 0.  1.
          2   -1    0    0  501    0  0.00000000000E+00 -0.00000000000E+00 -0.56667207457E+02  0.56667207457E+02  0.00000000000E+00 0. -1.
          5    1    1    2  502    0 -0.14451400065E+02  0.43734122616E+02  0.10593710114E+03  0.11561261109E+03  0.47000000000E+01 0.  1.
         -5    1    1    2    0  502  0.63356860464E+02 -0.57680346223E+02  0.11917407462E+03  0.14685252524E+03  0.47000000000E+01 0.  1.
        -11    1    1    2    0    0 -0.22688338284E+02 -0.93269438004E+00  0.18258247291E+01  0.22780786835E+02  0.00000000000E+00 0.  1.
         11    1    1    2    0    0 -0.26217122115E+02  0.14878917987E+02 -0.19255485207E+02  0.35770007031E+02  0.00000000000E+00 0. -1.
<mgrwt>
<rscale>  0 0.10826500E+03</rscale>
<asrwt>0</asrwt>
<pdfrwt beam="2">  1        2 0.87180321E-02 0.13495520E+03</pdfrwt>
<pdfrwt beam="1">  1       -2 0.40669034E-01 0.13495520E+03</pdfrwt>
<totfact> 0.41906357E+03</totfact>
</mgrwt>
</event>
<event>
 7    1  0.1378058E-005  0.1345421E+03  0.7546771E-02  0.1233845E+00
          3   -1    0    0  501    0  0.00000000000E+00  0.00000000000E+00  0.28044581872E+03  0.28044581872E+03  0.00000000000E+00 0. -1.
         -3   -1    0    0    0  501 -0.00000000000E+00 -0.00000000000E+00 -0.77070240278E+02  0.77070240278E+02  0.00000000000E+00 0.  1.
         23    2    1    2    0    0 -0.20216050728E+02 -0.45420938284E+02  0.19773260463E+03  0.22285563584E+03  0.89970557137E+02 0.  0.
          5    1    1    2  502    0 -0.40131584462E+02 -0.19405329140E+01 -0.29582736630E+02  0.50115247639E+02  0.47000000000E+01 0. -1.
         -5    1    1    2    0  502  0.60347635190E+02  0.47361471198E+02  0.35225710446E+02  0.84545175519E+02  0.47000000000E+01 0. -1.
        -11    1    3    3    0    0 -0.39123138844E+02 -0.10072133252E+01  0.32986409179E+02  0.51183372908E+02  0.00000000000E+00 0.  1.
         11    1    3    3    0    0  0.18907088116E+02 -0.44413724959E+02  0.16474619545E+03  0.17167226294E+03  0.00000000000E+00 0. -1.
<mgrwt>
<rscale>  0 0.12578675E+03</rscale>
<asrwt>0</asrwt>
<pdfrwt beam="1">  1        3 0.43145510E-01 0.13454214E+03</pdfrwt>
<pdfrwt beam="2">  1       -3 0.11856960E-01 0.13454214E+03</pdfrwt>
<totfact> 0.68639589E+02</totfact>
</mgrwt>
</event>
<event>
 7    1  0.1378058E-005  0.4542491E+03  0.7546771E-02  0.1026462E+00
         -2   -1    0    0    0  501 -0.00000000000E+00  0.00000000000E+00  0.33685758141E+03  0.33685758141E+03  0.00000000000E+00 0.  1.
          2   -1    0    0  501    0  0.00000000000E+00 -0.00000000000E+00 -0.15313762040E+03  0.15313762040E+03  0.00000000000E+00 0. -1.
         23    2    1    2    0    0  0.31019910493E+02 -0.60894241353E+02 -0.65907860091E+02  0.13398531844E+03  0.94540340908E+02 0.  0.
          5    1    1    2  502    0 -0.57888910300E+02  0.98738613329E+02  0.27850606944E+03  0.30114474993E+03  0.47000000000E+01 0. -1.
         -5    1    1    2    0  502  0.26868999806E+02 -0.37844371976E+02 -0.28878248336E+02  0.54865133444E+02  0.47000000000E+01 0.  1.
        -11    1    3    3    0    0  0.21753645952E+02 -0.80641432651E+02 -0.24268328776E+02  0.86978236092E+02  0.00000000000E+00 0.  1.
         11    1    3    3    0    0  0.92662645417E+01  0.19747191298E+02 -0.41639531315E+02  0.47007082348E+02  0.00000000000E+00 0. -1.
<mgrwt>
<rscale>  0 0.45424913E+03</rscale>
<asrwt>0</asrwt>
<pdfrwt beam="2">  1        2 0.23559634E-01 0.45424913E+03</pdfrwt>
<pdfrwt beam="1">  1       -2 0.51824243E-01 0.45424913E+03</pdfrwt>
<totfact> 0.82790510E+02</totfact>
</mgrwt>
</event>
<event>
 7    1  0.1378058E-005  0.1373482E+03  0.7546771E-02  0.1228942E+00
          1   -1    0    0  501    0  0.00000000000E+00  0.00000000000E+00  0.24391894789E+03  0.24391894789E+03  0.00000000000E+00 0. -1.
         -1   -1    0    0    0  501 -0.00000000000E+00 -0.00000000000E+00 -0.61282363717E+02  0.61282363717E+02  0.00000000000E+00 0.  1.
         23    2    1    2    0    0  0.56632280378E+02 -0.56954953227E+01  0.87263537806E+02  0.13798722668E+03  0.90475940716E+02 0.  0.
          5    1    1    2  502    0 -0.75951617908E+02 -0.25324076129E+02  0.19002960207E+02  0.82420626006E+02  0.47000000000E+01 0.  1.
         -5    1    1    2    0  502  0.19319337530E+02  0.31019571452E+02  0.76370086158E+02  0.84793458919E+02  0.47000000000E+01 0.  1.
        -11    1    3    3    0    0  0.21372061617E+02 -0.46689113132E+02  0.31134757213E+02  0.60050074185E+02  0.00000000000E+00 0.  1.
         11    1    3    3    0    0  0.35260218761E+02  0.40993617810E+02  0.56128780593E+02  0.77937152495E+02  0.00000000000E+00 0. -1.
<mgrwt>
<rscale>  0 0.12900362E+03</rscale>
<asrwt>0</asrwt>
<pdfrwt beam="1">  1        1 0.37525991E-01 0.13734822E+03</pdfrwt>
<pdfrwt beam="2">  1       -1 0.94280561E-02 0.13734822E+03</pdfrwt>
<totfact> 0.72377583E+03</totfact>
</mgrwt>
</event>
<event>
 7    1  0.1378058E-005  0.1638408E+03  0.7546771E-02  0.1192066E+00
         -1   -1    0    0    0  501 -0.00000000000E+00  0.00000000000E+00  0.12808408179E+04  0.12808408179E+04  0.00000000000E+00 0.  1.
          1   -1    0    0  501    0  0.00000000000E+00 -0.00000000000E+00 -0.24856037942E+02  0.24856037942E+02  0.00000000000E+00 0. -1.
         23    2    1    2    0    0  0.41012816119E+02  0.97658492081E+02  0.24354741210E+03  0.28008814598E+03  0.88965135949E+02 0.  0.
          5    1    1    2  502    0 -0.31591411076E+02  0.21448924663E+02  0.14704452810E+03  0.15199426590E+03  0.47000000000E+01 0. -1.
         -5    1    1    2    0  502 -0.94214050426E+01 -0.11910741674E+03  0.86539283977E+03  0.87361444397E+03  0.47000000000E+01 0. -1.
        -11    1    3    3    0    0  0.56814894882E+01  0.57098990521E+02  0.20761919562E+03  0.21540265651E+03  0.00000000000E+00 0.  1.
         11    1    3    3    0    0  0.35331326631E+02  0.40559501560E+02  0.35928216482E+02  0.64685489469E+02  0.00000000000E+00 0. -1.
<mgrwt>
<rscale>  0 0.15705158E+03</rscale>
<asrwt>0</asrwt>
<pdfrwt beam="2">  1        1 0.38240068E-02 0.16384078E+03</pdfrwt>
<pdfrwt beam="1">  1       -1 0.19705238E+00 0.16384078E+03</pdfrwt>
<totfact> 0.42250762E+02</totfact>
</mgrwt>
</event>
<event>
 7    1  0.1378058E-005  0.1455285E+03  0.7546771E-02  0.1215479E+00
          2   -1    0    0  501    0  0.00000000000E+00  0.00000000000E+00  0.31869470387E+02  0.31869470387E+02  0.00000000000E+00 0. -1.
         -2   -1    0    0    0  501 -0.00000000000E+00 -0.00000000000E+00 -0.55121906807E+03  0.55121906807E+03  0.00000000000E+00 0.  1.
         23    2    1    2    0    0  0.74497704655E+02 -0.18529586798E+01 -0.21667280131E+03  0.24724367296E+03  0.92892354576E+02 0.  0.
          5    1    1    2  502    0 -0.45927404090E+02  0.61893609652E+02 -0.18738205667E+03  0.20266788232E+03  0.47000000000E+01 0.  1.
         -5    1    1    2    0  502 -0.28570300565E+02 -0.60040650973E+02 -0.11529473970E+03  0.13317698317E+03  0.47000000000E+01 0.  1.
        -11    1    3    3    0    0  0.37654619035E+02  0.39688692607E+02 -0.15442482534E+03  0.16382945198E+03  0.00000000000E+00 0.  1.
         11    1    3    3    0    0  0.36843085620E+02 -0.41541651287E+02 -0.62247975968E+02  0.83414220980E+02  0.00000000000E+00 0. -1.
<mgrwt>
<rscale>  0 0.13841380E+03</rscale>
<asrwt>0</asrwt>
<pdfrwt beam="1">  1        2 0.49029952E-02 0.14552845E+03</pdfrwt>
<pdfrwt beam="2">  1       -2 0.84802938E-01 0.14552845E+03</pdfrwt>
<totfact> 0.19484136E+03</totfact>
</mgrwt>
</event>
<event>
 7    1  0.1378058E-005  0.1328254E+03  0.7546771E-02  0.1237816E+00
          2   -1    0    0  501    0  0.00000000000E+00  0.00000000000E+00  0.14908360766E+03  0.14908360766E+03  0.00000000000E+00 0. -1.
         -2   -1    0    0    0  501 -0.00000000000E+00 -0.00000000000E+00 -0.97505900571E+02  0.97505900571E+02  0.00000000000E+00 0.  1.
         23    2    1    2    0    0  0.43935055897E+02  0.94686380723E+01  0.56724150529E+02  0.11366448425E+03  0.87647255998E+02 0.  0.
          5    1    1    2  502    0  0.12046207864E+02  0.35390092688E+02 -0.38327508792E+02  0.53746234422E+02  0.47000000000E+01 0.  1.
         -5    1    1    2    0  502 -0.55981263761E+02 -0.44858730760E+02  0.33181065356E+02  0.79178789558E+02  0.47000000000E+01 0.  1.
        -11    1    3    3    0    0  0.18527346773E+02 -0.37527920277E+01 -0.22520413889E+02  0.29402637096E+02  0.00000000000E+00 0.  1.
         11    1    3    3    0    0  0.25407709123E+02  0.13221430100E+02  0.79244564418E+02  0.84261847159E+02  0.00000000000E+00 0. -1.
<mgrwt>
<rscale>  0 0.12325891E+03</rscale>
<asrwt>0</asrwt>
<pdfrwt beam="1">  1        2 0.22935940E-01 0.13282536E+03</pdfrwt>
<pdfrwt beam="2">  1       -2 0.15000908E-01 0.13282536E+03</pdfrwt>
<totfact> 0.76723971E+03</totfact>
</mgrwt>
</event>
<event>
 7    1  0.1378058E-005  0.2254484E+03  0.7546771E-02  0.1129885E+00
         -2   -1    0    0    0  501 -0.00000000000E+00  0.00000000000E+00  0.18756319993E+02  0.18756319993E+02  0.00000000000E+00 0.  1.
          2   -1    0    0  501    0  0.00000000000E+00 -0.00000000000E+00 -0.67746500812E+03  0.67746500812E+03  0.00000000000E+00 0. -1.
         23    2    1    2    0    0 -0.12897037125E+02  0.19997866820E+02 -0.32142937879E+03  0.33573680746E+03  0.94000585567E+02 0.  0.
          5    1    1    2  502    0  0.59859525070E+02 -0.43630164541E+02 -0.18604150159E+03  0.20030048506E+03  0.47000000000E+01 0.  1.
         -5    1    1    2    0  502 -0.46962487945E+02  0.23632297721E+02 -0.15123780774E+03  0.16018403560E+03  0.47000000000E+01 0.  1.
        -11    1    3    3    0    0 -0.21964029418E+02 -0.29853027079E+02 -0.21110064895E+03  0.21432943289E+03  0.00000000000E+00 0.  1.
         11    1    3    3    0    0  0.90669922933E+01  0.49850893898E+02 -0.11032872984E+03  0.12140737457E+03  0.00000000000E+00 0. -1.
<mgrwt>
<rscale>  0 0.22544845E+03</rscale>
<asrwt>0</asrwt>
<pdfrwt beam="2">  1        2 0.10422538E+00 0.22544845E+03</pdfrwt>
<pdfrwt beam="1">  1       -2 0.28855878E-02 0.22544845E+03</pdfrwt>
<totfact> 0.19255316E+04</totfact>
</mgrwt>
</event>
<event>
 7    1  0.1378058E-005  0.1279511E+03  0.7546771E-02  0.1245097E+00
         -1   -1    0    0    0  501 -0.00000000000E+00  0.00000000000E+00  0.23682124030E+03  0.23682124030E+03  0.00000000000E+00 0.  1.
          1   -1    0    0  501    0  0.00000000000E+00 -0.00000000000E+00 -0.54672455099E+02  0.54672455099E+02  0.00000000000E+00 0. -1.
         23    2    1    2    0    0 -0.22798454006E+02  0.15108010555E+02  0.49495508322E+02  0.10718856755E+03  0.91058015475E+02 0.  0.
          5    1    1    2  502    0  0.58825823419E+01  0.52780167440E+02  0.81975417615E+02  0.97787575607E+02  0.47000000000E+01 0.  1.
         -5    1    1    2    0  502  0.16915871664E+02 -0.67888177995E+02  0.50677859267E+02  0.86517552240E+02  0.47000000000E+01 0.  1.
        -11    1    3    3    0    0  0.32669693555E+02 -0.57422681376E+01  0.30226870863E+02  0.44877012406E+02  0.00000000000E+00 0.  1.
         11    1    3    3    0    0 -0.55468147561E+02  0.20850278692E+02  0.19268637459E+02  0.62311555148E+02  0.00000000000E+00 0. -1.
<mgrwt>
<rscale>  0 0.11879594E+03</rscale>
<asrwt>0</asrwt>
<pdfrwt beam="2">  1        1 0.84111471E-02 0.12795112E+03</pdfrwt>
<pdfrwt beam="1">  1       -1 0.36434036E-01 0.12795112E+03</pdfrwt>
<totfact> 0.56061017E+03</totfact>
</mgrwt>
</event>
<event>
 7    1  0.1378058E-005  0.1387857E+03  0.7546771E-02  0.1224770E+00
          3   -1    0    0  501    0  0.00000000000E+00  0.00000000000E+00  0.93452358401E+02  0.93452358401E+02  0.00000000000E+00 0. -1.
         -3   -1    0    0    0  501 -0.00000000000E+00 -0.00000000000E+00 -0.21120741508E+03  0.21120741508E+03  0.00000000000E+00 0.  1.
         23    2    1    2    0    0 -0.47105391799E+01 -0.60117116866E+02  0.13324227037E+02  0.11375861312E+03  0.95536538108E+02 0.  0.
          5    1    1    2  502    0 -0.23738609270E+02 -0.23774001837E+02 -0.16161886721E+01  0.33962137731E+02  0.47000000000E+01 0. -1.
         -5    1    1    2    0  502  0.28449148450E+02  0.83891118703E+02 -0.12946309505E+03  0.15693902263E+03  0.47000000000E+01 0. -1.
        -11    1    3    3    0    0  0.21601983525E+02 -0.24856388159E+02 -0.35237725312E+02  0.48230519484E+02  0.00000000000E+00 0.  1.
         11    1    3    3    0    0 -0.26312522705E+02 -0.35260728708E+02  0.48561952348E+02  0.65528093639E+02  0.00000000000E+00 0. -1.
<mgrwt>
<rscale>  0 0.13182711E+03</rscale>
<asrwt>0</asrwt>
<pdfrwt beam="1">  1        3 0.14377286E-01 0.13878571E+03</pdfrwt>
<pdfrwt beam="2">  1       -3 0.32493448E-01 0.13878571E+03</pdfrwt>
<totfact> 0.85508940E+02</totfact>
</mgrwt>
</event>
<event>
 7    1  0.1378058E-005  0.1397535E+03  0.7546771E-02  0.1224462E+00
          1   -1    0    0  501    0  0.00000000000E+00  0.00000000000E+00  0.38009272985E+03  0.38009272985E+03  0.00000000000E+00 0. -1.
         -1   -1    0    0    0  501 -0.00000000000E+00 -0.00000000000E+00 -0.41486178269E+02  0.41486178269E+02  0.00000000000E+00 0.  1.
         23    2    1    2    0    0 -0.59397040057E+02 -0.19458665041E+02  0.14658552026E+03  0.18408547604E+03  0.92160185149E+02 0.  0.
          5    1    1    2  502    0  0.79268108781E+02  0.41825663205E+02  0.76062949725E+02  0.11764557575E+03  0.47000000000E+01 0. -1.
         -5    1    1    2    0  502 -0.19871068723E+02 -0.22366998165E+02  0.11595808160E+03  0.11984785634E+03  0.47000000000E+01 0. -1.
        -11    1    3    3    0    0 -0.62170627798E+01 -0.85527915518E+01 -0.12277497735E+02  0.16203057229E+02  0.00000000000E+00 0.  1.
         11    1    3    3    0    0 -0.53179977278E+02 -0.10905873489E+02  0.15886301799E+03  0.16788241881E+03  0.00000000000E+00 0. -1.
<mgrwt>
<rscale>  0 0.13203847E+03</rscale>
<asrwt>0</asrwt>
<pdfrwt beam="1">  1        1 0.58475802E-01 0.13975355E+03</pdfrwt>
<pdfrwt beam="2">  1       -1 0.63824892E-02 0.13975355E+03</pdfrwt>
<totfact> 0.75212467E+03</totfact>
</mgrwt>
</event>
<event>
 7    1  0.1378058E-005  0.1304188E+03  0.7546771E-02  0.1240043E+00
         -1   -1    0    0    0  501 -0.00000000000E+00  0.00000000000E+00  0.61481530014E+02  0.61481530014E+02  0.00000000000E+00 0.  1.
          1   -1    0    0  501    0  0.00000000000E+00 -0.00000000000E+00 -0.25116276335E+03  0.25116276335E+03  0.00000000000E+00 0. -1.
         23    2    1    2    0    0  0.36907568645E+02  0.49524945953E+01 -0.14288639769E+03  0.17408444170E+03  0.92207236004E+02 0.  0.
          5    1    1    2  502    0  0.16824428885E+01 -0.11912826023E+02 -0.83589961944E+02  0.84582018040E+02  0.47000000000E+01 0. -1.
         -5    1    1    2    0  502 -0.38590011534E+02  0.69603314273E+01  0.36795126296E+02  0.53977833625E+02  0.47000000000E+01 0. -1.
        -11    1    3    3    0    0  0.59486639098E+02 -0.21462098413E+02 -0.10581692198E+03  0.12327409654E+03  0.00000000000E+00 0.  1.
         11    1    3    3    0    0 -0.22579070453E+02  0.26414593008E+02 -0.37069475705E+02  0.50810345161E+02  0.00000000000E+00 0. -1.
<mgrwt>
<rscale>  0 0.12187050E+03</rscale>
<asrwt>0</asrwt>
<pdfrwt beam="2">  1        1 0.38640425E-01 0.13041885E+03</pdfrwt>
<pdfrwt beam="1">  1       -1 0.94586969E-02 0.13041885E+03</pdfrwt>
<totfact> 0.69218833E+03</totfact>
</mgrwt>
</event>
<event>
 7    1  0.1378058E-005  0.1420845E+03  0.7546771E-02  0.1219286E+00
          2   -1    0    0  501    0  0.00000000000E+00  0.00000000000E+00  0.37014036159E+02  0.37014036159E+02  0.00000000000E+00 0.  1.
         -2   -1    0    0    0  501 -0.00000000000E+00 -0.00000000000E+00 -0.46439517463E+03  0.46439517463E+03  0.00000000000E+00 0. -1.
         23    2    1    2    0    0 -0.67261146003E+02  0.61021814480E+01 -0.16319682820E+03  0.20144026690E+03  0.96869386375E+02 0.  0.
          5    1    1    2  502    0  0.92330793021E+02  0.19403775433E+02 -0.23596370876E+03  0.25417010779E+03  0.47000000000E+01 0.  1.
         -5    1    1    2    0  502 -0.25069647019E+02 -0.25505956881E+02 -0.28220601514E+02  0.45798836097E+02  0.47000000000E+01 0.  1.
        -11    1    3    3    0    0 -0.82143382814E+02  0.24752735650E+02 -0.89502970014E+02  0.12397989718E+03  0.00000000000E+00 0.  1.
         11    1    3    3    0    0  0.14882236811E+02 -0.18650554203E+02 -0.73693858184E+02  0.77460369729E+02  0.00000000000E+00 0. -1.
<mgrwt>
<rscale>  0 0.13566329E+03</rscale>
<asrwt>0</asrwt>
<pdfrwt beam="1">  1        2 0.56944667E-02 0.14208454E+03</pdfrwt>
<pdfrwt beam="2">  1       -2 0.71445416E-01 0.14208454E+03</pdfrwt>
<totfact> 0.23251151E+03</totfact>
</mgrwt>
</event>
<event>
 7    1  0.1378058E-005  0.1621696E+03  0.7546771E-02  0.1192728E+00
          1   -1    0    0  501    0  0.00000000000E+00  0.00000000000E+00  0.54055878971E+03  0.54055878971E+03  0.00000000000E+00 0. -1.
         -1   -1    0    0    0  501 -0.00000000000E+00 -0.00000000000E+00 -0.47226363409E+02  0.47226363409E+02  0.00000000000E+00 0.  1.
         23    2    1    2    0    0 -0.10177022841E+03 -0.17779344411E+02  0.32470039773E+03  0.35382846570E+03  0.95346475428E+02 0.  0.
          5    1    1    2  502    0 -0.67313579751E+01 -0.20354967588E+02 -0.78040488309E+01  0.23294399839E+02  0.47000000000E+01 0.  1.
         -5    1    1    2    0  502  0.10850158638E+03  0.38134311999E+02  0.17643607740E+03  0.21066228758E+03  0.47000000000E+01 0.  1.
        -11    1    3    3    0    0 -0.16286109957E+02 -0.38490345394E+02  0.48821181980E+02  0.64267035687E+02  0.00000000000E+00 0.  1.
         11    1    3    3    0    0 -0.85484118450E+02  0.20711000983E+02  0.27587921575E+03  0.28956143001E+03  0.00000000000E+00 0. -1.
<mgrwt>
<rscale>  0 0.15648115E+03</rscale>
<asrwt>0</asrwt>
<pdfrwt beam="1">  1        1 0.83162886E-01 0.16216957E+03</pdfrwt>
<pdfrwt beam="2">  1       -1 0.72655948E-02 0.16216957E+03</pdfrwt>
<totfact> 0.39631997E+03</totfact>
</mgrwt>
</event>
<event>
 7    1  0.1378058E-005  0.1307666E+03  0.7546771E-02  0.1239271E+00
         -2   -1    0    0    0  501 -0.00000000000E+00  0.00000000000E+00  0.57751461741E+02  0.57751461741E+02  0.00000000000E+00 0.  1.
          2   -1    0    0  501    0  0.00000000000E+00 -0.00000000000E+00 -0.23275926434E+03  0.23275926434E+03  0.00000000000E+00 0. -1.
         23    2    1    2    0    0 -0.18110316128E+02  0.33909739904E+02 -0.88712791508E+02  0.13383673397E+03  0.92544356775E+02 0.  0.
          5    1    1    2  502    0 -0.52090138473E+02 -0.23523144008E+02 -0.53224406039E+02  0.78240962598E+02  0.47000000000E+01 0.  1.
         -5    1    1    2    0  502  0.70200454601E+02 -0.10386595896E+02 -0.33070605051E+02  0.78433029516E+02  0.47000000000E+01 0.  1.
        -11    1    3    3    0    0  0.28951621380E+02  0.33706652870E+02 -0.70580215635E+02  0.83402048340E+02  0.00000000000E+00 0. -1.
         11    1    3    3    0    0 -0.47061937508E+02  0.20308703429E+00 -0.18132575873E+02  0.50434685626E+02  0.00000000000E+00 0.  1.
<mgrwt>
<rscale>  0 0.12234942E+03</rscale>
<asrwt>0</asrwt>
<pdfrwt beam="2">  1        2 0.35809118E-01 0.13076663E+03</pdfrwt>
<pdfrwt beam="1">  1       -2 0.88848402E-02 0.13076663E+03</pdfrwt>
<totfact> 0.10860870E+04</totfact>
</mgrwt>
</event>
<event>
 7    1  0.1378058E-005  0.1484664E+03  0.7546771E-02  0.1212310E+00
         -2   -1    0    0    0  501 -0.00000000000E+00  0.00000000000E+00  0.41932938880E+03  0.41932938880E+03  0.00000000000E+00 0.  1.
          2   -1    0    0  501    0  0.00000000000E+00 -0.00000000000E+00 -0.47136717736E+02  0.47136717736E+02  0.00000000000E+00 0. -1.
         23    2    1    2    0    0 -0.72011004295E+02  0.35076842640E+02  0.98989374489E+02  0.15552830636E+03  0.89298310113E+02 0.  0.
          5    1    1    2  502    0 -0.25774447558E+02 -0.64837217788E+01  0.14310712875E+03  0.14563001440E+03  0.47000000000E+01 0. -1.
         -5    1    1    2    0  502  0.97785451852E+02 -0.28593120861E+02  0.13009616782E+03  0.16530778577E+03  0.47000000000E+01 0. -1.
        -11    1    3    3    0    0  0.14966636467E+02  0.16089343596E+02 -0.55548349813E+00  0.21981258981E+02  0.00000000000E+00 0. -1.
         11    1    3    3    0    0 -0.86977640762E+02  0.18987499044E+02  0.99544857987E+02  0.13354704738E+03  0.00000000000E+00 0.  1.
<mgrwt>
<rscale>  0 0.14076003E+03</rscale>
<asrwt>0</asrwt>
<pdfrwt beam="2">  1        2 0.72518030E-02 0.14846641E+03</pdfrwt>
<pdfrwt beam="1">  1       -2 0.64512211E-01 0.14846641E+03</pdfrwt>
<totfact> 0.21209074E+03</totfact>
</mgrwt>
</event>
<event>
 7    1  0.1378058E-005  0.1260300E+03  0.7546771E-02  0.1248153E+00
          1   -1    0    0  501    0  0.00000000000E+00  0.00000000000E+00  0.10588162715E+03  0.10588162715E+03  0.00000000000E+00 0. -1.
         -1   -1    0    0    0  501 -0.00000000000E+00 -0.00000000000E+00 -0.11391675970E+03  0.11391675970E+03  0.00000000000E+00 0.  1.
         23    2    1    2    0    0  0.11632313015E+02 -0.11100331391E+02 -0.97360623572E+00  0.93570669888E+02  0.92173718006E+02 0.  0.
          5    1    1    2  502    0 -0.22589937953E+02 -0.24017179501E+02 -0.55800056884E+02  0.64983586821E+02  0.47000000000E+01 0.  1.
         -5    1    1    2    0  502  0.10957624937E+02  0.35117510892E+02  0.48738530565E+02  0.61244130145E+02  0.47000000000E+01 0.  1.
        -11    1    3    3    0    0  0.39978537701E+02  0.22327593620E+02  0.12944535230E+02  0.47585353901E+02  0.00000000000E+00 0. -1.
         11    1    3    3    0    0 -0.28346224686E+02 -0.33427925012E+02 -0.13918141466E+02  0.45985315987E+02  0.00000000000E+00 0.  1.
<mgrwt>
<rscale>  0 0.11698620E+03</rscale>
<asrwt>0</asrwt>
<pdfrwt beam="1">  1        1 0.16289481E-01 0.12603004E+03</pdfrwt>
<pdfrwt beam="2">  1       -1 0.17525655E-01 0.12603004E+03</pdfrwt>
<totfact> 0.78516618E+03</totfact>
</mgrwt>
</event>
<event>
 7    1  0.1378058E-005  0.1769044E+03  0.7546771E-02  0.1176756E+00
         -1   -1    0    0    0  501 -0.00000000000E+00  0.00000000000E+00  0.31075894988E+03  0.31075894988E+03  0.00000000000E+00 0.  1.
          1   -1    0    0  501    0  0.00000000000E+00 -0.00000000000E+00 -0.98663895017E+02  0.98663895017E+02  0.00000000000E+00 0. -1.
         23    2    1    2    0    0 -0.11788596000E+03 -0.42146517422E+02  0.33847600188E+02  0.15829077954E+03  0.90757271632E+02 0.  0.
          5    1    1    2  502    0  0.11148408351E+03  0.78046364248E+02  0.11620398292E+03  0.17901226632E+03  0.47000000000E+01 0.  1.
         -5    1    1    2    0  502  0.64018764939E+01 -0.35899846826E+02  0.62043471749E+02  0.72119799026E+02  0.47000000000E+01 0.  1.
        -11    1    3    3    0    0 -0.78665257594E+02 -0.43499742535E+02  0.62686091907E+02  0.10959012944E+03  0.00000000000E+00 0.  1.
         11    1    3    3    0    0 -0.39220702406E+02  0.13532251134E+01 -0.28838491719E+02  0.48700650099E+02  0.00000000000E+00 0. -1.
<mgrwt>
<rscale>  0 0.17105158E+03</rscale>
<asrwt>0</asrwt>
<pdfrwt beam="2">  1        1 0.15179061E-01 0.17690438E+03</pdfrwt>
<pdfrwt beam="1">  1       -1 0.47809069E-01 0.17690438E+03</pdfrwt>
<totfact> 0.16154273E+03</totfact>
</mgrwt>
</event>
<event>
 7    1  0.1378058E-005  0.1196539E+03  0.7546771E-02  0.1252622E+00
         -3   -1    0    0    0  501 -0.00000000000E+00  0.00000000000E+00  0.12976437385E+03  0.12976437385E+03  0.00000000000E+00 0.  1.
          3   -1    0    0  501    0  0.00000000000E+00 -0.00000000000E+00 -0.26943106102E+03  0.26943106102E+03  0.00000000000E+00 0. -1.
         23    2    1    2    0    0 -0.38181399109E+02  0.10876820833E+02 -0.22899287245E+03  0.24987620558E+03  0.91783756791E+02 0.  0.
          5    1    1    2  502    0 -0.11154218716E+02  0.38502716366E+02  0.62485599431E+02  0.74386933658E+02  0.47000000000E+01 0. -1.
         -5    1    1    2    0  502  0.49335617825E+02 -0.49379537199E+02  0.26840585851E+02  0.74932295634E+02  0.47000000000E+01 0.  1.
        -11    1    3    3    0    0 -0.12207393540E+02 -0.40531264095E+02 -0.10180979726E+03  0.11025896174E+03  0.00000000000E+00 0. -1.
         11    1    3    3    0    0 -0.25974005569E+02  0.51408084927E+02 -0.12718307519E+03  0.13961724384E+03  0.00000000000E+00 0.  1.
<mgrwt>
<rscale>  0 0.11440561E+03</rscale>
<asrwt>0</asrwt>
<pdfrwt beam="2">  1        3 0.41450932E-01 0.11965394E+03</pdfrwt>
<pdfrwt beam="1">  1       -3 0.19963750E-01 0.11965394E+03</pdfrwt>
<totfact> 0.29878891E+02</totfact>
</mgrwt>
</event>
<event>
 7    1  0.1378058E-005  0.2478005E+03  0.7546771E-02  0.1134526E+00
          1   -1    0    0  501    0  0.00000000000E+00  0.00000000000E+00  0.68589976207E+03  0.68589976207E+03  0.00000000000E+00 0. -1.
         -1   -1    0    0    0  501 -0.00000000000E+00 -0.00000000000E+00 -0.83545391744E+02  0.83545391744E+02  0.00000000000E+00 0.  1.
         23    2    1    2    0    0 -0.36931003502E+02 -0.11504615912E+03  0.45853639406E+03  0.48293390360E+03  0.91487774157E+02 0.  0.
          5    1    1    2  502    0  0.10631185686E+03 -0.77119811903E+01  0.63704197119E+02  0.12426584524E+03  0.47000000000E+01 0. -1.
         -5    1    1    2    0  502 -0.69380853355E+02  0.12275814032E+03  0.80113779144E+02  0.16224540497E+03  0.47000000000E+01 0.  1.
        -11    1    3    3    0    0 -0.31734902523E+02 -0.43039811752E+01  0.48084483870E+02  0.57773228065E+02  0.00000000000E+00 0.  1.
         11    1    3    3    0    0 -0.51961009788E+01 -0.11074217795E+03  0.41045191019E+03  0.42516067554E+03  0.00000000000E+00 0. -1.
<mgrwt>
<rscale>  0 0.21913949E+03</rscale>
<asrwt>0</asrwt>
<pdfrwt beam="1">  1        1 0.10552304E+00 0.24780050E+03</pdfrwt>
<pdfrwt beam="2">  1       -1 0.12853138E-01 0.24780050E+03</pdfrwt>
<totfact> 0.11945785E+03</totfact>
</mgrwt>
</event>
<event>
 7    1  0.1378058E-005  0.1452997E+03  0.7546771E-02  0.1219448E+00
          2   -1    0    0  501    0  0.00000000000E+00  0.00000000000E+00  0.54304850275E+03  0.54304850275E+03  0.00000000000E+00 0. -1.
         -2   -1    0    0    0  501 -0.00000000000E+00 -0.00000000000E+00 -0.30749572450E+02  0.30749572450E+02  0.00000000000E+00 0.  1.
         23    2    1    2    0    0  0.58988025313E+02  0.15139346476E+02  0.26550376039E+03  0.28740697608E+03  0.91660985019E+02 0.  0.
          5    1    1    2  502    0  0.10786269569E+02  0.44632386323E+02  0.12847543609E+03  0.13651527826E+03  0.47000000000E+01 0. -1.
         -5    1    1    2    0  502 -0.69774294882E+02 -0.59771732799E+02  0.11831973382E+03  0.14987582086E+03  0.47000000000E+01 0.  1.
        -11    1    3    3    0    0  0.81795136103E+02  0.11449684458E+02  0.16801536466E+03  0.18721832796E+03  0.00000000000E+00 0.  1.
         11    1    3    3    0    0 -0.22807110790E+02  0.36896620178E+01  0.97488395735E+02  0.10018864812E+03  0.00000000000E+00 0. -1.
<mgrwt>
<rscale>  0 0.13554825E+03</rscale>
<asrwt>0</asrwt>
<pdfrwt beam="1">  1        2 0.83545916E-01 0.14529971E+03</pdfrwt>
<pdfrwt beam="2">  1       -2 0.47307039E-02 0.14529971E+03</pdfrwt>
<totfact> 0.11535896E+04</totfact>
</mgrwt>
</event>
<event>
 7    1  0.1378058E-005  0.1678953E+03  0.7546771E-02  0.1186918E+00
          2   -1    0    0  501    0  0.00000000000E+00  0.00000000000E+00  0.29332145075E+03  0.29332145075E+03  0.00000000000E+00 0. -1.
         -2   -1    0    0    0  501 -0.00000000000E+00 -0.00000000000E+00 -0.83030357455E+02  0.83030357455E+02  0.00000000000E+00 0.  1.
         23    2    1    2    0    0  0.84632698957E+02  0.73469118299E+02  0.10346091300E+03  0.17735048219E+03  0.90491037888E+02 0.  0.
          5    1    1    2  502    0 -0.94222101079E+02 -0.62752678253E+02  0.25319556088E+02  0.11609854814E+03  0.47000000000E+01 0.  1.
         -5    1    1    2    0  502  0.95894021226E+01 -0.10716440046E+02  0.81510624214E+02  0.82902777879E+02  0.47000000000E+01 0.  1.
        -11    1    3    3    0    0  0.26281063689E+02  0.92075614374E+01 -0.14102679990E+02  0.31214725358E+02  0.00000000000E+00 0.  1.
         11    1    3    3    0    0  0.58351635268E+02  0.64261556862E+02  0.11756359299E+03  0.14613575683E+03  0.00000000000E+00 0. -1.
<mgrwt>
<rscale>  0 0.16158598E+03</rscale>
<asrwt>0</asrwt>
<pdfrwt beam="1">  1        2 0.45126377E-01 0.16789533E+03</pdfrwt>
<pdfrwt beam="2">  1       -2 0.12773901E-01 0.16789533E+03</pdfrwt>
<totfact> 0.48551721E+03</totfact>
</mgrwt>
</event>
<event>
 7    1  0.1378058E-005  0.1654454E+03  0.7546771E-02  0.1187942E+00
          3   -1    0    0  501    0  0.00000000000E+00  0.00000000000E+00  0.12827749795E+03  0.12827749795E+03  0.00000000000E+00 0. -1.
         -3   -1    0    0    0  501 -0.00000000000E+00 -0.00000000000E+00 -0.29986220003E+03  0.29986220003E+03  0.00000000000E+00 0.  1.
         23    2    1    2    0    0  0.34294705950E+02  0.10281644602E+03  0.46565084543E+02  0.15434869893E+03  0.99538260649E+02 0.  0.
          5    1    1    2  502    0 -0.60379667070E+02 -0.77908383807E+01 -0.11993536725E+03  0.13458448527E+03  0.47000000000E+01 0.  1.
         -5    1    1    2    0  502  0.26084961121E+02 -0.95025607644E+02 -0.98214419376E+02  0.13920651378E+03  0.47000000000E+01 0.  1.
        -11    1    3    3    0    0  0.38103779909E+02  0.11298043410E+02  0.48533476754E+02  0.62729914667E+02  0.00000000000E+00 0. -1.
         11    1    3    3    0    0 -0.38090739594E+01  0.91518402615E+02 -0.19683922111E+01  0.91618784261E+02  0.00000000000E+00 0.  1.
<mgrwt>
<rscale>  0 0.16067057E+03</rscale>
<asrwt>0</asrwt>
<pdfrwt beam="1">  1        3 0.19735000E-01 0.16544540E+03</pdfrwt>
<pdfrwt beam="2">  1       -3 0.46132646E-01 0.16544540E+03</pdfrwt>
<totfact> 0.25774209E+02</totfact>
</mgrwt>
</event>
<event>
 7    1  0.1378058E-005  0.1027562E+04  0.7546771E-02  0.9278821E-01
          2   -1    0    0  501    0  0.00000000000E+00  0.00000000000E+00  0.14089021035E+04  0.14089021035E+04  0.00000000000E+00 0. -1.
         -2   -1    0    0    0  501 -0.00000000000E+00 -0.00000000000E+00 -0.18735934178E+03  0.18735934178E+03  0.00000000000E+00 0.  1.
         23    2    1    2    0    0  0.66089298695E+02  0.26671125247E+03  0.60491528539E+03  0.67064113074E+03  0.91292585418E+02 0.  0.
          5    1    1    2  502    0 -0.14803782086E+03 -0.54509201897E+00  0.62959563570E+03  0.64678299918E+03  0.47000000000E+01 0. -1.
         -5    1    1    2    0  502  0.81948522164E+02 -0.26616616045E+03 -0.12968159413E+02  0.27883731531E+03  0.47000000000E+01 0.  1.
        -11    1    3    3    0    0  0.40567985791E+02  0.25644291937E+03  0.56869642797E+03  0.62515946730E+03  0.00000000000E+00 0.  1.
         11    1    3    3    0    0  0.25521312904E+02  0.10268333092E+02  0.36218857423E+02  0.45481663446E+02  0.00000000000E+00 0. -1.
<mgrwt>
<rscale>  0 0.10275621E+04</rscale>
<asrwt>0</asrwt>
<pdfrwt beam="1">  1        2 0.21675416E+00 0.10275621E+04</pdfrwt>
<pdfrwt beam="2">  1       -2 0.28824515E-01 0.10275621E+04</pdfrwt>
<totfact> 0.15732912E+02</totfact>
</mgrwt>
</event>
<event>
 7    1  0.1378058E-005  0.1311996E+03  0.7546771E-02  0.1239539E+00
          1   -1    0    0  501    0  0.00000000000E+00  0.00000000000E+00  0.11188431824E+03  0.11188431824E+03  0.00000000000E+00 0. -1.
         -1   -1    0    0    0  501 -0.00000000000E+00 -0.00000000000E+00 -0.12027563378E+03  0.12027563378E+03  0.00000000000E+00 0.  1.
         23    2    1    2    0    0 -0.38372258648E+02  0.10739948641E+02  0.11906519313E+02  0.99399505165E+02  0.90281336357E+02 0.  0.
          5    1    1    2  502    0  0.22867719686E+02 -0.47465602754E+02  0.35733351729E+02  0.63834774803E+02  0.47000000000E+01 0.  1.
         -5    1    1    2    0  502  0.15504538962E+02  0.36725654113E+02 -0.56031186585E+02  0.68925672057E+02  0.47000000000E+01 0.  1.
        -11    1    3    3    0    0 -0.22869496600E+02  0.44706326550E+01  0.51441553638E+02  0.56473302292E+02  0.00000000000E+00 0. -1.
         11    1    3    3    0    0 -0.15502762048E+02  0.62693159857E+01 -0.39535034325E+02  0.42926202873E+02  0.00000000000E+00 0.  1.
<mgrwt>
<rscale>  0 0.12218302E+03</rscale>
<asrwt>0</asrwt>
<pdfrwt beam="1">  1        1 0.17212972E-01 0.13119960E+03</pdfrwt>
<pdfrwt beam="2">  1       -1 0.18503944E-01 0.13119960E+03</pdfrwt>
<totfact> 0.67311203E+03</totfact>
</mgrwt>
</event>
<event>
 7    1  0.1378058E-005  0.1417868E+03  0.7546771E-02  0.1223487E+00
         -2   -1    0    0    0  501 -0.00000000000E+00  0.00000000000E+00  0.27664421697E+02  0.27664421697E+02  0.00000000000E+00 0.  1.
          2   -1    0    0  501    0  0.00000000000E+00 -0.00000000000E+00 -0.82254914815E+03  0.82254914815E+03  0.00000000000E+00 0. -1.
         23    2    1    2    0    0  0.63279406411E+02 -0.21831480195E+02 -0.59664010447E+03  0.60648334643E+03  0.85800573565E+02 0.  0.
          5    1    1    2  502    0  0.10750748348E+02  0.50212160581E+02 -0.35391034122E+02  0.62541625790E+02  0.47000000000E+01 0. -1.
         -5    1    1    2    0  502 -0.74030154759E+02 -0.28380680386E+02 -0.16285358786E+03  0.18118859763E+03  0.47000000000E+01 0. -1.
        -11    1    3    3    0    0  0.79706153160E+02  0.92238191849E+00 -0.47550221695E+03  0.48213720035E+03  0.00000000000E+00 0.  1.
         11    1    3    3    0    0 -0.16426746749E+02 -0.22753862114E+02 -0.12113788753E+03  0.12434614608E+03  0.00000000000E+00 0. -1.
<mgrwt>
<rscale>  0 0.13271129E+03</rscale>
<asrwt>0</asrwt>
<pdfrwt beam="2">  1        2 0.12654602E+00 0.14178678E+03</pdfrwt>
<pdfrwt beam="1">  1       -2 0.42560651E-02 0.14178678E+03</pdfrwt>
<totfact> 0.82720264E+03</totfact>
</mgrwt>
</event>
<event>
 7    1  0.1378058E-005  0.1641915E+03  0.7546771E-02  0.1190937E+00
          2   -1    0    0  501    0  0.00000000000E+00  0.00000000000E+00  0.28830502090E+03  0.28830502090E+03  0.00000000000E+00 0. -1.
         -2   -1    0    0    0  501 -0.00000000000E+00 -0.00000000000E+00 -0.81250540152E+02  0.81250540152E+02  0.00000000000E+00 0.  1.
         23    2    1    2    0    0 -0.88005641001E+02 -0.59887933671E+02  0.11061015099E+03  0.17913406061E+03  0.92319276000E+02 0.  0.
          5    1    1    2  502    0  0.70824573347E+02  0.98641618409E+02  0.70255286896E+02  0.14037159402E+03  0.47000000000E+01 0.  1.
         -5    1    1    2    0  502  0.17181067654E+02 -0.38753684738E+02  0.26189042869E+02  0.50049906422E+02  0.47000000000E+01 0.  1.
        -11    1    3    3    0    0  0.10499412329E+02  0.13483136617E+02  0.21097474823E+02  0.27150250020E+02  0.00000000000E+00 0. -1.
         11    1    3    3    0    0 -0.98505053330E+02 -0.73371070288E+02  0.89512676163E+02  0.15198381059E+03  0.00000000000E+00 0.  1.
<mgrwt>
<rscale>  0 0.15803201E+03</rscale>
<asrwt>0</asrwt>
<pdfrwt beam="1">  1        2 0.44354618E-01 0.16419147E+03</pdfrwt>
<pdfrwt beam="2">  1       -2 0.12500083E-01 0.16419147E+03</pdfrwt>
<totfact> 0.51151486E+03</totfact>
</mgrwt>
</event>
<event>
 7    1  0.1378058E-005  0.1499008E+03  0.7546771E-02  0.1209542E+00
          1   -1    0    0  501    0  0.00000000000E+00  0.00000000000E+00  0.21218411782E+03  0.21218411782E+03  0.00000000000E+00 0. -1.
         -1   -1    0    0    0  501 -0.00000000000E+00 -0.00000000000E+00 -0.92262431449E+02  0.92262431449E+02  0.00000000000E+00 0.  1.
         23    2    1    2    0    0  0.51089277534E+01  0.82576298032E+02  0.22483348800E+02  0.12566045131E+03  0.91870027271E+02 0.  0.
          5    1    1    2  502    0  0.37049726493E+02  0.12690799001E+02  0.51402720780E+02  0.64792502005E+02  0.47000000000E+01 0. -1.
         -5    1    1    2    0  502 -0.42158654247E+02 -0.95267097033E+02  0.46035616789E+02  0.11399359595E+03  0.47000000000E+01 0. -1.
        -11    1    3    3    0    0  0.22435993107E+02  0.45104780074E+02  0.53904033935E+02  0.73779806497E+02  0.00000000000E+00 0. -1.
         11    1    3    3    0    0 -0.17327065354E+02  0.37471517958E+02 -0.31420685135E+02  0.51880644813E+02  0.00000000000E+00 0.  1.
<mgrwt>
<rscale>  0 0.14285197E+03</rscale>
<asrwt>0</asrwt>
<pdfrwt beam="1">  1        1 0.32643710E-01 0.14990076E+03</pdfrwt>
<pdfrwt beam="2">  1       -1 0.14194220E-01 0.14990076E+03</pdfrwt>
<totfact> 0.46028527E+03</totfact>
</mgrwt>
</event>
<event>
 7    1  0.1378058E-005  0.1137692E+03  0.7546771E-02  0.1262661E+00
         -2   -1    0    0    0  501 -0.00000000000E+00  0.00000000000E+00  0.14655395575E+03  0.14655395575E+03  0.00000000000E+00 0.  1.
          2   -1    0    0  501    0  0.00000000000E+00 -0.00000000000E+00 -0.12629338622E+03  0.12629338622E+03  0.00000000000E+00 0. -1.
         23    2    1    2    0    0 -0.26814707370E+02  0.12992789567E+00 -0.77428326979E+02  0.12289218825E+03  0.91587655831E+02 0.  0.
          5    1    1    2  502    0 -0.24500070714E+02  0.10553387847E+02 -0.10969217880E+02  0.29223983317E+02  0.47000000000E+01 0. -1.
         -5    1    1    2    0  502  0.51314778084E+02 -0.10683315743E+02  0.10865811439E+03  0.12073117041E+03  0.47000000000E+01 0.  1.
        -11    1    3    3    0    0  0.19306978075E+01  0.31176219117E+02 -0.74143335363E+02  0.80454449294E+02  0.00000000000E+00 0. -1.
         11    1    3    3    0    0 -0.28745405177E+02 -0.31046291221E+02 -0.32849916154E+01  0.42437738952E+02  0.00000000000E+00 0.  1.
<mgrwt>
<rscale>  0 0.10887858E+03</rscale>
<asrwt>0</asrwt>
<pdfrwt beam="2">  1        2 0.19429752E-01 0.11376919E+03</pdfrwt>
<pdfrwt beam="1">  1       -2 0.22546762E-01 0.11376919E+03</pdfrwt>
<totfact> 0.46257961E+03</totfact>
</mgrwt>
</event>
<event>
 7    1  0.1378058E-005  0.2065396E+03  0.7546771E-02  0.1148259E+00
          4   -1    0    0  501    0  0.00000000000E+00  0.00000000000E+00  0.11250814356E+04  0.11250814356E+04  0.00000000000E+00 0. -1.
         -4   -1    0    0    0  501 -0.00000000000E+00 -0.00000000000E+00 -0.34675499007E+02  0.34675499007E+02  0.00000000000E+00 0.  1.
         23    2    1    2    0    0 -0.15539023100E+03  0.53726133377E+02  0.54592813964E+03  0.57742140994E+03  0.91352776146E+02 0.  0.
          5    1    1    2  502    0  0.86653103840E+02 -0.38224348770E+02  0.12470049618E+03  0.15665939165E+03  0.47000000000E+01 0.  1.
         -5    1    1    2    0  502  0.68737127162E+02 -0.15501784607E+02  0.41977730079E+03  0.42567613304E+03  0.47000000000E+01 0.  1.
        -11    1    3    3    0    0 -0.49899473717E+02  0.34187552752E+02  0.33880142256E+03  0.34415861194E+03  0.00000000000E+00 0. -1.
         11    1    3    3    0    0 -0.10549075728E+03  0.19538580625E+02  0.20712671708E+03  0.23326279800E+03  0.00000000000E+00 0.  1.
<mgrwt>
<rscale>  0 0.20176416E+03</rscale>
<asrwt>0</asrwt>
<pdfrwt beam="1">  1        4 0.17308942E+00 0.20653957E+03</pdfrwt>
<pdfrwt beam="2">  1       -4 0.53346930E-02 0.20653957E+03</pdfrwt>
<totfact> 0.83543278E+01</totfact>
</mgrwt>
</event>
<event>
 7    1  0.1378058E-005  0.1314774E+03  0.7546771E-02  0.1238249E+00
         -3   -1    0    0    0  501 -0.00000000000E+00  0.00000000000E+00  0.54402175866E+02  0.54402175866E+02  0.00000000000E+00 0.  1.
          3   -1    0    0  501    0  0.00000000000E+00 -0.00000000000E+00 -0.25219490476E+03  0.25219490476E+03  0.00000000000E+00 0. -1.
         23    2    1    2    0    0 -0.86763866773E+01  0.39836233337E+02 -0.65604804488E+02  0.12015689600E+03  0.92040665540E+02 0.  0.
          5    1    1    2  502    0  0.12222383086E+02  0.27555880555E+02 -0.11164867152E+03  0.11574207988E+03  0.47000000000E+01 0.  1.
         -5    1    1    2    0  502 -0.35459964087E+01 -0.67392113892E+02 -0.20539252883E+02  0.70698104744E+02  0.47000000000E+01 0.  1.
        -11    1    3    3    0    0 -0.49519198208E+02  0.17851884294E+02 -0.45599080270E+02  0.69642780570E+02  0.00000000000E+00 0. -1.
         11    1    3    3    0    0  0.40842811531E+02  0.21984349043E+02 -0.20005724217E+02  0.50514115434E+02  0.00000000000E+00 0.  1.
<mgrwt>
<rscale>  0 0.12298699E+03</rscale>
<asrwt>0</asrwt>
<pdfrwt beam="2">  1        3 0.38799216E-01 0.13147736E+03</pdfrwt>
<pdfrwt beam="1">  1       -3 0.83695656E-02 0.13147736E+03</pdfrwt>
<totfact> 0.14924796E+03</totfact>
</mgrwt>
</event>
<event>
 7    1  0.1378058E-005  0.2214974E+03  0.7546771E-02  0.1132772E+00
          1   -1    0    0  501    0  0.00000000000E+00  0.00000000000E+00  0.69558458753E+03  0.69558458753E+03  0.00000000000E+00 0. -1.
         -1   -1    0    0    0  501 -0.00000000000E+00 -0.00000000000E+00 -0.17633053054E+02  0.17633053054E+02  0.00000000000E+00 0.  1.
         23    2    1    2    0    0 -0.21560889412E+02  0.10541855446E+02  0.29689140165E+03  0.31146275782E+03  0.91041432719E+02 0.  0.
          5    1    1    2  502    0  0.55201520579E+02 -0.44281918350E+02  0.15183068811E+03  0.16757906796E+03  0.47000000000E+01 0. -1.
         -5    1    1    2    0  502 -0.33640631167E+02  0.33740062904E+02  0.22922944472E+03  0.23417581480E+03  0.47000000000E+01 0. -1.
        -11    1    3    3    0    0 -0.18993666304E+02  0.47304253743E+02  0.22469752891E+03  0.23040709902E+03  0.00000000000E+00 0. -1.
         11    1    3    3    0    0 -0.25672231082E+01 -0.36762398297E+02  0.72193872735E+02  0.81055658800E+02  0.00000000000E+00 0.  1.
<mgrwt>
<rscale>  0 0.22149745E+03</rscale>
<asrwt>0</asrwt>
<pdfrwt beam="1">  1        1 0.10701299E+00 0.22149745E+03</pdfrwt>
<pdfrwt beam="2">  1       -1 0.27127779E-02 0.22149745E+03</pdfrwt>
<totfact> 0.12272101E+04</totfact>
</mgrwt>
</event>
<event>
 7    1  0.2692008E-005  0.2685907E+03  0.7546771E-02  0.1104113E+00
          2   -1    0    0  501    0  0.00000000000E+00  0.00000000000E+00  0.11092681573E+04  0.11092681573E+04  0.00000000000E+00 0. -1.
         -2   -1    0    0    0  501 -0.00000000000E+00 -0.00000000000E+00 -0.10074214299E+03  0.10074214299E+03  0.00000000000E+00 0.  1.
         23    2    1    2    0    0 -0.23321748862E+03 -0.46106764952E+02  0.87242155117E+03  0.90890336186E+03  0.92031122412E+02 0.  0.
          5    1    1    2  502    0  0.75410681871E+02 -0.28171831826E+02  0.89589711820E+02  0.12053559438E+03  0.47000000000E+01 0.  1.
         -5    1    1    2    0  502  0.15780680674E+03  0.74278596778E+02  0.46514751303E+02  0.18057134402E+03  0.47000000000E+01 0.  1.
        -11    1    3    3    0    0 -0.12466134785E+03  0.21044402961E+02  0.39701571586E+03  0.41665908989E+03  0.00000000000E+00 0.  1.
         11    1    3    3    0    0 -0.10855614076E+03 -0.67151167913E+02  0.47540583531E+03  0.49224427198E+03  0.00000000000E+00 0. -1.
<mgrwt>
<rscale>  0 0.26510668E+03</rscale>
<asrwt>0</asrwt>
<pdfrwt beam="1">  1        2 0.17065663E+00 0.26859070E+03</pdfrwt>
<pdfrwt beam="2">  1       -2 0.15498792E-01 0.26859070E+03</pdfrwt>
<totfact> 0.73368781E+02</totfact>
</mgrwt>
</event>
<event>
 7    1  0.1378058E-005  0.1650989E+03  0.7546771E-02  0.1189764E+00
         -1   -1    0    0    0  501 -0.00000000000E+00  0.00000000000E+00  0.11229529079E+04  0.11229529079E+04  0.00000000000E+00 0.  1.
          1   -1    0    0  501    0  0.00000000000E+00 -0.00000000000E+00 -0.21046424741E+02  0.21046424741E+02  0.00000000000E+00 0. -1.
         23    2    1    2    0    0  0.84796852302E+02 -0.66650101738E+02  0.52710897742E+03  0.54596101974E+03  0.92719031399E+02 0.  0.
          5    1    1    2  502    0  0.79541591471E+01  0.41853261573E+02  0.56580272287E+02  0.70981556506E+02  0.47000000000E+01 0. -1.
         -5    1    1    2    0  502 -0.92751011449E+02  0.24796840165E+02  0.51821723342E+03  0.52705675635E+03  0.47000000000E+01 0. -1.
        -11    1    3    3    0    0  0.81775788502E+02 -0.35770976678E+02  0.48771829364E+03  0.49581849129E+03  0.00000000000E+00 0.  1.
         11    1    3    3    0    0  0.30210637992E+01 -0.30879125060E+02  0.39390683778E+02  0.50142528451E+02  0.00000000000E+00 0. -1.
<mgrwt>
<rscale>  0 0.15905835E+03</rscale>
<asrwt>0</asrwt>
<pdfrwt beam="2">  1        1 0.32379124E-02 0.16509891E+03</pdfrwt>
<pdfrwt beam="1">  1       -1 0.17276194E+00 0.16509891E+03</pdfrwt>
<totfact> 0.77979384E+02</totfact>
</mgrwt>
</event>
<event>
 7    1  0.1378058E-005  0.1995361E+03  0.7546771E-02  0.1154076E+00
          2   -1    0    0  501    0  0.00000000000E+00  0.00000000000E+00  0.52939153823E+03  0.52939153823E+03  0.00000000000E+00 0. -1.
         -2   -1    0    0    0  501 -0.00000000000E+00 -0.00000000000E+00 -0.84992510706E+02  0.84992510706E+02  0.00000000000E+00 0.  1.
         23    2    1    2    0    0  0.14144048155E+03  0.64690751948E+02  0.34835294027E+03  0.39293539213E+03  0.94117735763E+02 0.  0.
          5    1    1    2  502    0 -0.12570218944E+03 -0.71417103685E+02  0.23233099227E+02  0.14650361780E+03  0.47000000000E+01 0.  1.
         -5    1    1    2    0  502 -0.15738292108E+02  0.67263517372E+01  0.72812988022E+02  0.74945039001E+02  0.47000000000E+01 0.  1.
        -11    1    3    3    0    0  0.15529631150E+03  0.58990994640E+02  0.30895682639E+03  0.35078654818E+03  0.00000000000E+00 0.  1.
         11    1    3    3    0    0 -0.13855829952E+02  0.56997573075E+01  0.39396113884E+02  0.42148843948E+02  0.00000000000E+00 0. -1.
<mgrwt>
<rscale>  0 0.19494406E+03</rscale>
<asrwt>0</asrwt>
<pdfrwt beam="1">  1        2 0.81444850E-01 0.19953610E+03</pdfrwt>
<pdfrwt beam="2">  1       -2 0.13075771E-01 0.19953610E+03</pdfrwt>
<totfact> 0.24806749E+03</totfact>
</mgrwt>
</event>
<event>
 7    1  0.1378058E-005  0.1272900E+03  0.7546771E-02  0.1246083E+00
          2   -1    0    0  501    0  0.00000000000E+00  0.00000000000E+00  0.50301379774E+03  0.50301379774E+03  0.00000000000E+00 0. -1.
         -2   -1    0    0    0  501 -0.00000000000E+00 -0.00000000000E+00 -0.26480210239E+02  0.26480210239E+02  0.00000000000E+00 0.  1.
         23    2    1    2    0    0  0.11602325539E+02 -0.21055040055E+02  0.27782452296E+03  0.29351089386E+03  0.91565553495E+02 0.  0.
          5    1    1    2  502    0  0.13840729362E+02 -0.49442903709E+02  0.69499377569E+02  0.86535657384E+02  0.47000000000E+01 0. -1.
         -5    1    1    2    0  502 -0.25443054900E+02  0.70497943764E+02  0.12920968698E+03  0.14944745674E+03  0.47000000000E+01 0. -1.
        -11    1    3    3    0    0 -0.35866172804E+02  0.15830515711E+01  0.64693878030E+02  0.73987743974E+02  0.00000000000E+00 0.  1.
         11    1    3    3    0    0  0.47468498342E+02 -0.22638091626E+02  0.21313064493E+03  0.21952314988E+03  0.00000000000E+00 0. -1.
<mgrwt>
<rscale>  0 0.11820813E+03</rscale>
<asrwt>0</asrwt>
<pdfrwt beam="1">  1        2 0.77386731E-01 0.12728998E+03</pdfrwt>
<pdfrwt beam="2">  1       -2 0.40738789E-02 0.12728998E+03</pdfrwt>
<totfact> 0.15538012E+04</totfact>
</mgrwt>
</event>
<event>
 7    1  0.1378058E-005  0.1654093E+03  0.7546771E-02  0.1188589E+00
          2   -1    0    0  501    0  0.00000000000E+00  0.00000000000E+00  0.10070062536E+03  0.10070062536E+03  0.00000000000E+00 0. -1.
         -2   -1    0    0    0  501 -0.00000000000E+00 -0.00000000000E+00 -0.24014980640E+03  0.24014980640E+03  0.00000000000E+00 0.  1.
         23    2    1    2    0    0  0.39441519870E+02 -0.10089682235E+03 -0.56019803828E+02  0.15559194229E+03  0.96616933478E+02 0.  0.
          5    1    1    2  502    0 -0.38812097984E+02  0.66378107240E+02 -0.11488154150E+03  0.13831952374E+03  0.47000000000E+01 0.  1.
         -5    1    1    2    0  502 -0.62942188657E+00  0.34518715110E+02  0.31452164293E+02  0.46938965726E+02  0.47000000000E+01 0.  1.
        -11    1    3    3    0    0 -0.27411362501E+02 -0.46764195198E+01 -0.13881058129E+02  0.31079502384E+02  0.00000000000E+00 0. -1.
         11    1    3    3    0    0  0.66852882371E+02 -0.96220402830E+02 -0.42138745699E+02  0.12451243991E+03  0.00000000000E+00 0.  1.
<mgrwt>
<rscale>  0 0.16009571E+03</rscale>
<asrwt>0</asrwt>
<pdfrwt beam="1">  1        2 0.15492404E-01 0.16540933E+03</pdfrwt>
<pdfrwt beam="2">  1       -2 0.36946124E-01 0.16540933E+03</pdfrwt>
<totfact> 0.25350169E+03</totfact>
</mgrwt>
</event>
<event>
 7    1  0.1378058E-005  0.1258495E+03  0.7546771E-02  0.1248532E+00
         -2   -1    0    0    0  501 -0.00000000000E+00  0.00000000000E+00  0.59795194870E+02  0.59795194870E+02  0.00000000000E+00 0.  1.
          2   -1    0    0  501    0  0.00000000000E+00 -0.00000000000E+00 -0.20099861928E+03  0.20099861928E+03  0.00000000000E+00 0. -1.
         23    2    1    2    0    0 -0.10941878750E+02 -0.96646478339E+01 -0.64910332765E+02  0.11362475402E+03  0.92109192251E+02 0.  0.
          5    1    1    2  502    0  0.34413201967E+02 -0.30194879048E+02 -0.87924680347E+02  0.99241315008E+02  0.47000000000E+01 0.  1.
         -5    1    1    2    0  502 -0.23471323216E+02  0.39859526882E+02  0.11631588707E+02  0.47927745123E+02  0.47000000000E+01 0.  1.
        -11    1    3    3    0    0 -0.39317704407E+02  0.25777901898E+02 -0.25395199455E+02  0.53434990984E+02  0.00000000000E+00 0. -1.
         11    1    3    3    0    0  0.28375825657E+02 -0.35442549732E+02 -0.39515133310E+02  0.60189763031E+02  0.00000000000E+00 0.  1.
<mgrwt>
<rscale>  0 0.11676462E+03</rscale>
<asrwt>0</asrwt>
<pdfrwt beam="2">  1        2 0.30922864E-01 0.12584950E+03</pdfrwt>
<pdfrwt beam="1">  1       -2 0.91992608E-02 0.12584950E+03</pdfrwt>
<totfact> 0.12003975E+04</totfact>
</mgrwt>
</event>
<event>
 7    1  0.1378058E-005  0.1404679E+03  0.7546771E-02  0.1225278E+00
          3   -1    0    0  501    0  0.00000000000E+00  0.00000000000E+00  0.80573198300E+03  0.80573198300E+03  0.00000000000E+00 0. -1.
         -3   -1    0    0    0  501 -0.00000000000E+00 -0.00000000000E+00 -0.22124867140E+02  0.22124867140E+02  0.00000000000E+00 0.  1.
         23    2    1    2    0    0  0.34248332259E+02 -0.54161067398E+02  0.49848052500E+03  0.51000718007E+03  0.86707095656E+02 0.  0.
          5    1    1    2  502    0  0.14362828150E+00  0.17508151922E+02  0.26147491471E+03  0.26210260783E+03  0.47000000000E+01 0. -1.
         -5    1    1    2    0  502 -0.34391960541E+02  0.36652915476E+02  0.23651676155E+02  0.55747062234E+02  0.47000000000E+01 0. -1.
        -11    1    3    3    0    0  0.62161364818E+02 -0.44247643699E+02  0.39815570707E+03  0.40540085881E+03  0.00000000000E+00 0. -1.
         11    1    3    3    0    0 -0.27913032559E+02 -0.99134236996E+01  0.10032481793E+03  0.10460632126E+03  0.00000000000E+00 0.  1.
<mgrwt>
<rscale>  0 0.13147847E+03</rscale>
<asrwt>0</asrwt>
<pdfrwt beam="1">  1        3 0.12395874E+00 0.14046793E+03</pdfrwt>
<pdfrwt beam="2">  1       -3 0.34038263E-02 0.14046793E+03</pdfrwt>
<totfact> 0.53554339E+02</totfact>
</mgrwt>
</event>
<event>
 7    1  0.1378058E-005  0.1250871E+03  0.7546771E-02  0.1250048E+00
         -1   -1    0    0    0  501 -0.00000000000E+00  0.00000000000E+00  0.19257443202E+03  0.19257443202E+03  0.00000000000E+00 0. -1.
          1   -1    0    0  501    0  0.00000000000E+00 -0.00000000000E+00 -0.62467282367E+02  0.62467282367E+02  0.00000000000E+00 0.  1.
         23    2    1    2    0    0  0.32127093458E+01  0.33796866450E+01  0.37829353480E+02  0.99600468550E+02  0.92018745740E+02 0.  0.
          5    1    1    2  502    0 -0.29804204296E+02 -0.25891548570E+02 -0.15042587736E+02  0.42509202849E+02  0.47000000000E+01 0.  1.
         -5    1    1    2    0  502  0.26591494951E+02  0.22511861925E+02  0.10732038391E+03  0.11293204299E+03  0.47000000000E+01 0.  1.
        -11    1    3    3    0    0  0.40949255793E+02  0.70103337615E+01 -0.56353361900E+01  0.41925449830E+02  0.00000000000E+00 0.  1.
         11    1    3    3    0    0 -0.37736546447E+02 -0.36306471166E+01  0.43464689670E+02  0.57675018720E+02  0.00000000000E+00 0. -1.
<mgrwt>
<rscale>  0 0.11588248E+03</rscale>
<asrwt>0</asrwt>
<pdfrwt beam="2">  1        1 0.96103512E-02 0.12508713E+03</pdfrwt>
<pdfrwt beam="1">  1       -1 0.29626835E-01 0.12508713E+03</pdfrwt>
<totfact> 0.66591367E+03</totfact>
</mgrwt>
</event>
<event>
 7    1  0.1378058E-005  0.1654118E+03  0.7546771E-02  0.1189781E+00
          2   -1    0    0  501    0  0.00000000000E+00  0.00000000000E+00  0.33018553300E+03  0.33018553300E+03  0.00000000000E+00 0. -1.
         -2   -1    0    0    0  501 -0.00000000000E+00 -0.00000000000E+00 -0.71442766058E+02  0.71442766058E+02  0.00000000000E+00 0.  1.
         23    2    1    2    0    0 -0.10427638412E+03  0.29363338599E+02  0.12938691986E+03  0.19164257856E+03  0.90830242474E+02 0.  0.
          5    1    1    2  502    0  0.11141639898E+03 -0.44797869424E+02  0.14364113848E+03  0.18728408830E+03  0.47000000000E+01 0.  1.
         -5    1    1    2    0  502 -0.71400148582E+01  0.15434530826E+02 -0.14285291400E+02  0.22701632196E+02  0.47000000000E+01 0.  1.
        -11    1    3    3    0    0 -0.72848324499E+02  0.22579737587E+02  0.13859873820E+03  0.15819713386E+03  0.00000000000E+00 0. -1.
         11    1    3    3    0    0 -0.31428059622E+02  0.67836010115E+01 -0.92118183358E+01  0.33445444702E+02  0.00000000000E+00 0.  1.
<mgrwt>
<rscale>  0 0.15904329E+03</rscale>
<asrwt>0</asrwt>
<pdfrwt beam="1">  1        2 0.50797773E-01 0.16541181E+03</pdfrwt>
<pdfrwt beam="2">  1       -2 0.10991195E-01 0.16541181E+03</pdfrwt>
<totfact> 0.54404413E+03</totfact>
</mgrwt>
</event>
<event>
 7    1  0.1378058E-005  0.1421547E+03  0.7546771E-02  0.1221221E+00
         -1   -1    0    0    0  501 -0.00000000000E+00  0.00000000000E+00  0.11111002109E+03  0.11111002109E+03  0.00000000000E+00 0.  1.
          1   -1    0    0  501    0  0.00000000000E+00 -0.00000000000E+00 -0.14675170881E+03  0.14675170881E+03  0.00000000000E+00 0. -1.
         23    2    1    2    0    0 -0.58281373938E+02 -0.34430733777E+02 -0.16949524030E+02  0.11448341255E+03  0.90757762245E+02 0.  0.
          5    1    1    2  502    0  0.35049792080E+02 -0.26395529725E+02 -0.53537187849E+02  0.69379625231E+02  0.47000000000E+01 0.  1.
         -5    1    1    2    0  502  0.23231581858E+02  0.60826263503E+02  0.34845024157E+02  0.73998692122E+02  0.47000000000E+01 0.  1.
        -11    1    3    3    0    0 -0.61724642417E+02  0.11181008913E+02 -0.25915152529E+02  0.67871507810E+02  0.00000000000E+00 0. -1.
         11    1    3    3    0    0  0.34432684786E+01 -0.45611742691E+02  0.89656284995E+01  0.46611904740E+02  0.00000000000E+00 0.  1.
<mgrwt>
<rscale>  0 0.13429297E+03</rscale>
<asrwt>0</asrwt>
<pdfrwt beam="2">  1        1 0.22577186E-01 0.14215465E+03</pdfrwt>
<pdfrwt beam="1">  1       -1 0.17093849E-01 0.14215465E+03</pdfrwt>
<totfact> 0.54345383E+03</totfact>
</mgrwt>
</event>
<event>
 7    1  0.1378058E-005  0.1325677E+03  0.7546771E-02  0.1236333E+00
         -2   -1    0    0    0  501 -0.00000000000E+00  0.00000000000E+00  0.29030906814E+02  0.29030906814E+02  0.00000000000E+00 0.  1.
          2   -1    0    0  501    0  0.00000000000E+00 -0.00000000000E+00 -0.66150341279E+03  0.66150341279E+03  0.00000000000E+00 0. -1.
         23    2    1    2    0    0  0.15084353495E+02  0.41479928750E+02 -0.46937843050E+03  0.48035852631E+03  0.92087352945E+02 0.  0.
          5    1    1    2  502    0 -0.63992497031E+02 -0.39970109144E+02 -0.13168620315E+03  0.15184200803E+03  0.47000000000E+01 0.  1.
         -5    1    1    2    0  502  0.48908143536E+02 -0.15098196058E+01 -0.31407872323E+02  0.58333785264E+02  0.47000000000E+01 0.  1.
        -11    1    3    3    0    0  0.39268938064E+02 -0.13026510809E+02 -0.22800421199E+03  0.23172755590E+03  0.00000000000E+00 0. -1.
         11    1    3    3    0    0 -0.24184584569E+02  0.54506439559E+02 -0.24137421851E+03  0.24863097041E+03  0.00000000000E+00 0.  1.
<mgrwt>
<rscale>  0 0.12419508E+03</rscale>
<asrwt>0</asrwt>
<pdfrwt beam="2">  1        2 0.10176976E+00 0.13256767E+03</pdfrwt>
<pdfrwt beam="1">  1       -2 0.44662933E-02 0.13256767E+03</pdfrwt>
<totfact> 0.99799571E+03</totfact>
</mgrwt>
</event>
<event>
 7    1  0.1378058E-005  0.1279406E+03  0.7546771E-02  0.1245689E+00
          2   -1    0    0  501    0  0.00000000000E+00  0.00000000000E+00  0.35508324616E+03  0.35508324616E+03  0.00000000000E+00 0. -1.
         -2   -1    0    0    0  501 -0.00000000000E+00 -0.00000000000E+00 -0.45665751031E+02  0.45665751031E+02  0.00000000000E+00 0.  1.
         23    2    1    2    0    0 -0.27144108267E+02 -0.26588047232E+01  0.23416610749E+03  0.25231863024E+03  0.89928045761E+02 0.  0.
          5    1    1    2  502    0  0.22171095587E+02  0.62257571200E+02  0.27414287888E+02  0.71702132685E+02  0.47000000000E+01 0.  1.
         -5    1    1    2    0  502  0.49730126796E+01 -0.59598766476E+02  0.47837099756E+02  0.76728234267E+02  0.47000000000E+01 0.  1.
        -11    1    3    3    0    0 -0.67766266380E+01 -0.44285003161E+02  0.84493639285E+02  0.95636077153E+02  0.00000000000E+00 0.  1.
         11    1    3    3    0    0 -0.20367481629E+02  0.41626198438E+02  0.14967246820E+03  0.15668255309E+03  0.00000000000E+00 0. -1.
<mgrwt>
<rscale>  0 0.11844238E+03</rscale>
<asrwt>0</asrwt>
<pdfrwt beam="1">  1        2 0.54628190E-01 0.12794062E+03</pdfrwt>
<pdfrwt beam="2">  1       -2 0.70255004E-02 0.12794062E+03</pdfrwt>
<totfact> 0.99493335E+03</totfact>
</mgrwt>
</event>
<event>
 7    1  0.1378058E-005  0.1273848E+03  0.7546771E-02  0.1244978E+00
          1   -1    0    0  501    0  0.00000000000E+00  0.00000000000E+00  0.26807841719E+03  0.26807841719E+03  0.00000000000E+00 0. -1.
         -1   -1    0    0    0  501 -0.00000000000E+00 -0.00000000000E+00 -0.70875589031E+02  0.70875589031E+02  0.00000000000E+00 0.  1.
         23    2    1    2    0    0 -0.13617443509E+02  0.20417927671E+02  0.18785342052E+03  0.21122658015E+03  0.93410031716E+02 0.  0.
          5    1    1    2  502    0  0.49428699730E+02 -0.11621117718E+02  0.50848351330E+02  0.72013134683E+02  0.47000000000E+01 0.  1.
         -5    1    1    2    0  502 -0.35811256221E+02 -0.87968099532E+01 -0.41498943686E+02  0.55714291385E+02  0.47000000000E+01 0.  1.
        -11    1    3    3    0    0  0.28775684935E+02  0.27303896828E+02  0.36527902621E+02  0.53924303383E+02  0.00000000000E+00 0.  1.
         11    1    3    3    0    0 -0.42393128444E+02 -0.68859691567E+01  0.15132551790E+03  0.15730227677E+03  0.00000000000E+00 0. -1.
<mgrwt>
<rscale>  0 0.11886674E+03</rscale>
<asrwt>0</asrwt>
<pdfrwt beam="1">  1        1 0.41242833E-01 0.12738479E+03</pdfrwt>
<pdfrwt beam="2">  1       -1 0.10903937E-01 0.12738479E+03</pdfrwt>
<totfact> 0.51336712E+03</totfact>
</mgrwt>
</event>
<event>
 7    1  0.1378058E-005  0.1522906E+03  0.7546771E-02  0.1206616E+00
         -1   -1    0    0    0  501 -0.00000000000E+00  0.00000000000E+00  0.61764333370E+02  0.61764333370E+02  0.00000000000E+00 0.  1.
          1   -1    0    0  501    0  0.00000000000E+00 -0.00000000000E+00 -0.31268121748E+03  0.31268121748E+03  0.00000000000E+00 0. -1.
         23    2    1    2    0    0 -0.75307948813E+02  0.43543430059E+02 -0.10792700569E+03  0.16554714292E+03  0.90500279095E+02 0.  0.
          5    1    1    2  502    0  0.10026416051E+03 -0.44322825031E+02 -0.14672864502E+03  0.18321790298E+03  0.47000000000E+01 0. -1.
         -5    1    1    2    0  502 -0.24956211698E+02  0.77939497204E+00  0.37387666014E+01  0.25680504951E+02  0.47000000000E+01 0. -1.
        -11    1    3    3    0    0 -0.75862070701E+02 -0.58509988785E+01 -0.67585127249E+02  0.10176953073E+03  0.00000000000E+00 0.  1.
         11    1    3    3    0    0  0.55412188812E+00  0.49394428937E+02 -0.40341878440E+02  0.63777612194E+02  0.00000000000E+00 0. -1.
<mgrwt>
<rscale>  0 0.14510796E+03</rscale>
<asrwt>0</asrwt>
<pdfrwt beam="2">  1        1 0.48104803E-01 0.15229064E+03</pdfrwt>
<pdfrwt beam="1">  1       -1 0.95022052E-02 0.15229064E+03</pdfrwt>
<totfact> 0.52911609E+03</totfact>
</mgrwt>
</event>
<event>
 7    1  0.1378058E-005  0.1700605E+03  0.7546771E-02  0.1184275E+00
          2   -1    0    0  501    0  0.00000000000E+00  0.00000000000E+00  0.95896066945E+03  0.95896066945E+03  0.00000000000E+00 0.  1.
         -2   -1    0    0    0  501 -0.00000000000E+00 -0.00000000000E+00 -0.26745262821E+02  0.26745262821E+02  0.00000000000E+00 0. -1.
         23    2    1    2    0    0  0.19090002436E+02 -0.11372019995E+03  0.50249005820E+03  0.52355396937E+03  0.91190943492E+02 0.  0.
          5    1    1    2  502    0  0.37030524881E+02  0.48288203840E+02  0.73117999851E+02  0.95243594562E+02  0.47000000000E+01 0.  1.
         -5    1    1    2    0  502 -0.56120527317E+02  0.65431996115E+02  0.35660734858E+03  0.36690836834E+03  0.47000000000E+01 0.  1.
        -11    1    3    3    0    0 -0.13521068868E+02 -0.88454668503E+02  0.43764221481E+03  0.44669649189E+03  0.00000000000E+00 0.  1.
         11    1    3    3    0    0  0.32611071305E+02 -0.25265531452E+02  0.64847843394E+02  0.76857477476E+02  0.00000000000E+00 0. -1.
<mgrwt>
<rscale>  0 0.16397991E+03</rscale>
<asrwt>0</asrwt>
<pdfrwt beam="1">  1        2 0.14753238E+00 0.17006046E+03</pdfrwt>
<pdfrwt beam="2">  1       -2 0.41146566E-02 0.17006046E+03</pdfrwt>
<totfact> 0.71818706E+03</totfact>
</mgrwt>
</event>
<event>
 7    1  0.1378058E-005  0.1411828E+03  0.7546771E-02  0.1222622E+00
          2   -1    0    0  501    0  0.00000000000E+00  0.00000000000E+00  0.17924432900E+03  0.17924432900E+03  0.00000000000E+00 0. -1.
         -2   -1    0    0    0  501 -0.00000000000E+00 -0.00000000000E+00 -0.94933450814E+02  0.94933450814E+02  0.00000000000E+00 0.  1.
         23    2    1    2    0    0 -0.58013622266E+02 -0.30774728217E+02  0.69988347191E+02  0.13227038181E+03  0.91018794196E+02 0.  0.
          5    1    1    2  502    0 -0.32823129330E+02 -0.53720051481E-01 -0.21371190903E+02  0.39448428428E+02  0.47000000000E+01 0. -1.
         -5    1    1    2    0  502  0.90836751596E+02  0.30828448269E+02  0.35693721897E+02  0.10245896957E+03  0.47000000000E+01 0. -1.
        -11    1    3    3    0    0  0.14601210929E+02 -0.32039307855E+02  0.41075486972E+02  0.54100907926E+02  0.00000000000E+00 0. -1.
         11    1    3    3    0    0 -0.72614833195E+02  0.12645796373E+01  0.28912860219E+02  0.78169473886E+02  0.00000000000E+00 0.  1.
<mgrwt>
<rscale>  0 0.13331224E+03</rscale>
<asrwt>0</asrwt>
<pdfrwt beam="1">  1        2 0.27576051E-01 0.14118277E+03</pdfrwt>
<pdfrwt beam="2">  1       -2 0.14605146E-01 0.14118277E+03</pdfrwt>
<totfact> 0.65686265E+03</totfact>
</mgrwt>
</event>
<event>
 7    1  0.1378058E-005  0.1499871E+03  0.7546771E-02  0.1207846E+00
          1   -1    0    0  501    0  0.00000000000E+00  0.00000000000E+00  0.49735438349E+03  0.49735438349E+03  0.00000000000E+00 0. -1.
         -1   -1    0    0    0  501 -0.00000000000E+00 -0.00000000000E+00 -0.40934398659E+02  0.40934398659E+02  0.00000000000E+00 0.  1.
         23    2    1    2    0    0  0.70727147970E+02  0.43235906959E+02  0.15035099857E+03  0.19744519903E+03  0.97506465109E+02 0.  0.
          5    1    1    2  502    0 -0.50992822601E+02 -0.77168939792E+02  0.12536039681E+03  0.15586093902E+03  0.47000000000E+01 0.  1.
         -5    1    1    2    0  502 -0.19734325369E+02  0.33933032832E+02  0.18070858946E+03  0.18498264410E+03  0.47000000000E+01 0.  1.
        -11    1    3    3    0    0 -0.19647338066E+02  0.30295094474E+02  0.51349874792E+02  0.62774360080E+02  0.00000000000E+00 0.  1.
         11    1    3    3    0    0  0.90374486036E+02  0.12940812485E+02  0.99001123778E+02  0.13467083895E+03  0.00000000000E+00 0. -1.
<mgrwt>
<rscale>  0 0.14415407E+03</rscale>
<asrwt>0</asrwt>
<pdfrwt beam="1">  1        1 0.76516054E-01 0.14998708E+03</pdfrwt>
<pdfrwt beam="2">  1       -1 0.62976002E-02 0.14998708E+03</pdfrwt>
<totfact> 0.54639696E+03</totfact>
</mgrwt>
</event>
<event>
 7    1  0.1378058E-005  0.2265485E+03  0.7546771E-02  0.1132272E+00
          2   -1    0    0  501    0  0.00000000000E+00  0.00000000000E+00  0.13399961501E+04  0.13399961501E+04  0.00000000000E+00 0. -1.
         -2   -1    0    0    0  501 -0.00000000000E+00 -0.00000000000E+00 -0.45300800584E+02  0.45300800584E+02  0.00000000000E+00 0.  1.
         23    2    1    2    0    0  0.18065055445E+03 -0.55352909482E+02  0.94985820358E+03  0.97269921322E+03  0.90634348221E+02 0.  0.
          5    1    1    2  502    0 -0.30482844897E+02  0.65876515741E+02  0.14643692866E+03  0.16350774671E+03  0.47000000000E+01 0.  1.
         -5    1    1    2    0  502 -0.15016770955E+03 -0.10523606259E+02  0.19840021731E+03  0.24908999078E+03  0.47000000000E+01 0.  1.
        -11    1    3    3    0    0  0.96658413076E+02 -0.70118886117E+02  0.65325099002E+03  0.66407557023E+03  0.00000000000E+00 0.  1.
         11    1    3    3    0    0  0.83992141374E+02  0.14765976634E+02  0.29660721356E+03  0.30862364299E+03  0.00000000000E+00 0. -1.
<mgrwt>
<rscale>  0 0.22217504E+03</rscale>
<asrwt>0</asrwt>
<pdfrwt beam="1">  1        2 0.20615322E+00 0.22654853E+03</pdfrwt>
<pdfrwt beam="2">  1       -2 0.69693549E-02 0.22654853E+03</pdfrwt>
<totfact> 0.19574002E+03</totfact>
</mgrwt>
</event>
<event>
 7    1  0.1378058E-005  0.1411325E+03  0.7546771E-02  0.1222044E+00
         -1   -1    0    0    0  501 -0.00000000000E+00  0.00000000000E+00  0.59487952769E+03  0.59487952769E+03  0.00000000000E+00 0.  1.
          1   -1    0    0  501    0  0.00000000000E+00 -0.00000000000E+00 -0.41552013231E+02  0.41552013231E+02  0.00000000000E+00 0. -1.
         23    2    1    2    0    0 -0.65029249226E+02 -0.81146476255E+01  0.71435215902E+02  0.13429752713E+03  0.92941836437E+02 0.  0.
          5    1    1    2  502    0 -0.25593677049E+02  0.33661881544E+02  0.21264693272E+03  0.21686163001E+03  0.47000000000E+01 0.  1.
         -5    1    1    2    0  502  0.90622926275E+02 -0.25547233918E+02  0.26924536583E+03  0.28527238378E+03  0.47000000000E+01 0.  1.
        -11    1    3    3    0    0 -0.65557365530E+02 -0.34691910372E+02  0.20675544037E+02  0.76998538569E+02  0.00000000000E+00 0. -1.
         11    1    3    3    0    0  0.52811630353E+00  0.26577262747E+02  0.50759671864E+02  0.57298988558E+02  0.00000000000E+00 0.  1.
<mgrwt>
<rscale>  0 0.13371557E+03</rscale>
<asrwt>0</asrwt>
<pdfrwt beam="2">  1        1 0.63926179E-02 0.14113249E+03</pdfrwt>
<pdfrwt beam="1">  1       -1 0.91519921E-01 0.14113249E+03</pdfrwt>
<totfact> 0.14199776E+03</totfact>
</mgrwt>
</event>
<event>
 7    1  0.1378058E-005  0.1337930E+03  0.7546771E-02  0.1234565E+00
          1   -1    0    0  501    0  0.00000000000E+00  0.00000000000E+00  0.41778605844E+02  0.41778605844E+02  0.00000000000E+00 0. -1.
         -1   -1    0    0    0  501 -0.00000000000E+00 -0.00000000000E+00 -0.34870545305E+03  0.34870545305E+03  0.00000000000E+00 0.  1.
         23    2    1    2    0    0  0.37940791686E+02 -0.28915839970E+02 -0.96603464154E+02  0.14121214590E+03  0.91285329539E+02 0.  0.
          5    1    1    2  502    0  0.22783792476E+02  0.33849181342E+02 -0.13582655622E+02  0.43260222039E+02  0.47000000000E+01 0. -1.
         -5    1    1    2    0  502 -0.60724584162E+02 -0.49333413720E+01 -0.19674072744E+03  0.20601169096E+03  0.47000000000E+01 0. -1.
        -11    1    3    3    0    0 -0.19561318917E+02 -0.38809607588E+02 -0.51993087818E+02  0.67765123919E+02  0.00000000000E+00 0.  1.
         11    1    3    3    0    0  0.57502110603E+02  0.98937676178E+01 -0.44610376336E+02  0.73447021984E+02  0.00000000000E+00 0. -1.
<mgrwt>
<rscale>  0 0.12532348E+03</rscale>
<asrwt>0</asrwt>
<pdfrwt beam="1">  1        1 0.64274778E-02 0.13379298E+03</pdfrwt>
<pdfrwt beam="2">  1       -1 0.53646993E-01 0.13379298E+03</pdfrwt>
<totfact> 0.40488889E+03</totfact>
</mgrwt>
</event>
<event>
 7    1  0.1378058E-005  0.1946621E+03  0.7546771E-02  0.1158813E+00
         -1   -1    0    0    0  501 -0.00000000000E+00  0.00000000000E+00  0.93443894482E+02  0.93443894482E+02  0.00000000000E+00 0.  1.
          1   -1    0    0  501    0  0.00000000000E+00 -0.00000000000E+00 -0.67420669898E+03  0.67420669898E+03  0.00000000000E+00 0. -1.
         23    2    1    2    0    0 -0.36004501234E+01 -0.14919599813E+03 -0.54139581403E+03  0.56904774260E+03  0.91834072166E+02 0.  0.
          5    1    1    2  502    0 -0.27144319931E+02  0.15835871482E+03 -0.41815170906E+02  0.16608701087E+03  0.47000000000E+01 0.  1.
         -5    1    1    2    0  502  0.30744770054E+02 -0.91627166896E+01  0.24481804352E+01  0.32515839990E+02  0.47000000000E+01 0.  1.
        -11    1    3    3    0    0 -0.26423880201E+02 -0.87515654149E+02 -0.43064516418E+03  0.44024137538E+03  0.00000000000E+00 0. -1.
         11    1    3    3    0    0  0.22823430078E+02 -0.61680343979E+02 -0.11075064985E+03  0.12880636722E+03  0.00000000000E+00 0.  1.
<mgrwt>
<rscale>  0 0.18961111E+03</rscale>
<asrwt>0</asrwt>
<pdfrwt beam="2">  1        1 0.10372411E+00 0.19466210E+03</pdfrwt>
<pdfrwt beam="1">  1       -1 0.14375983E-01 0.19466210E+03</pdfrwt>
<totfact> 0.10260467E+03</totfact>
</mgrwt>
</event>
<event>
 7    1  0.1378058E-005  0.1518471E+03  0.7546771E-02  0.1218543E+00
         -1   -1    0    0    0  501 -0.00000000000E+00  0.00000000000E+00  0.10916865003E+04  0.10916865003E+04  0.00000000000E+00 0.  1.
          1   -1    0    0  501    0  0.00000000000E+00 -0.00000000000E+00 -0.23843374530E+02  0.23843374530E+02  0.00000000000E+00 0. -1.
         23    2    1    2    0    0 -0.26594154308E+02  0.20141836590E+02  0.11770689078E+03  0.15333634319E+03  0.92434730378E+02 0.  0.
          5    1    1    2  502    0 -0.52545522734E+02 -0.31378959839E+02  0.24699958774E+03  0.25451239149E+03  0.47000000000E+01 0. -1.
         -5    1    1    2    0  502  0.79139677042E+02  0.11237123249E+02  0.70313664724E+03  0.70768114014E+03  0.47000000000E+01 0.  1.
        -11    1    3    3    0    0 -0.43428370854E+02  0.47564322373E+01  0.12247827687E+03  0.13003682304E+03  0.00000000000E+00 0.  1.
         11    1    3    3    0    0  0.16834216546E+02  0.15385404353E+02 -0.47713860848E+01  0.23299520145E+02  0.00000000000E+00 0. -1.
<mgrwt>
<rscale>  0 0.13619487E+03</rscale>
<asrwt>0</asrwt>
<pdfrwt beam="2">  1        1 0.36682123E-02 0.15184705E+03</pdfrwt>
<pdfrwt beam="1">  1       -1 0.16795173E+00 0.15184705E+03</pdfrwt>
<totfact> 0.70789922E+02</totfact>
</mgrwt>
</event>
<event>
 7    1  0.1378058E-005  0.2395555E+03  0.7546771E-02  0.1123119E+00
          4   -1    0    0  501    0  0.00000000000E+00  0.00000000000E+00  0.26109838989E+02  0.26109838989E+02  0.00000000000E+00 0. -1.
         -4   -1    0    0    0  501 -0.00000000000E+00 -0.00000000000E+00 -0.20657824914E+04  0.20657824914E+04  0.00000000000E+00 0.  1.
         23    2    1    2    0    0  0.10228289108E+03  0.17689798606E+03 -0.86700042293E+03  0.89500177518E+03  0.87084768613E+02 0.  0.
          5    1    1    2  502    0 -0.10548472008E+03 -0.18034374694E+03 -0.11716758159E+04  0.11901668794E+04  0.47000000000E+01 0.  1.
         -5    1    1    2    0  502  0.32018289981E+01  0.34457608796E+01 -0.99641361483E+00  0.67236758596E+01  0.47000000000E+01 0.  1.
        -11    1    3    3    0    0  0.47782387065E+02  0.89802786976E+02 -0.60651931566E+03  0.61499055061E+03  0.00000000000E+00 0.  1.
         11    1    3    3    0    0  0.54500504013E+02  0.87095199083E+02 -0.26048110727E+03  0.28001122457E+03  0.00000000000E+00 0. -1.
<mgrwt>
<rscale>  0 0.23507303E+03</rscale>
<asrwt>0</asrwt>
<pdfrwt beam="1">  1        4 0.40168984E-02 0.23955551E+03</pdfrwt>
<pdfrwt beam="2">  1       -4 0.31781268E+00 0.23955551E+03</pdfrwt>
<totfact> 0.17695921E+01</totfact>
</mgrwt>
</event>
<event>
 7    1  0.1378058E-005  0.1427391E+03  0.7546771E-02  0.1220290E+00
         -1   -1    0    0    0  501 -0.00000000000E+00  0.00000000000E+00  0.14726349890E+03  0.14726349890E+03  0.00000000000E+00 0.  1.
          1   -1    0    0  501    0  0.00000000000E+00 -0.00000000000E+00 -0.11206595242E+03  0.11206595242E+03  0.00000000000E+00 0. -1.
         23    2    1    2    0    0 -0.57889268581E+02 -0.37400877055E+02  0.20008350499E+02  0.11578447099E+03  0.90860974085E+02 0.  0.
          5    1    1    2  502    0  0.14836349058E+02  0.80281168399E+02  0.75823757148E+01  0.82126522357E+02  0.47000000000E+01 0.  1.
         -5    1    1    2    0  502  0.43052919523E+02 -0.42880291345E+02  0.76068202681E+01  0.61418457974E+02  0.47000000000E+01 0.  1.
        -11    1    3    3    0    0 -0.61015910217E+02 -0.24113312329E+02  0.50226469247E+02  0.82626214630E+02  0.00000000000E+00 0.  1.
         11    1    3    3    0    0  0.31266416355E+01 -0.13287564725E+02 -0.30218118748E+02  0.33158256361E+02  0.00000000000E+00 0. -1.
<mgrwt>
<rscale>  0 0.13495033E+03</rscale>
<asrwt>0</asrwt>
<pdfrwt beam="2">  1        1 0.17240916E-01 0.14273910E+03</pdfrwt>
<pdfrwt beam="1">  1       -1 0.22655923E-01 0.14273910E+03</pdfrwt>
<totfact> 0.48760226E+03</totfact>
</mgrwt>
</event>
<event>
 7    1  0.1378058E-005  0.1552292E+03  0.7546771E-02  0.1202864E+00
          2   -1    0    0  501    0  0.00000000000E+00  0.00000000000E+00  0.22030819035E+03  0.22030819035E+03  0.00000000000E+00 0. -1.
         -2   -1    0    0    0  501 -0.00000000000E+00 -0.00000000000E+00 -0.96601817562E+02  0.96601817562E+02  0.00000000000E+00 0.  1.
         23    2    1    2    0    0 -0.25303354948E+02  0.88498444081E+02  0.19596580891E+02  0.13000103934E+03  0.89688404326E+02 0.  0.
          5    1    1    2  502    0  0.55440988417E+02 -0.92440789287E+02  0.11162787241E+03  0.15524778459E+03  0.47000000000E+01 0. -1.
         -5    1    1    2    0  502 -0.30137633469E+02  0.39423452058E+01 -0.75180805105E+01  0.31661183986E+02  0.47000000000E+01 0. -1.
        -11    1    3    3    0    0 -0.17190847504E+02  0.10503851633E+03  0.27536630138E+02  0.10994035269E+03  0.00000000000E+00 0. -1.
         11    1    3    3    0    0 -0.81125074441E+01 -0.16540072245E+02 -0.79400492468E+01  0.20060686652E+02  0.00000000000E+00 0.  1.
<mgrwt>
<rscale>  0 0.14807067E+03</rscale>
<asrwt>0</asrwt>
<pdfrwt beam="1">  1        2 0.33893568E-01 0.15522923E+03</pdfrwt>
<pdfrwt beam="2">  1       -2 0.14861818E-01 0.15522923E+03</pdfrwt>
<totfact> 0.51350489E+03</totfact>
</mgrwt>
</event>
<event>
 7    1  0.1378058E-005  0.1337673E+03  0.7546771E-02  0.1234607E+00
          3   -1    0    0  501    0  0.00000000000E+00  0.00000000000E+00  0.12716652552E+03  0.12716652552E+03  0.00000000000E+00 0.  1.
         -3   -1    0    0    0  501 -0.00000000000E+00 -0.00000000000E+00 -0.17939208902E+03  0.17939208902E+03  0.00000000000E+00 0. -1.
         23    2    1    2    0    0 -0.10969408553E+02 -0.46365363939E+02  0.70686422321E+02  0.12489670040E+03  0.91282750682E+02 0.  0.
          5    1    1    2  502    0  0.20947123217E+02  0.68686824102E+02 -0.18473710831E+02  0.74296902817E+02  0.47000000000E+01 0. -1.
         -5    1    1    2    0  502 -0.99777146632E+01 -0.22321460163E+02 -0.10443827499E+03  0.10736501132E+03  0.47000000000E+01 0. -1.
        -11    1    3    3    0    0 -0.36152950700E+02 -0.57651543306E+02  0.69509992031E+02  0.97274741233E+02  0.00000000000E+00 0.  1.
         11    1    3    3    0    0  0.25183542147E+02  0.11286179367E+02  0.11764302908E+01  0.27621959163E+02  0.00000000000E+00 0. -1.
<mgrwt>
<rscale>  0 0.12529656E+03</rscale>
<asrwt>0</asrwt>
<pdfrwt beam="1">  1        3 0.19564081E-01 0.13376732E+03</pdfrwt>
<pdfrwt beam="2">  1       -3 0.27598783E-01 0.13376732E+03</pdfrwt>
<totfact> 0.67519581E+02</totfact>
</mgrwt>
</event>
<event>
 7    1  0.1378058E-005  0.1476725E+03  0.7546771E-02  0.1212904E+00
         -1   -1    0    0    0  501 -0.00000000000E+00  0.00000000000E+00  0.28561252740E+02  0.28561252740E+02  0.00000000000E+00 0.  1.
          1   -1    0    0  501    0  0.00000000000E+00 -0.00000000000E+00 -0.67310332731E+03  0.67310332731E+03  0.00000000000E+00 0. -1.
         23    2    1    2    0    0  0.78004091681E+02  0.99328223938E+01 -0.38107276513E+03  0.39963270487E+03  0.91140261120E+02 0.  0.
          5    1    1    2  502    0 -0.57804304030E+02 -0.65127900275E+02 -0.17776591158E+03  0.19800452085E+03  0.47000000000E+01 0.  1.
         -5    1    1    2    0  502 -0.20199787651E+02  0.55195077881E+02 -0.85703397856E+02  0.10402735432E+03  0.47000000000E+01 0.  1.
        -11    1    3    3    0    0  0.15710433585E+01  0.38016788022E+02 -0.14507284266E+03  0.14997957870E+03  0.00000000000E+00 0.  1.
         11    1    3    3    0    0  0.76433048323E+02 -0.28083965628E+02 -0.23599992247E+03  0.24965312618E+03  0.00000000000E+00 0. -1.
<mgrwt>
<rscale>  0 0.14031618E+03</rscale>
<asrwt>0</asrwt>
<pdfrwt beam="2">  1        1 0.10355435E+00 0.14767253E+03</pdfrwt>
<pdfrwt beam="1">  1       -1 0.43940394E-02 0.14767253E+03</pdfrwt>
<totfact> 0.61840713E+03</totfact>
</mgrwt>
</event>
<event>
 7    1  0.1378058E-005  0.1726395E+03  0.7546771E-02  0.1202787E+00
          1   -1    0    0  501    0  0.00000000000E+00  0.00000000000E+00  0.25487610012E+03  0.25487610012E+03  0.00000000000E+00 0. -1.
         -1   -1    0    0    0  501 -0.00000000000E+00 -0.00000000000E+00 -0.86325550096E+02  0.86325550096E+02  0.00000000000E+00 0.  1.
         23    2    1    2    0    0  0.82224968634E+01 -0.23692820277E+02  0.13667927894E+03  0.16564485834E+03  0.90155613333E+02 0.  0.
          5    1    1    2  502    0 -0.54441415752E+02 -0.45282481749E+02  0.54374930743E+02  0.89404105027E+02  0.47000000000E+01 0. -1.
         -5    1    1    2    0  502  0.46218918889E+02  0.68975302026E+02 -0.22503659661E+02  0.86152686847E+02  0.47000000000E+01 0.  1.
        -11    1    3    3    0    0  0.43789687332E+02 -0.35014420643E+02  0.87110562556E+02  0.10359438440E+03  0.00000000000E+00 0.  1.
         11    1    3    3    0    0 -0.35567190469E+02  0.11321600365E+02  0.49568716385E+02  0.62050473944E+02  0.00000000000E+00 0. -1.
<mgrwt>
<rscale>  0 0.14813223E+03</rscale>
<asrwt>0</asrwt>
<pdfrwt beam="1">  1        1 0.39211707E-01 0.17263954E+03</pdfrwt>
<pdfrwt beam="2">  1       -1 0.13280854E-01 0.17263954E+03</pdfrwt>
<totfact> 0.40954255E+03</totfact>
</mgrwt>
</event>
<event>
 7    1  0.1378058E-005  0.1437634E+03  0.7546771E-02  0.1218593E+00
          2   -1    0    0  501    0  0.00000000000E+00  0.00000000000E+00  0.10785463554E+03  0.10785463554E+03  0.00000000000E+00 0. -1.
         -2   -1    0    0    0  501 -0.00000000000E+00 -0.00000000000E+00 -0.16694691214E+03  0.16694691214E+03  0.00000000000E+00 0.  1.
         23    2    1    2    0    0  0.69835469213E+02 -0.12859963751E+02 -0.61524431483E+02  0.13101753111E+03  0.91312465530E+02 0.  0.
          5    1    1    2  502    0 -0.98176325229E+02 -0.99090060488E+01  0.23445981983E+02  0.10153119377E+03  0.47000000000E+01 0. -1.
         -5    1    1    2    0  502  0.28340856015E+02  0.22768969800E+02 -0.21013827104E+02  0.42252822805E+02  0.47000000000E+01 0. -1.
        -11    1    3    3    0    0  0.23326788838E+02 -0.40672800868E+02  0.27249584512E+01  0.46966383792E+02  0.00000000000E+00 0. -1.
         11    1    3    3    0    0  0.46508680375E+02  0.27812837117E+02 -0.64249389934E+02  0.84051147319E+02  0.00000000000E+00 0.  1.
<mgrwt>
<rscale>  0 0.13615849E+03</rscale>
<asrwt>0</asrwt>
<pdfrwt beam="1">  1        2 0.16593021E-01 0.14376344E+03</pdfrwt>
<pdfrwt beam="2">  1       -2 0.25684140E-01 0.14376344E+03</pdfrwt>
<totfact> 0.44873879E+03</totfact>
</mgrwt>
</event>
<event>
 7    1  0.1378058E-005  0.2211904E+03  0.7546771E-02  0.1132999E+00
          1   -1    0    0  501    0  0.00000000000E+00  0.00000000000E+00  0.83205301515E+03  0.83205301515E+03  0.00000000000E+00 0. -1.
         -1   -1    0    0    0  501 -0.00000000000E+00 -0.00000000000E+00 -0.14700137626E+02  0.14700137626E+02  0.00000000000E+00 0.  1.
         23    2    1    2    0    0 -0.98226063388E+01 -0.88686303139E+01  0.45164101748E+03  0.46004410350E+03  0.86520704452E+02 0.  0.
          5    1    1    2  502    0 -0.36399640872E+02 -0.12904270756E+02  0.30388297772E+03  0.30636319656E+03  0.47000000000E+01 0.  1.
         -5    1    1    2    0  502  0.46222247211E+02  0.21772901070E+02  0.61828882319E+02  0.80345852706E+02  0.47000000000E+01 0.  1.
        -11    1    3    3    0    0  0.28609103459E+02  0.23666638941E+02  0.19887995482E+03  0.20231615612E+03  0.00000000000E+00 0.  1.
         11    1    3    3    0    0 -0.38431709798E+02 -0.32535269255E+02  0.25276106266E+03  0.25772794738E+03  0.00000000000E+00 0. -1.
<mgrwt>
<rscale>  0 0.22119036E+03</rscale>
<asrwt>0</asrwt>
<pdfrwt beam="1">  1        1 0.12800812E+00 0.22119036E+03</pdfrwt>
<pdfrwt beam="2">  1       -1 0.22615603E-02 0.22119036E+03</pdfrwt>
<totfact> 0.12240691E+04</totfact>
</mgrwt>
</event>
<event>
 7    1  0.1378058E-005  0.1319999E+03  0.7546771E-02  0.1238455E+00
         -1   -1    0    0    0  501 -0.00000000000E+00  0.00000000000E+00  0.16215306289E+03  0.16215306289E+03  0.00000000000E+00 0.  1.
          1   -1    0    0  501    0  0.00000000000E+00 -0.00000000000E+00 -0.10012636051E+03  0.10012636051E+03  0.00000000000E+00 0. -1.
         23    2    1    2    0    0  0.22257864745E+01 -0.42274919308E+02 -0.27472587181E+02  0.10279869584E+03  0.89558393750E+02 0.  0.
          5    1    1    2  502    0 -0.30008666305E+02 -0.36525004330E+02  0.24081638200E+02  0.53259846912E+02  0.47000000000E+01 0.  1.
         -5    1    1    2    0  502  0.27782879830E+02  0.78799923638E+02  0.65417651366E+02  0.10622088066E+03  0.47000000000E+01 0.  1.
        -11    1    3    3    0    0 -0.39385531261E+02 -0.36012780798E+02 -0.28907843739E+02  0.60694348033E+02  0.00000000000E+00 0. -1.
         11    1    3    3    0    0  0.41611317736E+02 -0.62621385102E+01  0.14352565586E+01  0.42104347802E+02  0.00000000000E+00 0.  1.
<mgrwt>
<rscale>  0 0.12285831E+03</rscale>
<asrwt>0</asrwt>
<pdfrwt beam="2">  1        1 0.15404055E-01 0.13199992E+03</pdfrwt>
<pdfrwt beam="1">  1       -1 0.24946625E-01 0.13199992E+03</pdfrwt>
<totfact> 0.47934265E+03</totfact>
</mgrwt>
</event>
<event>
 7    1  0.1378058E-005  0.1623795E+03  0.7546771E-02  0.1193548E+00
         -2   -1    0    0    0  501 -0.00000000000E+00  0.00000000000E+00  0.21645381751E+02  0.21645381751E+02  0.00000000000E+00 0.  1.
          2   -1    0    0  501    0  0.00000000000E+00 -0.00000000000E+00 -0.10449440886E+04  0.10449440886E+04  0.00000000000E+00 0. -1.
         23    2    1    2    0    0 -0.79074028964E+02 -0.66995554306E+02 -0.50989330972E+03  0.52811736970E+03  0.90419370307E+02 0.  0.
          5    1    1    2  502    0 -0.29934508086E+02  0.31338600515E+02 -0.20029319872E+03  0.20498204339E+03  0.47000000000E+01 0. -1.
         -5    1    1    2    0  502  0.10900853705E+03  0.35656953791E+02 -0.31311219840E+03  0.33349005726E+03  0.47000000000E+01 0. -1.
        -11    1    3    3    0    0 -0.75314905505E+02 -0.50616392878E+01 -0.27749148155E+03  0.28757516846E+03  0.00000000000E+00 0. -1.
         11    1    3    3    0    0 -0.37591234591E+01 -0.61933915018E+02 -0.23240182817E+03  0.24054220124E+03  0.00000000000E+00 0.  1.
<mgrwt>
<rscale>  0 0.15577733E+03</rscale>
<asrwt>0</asrwt>
<pdfrwt beam="2">  1        2 0.16076062E+00 0.16237950E+03</pdfrwt>
<pdfrwt beam="1">  1       -2 0.33300590E-02 0.16237950E+03</pdfrwt>
<totfact> 0.87167145E+03</totfact>
</mgrwt>
</event>
<event>
 7    1  0.1378058E-005  0.1812389E+03  0.7546771E-02  0.1171963E+00
          2   -1    0    0  501    0  0.00000000000E+00  0.00000000000E+00  0.13440667329E+03  0.13440667329E+03  0.00000000000E+00 0. -1.
         -2   -1    0    0    0  501 -0.00000000000E+00 -0.00000000000E+00 -0.22249758459E+03  0.22249758459E+03  0.00000000000E+00 0.  1.
         23    2    1    2    0    0  0.67560433383E+02  0.11251410581E+03 -0.69413752712E+02  0.17470551941E+03  0.92086444614E+02 0.  0.
          5    1    1    2  502    0  0.90860449092E+01  0.20997016983E+02  0.10215535754E+02  0.25492706899E+02  0.47000000000E+01 0.  1.
         -5    1    1    2    0  502 -0.76646478292E+02 -0.13351112279E+03 -0.28892694342E+02  0.15670603157E+03  0.47000000000E+01 0.  1.
        -11    1    3    3    0    0  0.58892757139E+02  0.12891515485E+03 -0.62661250145E+02  0.15496420962E+03  0.00000000000E+00 0.  1.
         11    1    3    3    0    0  0.86676762435E+01 -0.16401049044E+02 -0.67525025665E+01  0.19741309787E+02  0.00000000000E+00 0. -1.
<mgrwt>
<rscale>  0 0.17576733E+03</rscale>
<asrwt>0</asrwt>
<pdfrwt beam="1">  1        2 0.20677950E-01 0.18123891E+03</pdfrwt>
<pdfrwt beam="2">  1       -2 0.34230397E-01 0.18123891E+03</pdfrwt>
<totfact> 0.21023108E+03</totfact>
</mgrwt>
</event>
<event>
 7    1  0.1378058E-005  0.1410614E+03  0.7546771E-02  0.1222629E+00
          1   -1    0    0  501    0  0.00000000000E+00  0.00000000000E+00  0.14064191081E+03  0.14064191081E+03  0.00000000000E+00 0. -1.
         -1   -1    0    0    0  501 -0.00000000000E+00 -0.00000000000E+00 -0.11456983991E+03  0.11456983991E+03  0.00000000000E+00 0.  1.
         23    2    1    2    0    0 -0.31320088567E+02  0.57388794090E+02  0.53549237616E+01  0.11263713740E+03  0.91564337367E+02 0.  0.
          5    1    1    2  502    0  0.67954588752E+02 -0.44236863847E+02  0.48429062226E+02  0.94563155212E+02  0.47000000000E+01 0.  1.
         -5    1    1    2    0  502 -0.36634500186E+02 -0.13151930244E+02 -0.27711915085E+02  0.48011458119E+02  0.47000000000E+01 0.  1.
        -11    1    3    3    0    0 -0.31062145655E+02  0.17600533352E+02 -0.39119377138E+02  0.52961885678E+02  0.00000000000E+00 0.  1.
         11    1    3    3    0    0 -0.25794291176E+00  0.39788260738E+02  0.44474300899E+02  0.59675251718E+02  0.00000000000E+00 0. -1.
<mgrwt>
<rscale>  0 0.13330723E+03</rscale>
<asrwt>0</asrwt>
<pdfrwt beam="1">  1        1 0.21637217E-01 0.14106141E+03</pdfrwt>
<pdfrwt beam="2">  1       -1 0.17626129E-01 0.14106141E+03</pdfrwt>
<totfact> 0.54599010E+03</totfact>
</mgrwt>
</event>
<event>
 7    1  0.1378058E-005  0.1137102E+03  0.7546771E-02  0.1264058E+00
         -2   -1    0    0    0  501 -0.00000000000E+00  0.00000000000E+00  0.55752462858E+02  0.55752462858E+02  0.00000000000E+00 0.  1.
          2   -1    0    0  501    0  0.00000000000E+00 -0.00000000000E+00 -0.19272929167E+03  0.19272929167E+03  0.00000000000E+00 0. -1.
         23    2    1    2    0    0 -0.35435867113E+01  0.14622744196E+02 -0.71083974242E+02  0.11705923104E+03  0.91779902614E+02 0.  0.
          5    1    1    2  502    0 -0.31504804636E+02 -0.48121711887E+02 -0.58465408690E+02  0.82149533677E+02  0.47000000000E+01 0. -1.
         -5    1    1    2    0  502  0.35048391347E+02  0.33498967690E+02 -0.74274458816E+01  0.49272989809E+02  0.47000000000E+01 0.  1.
        -11    1    3    3    0    0  0.37470795800E+02 -0.16209878669E+02 -0.23649507618E+02  0.47181775241E+02  0.00000000000E+00 0. -1.
         11    1    3    3    0    0 -0.41014382511E+02  0.30832622866E+02 -0.47434466624E+02  0.69877455803E+02  0.00000000000E+00 0.  1.
<mgrwt>
<rscale>  0 0.10813746E+03</rscale>
<asrwt>0</asrwt>
<pdfrwt beam="2">  1        2 0.29650660E-01 0.11371021E+03</pdfrwt>
<pdfrwt beam="1">  1       -2 0.85773020E-02 0.11371021E+03</pdfrwt>
<totfact> 0.13877230E+04</totfact>
</mgrwt>
</event>
<event>
 7    1  0.1378058E-005  0.1528214E+03  0.7546771E-02  0.1205747E+00
          1   -1    0    0  501    0  0.00000000000E+00  0.00000000000E+00  0.61426118347E+03  0.61426118347E+03  0.00000000000E+00 0. -1.
         -1   -1    0    0    0  501 -0.00000000000E+00 -0.00000000000E+00 -0.32336519342E+02  0.32336519342E+02  0.00000000000E+00 0.  1.
         23    2    1    2    0    0 -0.60292640198E+02  0.63988296261E+02  0.30672058934E+03  0.33180942441E+03  0.91050918060E+02 0.  0.
          5    1    1    2  502    0  0.68692705609E+01 -0.86247962596E+02  0.21166316580E+03  0.22871222898E+03  0.47000000000E+01 0.  1.
         -5    1    1    2    0  502  0.53423369637E+02  0.22259666335E+02  0.63540908980E+02  0.86076049414E+02  0.47000000000E+01 0.  1.
        -11    1    3    3    0    0 -0.16839665275E+02  0.67098294611E+02  0.25484635719E+03  0.26406897061E+03  0.00000000000E+00 0. -1.
         11    1    3    3    0    0 -0.43452974923E+02 -0.31099983497E+01  0.51874232152E+02  0.67740453798E+02  0.00000000000E+00 0.  1.
<mgrwt>
<rscale>  0 0.14578768E+03</rscale>
<asrwt>0</asrwt>
<pdfrwt beam="1">  1        1 0.94501712E-01 0.15282139E+03</pdfrwt>
<pdfrwt beam="2">  1       -1 0.49748496E-02 0.15282139E+03</pdfrwt>
<totfact> 0.58569668E+03</totfact>
</mgrwt>
</event>
<event>
 7    1  0.1378058E-005  0.1267757E+03  0.7546771E-02  0.1247665E+00
         -1   -1    0    0    0  501 -0.00000000000E+00  0.00000000000E+00  0.21510326743E+03  0.21510326743E+03  0.00000000000E+00 0.  1.
          1   -1    0    0  501    0  0.00000000000E+00 -0.00000000000E+00 -0.59396710508E+02  0.59396710508E+02  0.00000000000E+00 0. -1.
         23    2    1    2    0    0  0.14830420230E+02  0.15088252951E+02  0.34285150771E+02  0.98957323457E+02  0.90385195476E+02 0.  0.
          5    1    1    2  502    0 -0.54054427980E+02 -0.21047247057E+01  0.12244702809E+03  0.13394654060E+03  0.47000000000E+01 0. -1.
         -5    1    1    2    0  502  0.39224007751E+02 -0.12983528245E+02 -0.10256219381E+01  0.41596113882E+02  0.47000000000E+01 0. -1.
        -11    1    3    3    0    0 -0.17053579458E+02  0.26456257829E+02  0.51975438532E+02  0.60763511759E+02  0.00000000000E+00 0.  1.
         11    1    3    3    0    0  0.31883999688E+02 -0.11368004879E+02 -0.17690287761E+02  0.38193811699E+02  0.00000000000E+00 0. -1.
<mgrwt>
<rscale>  0 0.11727269E+03</rscale>
<asrwt>0</asrwt>
<pdfrwt beam="2">  1        1 0.91379555E-02 0.12677565E+03</pdfrwt>
<pdfrwt beam="1">  1       -1 0.33092810E-01 0.12677565E+03</pdfrwt>
<totfact> 0.59141655E+03</totfact>
</mgrwt>
</event>
<event>
 7    1  0.1378058E-005  0.2162353E+03  0.7546771E-02  0.1140375E+00
         -1   -1    0    0    0  501 -0.00000000000E+00  0.00000000000E+00  0.13864876708E+03  0.13864876708E+03  0.00000000000E+00 0.  1.
          1   -1    0    0  501    0  0.00000000000E+00 -0.00000000000E+00 -0.34349661031E+03  0.34349661031E+03  0.00000000000E+00 0. -1.
         23    2    1    2    0    0  0.12847837423E+03 -0.12095788914E+03 -0.17432662506E+03  0.26376671070E+03  0.89697279105E+02 0.  0.
          5    1    1    2  502    0 -0.13302759029E+03  0.14159258435E+03 -0.24264711127E+02  0.19584602607E+03  0.47000000000E+01 0.  1.
         -5    1    1    2    0  502  0.45492160565E+01 -0.20634695205E+02 -0.62565070455E+01  0.22532640621E+02  0.47000000000E+01 0.  1.
        -11    1    3    3    0    0  0.99379874415E+02 -0.43618694109E+02 -0.13211386360E+03  0.17097667347E+03  0.00000000000E+00 0. -1.
         11    1    3    3    0    0  0.29098499816E+02 -0.77339195031E+02 -0.42212761455E+02  0.92790037231E+02  0.00000000000E+00 0.  1.
<mgrwt>
<rscale>  0 0.21151067E+03</rscale>
<asrwt>0</asrwt>
<pdfrwt beam="2">  1        1 0.52845632E-01 0.21623528E+03</pdfrwt>
<pdfrwt beam="1">  1       -1 0.21330580E-01 0.21623528E+03</pdfrwt>
<totfact> 0.13325362E+03</totfact>
</mgrwt>
</event>
<event>
 7    1  0.1378058E-005  0.2068904E+03  0.7546771E-02  0.1148016E+00
          2   -1    0    0  501    0  0.00000000000E+00  0.00000000000E+00  0.60133015964E+03  0.60133015964E+03  0.00000000000E+00 0. -1.
         -2   -1    0    0    0  501 -0.00000000000E+00 -0.00000000000E+00 -0.89913966251E+02  0.89913966251E+02  0.00000000000E+00 0.  1.
         23    2    1    2    0    0 -0.44532029416E+02  0.15872859724E+03  0.64846826767E+02  0.19907763701E+03  0.90823594896E+02 0.  0.
          5    1    1    2  502    0  0.33855784665E+02 -0.52991214354E+02  0.46914476696E+02  0.78596062736E+02  0.47000000000E+01 0. -1.
         -5    1    1    2    0  502  0.10676244751E+02 -0.10573738288E+03  0.39965488992E+03  0.41357042614E+03  0.47000000000E+01 0. -1.
        -11    1    3    3    0    0 -0.39668571905E+02  0.27453221513E+02 -0.79464874989E+01  0.48891938313E+02  0.00000000000E+00 0. -1.
         11    1    3    3    0    0 -0.48634575111E+01  0.13127537572E+03  0.72793314266E+02  0.15018569869E+03  0.00000000000E+00 0.  1.
<mgrwt>
<rscale>  0 0.20205602E+03</rscale>
<asrwt>0</asrwt>
<pdfrwt beam="1">  1        2 0.92512329E-01 0.20689044E+03</pdfrwt>
<pdfrwt beam="2">  1       -2 0.13832918E-01 0.20689044E+03</pdfrwt>
<totfact> 0.19587771E+03</totfact>
</mgrwt>
</event>
<event>
 7    1  0.1378058E-005  0.1436389E+03  0.7546771E-02  0.1217874E+00
          3   -1    0    0  501    0  0.00000000000E+00  0.00000000000E+00  0.74958533441E+02  0.74958533441E+02  0.00000000000E+00 0. -1.
         -3   -1    0    0    0  501 -0.00000000000E+00 -0.00000000000E+00 -0.28996853908E+03  0.28996853908E+03  0.00000000000E+00 0.  1.
         23    2    1    2    0    0  0.68359241631E+02  0.18278191480E+02 -0.15020980096E+02  0.11870007368E+03  0.94111632913E+02 0.  0.
          5    1    1    2  502    0  0.30554044101E+02 -0.24796677215E+02 -0.31249136873E+02  0.50468043029E+02  0.47000000000E+01 0. -1.
         -5    1    1    2    0  502 -0.98913285732E+02  0.65184857356E+01 -0.16873988867E+03  0.19575895581E+03  0.47000000000E+01 0. -1.
        -11    1    3    3    0    0  0.55212130953E+02 -0.14482076468E+02  0.27563985844E+02  0.63386775110E+02  0.00000000000E+00 0. -1.
         11    1    3    3    0    0  0.13147110678E+02  0.32760267947E+02 -0.42584965940E+02  0.55313298575E+02  0.00000000000E+00 0.  1.
<mgrwt>
<rscale>  0 0.13667540E+03</rscale>
<asrwt>0</asrwt>
<pdfrwt beam="1">  1        3 0.11532082E-01 0.14363887E+03</pdfrwt>
<pdfrwt beam="2">  1       -3 0.44610545E-01 0.14363887E+03</pdfrwt>
<totfact> 0.67983218E+02</totfact>
</mgrwt>
</event>
<event>
 7    1  0.1378058E-005  0.1601650E+03  0.7546771E-02  0.1191590E+00
          2   -1    0    0  501    0  0.00000000000E+00  0.00000000000E+00  0.67552870743E+02  0.67552870743E+02  0.00000000000E+00 0. -1.
         -2   -1    0    0    0  501 -0.00000000000E+00 -0.00000000000E+00 -0.46472651960E+03  0.46472651960E+03  0.00000000000E+00 0.  1.
         23    2    1    2    0    0 -0.87006123025E+02 -0.49586355400E+02 -0.64268609648E+02  0.16284931236E+03  0.11117811054E+03 0.  0.
          5    1    1    2  502    0 -0.11643406917E+02  0.14768866897E+01 -0.18375540314E+03  0.18418981596E+03  0.47000000000E+01 0. -1.
         -5    1    1    2    0  502  0.98649529942E+02  0.48109468710E+02 -0.14914963607E+03  0.18524026203E+03  0.47000000000E+01 0. -1.
        -11    1    3    3    0    0 -0.74615293492E+02 -0.84411905313E+02 -0.48932485950E+02  0.12282996362E+03  0.00000000000E+00 0. -1.
         11    1    3    3    0    0 -0.12390829532E+02  0.34825549913E+02 -0.15336123698E+02  0.40019348737E+02  0.00000000000E+00 0.  1.
<mgrwt>
<rscale>  0 0.15746392E+03</rscale>
<asrwt>0</asrwt>
<pdfrwt beam="1">  1        2 0.10392749E-01 0.16016497E+03</pdfrwt>
<pdfrwt beam="2">  1       -2 0.71496389E-01 0.16016497E+03</pdfrwt>
<totfact> 0.10924658E+03</totfact>
</mgrwt>
</event>
<event>
 7    1  0.1378058E-005  0.1914854E+03  0.7546771E-02  0.1160295E+00
          1   -1    0    0  501    0  0.00000000000E+00  0.00000000000E+00  0.37891620117E+02  0.37891620117E+02  0.00000000000E+00 0. -1.
         -1   -1    0    0    0  501 -0.00000000000E+00 -0.00000000000E+00 -0.91353450874E+03  0.91353450874E+03  0.00000000000E+00 0.  1.
         23    2    1    2    0    0 -0.12809634467E+03 -0.68064562001E+02 -0.36401280673E+03  0.40513681963E+03  0.10290316341E+03 0.  0.
          5    1    1    2  502    0  0.92428651687E+02  0.98318696763E+02 -0.44287889112E+03  0.46300477749E+03  0.47000000000E+01 0.  1.
         -5    1    1    2    0  502  0.35667692980E+02 -0.30254134762E+02 -0.68751190772E+02  0.83284531729E+02  0.47000000000E+01 0.  1.
        -11    1    3    3    0    0 -0.98044956183E+02  0.23614239103E+01 -0.24162839107E+03  0.26077321397E+03  0.00000000000E+00 0.  1.
         11    1    3    3    0    0 -0.30051388484E+02 -0.70425985911E+02 -0.12238441566E+03  0.14436360566E+03  0.00000000000E+00 0. -1.
<mgrwt>
<rscale>  0 0.18798149E+03</rscale>
<asrwt>0</asrwt>
<pdfrwt beam="1">  1        1 0.58294808E-02 0.19148543E+03</pdfrwt>
<pdfrwt beam="2">  1       -1 0.14054375E+00 0.19148543E+03</pdfrwt>
<totfact> 0.60007782E+02</totfact>
</mgrwt>
</event>
<event>
 6    1  0.1378058E-005  0.1266192E+03  0.7546771E-02  0.1274871E+00
         -2   -1    0    0    0  501 -0.00000000000E+00  0.00000000000E+00  0.29525112746E+03  0.29525112746E+03  0.00000000000E+00 0. -1.
          2   -1    0    0  501    0  0.00000000000E+00 -0.00000000000E+00 -0.29988686492E+02  0.29988686492E+02  0.00000000000E+00 0.  1.
          5    1    1    2  502    0  0.68532090992E+02  0.18153521677E+02  0.95555857343E+02  0.11907648684E+03  0.47000000000E+01 0. -1.
         -5    1    1    2    0  502 -0.50326858812E+02 -0.94481311231E+01  0.12634385565E+03  0.13640718368E+03  0.47000000000E+01 0. -1.
        -11    1    1    2    0    0  0.78622440389E+01 -0.16507138233E+02 -0.32609615363E+00  0.18286793941E+02  0.00000000000E+00 0.  1.
         11    1    1    2    0    0 -0.26067476219E+02  0.78017476787E+01  0.43688824131E+02  0.51469349492E+02  0.00000000000E+00 0. -1.
<mgrwt>
<rscale>  0 0.10262508E+03</rscale>
<asrwt>0</asrwt>
<pdfrwt beam="2">  1        2 0.46136443E-02 0.12661921E+03</pdfrwt>
<pdfrwt beam="1">  1       -2 0.45423248E-01 0.12661921E+03</pdfrwt>
<totfact> 0.76135243E+03</totfact>
</mgrwt>
</event>
<event>
 7    1  0.1378058E-005  0.1453474E+03  0.7546771E-02  0.1216281E+00
         -1   -1    0    0    0  501 -0.00000000000E+00  0.00000000000E+00  0.12499812000E+03  0.12499812000E+03  0.00000000000E+00 0.  1.
          1   -1    0    0  501    0  0.00000000000E+00 -0.00000000000E+00 -0.15965897979E+03  0.15965897979E+03  0.00000000000E+00 0. -1.
         23    2    1    2    0    0  0.74089738914E+02 -0.34662579428E+01 -0.67658442306E+02  0.13561114250E+03  0.91166950143E+02 0.  0.
          5    1    1    2  502    0 -0.55140560326E+02  0.94202389756E+00  0.80462284947E+02  0.97660831970E+02  0.47000000000E+01 0. -1.
         -5    1    1    2    0  502 -0.18949178588E+02  0.25242340453E+01 -0.47464702429E+02  0.51385125312E+02  0.47000000000E+01 0. -1.
        -11    1    3    3    0    0  0.18490641734E+02  0.40126445641E+02 -0.12319780549E+02  0.45867335483E+02  0.00000000000E+00 0.  1.
         11    1    3    3    0    0  0.55599097180E+02 -0.43592703583E+02 -0.55338661757E+02  0.89743807018E+02  0.00000000000E+00 0. -1.
<mgrwt>
<rscale>  0 0.13782889E+03</rscale>
<asrwt>0</asrwt>
<pdfrwt beam="2">  1        1 0.24562920E-01 0.14534737E+03</pdfrwt>
<pdfrwt beam="1">  1       -1 0.19230480E-01 0.14534737E+03</pdfrwt>
<totfact> 0.40554588E+03</totfact>
</mgrwt>
</event>
<event>
 7    1  0.1378058E-005  0.1455876E+03  0.7546771E-02  0.1216610E+00
          2   -1    0    0  501    0  0.00000000000E+00  0.00000000000E+00  0.34283379218E+03  0.34283379218E+03  0.00000000000E+00 0. -1.
         -2   -1    0    0    0  501 -0.00000000000E+00 -0.00000000000E+00 -0.65306491269E+02  0.65306491269E+02  0.00000000000E+00 0.  1.
         23    2    1    2    0    0  0.33558638264E+02 -0.66653747728E+02  0.22529388015E+03  0.25346615326E+03  0.88987943715E+02 0.  0.
          5    1    1    2  502    0 -0.52372893048E+02  0.91977963092E+02  0.17268001965E+02  0.10734588726E+03  0.47000000000E+01 0.  1.
         -5    1    1    2    0  502  0.18814254785E+02 -0.25324215363E+02  0.34965418802E+02  0.47328242930E+02  0.47000000000E+01 0.  1.
        -11    1    3    3    0    0 -0.26215139795E+02 -0.41216204121E+02  0.72322742609E+02  0.87273066493E+02  0.00000000000E+00 0.  1.
         11    1    3    3    0    0  0.59773778059E+02 -0.25437543607E+02  0.15297113754E+03  0.16619308676E+03  0.00000000000E+00 0. -1.
<mgrwt>
<rscale>  0 0.13758967E+03</rscale>
<asrwt>0</asrwt>
<pdfrwt beam="1">  1        2 0.52743660E-01 0.14558762E+03</pdfrwt>
<pdfrwt beam="2">  1       -2 0.10047153E-01 0.14558762E+03</pdfrwt>
<totfact> 0.59816330E+03</totfact>
</mgrwt>
</event>
<event>
 7    1  0.1378058E-005  0.1272370E+03  0.7546771E-02  0.1247234E+00
         -2   -1    0    0    0  501 -0.00000000000E+00  0.00000000000E+00  0.28676263134E+02  0.28676263134E+02  0.00000000000E+00 0.  1.
          2   -1    0    0  501    0  0.00000000000E+00 -0.00000000000E+00 -0.43175688006E+03  0.43175688006E+03  0.00000000000E+00 0. -1.
         23    2    1    2    0    0 -0.12341589724E+02  0.20314838288E+02 -0.20578434446E+03  0.22566715197E+03  0.89517928700E+02 0.  0.
          5    1    1    2  502    0 -0.43165591602E+02 -0.37564857251E+02 -0.49234735621E+02  0.75634224993E+02  0.47000000000E+01 0.  1.
         -5    1    1    2    0  502  0.55507181326E+02  0.17250018963E+02 -0.14806153684E+03  0.15913176623E+03  0.47000000000E+01 0.  1.
        -11    1    3    3    0    0 -0.44113265133E+02  0.19031282052E+00 -0.56299025370E+02  0.71523399228E+02  0.00000000000E+00 0.  1.
         11    1    3    3    0    0  0.31771675408E+02  0.20124525468E+02 -0.14948531909E+03  0.15414375274E+03  0.00000000000E+00 0. -1.
<mgrwt>
<rscale>  0 0.11752662E+03</rscale>
<asrwt>0</asrwt>
<pdfrwt beam="2">  1        2 0.66424136E-01 0.12723699E+03</pdfrwt>
<pdfrwt beam="1">  1       -2 0.44117328E-02 0.12723699E+03</pdfrwt>
<totfact> 0.16287595E+04</totfact>
</mgrwt>
</event>
<event>
 7    1  0.1378058E-005  0.2027482E+03  0.7546771E-02  0.1166468E+00
         -2   -1    0    0    0  501 -0.00000000000E+00  0.00000000000E+00  0.87266873290E+02  0.87266873290E+02  0.00000000000E+00 0.  1.
          2   -1    0    0  501    0  0.00000000000E+00 -0.00000000000E+00 -0.41345870372E+03  0.41345870372E+03  0.00000000000E+00 0. -1.
         23    2    1    2    0    0 -0.29515554175E+02 -0.91871707684E+02 -0.25440874956E+03  0.28564505925E+03  0.86935087322E+02 0.  0.
          5    1    1    2  502    0  0.77704225089E+01  0.13939437094E+02 -0.11975262573E+03  0.12090272429E+03  0.47000000000E+01 0. -1.
         -5    1    1    2    0  502  0.21745131666E+02  0.77932270590E+02  0.47969544855E+02  0.94177793476E+02  0.47000000000E+01 0.  1.
        -11    1    3    3    0    0  0.28863800889E+02 -0.43044458470E+02 -0.12799530544E+03  0.13808961808E+03  0.00000000000E+00 0. -1.
         11    1    3    3    0    0 -0.58379355064E+02 -0.48827249213E+02 -0.12641344412E+03  0.14755544117E+03  0.00000000000E+00 0.  1.
<mgrwt>
<rscale>  0 0.18138643E+03</rscale>
<asrwt>0</asrwt>
<pdfrwt beam="2">  1        2 0.63609030E-01 0.20274817E+03</pdfrwt>
<pdfrwt beam="1">  1       -2 0.13425673E-01 0.20274817E+03</pdfrwt>
<totfact> 0.31232131E+03</totfact>
</mgrwt>
</event>
<event>
 7    1  0.1378058E-005  0.1334728E+03  0.7546771E-02  0.1235576E+00
          3   -1    0    0  501    0  0.00000000000E+00  0.00000000000E+00  0.51814269883E+02  0.51814269883E+02  0.00000000000E+00 0. -1.
         -3   -1    0    0    0  501 -0.00000000000E+00 -0.00000000000E+00 -0.28158491933E+03  0.28158491933E+03  0.00000000000E+00 0.  1.
         23    2    1    2    0    0 -0.23159325760E+02 -0.40940950189E+02 -0.62091809875E+02  0.11908360534E+03  0.90072173485E+02 0.  0.
          5    1    1    2  502    0 -0.43742664182E+02  0.23054143054E+02 -0.12064704460E+03  0.13047112152E+03  0.47000000000E+01 0. -1.
         -5    1    1    2    0  502  0.66901989941E+02  0.17886807136E+02 -0.47031794981E+02  0.83844462350E+02  0.47000000000E+01 0.  1.
        -11    1    3    3    0    0 -0.13639700465E+02  0.98562336764E+00  0.21270540570E+02  0.25287324460E+02  0.00000000000E+00 0. -1.
         11    1    3    3    0    0 -0.95196252951E+01 -0.41926573557E+02 -0.83362350445E+02  0.93796280885E+02  0.00000000000E+00 0.  1.
<mgrwt>
<rscale>  0 0.12467616E+03</rscale>
<asrwt>0</asrwt>
<pdfrwt beam="1">  1        3 0.79714262E-02 0.13347275E+03</pdfrwt>
<pdfrwt beam="2">  1       -3 0.43320757E-01 0.13347275E+03</pdfrwt>
<totfact> 0.13085952E+03</totfact>
</mgrwt>
</event>
<event>
 7    1  0.1378058E-005  0.1753482E+03  0.7546771E-02  0.1177885E+00
         -1   -1    0    0    0  501 -0.00000000000E+00  0.00000000000E+00  0.11825604695E+03  0.11825604695E+03  0.00000000000E+00 0.  1.
          1   -1    0    0  501    0  0.00000000000E+00 -0.00000000000E+00 -0.23169989198E+03  0.23169989198E+03  0.00000000000E+00 0. -1.
         23    2    1    2    0    0  0.67104644416E+02 -0.10305234113E+03 -0.66263694191E+02  0.16837139729E+03  0.93995914505E+02 0.  0.
          5    1    1    2  502    0 -0.74410180295E+02  0.54001177832E+02  0.23595398300E+02  0.95035966663E+02  0.47000000000E+01 0.  1.
         -5    1    1    2    0  502  0.73055358788E+01  0.49051163296E+02 -0.70775549131E+02  0.86548574974E+02  0.47000000000E+01 0.  1.
        -11    1    3    3    0    0  0.43338649982E+01 -0.58744323546E+02  0.10419837111E+02  0.59818483265E+02  0.00000000000E+00 0.  1.
         11    1    3    3    0    0  0.62770779417E+02 -0.44308017583E+02 -0.76683531301E+02  0.10855291403E+03  0.00000000000E+00 0. -1.
<mgrwt>
<rscale>  0 0.16996416E+03</rscale>
<asrwt>0</asrwt>
<pdfrwt beam="2">  1        1 0.35646137E-01 0.17534817E+03</pdfrwt>
<pdfrwt beam="1">  1       -1 0.18193238E-01 0.17534817E+03</pdfrwt>
<totfact> 0.28057356E+03</totfact>
</mgrwt>
</event>
<event>
 7    1  0.1378058E-005  0.1279320E+03  0.7546771E-02  0.1243985E+00
          1   -1    0    0  501    0  0.00000000000E+00  0.00000000000E+00  0.39544168784E+02  0.39544168784E+02  0.00000000000E+00 0. -1.
         -1   -1    0    0    0  501 -0.00000000000E+00 -0.00000000000E+00 -0.38727692194E+03  0.38727692194E+03  0.00000000000E+00 0.  1.
         23    2    1    2    0    0 -0.26807613408E+02  0.48481567075E+01 -0.66430638849E+02  0.11779441656E+03  0.93382771612E+02 0.  0.
          5    1    1    2  502    0  0.25756510187E+02 -0.12720831552E+02 -0.15789843710E+01  0.29151338975E+02  0.47000000000E+01 0. -1.
         -5    1    1    2    0  502  0.10511032216E+01  0.78726748449E+01 -0.27972312994E+03  0.27987533519E+03  0.47000000000E+01 0. -1.
        -11    1    3    3    0    0  0.42996246914E+01  0.43890535543E+02 -0.16213230535E+02  0.46986537722E+02  0.00000000000E+00 0.  1.
         11    1    3    3    0    0 -0.31107238100E+02 -0.39042378835E+02 -0.50217408314E+02  0.70807878835E+02  0.00000000000E+00 0. -1.
<mgrwt>
<rscale>  0 0.11946349E+03</rscale>
<asrwt>0</asrwt>
<pdfrwt beam="1">  1        1 0.60837185E-02 0.12793204E+03</pdfrwt>
<pdfrwt beam="2">  1       -1 0.59581063E-01 0.12793204E+03</pdfrwt>
<totfact> 0.35740030E+03</totfact>
</mgrwt>
</event>
<event>
 7    1  0.1378058E-005  0.1334900E+03  0.7546771E-02  0.1234347E+00
         -2   -1    0    0    0  501 -0.00000000000E+00  0.00000000000E+00  0.50852494799E+02  0.50852494799E+02  0.00000000000E+00 0.  1.
          2   -1    0    0  501    0  0.00000000000E+00 -0.00000000000E+00 -0.33479652806E+03  0.33479652806E+03  0.00000000000E+00 0. -1.
         23    2    1    2    0    0  0.25718318617E+02  0.39144107386E+02 -0.20659237960E+03  0.23136730865E+03  0.93041534519E+02 0.  0.
          5    1    1    2  502    0 -0.70436498508E+02 -0.26551046277E+02 -0.76718334570E+02  0.10758276460E+03  0.47000000000E+01 0. -1.
         -5    1    1    2    0  502  0.44718179891E+02 -0.12593061110E+02 -0.63331908302E+00  0.46698949603E+02  0.47000000000E+01 0. -1.
        -11    1    3    3    0    0  0.54195340311E+02 -0.18695976476E+01 -0.10620068623E+03  0.11924435442E+03  0.00000000000E+00 0.  1.
         11    1    3    3    0    0 -0.28477021694E+02  0.41013705034E+02 -0.10039169338E+03  0.11212295422E+03  0.00000000000E+00 0. -1.
<mgrwt>
<rscale>  0 0.12546346E+03</rscale>
<asrwt>0</asrwt>
<pdfrwt beam="2">  1        2 0.51507159E-01 0.13348996E+03</pdfrwt>
<pdfrwt beam="1">  1       -2 0.78234607E-02 0.13348996E+03</pdfrwt>
<totfact> 0.90061681E+03</totfact>
</mgrwt>
</event>
<event>
 7    1  0.1378058E-005  0.1326916E+03  0.7546771E-02  0.1237332E+00
         -1   -1    0    0    0  501 -0.00000000000E+00  0.00000000000E+00  0.71890725135E+03  0.71890725135E+03  0.00000000000E+00 0.  1.
          1   -1    0    0  501    0  0.00000000000E+00 -0.00000000000E+00 -0.22800883366E+02  0.22800883366E+02  0.00000000000E+00 0. -1.
         23    2    1    2    0    0  0.87382691946E+01  0.43649972569E+02  0.15323857674E+03  0.18285887136E+03  0.89295173332E+02 0.  0.
          5    1    1    2  502    0 -0.29034023095E+02 -0.56061189134E+02  0.52481006537E+03  0.52861472372E+03  0.47000000000E+01 0.  1.
         -5    1    1    2    0  502  0.20295753900E+02  0.12411216565E+02  0.18057725876E+02  0.30234539633E+02  0.47000000000E+01 0.  1.
        -11    1    3    3    0    0 -0.25597542839E+02  0.30084712735E+01  0.11366606609E+03  0.11655153229E+03  0.00000000000E+00 0.  1.
         11    1    3    3    0    0  0.34335812034E+02  0.40641501296E+02  0.39572510650E+02  0.66307339072E+02  0.00000000000E+00 0. -1.
<mgrwt>
<rscale>  0 0.12356327E+03</rscale>
<asrwt>0</asrwt>
<pdfrwt beam="2">  1        1 0.35078288E-02 0.13269160E+03</pdfrwt>
<pdfrwt beam="1">  1       -1 0.11060110E+00 0.13269160E+03</pdfrwt>
<totfact> 0.21213173E+03</totfact>
</mgrwt>
</event>
<event>
 7    1  0.1378058E-005  0.1177212E+03  0.7546771E-02  0.1257552E+00
          1   -1    0    0  501    0  0.00000000000E+00  0.00000000000E+00  0.12275543478E+03  0.12275543478E+03  0.00000000000E+00 0. -1.
         -1   -1    0    0    0  501 -0.00000000000E+00 -0.00000000000E+00 -0.13988284712E+03  0.13988284712E+03  0.00000000000E+00 0.  1.
         23    2    1    2    0    0 -0.15974542590E+02 -0.29326579262E+02  0.68291585486E+02  0.11719174177E+03  0.89190411075E+02 0.  0.
          5    1    1    2  502    0 -0.11576910239E+02 -0.32981082930E+02 -0.65366410073E+02  0.74274048279E+02  0.47000000000E+01 0. -1.
         -5    1    1    2    0  502  0.27551452829E+02  0.62307662192E+02 -0.20052587752E+02  0.71172491852E+02  0.47000000000E+01 0.  1.
        -11    1    3    3    0    0 -0.66431237041E+01 -0.15785215459E+02 -0.20601426516E+02  0.26790350766E+02  0.00000000000E+00 0.  1.
         11    1    3    3    0    0 -0.93314188860E+01 -0.13541363803E+02  0.88893012002E+02  0.90401391000E+02  0.00000000000E+00 0. -1.
<mgrwt>
<rscale>  0 0.11164596E+03</rscale>
<asrwt>0</asrwt>
<pdfrwt beam="1">  1        1 0.18885452E-01 0.11772124E+03</pdfrwt>
<pdfrwt beam="2">  1       -1 0.21520438E-01 0.11772124E+03</pdfrwt>
<totfact> 0.46601426E+03</totfact>
</mgrwt>
</event>
<event>
 7    1  0.1378058E-005  0.1368289E+03  0.7546771E-02  0.1228862E+00
         -1   -1    0    0    0  501 -0.00000000000E+00  0.00000000000E+00  0.53266176262E+02  0.53266176262E+02  0.00000000000E+00 0.  1.
          1   -1    0    0  501    0  0.00000000000E+00 -0.00000000000E+00 -0.31922844008E+03  0.31922844008E+03  0.00000000000E+00 0. -1.
         23    2    1    2    0    0 -0.28772178956E+02  0.47639560636E+02 -0.18252666235E+03  0.21223345222E+03  0.92896123445E+02 0.  0.
          5    1    1    2  502    0  0.17641864421E+02  0.25158165441E+02 -0.80629881468E+02  0.86414330144E+02  0.47000000000E+01 0.  1.
         -5    1    1    2    0  502  0.11130314535E+02 -0.72797726077E+02 -0.28057199931E+01  0.73846833977E+02  0.47000000000E+01 0.  1.
        -11    1    3    3    0    0 -0.57872819371E+01  0.53724464720E+02 -0.18044946698E+03  0.18836618825E+03  0.00000000000E+00 0. -1.
         11    1    3    3    0    0 -0.22984897019E+02 -0.60849040844E+01 -0.20771953708E+01  0.23867263968E+02  0.00000000000E+00 0.  1.
<mgrwt>
<rscale>  0 0.12905711E+03</rscale>
<asrwt>0</asrwt>
<pdfrwt beam="2">  1        1 0.49112068E-01 0.13682888E+03</pdfrwt>
<pdfrwt beam="1">  1       -1 0.81947964E-02 0.13682888E+03</pdfrwt>
<totfact> 0.64153320E+03</totfact>
</mgrwt>
</event>
<event>
 7    1  0.1378058E-005  0.1416819E+03  0.7546771E-02  0.1218047E+00
          1   -1    0    0  501    0  0.00000000000E+00  0.00000000000E+00  0.20222269033E+03  0.20222269033E+03  0.00000000000E+00 0. -1.
         -1   -1    0    0    0  501 -0.00000000000E+00 -0.00000000000E+00 -0.87009247654E+02  0.87009247654E+02  0.00000000000E+00 0.  1.
         23    2    1    2    0    0  0.17073338533E+02  0.80916998698E+02  0.38791366315E+02  0.12825334567E+03  0.90028278933E+02 0.  0.
          5    1    1    2  502    0 -0.62102046993E+02 -0.61597513313E+02  0.28079051092E+02  0.91986091325E+02  0.47000000000E+01 0. -1.
         -5    1    1    2    0  502  0.45028708460E+02 -0.19319485385E+02  0.48343025271E+02  0.68992500994E+02  0.47000000000E+01 0.  1.
        -11    1    3    3    0    0  0.52072662618E+02  0.53911289461E+02  0.10293234566E+02  0.75656724760E+02  0.00000000000E+00 0.  1.
         11    1    3    3    0    0 -0.34999324085E+02  0.27005709236E+02  0.28498131749E+02  0.52596620908E+02  0.00000000000E+00 0. -1.
<mgrwt>
<rscale>  0 0.13655097E+03</rscale>
<asrwt>0</asrwt>
<pdfrwt beam="1">  1        1 0.31111183E-01 0.14168194E+03</pdfrwt>
<pdfrwt beam="2">  1       -1 0.13386038E-01 0.14168194E+03</pdfrwt>
<totfact> 0.53370824E+03</totfact>
</mgrwt>
</event>
<event>
 7    1  0.1931021E-005  0.2204011E+03  0.7546771E-02  0.1136809E+00
         -2   -1    0    0    0  501 -0.00000000000E+00  0.00000000000E+00  0.37351003438E+02  0.37351003438E+02  0.00000000000E+00 0.  1.
          2   -1    0    0  501    0  0.00000000000E+00 -0.00000000000E+00 -0.12118513648E+04  0.12118513648E+04  0.00000000000E+00 0. -1.
         23    2    1    2    0    0  0.25090126057E+02  0.17978692721E+03 -0.61379957272E+03  0.64673908705E+03  0.92567151969E+02 0.  0.
          5    1    1    2  502    0  0.10851279852E+02 -0.18356542858E+03 -0.46569536810E+03  0.50070778176E+03  0.47000000000E+01 0.  1.
         -5    1    1    2    0  502 -0.35941405909E+02  0.37785013731E+01 -0.95005420505E+02  0.10175549939E+03  0.47000000000E+01 0.  1.
        -11    1    3    3    0    0  0.20362454115E+01  0.57511440490E+02 -0.79503670355E+02  0.98145533176E+02  0.00000000000E+00 0. -1.
         11    1    3    3    0    0  0.23053880645E+02  0.12227548672E+03 -0.53429590237E+03  0.54859355387E+03  0.00000000000E+00 0.  1.
<mgrwt>
<rscale>  0 0.21611974E+03</rscale>
<asrwt>0</asrwt>
<pdfrwt beam="2">  1        2 0.18643868E+00 0.22040107E+03</pdfrwt>
<pdfrwt beam="1">  1       -2 0.57463080E-02 0.22040107E+03</pdfrwt>
<totfact> 0.31020739E+03</totfact>
</mgrwt>
</event>
<event>
 7    1  0.1378058E-005  0.1582744E+03  0.7546771E-02  0.1198605E+00
         -1   -1    0    0    0  501 -0.00000000000E+00  0.00000000000E+00  0.20531481425E+03  0.20531481425E+03  0.00000000000E+00 0.  1.
          1   -1    0    0  501    0  0.00000000000E+00 -0.00000000000E+00 -0.11039490341E+03  0.11039490341E+03  0.00000000000E+00 0. -1.
         23    2    1    2    0    0 -0.60522832640E+02 -0.75826630205E+02  0.36931390526E+01  0.13302666081E+03  0.90938232289E+02 0.  0.
          5    1    1    2  502    0  0.86730414359E+02  0.68522951653E+02  0.10437940869E+03  0.15210098828E+03  0.47000000000E+01 0. -1.
         -5    1    1    2    0  502 -0.26207581719E+02  0.73036785522E+01 -0.13152636912E+02  0.30582068565E+02  0.47000000000E+01 0. -1.
        -11    1    3    3    0    0 -0.26225382238E+02 -0.48281202101E+02  0.46251693796E+02  0.71819665335E+02  0.00000000000E+00 0.  1.
         11    1    3    3    0    0 -0.34297450402E+02 -0.27545428104E+02 -0.42558554743E+02  0.61206995477E+02  0.00000000000E+00 0. -1.
<mgrwt>
<rscale>  0 0.15153074E+03</rscale>
<asrwt>0</asrwt>
<pdfrwt beam="2">  1        1 0.16983831E-01 0.15827437E+03</pdfrwt>
<pdfrwt beam="1">  1       -1 0.31586895E-01 0.15827437E+03</pdfrwt>
<totfact> 0.28786673E+03</totfact>
</mgrwt>
</event>
<event>
 7    1  0.1378058E-005  0.2156972E+03  0.7546771E-02  0.1140821E+00
         -3   -1    0    0    0  501 -0.00000000000E+00  0.00000000000E+00  0.64513799250E+03  0.64513799250E+03  0.00000000000E+00 0.  1.
          3   -1    0    0  501    0  0.00000000000E+00 -0.00000000000E+00 -0.82295448724E+02  0.82295448724E+02  0.00000000000E+00 0. -1.
         23    2    1    2    0    0  0.11328294661E+03 -0.13441183371E+03  0.11011980484E+03  0.22595246824E+03  0.89602340638E+02 0.  0.
          5    1    1    2  502    0 -0.76713863981E+02  0.79758508335E+02  0.40558015216E+03  0.42043285601E+03  0.47000000000E+01 0. -1.
         -5    1    1    2    0  502 -0.36569082632E+02  0.54653325378E+02  0.47142586770E+02  0.81048116985E+02  0.47000000000E+01 0. -1.
        -11    1    3    3    0    0  0.10383294186E+03 -0.64214183533E+02  0.91921480365E+02  0.15282113641E+03  0.00000000000E+00 0.  1.
         11    1    3    3    0    0  0.94500047559E+01 -0.70197650180E+02  0.18198324478E+02  0.73131331824E+02  0.00000000000E+00 0. -1.
<mgrwt>
<rscale>  0 0.21094361E+03</rscale>
<asrwt>0</asrwt>
<pdfrwt beam="2">  1        3 0.12660839E-01 0.21569721E+03</pdfrwt>
<pdfrwt beam="1">  1       -3 0.99251996E-01 0.21569721E+03</pdfrwt>
<totfact> 0.11230933E+02</totfact>
</mgrwt>
</event>
<event>
 7    1  0.1378058E-005  0.1911602E+03  0.7546771E-02  0.1162302E+00
         -1   -1    0    0    0  501 -0.00000000000E+00  0.00000000000E+00  0.54513975214E+03  0.54513975214E+03  0.00000000000E+00 0.  1.
          1   -1    0    0  501    0  0.00000000000E+00 -0.00000000000E+00 -0.12430771180E+03  0.12430771180E+03  0.00000000000E+00 0. -1.
         23    2    1    2    0    0  0.13874838380E+03 -0.40826222411E+02 -0.35876595409E+02  0.17434645440E+03  0.90507798672E+02 0.  0.
          5    1    1    2  502    0 -0.93355400230E+02 -0.36062470564E+02  0.27262840936E+03  0.29045493992E+03  0.47000000000E+01 0. -1.
         -5    1    1    2    0  502 -0.45392983568E+02  0.76888692974E+02  0.18408022639E+03  0.20464606962E+03  0.47000000000E+01 0. -1.
        -11    1    3    3    0    0  0.12815797125E+02  0.11143024474E+02 -0.34106281342E+02  0.38100525946E+02  0.00000000000E+00 0. -1.
         11    1    3    3    0    0  0.12593258667E+03 -0.51969246885E+02 -0.17703140668E+01  0.13624592845E+03  0.00000000000E+00 0.  1.
<mgrwt>
<rscale>  0 0.18580295E+03</rscale>
<asrwt>0</asrwt>
<pdfrwt beam="2">  1        1 0.19124264E-01 0.19116023E+03</pdfrwt>
<pdfrwt beam="1">  1       -1 0.83867653E-01 0.19116023E+03</pdfrwt>
<totfact> 0.40205702E+02</totfact>
</mgrwt>
</event>
<event>
 7    1  0.1378058E-005  0.1454844E+03  0.7546771E-02  0.1216931E+00
          1   -1    0    0  501    0  0.00000000000E+00  0.00000000000E+00  0.41827142962E+02  0.41827142962E+02  0.00000000000E+00 0. -1.
         -1   -1    0    0    0  501 -0.00000000000E+00 -0.00000000000E+00 -0.41296030907E+03  0.41296030907E+03  0.00000000000E+00 0.  1.
         23    2    1    2    0    0  0.73547299273E+02 -0.11506459852E+02 -0.13842733465E+03  0.18034670485E+03  0.88437566257E+02 0.  0.
          5    1    1    2  502    0  0.35381973169E+02  0.67259923232E+01 -0.60464244890E+02  0.70534657497E+02  0.47000000000E+01 0.  1.
         -5    1    1    2    0  502 -0.10892927244E+03  0.47804675289E+01 -0.17224158657E+03  0.20390608968E+03  0.47000000000E+01 0.  1.
        -11    1    3    3    0    0  0.67726471911E+02 -0.33186327476E+02 -0.13872018245E+03  0.15789710684E+03  0.00000000000E+00 0.  1.
         11    1    3    3    0    0  0.58208273618E+01  0.21679867624E+02  0.29284779900E+00  0.22449598019E+02  0.00000000000E+00 0. -1.
<mgrwt>
<rscale>  0 0.13735662E+03</rscale>
<asrwt>0</asrwt>
<pdfrwt beam="1">  1        1 0.64349452E-02 0.14548443E+03</pdfrwt>
<pdfrwt beam="2">  1       -1 0.63532354E-01 0.14548443E+03</pdfrwt>
<totfact> 0.29511090E+03</totfact>
</mgrwt>
</event>
<event>
 7    1  0.1378058E-005  0.1733874E+03  0.7546771E-02  0.1182232E+00
          1   -1    0    0  501    0  0.00000000000E+00  0.00000000000E+00  0.59693795750E+03  0.59693795750E+03  0.00000000000E+00 0. -1.
         -1   -1    0    0    0  501 -0.00000000000E+00 -0.00000000000E+00 -0.97198022540E+02  0.97198022540E+02  0.00000000000E+00 0.  1.
         23    2    1    2    0    0  0.56370032261E+02  0.10276008186E+03  0.50009746432E+03  0.52074819181E+03  0.85697085692E+02 0.  0.
          5    1    1    2  502    0 -0.18072583229E+02  0.15267274724E+02  0.36597470114E+02  0.43831184798E+02  0.47000000000E+01 0. -1.
         -5    1    1    2    0  502 -0.38297449031E+02 -0.11802735659E+03 -0.36954999477E+02  0.12955660343E+03  0.47000000000E+01 0.  1.
        -11    1    3    3    0    0  0.69916622628E+02  0.60887092014E+02  0.24646838240E+03  0.26332913932E+03  0.00000000000E+00 0.  1.
         11    1    3    3    0    0 -0.13546590368E+02  0.41872989847E+02  0.25362908192E+03  0.25741905249E+03  0.00000000000E+00 0. -1.
<mgrwt>
<rscale>  0 0.16586323E+03</rscale>
<asrwt>0</asrwt>
<pdfrwt beam="1">  1        1 0.91836607E-01 0.17338742E+03</pdfrwt>
<pdfrwt beam="2">  1       -1 0.14953542E-01 0.17338742E+03</pdfrwt>
<totfact> 0.11426545E+03</totfact>
</mgrwt>
</event>
<event>
 7    1  0.1378058E-005  0.1512048E+03  0.7546771E-02  0.1207832E+00
         -2   -1    0    0    0  501 -0.00000000000E+00  0.00000000000E+00  0.38201898673E+02  0.38201898673E+02  0.00000000000E+00 0.  1.
          2   -1    0    0  501    0  0.00000000000E+00 -0.00000000000E+00 -0.50183599062E+03  0.50183599062E+03  0.00000000000E+00 0. -1.
         23    2    1    2    0    0  0.48126581516E+02 -0.70155570777E+02 -0.22982787715E+03  0.26159895667E+03  0.91516059014E+02 0.  0.
          5    1    1    2  502    0 -0.75180136383E+02 -0.26955223940E+00 -0.12529745956E+03  0.14619736297E+03  0.47000000000E+01 0. -1.
         -5    1    1    2    0  502  0.27053554867E+02  0.70425123016E+02 -0.10850875524E+03  0.13224156966E+03  0.47000000000E+01 0. -1.
        -11    1    3    3    0    0  0.57840802507E+02 -0.49002616322E+01 -0.91780056166E+02  0.10859626931E+03  0.00000000000E+00 0.  1.
         11    1    3    3    0    0 -0.97142209906E+01 -0.65255309145E+02 -0.13804782098E+03  0.15300268736E+03  0.00000000000E+00 0. -1.
<mgrwt>
<rscale>  0 0.14416524E+03</rscale>
<asrwt>0</asrwt>
<pdfrwt beam="2">  1        2 0.77205540E-01 0.15120481E+03</pdfrwt>
<pdfrwt beam="1">  1       -2 0.58772149E-02 0.15120481E+03</pdfrwt>
<totfact> 0.90999615E+03</totfact>
</mgrwt>
</event>
<event>
 7    1  0.1378058E-005  0.1382404E+03  0.7546771E-02  0.1229634E+00
         -3   -1    0    0    0  501 -0.00000000000E+00  0.00000000000E+00  0.14778105309E+02  0.14778105309E+02  0.00000000000E+00 0.  1.
          3   -1    0    0  501    0  0.00000000000E+00 -0.00000000000E+00 -0.10308004729E+04  0.10308004729E+04  0.00000000000E+00 0. -1.
         23    2    1    2    0    0  0.22679725115E+02 -0.54505109103E+02 -0.33144885275E+03  0.34718663174E+03  0.84823572330E+02 0.  0.
          5    1    1    2  502    0  0.49522320818E+02  0.39250355030E+02 -0.27595172847E+03  0.28313335564E+03  0.47000000000E+01 0. -1.
         -5    1    1    2    0  502 -0.72202045933E+02  0.15254754073E+02 -0.40862178641E+03  0.41525859087E+03  0.47000000000E+01 0. -1.
        -11    1    3    3    0    0 -0.16792103616E+02 -0.60720218471E+02 -0.21717778755E+03  0.22613073891E+03  0.00000000000E+00 0. -1.
         11    1    3    3    0    0  0.39471828731E+02  0.62151093673E+01 -0.11427106520E+03  0.12105589283E+03  0.00000000000E+00 0.  1.
<mgrwt>
<rscale>  0 0.12854310E+03</rscale>
<asrwt>0</asrwt>
<pdfrwt beam="2">  1        3 0.15858477E+00 0.13824042E+03</pdfrwt>
<pdfrwt beam="1">  1       -3 0.22735535E-02 0.13824042E+03</pdfrwt>
<totfact> 0.54512477E+02</totfact>
</mgrwt>
</event>
<event>
 7    1  0.1378058E-005  0.2097525E+03  0.7546771E-02  0.1145529E+00
         -3   -1    0    0    0  501 -0.00000000000E+00  0.00000000000E+00  0.56911694587E+03  0.56911694587E+03  0.00000000000E+00 0.  1.
          3   -1    0    0  501    0  0.00000000000E+00 -0.00000000000E+00 -0.93069064447E+02  0.93069064447E+02  0.00000000000E+00 0. -1.
         23    2    1    2    0    0 -0.22490734893E+02  0.16692641068E+03  0.67943152254E+02  0.20333356984E+03  0.91422146908E+02 0.  0.
          5    1    1    2  502    0 -0.18300267804E+02 -0.75706412074E+01  0.17361780686E+01  0.20428380364E+02  0.47000000000E+01 0. -1.
         -5    1    1    2    0  502  0.40791002698E+02 -0.15935576947E+03  0.40636855110E+03  0.43842406012E+03  0.47000000000E+01 0. -1.
        -11    1    3    3    0    0 -0.31711396935E+02  0.13567191665E+03  0.13628479596E+02  0.13999363242E+03  0.00000000000E+00 0. -1.
         11    1    3    3    0    0  0.92206620420E+01  0.31254494032E+02  0.54314672657E+02  0.63339937414E+02  0.00000000000E+00 0.  1.
<mgrwt>
<rscale>  0 0.20507152E+03</rscale>
<asrwt>0</asrwt>
<pdfrwt beam="2">  1        3 0.14318318E-01 0.20975245E+03</pdfrwt>
<pdfrwt beam="1">  1       -3 0.87556451E-01 0.20975245E+03</pdfrwt>
<totfact> 0.12047937E+02</totfact>
</mgrwt>
</event>
<event>
 7    1  0.1378058E-005  0.1314290E+03  0.7546771E-02  0.1239614E+00
         -1   -1    0    0    0  501 -0.00000000000E+00  0.00000000000E+00  0.14273259813E+03  0.14273259813E+03  0.00000000000E+00 0.  1.
          1   -1    0    0  501    0  0.00000000000E+00 -0.00000000000E+00 -0.12191571493E+03  0.12191571493E+03  0.00000000000E+00 0. -1.
         23    2    1    2    0    0  0.29945637170E+02 -0.27408357143E+02 -0.55529882254E+02  0.11265350173E+03  0.89214821653E+02 0.  0.
          5    1    1    2  502    0 -0.24431023160E+02  0.74438674006E+02  0.25907222182E+02  0.82651468478E+02  0.47000000000E+01 0.  1.
         -5    1    1    2    0  502 -0.55146140108E+01 -0.47030316863E+02  0.50439543269E+02  0.69343342846E+02  0.47000000000E+01 0.  1.
        -11    1    3    3    0    0  0.24302031756E+02 -0.55835918249E+02 -0.14806045468E+02  0.62669430319E+02  0.00000000000E+00 0.  1.
         11    1    3    3    0    0  0.56436054148E+01  0.28427561105E+02 -0.40723836786E+02  0.49984071414E+02  0.00000000000E+00 0. -1.
<mgrwt>
<rscale>  0 0.12213591E+03</rscale>
<asrwt>0</asrwt>
<pdfrwt beam="2">  1        1 0.18756264E-01 0.13142905E+03</pdfrwt>
<pdfrwt beam="1">  1       -1 0.21958861E-01 0.13142905E+03</pdfrwt>
<totfact> 0.45823548E+03</totfact>
</mgrwt>
</event>
<event>
 7    1  0.1378058E-005  0.1534690E+03  0.7546771E-02  0.1204567E+00
         -1   -1    0    0    0  501 -0.00000000000E+00  0.00000000000E+00  0.26107099162E+03  0.26107099162E+03  0.00000000000E+00 0.  1.
          1   -1    0    0  501    0  0.00000000000E+00 -0.00000000000E+00 -0.77487871569E+02  0.77487871569E+02  0.00000000000E+00 0. -1.
         23    2    1    2    0    0  0.87488842209E+02 -0.16514289824E+02  0.60094470367E+02  0.14157619941E+03  0.92225026925E+02 0.  0.
          5    1    1    2  502    0  0.26902154267E+01 -0.40116949798E+02  0.61652728971E+02  0.73754700933E+02  0.47000000000E+01 0.  1.
         -5    1    1    2    0  502 -0.90179057636E+02  0.56631239622E+02  0.61835920717E+02  0.12322796285E+03  0.47000000000E+01 0.  1.
        -11    1    3    3    0    0  0.82448269903E+02  0.13202907716E+02  0.11351829395E+02  0.84266826288E+02  0.00000000000E+00 0. -1.
         11    1    3    3    0    0  0.50405723068E+01 -0.29717197540E+02  0.48742640971E+02  0.57309373122E+02  0.00000000000E+00 0.  1.
<mgrwt>
<rscale>  0 0.14671628E+03</rscale>
<asrwt>0</asrwt>
<pdfrwt beam="2">  1        1 0.11921211E-01 0.15346897E+03</pdfrwt>
<pdfrwt beam="1">  1       -1 0.40164768E-01 0.15346897E+03</pdfrwt>
<totfact> 0.30111859E+03</totfact>
</mgrwt>
</event>
<event>
 7    1  0.1378058E-005  0.1266880E+03  0.7546771E-02  0.1246906E+00
          2   -1    0    0  501    0  0.00000000000E+00  0.00000000000E+00  0.60277144924E+03  0.60277144924E+03  0.00000000000E+00 0. -1.
         -2   -1    0    0    0  501 -0.00000000000E+00 -0.00000000000E+00 -0.28384347549E+02  0.28384347549E+02  0.00000000000E+00 0.  1.
         23    2    1    2    0    0  0.15392873964E+02  0.13611545169E+02  0.42459645713E+03  0.43497454978E+03  0.92187270342E+02 0.  0.
          5    1    1    2  502    0 -0.13527490846E+02 -0.59777081679E+02  0.13348915954E+03  0.14696168963E+03  0.47000000000E+01 0.  1.
         -5    1    1    2    0  502 -0.18653831179E+01  0.46165536510E+02  0.16301485015E+02  0.49219557384E+02  0.47000000000E+01 0.  1.
        -11    1    3    3    0    0 -0.21883520799E+02 -0.29446423967E+02  0.13937960791E+03  0.14412721973E+03  0.00000000000E+00 0. -1.
         11    1    3    3    0    0  0.37276394764E+02  0.43057969136E+02  0.28521684923E+03  0.29084733005E+03  0.00000000000E+00 0.  1.
<mgrwt>
<rscale>  0 0.11772033E+03</rscale>
<asrwt>0</asrwt>
<pdfrwt beam="1">  1        2 0.92734060E-01 0.12668798E+03</pdfrwt>
<pdfrwt beam="2">  1       -2 0.43668231E-02 0.12668798E+03</pdfrwt>
<totfact> 0.11450249E+04</totfact>
</mgrwt>
</event>
<event>
 7    1  0.1378058E-005  0.1281482E+03  0.7546771E-02  0.1244970E+00
         -1   -1    0    0    0  501 -0.00000000000E+00  0.00000000000E+00  0.37626634896E+03  0.37626634896E+03  0.00000000000E+00 0.  1.
          1   -1    0    0  501    0  0.00000000000E+00 -0.00000000000E+00 -0.34054404708E+02  0.34054404708E+02  0.00000000000E+00 0. -1.
         23    2    1    2    0    0 -0.15061384464E+02 -0.23844966465E+02  0.11148077623E+03  0.14639116732E+03  0.90592398535E+02 0.  0.
          5    1    1    2  502    0  0.30827550276E+02 -0.23170845599E+02  0.13605259209E+02  0.41163321294E+02  0.47000000000E+01 0. -1.
         -5    1    1    2    0  502 -0.15766165812E+02  0.47015812064E+02  0.21712590881E+03  0.22276626505E+03  0.47000000000E+01 0. -1.
        -11    1    3    3    0    0  0.17575417588E+02 -0.36194391499E+02  0.13593557368E+02  0.42470155183E+02  0.00000000000E+00 0. -1.
         11    1    3    3    0    0 -0.32636802053E+02  0.12349425034E+02  0.97887218859E+02  0.10392101213E+03  0.00000000000E+00 0.  1.
<mgrwt>
<rscale>  0 0.11887189E+03</rscale>
<asrwt>0</asrwt>
<pdfrwt beam="2">  1        1 0.52391395E-02 0.12814817E+03</pdfrwt>
<pdfrwt beam="1">  1       -1 0.57887128E-01 0.12814817E+03</pdfrwt>
<totfact> 0.46241901E+03</totfact>
</mgrwt>
</event>
<event>
 7    1  0.1378058E-005  0.1341630E+03  0.7546771E-02  0.1234454E+00
          1   -1    0    0  501    0  0.00000000000E+00  0.00000000000E+00  0.68847607810E+02  0.68847607810E+02  0.00000000000E+00 0. -1.
         -1   -1    0    0    0  501 -0.00000000000E+00 -0.00000000000E+00 -0.20354752535E+03  0.20354752535E+03  0.00000000000E+00 0.  1.
         23    2    1    2    0    0 -0.42139766064E+02 -0.24439395032E+02 -0.52555979125E+02  0.11508229167E+03  0.90048647965E+02 0.  0.
          5    1    1    2  502    0  0.84584171763E+02  0.29240015743E+02 -0.66438575199E+02  0.11156000586E+03  0.47000000000E+01 0. -1.
         -5    1    1    2    0  502 -0.42444405699E+02 -0.48006207110E+01 -0.15705363216E+02  0.45752835629E+02  0.47000000000E+01 0. -1.
        -11    1    3    3    0    0  0.54832745401E+01 -0.42288383050E+02 -0.98715567264E+00  0.42653817144E+02  0.00000000000E+00 0. -1.
         11    1    3    3    0    0 -0.47623040604E+02  0.17848988017E+02 -0.51568823452E+02  0.72428474524E+02  0.00000000000E+00 0.  1.
<mgrwt>
<rscale>  0 0.12539465E+03</rscale>
<asrwt>0</asrwt>
<pdfrwt beam="1">  1        1 0.10591940E-01 0.13416297E+03</pdfrwt>
<pdfrwt beam="2">  1       -1 0.31315003E-01 0.13416297E+03</pdfrwt>
<totfact> 0.53612583E+03</totfact>
</mgrwt>
</event>
<event>
 7    1  0.1378058E-005  0.3127790E+03  0.7546771E-02  0.1080598E+00
          2   -1    0    0  501    0  0.00000000000E+00  0.00000000000E+00  0.61244358097E+03  0.61244358097E+03  0.00000000000E+00 0.  1.
         -2   -1    0    0    0  501 -0.00000000000E+00 -0.00000000000E+00 -0.15726354759E+03  0.15726354759E+03  0.00000000000E+00 0. -1.
         23    2    1    2    0    0 -0.13524707782E+03 -0.25281102081E+03  0.28500698942E+03  0.41363187298E+03  0.87505188523E+02 0.  0.
          5    1    1    2  502    0 -0.32333571005E+01  0.12095136235E+03  0.74993906609E+02  0.14242844759E+03  0.47000000000E+01 0.  1.
         -5    1    1    2    0  502  0.13848043492E+03  0.13185965846E+03  0.95179137344E+02  0.21364680800E+03  0.47000000000E+01 0.  1.
        -11    1    3    3    0    0 -0.11687630070E+03 -0.13378546638E+03  0.14803307817E+03  0.23124102774E+03  0.00000000000E+00 0.  1.
         11    1    3    3    0    0 -0.18370777119E+02 -0.11902555444E+03  0.13697391126E+03  0.18239084524E+03  0.00000000000E+00 0. -1.
<mgrwt>
<rscale>  0 0.30947491E+03</rscale>
<asrwt>0</asrwt>
<pdfrwt beam="1">  1        2 0.94222088E-01 0.31277903E+03</pdfrwt>
<pdfrwt beam="2">  1       -2 0.24194392E-01 0.31277903E+03</pdfrwt>
<totfact> 0.74405167E+02</totfact>
</mgrwt>
</event>
<event>
 7    1  0.1378058E-005  0.1506764E+03  0.7546771E-02  0.1208733E+00
         -1   -1    0    0    0  501 -0.00000000000E+00  0.00000000000E+00  0.10610983469E+03  0.10610983469E+03  0.00000000000E+00 0.  1.
          1   -1    0    0  501    0  0.00000000000E+00 -0.00000000000E+00 -0.18076104705E+03  0.18076104705E+03  0.00000000000E+00 0. -1.
         23    2    1    2    0    0  0.75192525683E+02  0.37660915859E+02 -0.52703653612E+02  0.13460438468E+03  0.90930769099E+02 0.  0.
          5    1    1    2  502    0 -0.94978864879E+02  0.12347283673E+02 -0.21525457069E+02  0.98279578193E+02  0.47000000000E+01 0. -1.
         -5    1    1    2    0  502  0.19786339196E+02 -0.50008199532E+02 -0.42210167620E+00  0.53986918870E+02  0.47000000000E+01 0. -1.
        -11    1    3    3    0    0  0.26944860356E+02 -0.14108862698E+02  0.17360131336E+02  0.35020846167E+02  0.00000000000E+00 0.  1.
         11    1    3    3    0    0  0.48247665326E+02  0.51769778557E+02 -0.70063784948E+02  0.99583538512E+02  0.00000000000E+00 0. -1.
<mgrwt>
<rscale>  0 0.14347114E+03</rscale>
<asrwt>0</asrwt>
<pdfrwt beam="2">  1        1 0.27809392E-01 0.15067644E+03</pdfrwt>
<pdfrwt beam="1">  1       -1 0.16324590E-01 0.15067644E+03</pdfrwt>
<totfact> 0.45130204E+03</totfact>
</mgrwt>
</event>
<event>
 7    1  0.1378058E-005  0.2552254E+03  0.7546771E-02  0.1112707E+00
          1   -1    0    0  501    0  0.00000000000E+00  0.00000000000E+00  0.47897020219E+03  0.47897020219E+03  0.00000000000E+00 0. -1.
         -1   -1    0    0    0  501 -0.00000000000E+00 -0.00000000000E+00 -0.13869507829E+03  0.13869507829E+03  0.00000000000E+00 0.  1.
         23    2    1    2    0    0  0.62663046747E+02 -0.21351110601E+03  0.25351357180E+03  0.34809609318E+03  0.85954110904E+02 0.  0.
          5    1    1    2  502    0 -0.31034815027E+02  0.73380463041E+02  0.96831710194E+02  0.12548435041E+03  0.47000000000E+01 0. -1.
         -5    1    1    2    0  502 -0.31628231720E+02  0.14013064296E+03 -0.10070158096E+02  0.14408483690E+03  0.47000000000E+01 0. -1.
        -11    1    3    3    0    0  0.10248369731E+02 -0.36032440450E+02  0.43287876174E+01  0.37710797514E+02  0.00000000000E+00 0.  1.
         11    1    3    3    0    0  0.52414677016E+02 -0.17747866556E+03  0.24918478418E+03  0.31038529566E+03  0.00000000000E+00 0. -1.
<mgrwt>
<rscale>  0 0.25094790E+03</rscale>
<asrwt>0</asrwt>
<pdfrwt beam="1">  1        1 0.73687722E-01 0.25522535E+03</pdfrwt>
<pdfrwt beam="2">  1       -1 0.21337705E-01 0.25522535E+03</pdfrwt>
<totfact> 0.86901241E+02</totfact>
</mgrwt>
</event>
<event>
 7    1  0.1378058E-005  0.1288969E+03  0.7546771E-02  0.1244189E+00
          1   -1    0    0  501    0  0.00000000000E+00  0.00000000000E+00  0.63490883352E+03  0.63490883352E+03  0.00000000000E+00 0. -1.
         -1   -1    0    0    0  501 -0.00000000000E+00 -0.00000000000E+00 -0.20437970242E+02  0.20437970242E+02  0.00000000000E+00 0.  1.
         23    2    1    2    0    0  0.22276039032E+02 -0.22205720485E+02  0.19997269739E+03  0.22126947468E+03  0.89340834922E+02 0.  0.
          5    1    1    2  502    0 -0.47532758500E+01  0.73844975917E+02  0.24189211830E+03  0.25300110869E+03  0.47000000000E+01 0. -1.
         -5    1    1    2    0  502 -0.17522763182E+02 -0.51639255432E+02  0.17260604758E+03  0.18107622039E+03  0.47000000000E+01 0. -1.
        -11    1    3    3    0    0  0.28627247709E+02 -0.30433811030E+02  0.20535637594E+03  0.20956377861E+03  0.00000000000E+00 0. -1.
         11    1    3    3    0    0 -0.63512086771E+01  0.82280905449E+01 -0.53836785507E+01  0.11705696067E+02  0.00000000000E+00 0.  1.
<mgrwt>
<rscale>  0 0.11934039E+03</rscale>
<asrwt>0</asrwt>
<pdfrwt beam="1">  1        1 0.97678267E-01 0.12889685E+03</pdfrwt>
<pdfrwt beam="2">  1       -1 0.31443036E-02 0.12889685E+03</pdfrwt>
<totfact> 0.10869159E+04</totfact>
</mgrwt>
</event>
<event>
 7    1  0.1378058E-005  0.2214958E+03  0.7546771E-02  0.1136043E+00
         -4   -1    0    0    0  501 -0.00000000000E+00  0.00000000000E+00  0.14178683496E+03  0.14178683496E+03  0.00000000000E+00 0.  1.
          4   -1    0    0  501    0  0.00000000000E+00 -0.00000000000E+00 -0.32156484202E+03  0.32156484202E+03  0.00000000000E+00 0. -1.
         23    2    1    2    0    0  0.17472648428E+03 -0.53863229523E+02 -0.70299056623E+02  0.21627674385E+03  0.91668319291E+02 0.  0.
          5    1    1    2  502    0 -0.92940839146E+02  0.90300800813E+02 -0.81485906131E+02  0.15314789292E+03  0.47000000000E+01 0.  1.
         -5    1    1    2    0  502 -0.81785645138E+02 -0.36437571290E+02 -0.27993044308E+02  0.93927040205E+02  0.47000000000E+01 0.  1.
        -11    1    3    3    0    0  0.76070013448E+02 -0.55650406908E+02 -0.70335658876E+02  0.11760408005E+03  0.00000000000E+00 0.  1.
         11    1    3    3    0    0  0.98656470836E+02  0.17871773842E+01  0.36602253475E-01  0.98672663796E+02  0.00000000000E+00 0. -1.
<mgrwt>
<rscale>  0 0.21712751E+03</rscale>
<asrwt>0</asrwt>
<pdfrwt beam="2">  1        4 0.49471514E-01 0.22149578E+03</pdfrwt>
<pdfrwt beam="1">  1       -4 0.21813359E-01 0.22149578E+03</pdfrwt>
<totfact> 0.13765652E+02</totfact>
</mgrwt>
</event>
<event>
 7    1  0.1378058E-005  0.1350901E+03  0.7546771E-02  0.1232069E+00
         -2   -1    0    0    0  501 -0.00000000000E+00  0.00000000000E+00  0.46943684401E+02  0.46943684401E+02  0.00000000000E+00 0.  1.
          2   -1    0    0  501    0  0.00000000000E+00 -0.00000000000E+00 -0.36047591869E+03  0.36047591869E+03  0.00000000000E+00 0. -1.
         23    2    1    2    0    0  0.42284700588E+02  0.28928562993E+02 -0.21754882793E+03  0.24170256201E+03  0.92020531896E+02 0.  0.
          5    1    1    2  502    0 -0.55670512046E+02 -0.24294851918E+01  0.88878674439E+01  0.56623250503E+02  0.47000000000E+01 0.  1.
         -5    1    1    2    0  502  0.13385811458E+02 -0.26499077801E+02 -0.10487127380E+03  0.10909379057E+03  0.47000000000E+01 0.  1.
        -11    1    3    3    0    0  0.49122440113E+02 -0.16964684726E+02 -0.15726678706E+03  0.16563108694E+03  0.00000000000E+00 0. -1.
         11    1    3    3    0    0 -0.68377395251E+01  0.45893247718E+02 -0.60282040874E+02  0.76071475073E+02  0.00000000000E+00 0.  1.
<mgrwt>
<rscale>  0 0.12693953E+03</rscale>
<asrwt>0</asrwt>
<pdfrwt beam="2">  1        2 0.55457831E-01 0.13509006E+03</pdfrwt>
<pdfrwt beam="1">  1       -2 0.72221057E-02 0.13509006E+03</pdfrwt>
<totfact> 0.94236551E+03</totfact>
</mgrwt>
</event>
<event>
 7    1  0.2084070E-005  0.2627058E+03  0.7546771E-02  0.1107646E+00
          1   -1    0    0  501    0  0.00000000000E+00  0.00000000000E+00  0.84696685094E+03  0.84696685094E+03  0.00000000000E+00 0. -1.
         -1   -1    0    0    0  501 -0.00000000000E+00 -0.00000000000E+00 -0.78795914551E+02  0.78795914551E+02  0.00000000000E+00 0.  1.
         23    2    1    2    0    0  0.12921049868E+03 -0.19155547455E+03  0.43896750067E+03  0.50458673628E+03  0.92338805409E+02 0.  0.
          5    1    1    2  502    0 -0.91049664642E+02  0.12978059714E+03  0.30624230305E+03  0.34487604005E+03  0.47000000000E+01 0.  1.
         -5    1    1    2    0  502 -0.38160834037E+02  0.61774877402E+02  0.22961132672E+02  0.76299989162E+02  0.47000000000E+01 0.  1.
        -11    1    3    3    0    0  0.29746873135E+02 -0.98490100791E+02  0.12200258649E+03  0.15959262992E+03  0.00000000000E+00 0. -1.
         11    1    3    3    0    0  0.99463625544E+02 -0.93065373756E+02  0.31696491418E+03  0.34499410636E+03  0.00000000000E+00 0.  1.
<mgrwt>
<rscale>  0 0.25916540E+03</rscale>
<asrwt>0</asrwt>
<pdfrwt beam="1">  1        1 0.13030259E+00 0.26270582E+03</pdfrwt>
<pdfrwt beam="2">  1       -1 0.12122449E-01 0.26270582E+03</pdfrwt>
<totfact> 0.95172268E+02</totfact>
</mgrwt>
</event>
<event>
 7    1  0.1378058E-005  0.1281237E+03  0.7546771E-02  0.1244577E+00
          2   -1    0    0  501    0  0.00000000000E+00  0.00000000000E+00  0.64355807403E+03  0.64355807403E+03  0.00000000000E+00 0.  1.
         -2   -1    0    0    0  501 -0.00000000000E+00 -0.00000000000E+00 -0.19674365347E+02  0.19674365347E+02  0.00000000000E+00 0. -1.
         23    2    1    2    0    0 -0.28114771788E+02 -0.86880629193E+00  0.30154463307E+03  0.31636334564E+03  0.91462590779E+02 0.  0.
          5    1    1    2  502    0 -0.14907308067E+02  0.55753525875E+02  0.13382225158E+03  0.14581209998E+03  0.47000000000E+01 0.  1.
         -5    1    1    2    0  502  0.43022079855E+02 -0.54884719583E+02  0.18851682403E+03  0.20105699377E+03  0.47000000000E+01 0.  1.
        -11    1    3    3    0    0 -0.53698953159E+02  0.21111720484E+02  0.14167274311E+03  0.15297205121E+03  0.00000000000E+00 0. -1.
         11    1    3    3    0    0  0.25584181371E+02 -0.21980526776E+02  0.15987188996E+03  0.16339129442E+03  0.00000000000E+00 0.  1.
<mgrwt>
<rscale>  0 0.11910746E+03</rscale>
<asrwt>0</asrwt>
<pdfrwt beam="1">  1        2 0.99008918E-01 0.12812372E+03</pdfrwt>
<pdfrwt beam="2">  1       -2 0.30268259E-02 0.12812372E+03</pdfrwt>
<totfact> 0.18276455E+04</totfact>
</mgrwt>
</event>
<event>
 7    1  0.1378058E-005  0.2189828E+03  0.7546771E-02  0.1134644E+00
         -1   -1    0    0    0  501 -0.00000000000E+00  0.00000000000E+00  0.33837971676E+03  0.33837971676E+03  0.00000000000E+00 0.  1.
          1   -1    0    0  501    0  0.00000000000E+00 -0.00000000000E+00 -0.35428730156E+02  0.35428730156E+02  0.00000000000E+00 0. -1.
         23    2    1    2    0    0  0.61520732751E+00 -0.13582612079E+02  0.11270143066E+03  0.14576342063E+03  0.91435750618E+02 0.  0.
          5    1    1    2  502    0 -0.24118752559E+02  0.64433768794E+02  0.94036363886E+02  0.11661197417E+03  0.47000000000E+01 0.  1.
         -5    1    1    2    0  502  0.23503545231E+02 -0.50851156715E+02  0.96213192055E+02  0.11143305211E+03  0.47000000000E+01 0.  1.
        -11    1    3    3    0    0 -0.25733468418E+02 -0.21760609266E+02  0.43802715137E+01  0.33984147643E+02  0.00000000000E+00 0. -1.
         11    1    3    3    0    0  0.26348675746E+02  0.81779971871E+01  0.10832115915E+03  0.11177927299E+03  0.00000000000E+00 0.  1.
<mgrwt>
<rscale>  0 0.21898277E+03</rscale>
<asrwt>0</asrwt>
<pdfrwt beam="2">  1        1 0.54505741E-02 0.21898277E+03</pdfrwt>
<pdfrwt beam="1">  1       -1 0.52058416E-01 0.21898277E+03</pdfrwt>
<totfact> 0.55273340E+03</totfact>
</mgrwt>
</event>
<event>
 7    1  0.1378058E-005  0.1743794E+03  0.7546771E-02  0.1183160E+00
          1   -1    0    0  501    0  0.00000000000E+00  0.00000000000E+00  0.11220567961E+03  0.11220567961E+03  0.00000000000E+00 0. -1.
         -1   -1    0    0    0  501 -0.00000000000E+00 -0.00000000000E+00 -0.22468136405E+03  0.22468136405E+03  0.00000000000E+00 0.  1.
         23    2    1    2    0    0 -0.15892542654E+02  0.12055491633E+03 -0.74548588117E+02  0.15843076600E+03  0.68969231281E+02 0.  0.
          5    1    1    2  502    0  0.13175395440E+02 -0.13195987263E+03 -0.65606215055E+02  0.14803129562E+03  0.47000000000E+01 0. -1.
         -5    1    1    2    0  502  0.27171472134E+01  0.11404956303E+02  0.27679118733E+02  0.30424982023E+02  0.47000000000E+01 0. -1.
        -11    1    3    3    0    0 -0.26165747017E+02  0.10520953282E+03 -0.33585389816E+02  0.11349744721E+03  0.00000000000E+00 0. -1.
         11    1    3    3    0    0  0.10273204364E+02  0.15345383504E+02 -0.40963198301E+02  0.44933318794E+02  0.00000000000E+00 0.  1.
<mgrwt>
<rscale>  0 0.16500412E+03</rscale>
<asrwt>0</asrwt>
<pdfrwt beam="1">  1        1 0.17262413E-01 0.17437941E+03</pdfrwt>
<pdfrwt beam="2">  1       -1 0.34566363E-01 0.17437941E+03</pdfrwt>
<totfact> 0.24259859E+03</totfact>
</mgrwt>
</event>
<event>
 7    1  0.1378058E-005  0.1451365E+03  0.7546771E-02  0.1216953E+00
          1   -1    0    0  501    0  0.00000000000E+00  0.00000000000E+00  0.17119667888E+03  0.17119667888E+03  0.00000000000E+00 0. -1.
         -1   -1    0    0    0  501 -0.00000000000E+00 -0.00000000000E+00 -0.99977302155E+02  0.99977302155E+02  0.00000000000E+00 0.  1.
         23    2    1    2    0    0  0.69396158458E+01 -0.73412377202E+02  0.27254466510E+02  0.11952464013E+03  0.90032206780E+02 0.  0.
          5    1    1    2  502    0  0.18154916442E+02 -0.27264264892E+02 -0.10045100526E+02  0.34582295698E+02  0.47000000000E+01 0. -1.
         -5    1    1    2    0  502 -0.25094532288E+02  0.10067664209E+03  0.54010010737E+02  0.11706704521E+03  0.47000000000E+01 0. -1.
        -11    1    3    3    0    0  0.13771668126E+02 -0.44831525048E+02  0.59589383686E+02  0.75831518046E+02  0.00000000000E+00 0. -1.
         11    1    3    3    0    0 -0.68320522802E+01 -0.28580852155E+02 -0.32334917176E+02  0.43693122079E+02  0.00000000000E+00 0.  1.
<mgrwt>
<rscale>  0 0.13734037E+03</rscale>
<asrwt>0</asrwt>
<pdfrwt beam="1">  1        1 0.26337951E-01 0.14513652E+03</pdfrwt>
<pdfrwt beam="2">  1       -1 0.15381123E-01 0.14513652E+03</pdfrwt>
<totfact> 0.52950401E+03</totfact>
</mgrwt>
</event>
<event>
 7    1  0.1378058E-005  0.1419925E+03  0.7546771E-02  0.1217115E+00
          2   -1    0    0  501    0  0.00000000000E+00  0.00000000000E+00  0.12250507508E+03  0.12250507508E+03  0.00000000000E+00 0. -1.
         -2   -1    0    0    0  501 -0.00000000000E+00 -0.00000000000E+00 -0.14699813305E+03  0.14699813305E+03  0.00000000000E+00 0.  1.
         23    2    1    2    0    0 -0.17530830054E+02 -0.36741325961E+02  0.70268322089E+01  0.12405434665E+03  0.11697371293E+03 0.  0.
          5    1    1    2  502    0 -0.34355564585E+02 -0.33398842349E+02  0.92624351918E+01  0.49027239305E+02  0.47000000000E+01 0. -1.
         -5    1    1    2    0  502  0.51886394638E+02  0.70140168310E+02 -0.40782325369E+02  0.96421622169E+02  0.47000000000E+01 0.  1.
        -11    1    3    3    0    0 -0.41224867563E+02  0.22832972152E+02 -0.23935921958E+02  0.52856056255E+02  0.00000000000E+00 0.  1.
         11    1    3    3    0    0  0.23694037510E+02 -0.59574298113E+02  0.30962754167E+02  0.71198290392E+02  0.00000000000E+00 0. -1.
<mgrwt>
<rscale>  0 0.13722321E+03</rscale>
<asrwt>0</asrwt>
<pdfrwt beam="1">  1        2 0.18846935E-01 0.14199249E+03</pdfrwt>
<pdfrwt beam="2">  1       -2 0.22615097E-01 0.14199249E+03</pdfrwt>
<totfact> 0.48325026E+03</totfact>
</mgrwt>
</event>
<event>
 7    1  0.1378058E-005  0.1579294E+03  0.7546771E-02  0.1199456E+00
          2   -1    0    0  501    0  0.00000000000E+00  0.00000000000E+00  0.28527607899E+03  0.28527607899E+03  0.00000000000E+00 0.  1.
         -2   -1    0    0    0  501 -0.00000000000E+00 -0.00000000000E+00 -0.73769011346E+02  0.73769011346E+02  0.00000000000E+00 0. -1.
         23    2    1    2    0    0 -0.92837443660E+02  0.26426116597E+02  0.10948108802E+03  0.17102646781E+03  0.89144901552E+02 0.  0.
          5    1    1    2  502    0  0.76917060172E+01 -0.41758909544E+02 -0.12406234147E+02  0.44485655142E+02  0.47000000000E+01 0.  1.
         -5    1    1    2    0  502  0.85145737643E+02  0.15332792947E+02  0.11443221377E+03  0.14353296738E+03  0.47000000000E+01 0.  1.
        -11    1    3    3    0    0 -0.59841883605E+01 -0.14384371018E+02  0.62059927633E+02  0.63985586328E+02  0.00000000000E+00 0.  1.
         11    1    3    3    0    0 -0.86853255299E+02  0.40810487615E+02  0.47421160390E+02  0.10704088148E+03  0.00000000000E+00 0. -1.
<mgrwt>
<rscale>  0 0.15083071E+03</rscale>
<asrwt>0</asrwt>
<pdfrwt beam="1">  1        2 0.43888627E-01 0.15792942E+03</pdfrwt>
<pdfrwt beam="2">  1       -2 0.11349079E-01 0.15792942E+03</pdfrwt>
<totfact> 0.60256861E+03</totfact>
</mgrwt>
</event>
<event>
 7    1  0.1378058E-005  0.1265251E+03  0.7546771E-02  0.1248664E+00
         -2   -1    0    0    0  501 -0.00000000000E+00  0.00000000000E+00  0.55728461577E+03  0.55728461577E+03  0.00000000000E+00 0.  1.
          2   -1    0    0  501    0  0.00000000000E+00 -0.00000000000E+00 -0.28398435019E+02  0.28398435019E+02  0.00000000000E+00 0. -1.
         23    2    1    2    0    0 -0.13805807019E+02  0.13893588729E+02  0.87892154017E+02  0.12689732737E+03  0.89410675203E+02 0.  0.
          5    1    1    2  502    0  0.25110210121E+02 -0.66917581390E+02  0.23063558655E+03  0.24150227563E+03  0.47000000000E+01 0.  1.
         -5    1    1    2    0  502 -0.11304403102E+02  0.53023992661E+02  0.21035844018E+03  0.21728344779E+03  0.47000000000E+01 0.  1.
        -11    1    3    3    0    0 -0.35871549403E+02 -0.11644257122E+02  0.85038867753E+02  0.93026694068E+02  0.00000000000E+00 0.  1.
         11    1    3    3    0    0  0.22065742384E+02  0.25537845851E+02  0.28532862643E+01  0.33870633301E+02  0.00000000000E+00 0. -1.
<mgrwt>
<rscale>  0 0.11668754E+03</rscale>
<asrwt>0</asrwt>
<pdfrwt beam="2">  1        2 0.43689904E-02 0.12652513E+03</pdfrwt>
<pdfrwt beam="1">  1       -2 0.85736086E-01 0.12652513E+03</pdfrwt>
<totfact> 0.21929019E+03</totfact>
</mgrwt>
</event>
<event>
 7    1  0.1378058E-005  0.2868473E+03  0.7546771E-02  0.1093441E+00
         -2   -1    0    0    0  501 -0.00000000000E+00  0.00000000000E+00  0.14901709802E+03  0.14901709802E+03  0.00000000000E+00 0.  1.
          2   -1    0    0  501    0  0.00000000000E+00 -0.00000000000E+00 -0.54149687640E+03  0.54149687640E+03  0.00000000000E+00 0. -1.
         23    2    1    2    0    0 -0.23912378038E+03 -0.97311002448E+02 -0.23852539669E+03  0.36496312817E+03  0.98255312940E+02 0.  0.
          5    1    1    2  502    0  0.28822924681E+02  0.31233446087E+02  0.17543914303E+02  0.46218698280E+02  0.47000000000E+01 0.  1.
         -5    1    1    2    0  502  0.21030085570E+03  0.66077556361E+02 -0.17149829599E+03  0.27933214797E+03  0.47000000000E+01 0.  1.
        -11    1    3    3    0    0 -0.51968013728E+02 -0.48645400070E+02 -0.11579649934E+03  0.13592600435E+03  0.00000000000E+00 0. -1.
         11    1    3    3    0    0 -0.18715576665E+03 -0.48665602378E+02 -0.12272889735E+03  0.22903712382E+03  0.00000000000E+00 0.  1.
<mgrwt>
<rscale>  0 0.28415568E+03</rscale>
<asrwt>0</asrwt>
<pdfrwt beam="2">  1        2 0.83307211E-01 0.28684735E+03</pdfrwt>
<pdfrwt beam="1">  1       -2 0.22925708E-01 0.28684735E+03</pdfrwt>
<totfact> 0.94393499E+02</totfact>
</mgrwt>
</event>
<event>
 7    1  0.1378058E-005  0.1440068E+03  0.7546771E-02  0.1218584E+00
          2   -1    0    0  501    0  0.00000000000E+00  0.00000000000E+00  0.66642138725E+03  0.66642138725E+03  0.00000000000E+00 0. -1.
         -2   -1    0    0    0  501 -0.00000000000E+00 -0.00000000000E+00 -0.26581652774E+02  0.26581652774E+02  0.00000000000E+00 0.  1.
         23    2    1    2    0    0 -0.49132518266E+02 -0.51943108823E+02  0.36499616172E+03  0.38271776043E+03  0.90214162786E+02 0.  0.
          5    1    1    2  502    0  0.63716692397E+01 -0.37449921161E+02  0.12374532202E+03  0.12953026475E+03  0.47000000000E+01 0. -1.
         -5    1    1    2    0  502  0.42760849027E+02  0.89393029983E+02  0.15109825074E+03  0.18075501485E+03  0.47000000000E+01 0. -1.
        -11    1    3    3    0    0  0.11244314203E+02  0.15957478583E+02  0.11664280032E+03  0.11826503537E+03  0.00000000000E+00 0. -1.
         11    1    3    3    0    0 -0.60376832469E+02 -0.67900587405E+02  0.24835336140E+03  0.26445272506E+03  0.00000000000E+00 0.  1.
<mgrwt>
<rscale>  0 0.13616550E+03</rscale>
<asrwt>0</asrwt>
<pdfrwt beam="1">  1        2 0.10252635E+00 0.14400682E+03</pdfrwt>
<pdfrwt beam="2">  1       -2 0.40894855E-02 0.14400682E+03</pdfrwt>
<totfact> 0.11343963E+04</totfact>
</mgrwt>
</event>
<event>
 7    1  0.1378058E-005  0.1276783E+03  0.7546771E-02  0.1245351E+00
          1   -1    0    0  501    0  0.00000000000E+00  0.00000000000E+00  0.27061576582E+03  0.27061576582E+03  0.00000000000E+00 0. -1.
         -1   -1    0    0    0  501 -0.00000000000E+00 -0.00000000000E+00 -0.51528319303E+02  0.51528319303E+02  0.00000000000E+00 0.  1.
         23    2    1    2    0    0  0.25983926512E+02  0.21019397228E+01  0.14810318282E+03  0.17606019185E+03  0.91559029081E+02 0.  0.
          5    1    1    2  502    0 -0.13273617160E+02  0.60286520790E+02  0.47599647168E+02  0.78092700760E+02  0.47000000000E+01 0.  1.
         -5    1    1    2    0  502 -0.12710309352E+02 -0.62388460513E+02  0.23384616532E+02  0.67991192513E+02  0.47000000000E+01 0.  1.
        -11    1    3    3    0    0  0.49054048139E+02  0.18163755645E+02  0.13551383367E+03  0.14525915040E+03  0.00000000000E+00 0. -1.
         11    1    3    3    0    0 -0.23070121627E+02 -0.16061815923E+02  0.12589349145E+02  0.30801041452E+02  0.00000000000E+00 0.  1.
<mgrwt>
<rscale>  0 0.11864366E+03</rscale>
<asrwt>0</asrwt>
<pdfrwt beam="1">  1        1 0.41633194E-01 0.12767826E+03</pdfrwt>
<pdfrwt beam="2">  1       -1 0.79274339E-02 0.12767826E+03</pdfrwt>
<totfact> 0.82338828E+03</totfact>
</mgrwt>
</event>
<event>
 7    1  0.1378058E-005  0.1523904E+03  0.7546771E-02  0.1206478E+00
         -3   -1    0    0    0  501 -0.00000000000E+00  0.00000000000E+00  0.73404216719E+02  0.73404216719E+02  0.00000000000E+00 0.  1.
          3   -1    0    0  501    0  0.00000000000E+00 -0.00000000000E+00 -0.43032004216E+03  0.43032004216E+03  0.00000000000E+00 0. -1.
         23    2    1    2    0    0  0.81860377265E+02  0.29942900916E+02 -0.32442419885E+03  0.34790850678E+03  0.90507290340E+02 0.  0.
          5    1    1    2  502    0 -0.93370355735E+02 -0.23997077571E+01 -0.63089907788E+02  0.11281049770E+03  0.47000000000E+01 0. -1.
         -5    1    1    2    0  502  0.11509978471E+02 -0.27543193159E+02  0.30598281198E+02  0.43005254400E+02  0.47000000000E+01 0. -1.
        -11    1    3    3    0    0  0.85724344162E+02 -0.61658503997E+00 -0.16942876465E+03  0.18988193608E+03  0.00000000000E+00 0.  1.
         11    1    3    3    0    0 -0.38639668967E+01  0.30559485956E+02 -0.15499543420E+03  0.15802657069E+03  0.00000000000E+00 0. -1.
<mgrwt>
<rscale>  0 0.14521568E+03</rscale>
<asrwt>0</asrwt>
<pdfrwt beam="2">  1        3 0.66203084E-01 0.15239043E+03</pdfrwt>
<pdfrwt beam="1">  1       -3 0.11292956E-01 0.15239043E+03</pdfrwt>
<totfact> 0.31896150E+02</totfact>
</mgrwt>
</event>
<event>
 7    1  0.1378058E-005  0.3629868E+03  0.7546771E-02  0.1057407E+00
          2   -1    0    0  501    0  0.00000000000E+00  0.00000000000E+00  0.78566507071E+03  0.78566507071E+03  0.00000000000E+00 0. -1.
         -2   -1    0    0    0  501 -0.00000000000E+00 -0.00000000000E+00 -0.41926072309E+02  0.41926072309E+02  0.00000000000E+00 0.  1.
         23    2    1    2    0    0 -0.14517032617E+02  0.26252835047E+02  0.22640711556E+03  0.24627372583E+03  0.92144508658E+02 0.  0.
          5    1    1    2  502    0 -0.72676936929E+02  0.84887510391E+02  0.31692898128E+03  0.33608614336E+03  0.47000000000E+01 0. -1.
         -5    1    1    2    0  502  0.87193969546E+02 -0.11114034544E+03  0.20040290156E+03  0.24523127383E+03  0.47000000000E+01 0.  1.
        -11    1    3    3    0    0  0.15129638594E+02 -0.29786962517E+02  0.83448477015E+02  0.89887804602E+02  0.00000000000E+00 0.  1.
         11    1    3    3    0    0 -0.29646671211E+02  0.56039797564E+02  0.14295863854E+03  0.15638592123E+03  0.00000000000E+00 0. -1.
<mgrwt>
<rscale>  0 0.36298678E+03</rscale>
<asrwt>0</asrwt>
<pdfrwt beam="1">  1        2 0.12087154E+00 0.36298678E+03</pdfrwt>
<pdfrwt beam="2">  1       -2 0.64501656E-02 0.36298678E+03</pdfrwt>
<totfact> 0.48269922E+03</totfact>
</mgrwt>
</event>
<event>
 7    1  0.1378058E-005  0.1575872E+03  0.7546771E-02  0.1199168E+00
          3   -1    0    0  501    0  0.00000000000E+00  0.00000000000E+00  0.32670001156E+03  0.32670001156E+03  0.00000000000E+00 0. -1.
         -3   -1    0    0    0  501 -0.00000000000E+00 -0.00000000000E+00 -0.64653456987E+02  0.64653456987E+02  0.00000000000E+00 0.  1.
         23    2    1    2    0    0  0.10673555279E+02 -0.95363548289E+02  0.11908331823E+03  0.17858078339E+03  0.92206986665E+02 0.  0.
          5    1    1    2  502    0 -0.29875155353E+02  0.40574845976E+02  0.14592569782E+03  0.15445142381E+03  0.47000000000E+01 0. -1.
         -5    1    1    2    0  502  0.19201600074E+02  0.54788702313E+02 -0.29624614833E+01  0.58321261343E+02  0.47000000000E+01 0. -1.
        -11    1    3    3    0    0  0.49041650742E+02 -0.49801807777E+02  0.84659775813E+02  0.10978424844E+03  0.00000000000E+00 0. -1.
         11    1    3    3    0    0 -0.38368095463E+02 -0.45561740512E+02  0.34423542421E+02  0.68796534947E+02  0.00000000000E+00 0.  1.
<mgrwt>
<rscale>  0 0.15106673E+03</rscale>
<asrwt>0</asrwt>
<pdfrwt beam="1">  1        3 0.50261539E-01 0.15758721E+03</pdfrwt>
<pdfrwt beam="2">  1       -3 0.99466859E-02 0.15758721E+03</pdfrwt>
<totfact> 0.69621687E+02</totfact>
</mgrwt>
</event>
<event>
 7    1  0.1378058E-005  0.1333968E+03  0.7546771E-02  0.1234205E+00
         -1   -1    0    0    0  501 -0.00000000000E+00  0.00000000000E+00  0.31464548892E+02  0.31464548892E+02  0.00000000000E+00 0.  1.
          1   -1    0    0  501    0  0.00000000000E+00 -0.00000000000E+00 -0.47419352086E+03  0.47419352086E+03  0.00000000000E+00 0. -1.
         23    2    1    2    0    0 -0.19700852397E+02  0.42210291545E+02 -0.25227553168E+03  0.27313449593E+03  0.93753275596E+02 0.  0.
          5    1    1    2  502    0  0.39939147113E+02  0.30837241698E+02 -0.42187203847E+02  0.65938767929E+02  0.47000000000E+01 0.  1.
         -5    1    1    2    0  502 -0.20238294716E+02 -0.73047533243E+02 -0.14826623644E+03  0.16658480590E+03  0.47000000000E+01 0.  1.
        -11    1    3    3    0    0 -0.22341603679E+02 -0.27123875826E+02 -0.77747570268E+02  0.85320200289E+02  0.00000000000E+00 0.  1.
         11    1    3    3    0    0  0.26407512821E+01  0.69334167371E+02 -0.17452796141E+03  0.18781429564E+03  0.00000000000E+00 0. -1.
<mgrwt>
<rscale>  0 0.12555467E+03</rscale>
<asrwt>0</asrwt>
<pdfrwt beam="2">  1        1 0.72952843E-01 0.13339677E+03</pdfrwt>
<pdfrwt beam="1">  1       -1 0.48407002E-02 0.13339677E+03</pdfrwt>
<totfact> 0.85358082E+03</totfact>
</mgrwt>
</event>
<event>
 7    1  0.1378058E-005  0.2496478E+03  0.7546771E-02  0.1115235E+00
          1   -1    0    0  501    0  0.00000000000E+00  0.00000000000E+00  0.24309321446E+03  0.24309321446E+03  0.00000000000E+00 0. -1.
         -1   -1    0    0    0  501 -0.00000000000E+00 -0.00000000000E+00 -0.26074451828E+03  0.26074451828E+03  0.00000000000E+00 0.  1.
         23    2    1    2    0    0 -0.29169080190E+02  0.21412197804E+03  0.51922183853E+02  0.24467662528E+03  0.10233123210E+03 0.  0.
          5    1    1    2  502    0 -0.33569446092E+02 -0.13048898947E+03 -0.24733048884E+01  0.13484246854E+03  0.47000000000E+01 0. -1.
         -5    1    1    2    0  502  0.62738526282E+02 -0.83632988563E+02 -0.67100182781E+02  0.12431863893E+03  0.47000000000E+01 0. -1.
        -11    1    3    3    0    0 -0.20681873994E+02  0.17296393109E+03 -0.45844223785E+01  0.17425635798E+03  0.00000000000E+00 0.  1.
         11    1    3    3    0    0 -0.84872061961E+01  0.41158046951E+02  0.56506606232E+02  0.70420267293E+02  0.00000000000E+00 0. -1.
<mgrwt>
<rscale>  0 0.24696903E+03</rscale>
<asrwt>0</asrwt>
<pdfrwt beam="1">  1        1 0.37398956E-01 0.24964777E+03</pdfrwt>
<pdfrwt beam="2">  1       -1 0.40114541E-01 0.24964777E+03</pdfrwt>
<totfact> 0.70477460E+02</totfact>
</mgrwt>
</event>
<event>
 7    1  0.1378058E-005  0.1263853E+03  0.7546771E-02  0.1243764E+00
         -1   -1    0    0    0  501 -0.00000000000E+00  0.00000000000E+00  0.81806639077E+02  0.81806639077E+02  0.00000000000E+00 0.  1.
          1   -1    0    0  501    0  0.00000000000E+00 -0.00000000000E+00 -0.17640078707E+03  0.17640078707E+03  0.00000000000E+00 0. -1.
         23    2    1    2    0    0 -0.18693672251E+02 -0.12886915594E+01 -0.83548042052E+02  0.13134029269E+03  0.99593589375E+02 0.  0.
          5    1    1    2  502    0 -0.28449256337E+02 -0.11818580875E+02 -0.53500977507E+02  0.61915132515E+02  0.47000000000E+01 0.  1.
         -5    1    1    2    0  502  0.47142928589E+02  0.13107272434E+02  0.42454871567E+02  0.64952000942E+02  0.47000000000E+01 0.  1.
        -11    1    3    3    0    0 -0.14096983897E+00 -0.16912000040E+02  0.19305328829E+02  0.25665762000E+02  0.00000000000E+00 0.  1.
         11    1    3    3    0    0 -0.18552702412E+02  0.15623308481E+02 -0.10285337088E+03  0.10567453069E+03  0.00000000000E+00 0. -1.
<mgrwt>
<rscale>  0 0.11959659E+03</rscale>
<asrwt>0</asrwt>
<pdfrwt beam="2">  1        1 0.27138583E-01 0.12638534E+03</pdfrwt>
<pdfrwt beam="1">  1       -1 0.12585637E-01 0.12638534E+03</pdfrwt>
<totfact> 0.69089074E+03</totfact>
</mgrwt>
</event>
<event>
 7    1  0.1378058E-005  0.1361602E+03  0.7546771E-02  0.1231121E+00
          2   -1    0    0  501    0  0.00000000000E+00  0.00000000000E+00  0.63362767173E+03  0.63362767173E+03  0.00000000000E+00 0.  1.
         -2   -1    0    0    0  501 -0.00000000000E+00 -0.00000000000E+00 -0.26886677716E+02  0.26886677716E+02  0.00000000000E+00 0. -1.
         23    2    1    2    0    0  0.20824396421E+02 -0.49900012516E+02  0.39567092629E+03  0.40933676225E+03  0.89874558624E+02 0.  0.
          5    1    1    2  502    0  0.70549726388E+01  0.83580445843E+02  0.93730670109E+02  0.12586894806E+03  0.47000000000E+01 0. -1.
         -5    1    1    2    0  502 -0.27879369060E+02 -0.33680433327E+02  0.11733939762E+03  0.12530863914E+03  0.47000000000E+01 0. -1.
        -11    1    3    3    0    0  0.97180839821E+01  0.25788713659E+02  0.83553828186E+02  0.87981481648E+02  0.00000000000E+00 0. -1.
         11    1    3    3    0    0  0.11106312439E+02 -0.75688726175E+02  0.31211709810E+03  0.32135528061E+03  0.00000000000E+00 0.  1.
<mgrwt>
<rscale>  0 0.12756080E+03</rscale>
<asrwt>0</asrwt>
<pdfrwt beam="1">  1        2 0.97481169E-01 0.13616022E+03</pdfrwt>
<pdfrwt beam="2">  1       -2 0.41364124E-02 0.13616022E+03</pdfrwt>
<totfact> 0.11782767E+04</totfact>
</mgrwt>
</event>
<event>
 7    1  0.1378058E-005  0.1725088E+03  0.7546771E-02  0.1181458E+00
          2   -1    0    0  501    0  0.00000000000E+00  0.00000000000E+00  0.49935348216E+02  0.49935348216E+02  0.00000000000E+00 0. -1.
         -2   -1    0    0    0  501 -0.00000000000E+00 -0.00000000000E+00 -0.52205056725E+03  0.52205056725E+03  0.00000000000E+00 0.  1.
         23    2    1    2    0    0  0.60314780931E+02 -0.10245178555E+03 -0.20533355359E+03  0.25428835361E+03  0.91468340909E+02 0.  0.
          5    1    1    2  502    0  0.66584096584E+01  0.10459924689E+03 -0.15169212779E+03  0.18443949821E+03  0.47000000000E+01 0. -1.
         -5    1    1    2    0  502 -0.66973190590E+02 -0.21474613331E+01 -0.11508953766E+03  0.13325806364E+03  0.47000000000E+01 0. -1.
        -11    1    3    3    0    0 -0.13137478992E+00 -0.85400969053E+02 -0.98553506252E+02  0.13040757788E+03  0.00000000000E+00 0.  1.
         11    1    3    3    0    0  0.60446155721E+02 -0.17050816501E+02 -0.10678004734E+03  0.12388077573E+03  0.00000000000E+00 0. -1.
<mgrwt>
<rscale>  0 0.16658386E+03</rscale>
<asrwt>0</asrwt>
<pdfrwt beam="1">  1        2 0.76823607E-02 0.17250879E+03</pdfrwt>
<pdfrwt beam="2">  1       -2 0.80315478E-01 0.17250879E+03</pdfrwt>
<totfact> 0.12413485E+03</totfact>
</mgrwt>
</event>
<event>
 7    1  0.1378058E-005  0.3345454E+03  0.7546771E-02  0.1070434E+00
          1   -1    0    0  501    0  0.00000000000E+00  0.00000000000E+00  0.15709922623E+04  0.15709922623E+04  0.00000000000E+00 0. -1.
         -1   -1    0    0    0  501 -0.00000000000E+00 -0.00000000000E+00 -0.77304232454E+02  0.77304232454E+02  0.00000000000E+00 0.  1.
         23    2    1    2    0    0  0.29881884951E+03 -0.83614712389E+02  0.10086606376E+04  0.10590832925E+04  0.89314128388E+02 0.  0.
          5    1    1    2  502    0 -0.29789995914E+03  0.54095020666E+02  0.45706634847E+03  0.54827218953E+03  0.47000000000E+01 0.  1.
         -5    1    1    2    0  502 -0.91889036906E+00  0.29519691722E+02  0.27961043792E+02  0.40941012797E+02  0.47000000000E+01 0.  1.
        -11    1    3    3    0    0  0.82575547778E+02  0.15051093031E+01  0.17287196146E+03  0.19158732083E+03  0.00000000000E+00 0.  1.
         11    1    3    3    0    0  0.21624330173E+03 -0.85119821692E+02  0.83578867617E+03  0.86749597163E+03  0.00000000000E+00 0. -1.
<mgrwt>
<rscale>  0 0.33159396E+03</rscale>
<asrwt>0</asrwt>
<pdfrwt beam="1">  1        1 0.24169109E+00 0.33454540E+03</pdfrwt>
<pdfrwt beam="2">  1       -1 0.11892960E-01 0.33454540E+03</pdfrwt>
<totfact> 0.29658152E+02</totfact>
</mgrwt>
</event>
<event>
 7    1  0.1378058E-005  0.1756211E+03  0.7546771E-02  0.1178258E+00
         -1   -1    0    0    0  501 -0.00000000000E+00  0.00000000000E+00  0.10884062003E+03  0.10884062003E+03  0.00000000000E+00 0.  1.
          1   -1    0    0  501    0  0.00000000000E+00 -0.00000000000E+00 -0.25171125569E+03  0.25171125569E+03  0.00000000000E+00 0. -1.
         23    2    1    2    0    0 -0.12335475023E+03 -0.14275384420E+01 -0.43870112776E+02  0.15894859707E+03  0.90120127857E+02 0.  0.
          5    1    1    2  502    0  0.91303112065E+02 -0.18036754591E+02  0.25783590435E+01  0.93221889727E+02  0.47000000000E+01 0. -1.
         -5    1    1    2    0  502  0.32051638164E+02  0.19464293033E+02 -0.10157888193E+03  0.10838138893E+03  0.47000000000E+01 0. -1.
        -11    1    3    3    0    0 -0.13540436263E+03 -0.12190827289E+02 -0.43659515890E+02  0.14279044442E+03  0.00000000000E+00 0.  1.
         11    1    3    3    0    0  0.12049612405E+02  0.10763288847E+02 -0.21059688621E+00  0.16158152647E+02  0.00000000000E+00 0. -1.
<mgrwt>
<rscale>  0 0.16960761E+03</rscale>
<asrwt>0</asrwt>
<pdfrwt beam="2">  1        1 0.38724808E-01 0.17562112E+03</pdfrwt>
<pdfrwt beam="1">  1       -1 0.16744711E-01 0.17562112E+03</pdfrwt>
<totfact> 0.28888572E+03</totfact>
</mgrwt>
</event>
<event>
 7    1  0.1378058E-005  0.1334978E+03  0.7546771E-02  0.1234750E+00
         -1   -1    0    0    0  501 -0.00000000000E+00  0.00000000000E+00  0.12482755925E+03  0.12482755925E+03  0.00000000000E+00 0.  1.
          1   -1    0    0  501    0  0.00000000000E+00 -0.00000000000E+00 -0.13164594134E+03  0.13164594134E+03  0.00000000000E+00 0. -1.
         23    2    1    2    0    0 -0.29948486655E+02  0.36083997939E+02 -0.51864658913E+02  0.11558050497E+03  0.92032296098E+02 0.  0.
          5    1    1    2  502    0  0.68355508650E+02 -0.22817785101E+01  0.55808819851E+02  0.88399074933E+02  0.47000000000E+01 0.  1.
         -5    1    1    2    0  502 -0.38407021994E+02 -0.33802219429E+02 -0.10762543024E+02  0.52493920687E+02  0.47000000000E+01 0.  1.
        -11    1    3    3    0    0 -0.22657015022E+02 -0.28388503130E+02 -0.30009884374E+02  0.47115184387E+02  0.00000000000E+00 0. -1.
         11    1    3    3    0    0 -0.72914716333E+01  0.64472501069E+02 -0.21854774539E+02  0.68465320585E+02  0.00000000000E+00 0.  1.
<mgrwt>
<rscale>  0 0.12520471E+03</rscale>
<asrwt>0</asrwt>
<pdfrwt beam="2">  1        1 0.20253222E-01 0.13349782E+03</pdfrwt>
<pdfrwt beam="1">  1       -1 0.19204240E-01 0.13349782E+03</pdfrwt>
<totfact> 0.51611008E+03</totfact>
</mgrwt>
</event>
<event>
 7    1  0.1378058E-005  0.1320756E+03  0.7546771E-02  0.1237270E+00
         -2   -1    0    0    0  501 -0.00000000000E+00  0.00000000000E+00  0.20297486257E+03  0.20297486257E+03  0.00000000000E+00 0. -1.
          2   -1    0    0  501    0  0.00000000000E+00 -0.00000000000E+00 -0.72718777610E+02  0.72718777610E+02  0.00000000000E+00 0.  1.
         23    2    1    2    0    0  0.34770419744E+02 -0.24734546720E+02  0.19152801840E+02  0.10310187710E+03  0.91882464878E+02 0.  0.
          5    1    1    2  502    0  0.43779356271E+02  0.25207656181E+02  0.60832768492E+02  0.79213469107E+02  0.47000000000E+01 0. -1.
         -5    1    1    2    0  502 -0.78549776015E+02 -0.47310946120E+00  0.50270514622E+02  0.93378293971E+02  0.47000000000E+01 0. -1.
        -11    1    3    3    0    0 -0.13860871202E+02  0.48970981380E+01 -0.26373058909E+02  0.30193435659E+02  0.00000000000E+00 0.  1.
         11    1    3    3    0    0  0.48631290946E+02 -0.29631644858E+02  0.45525860750E+02  0.72908441439E+02  0.00000000000E+00 0. -1.
<mgrwt>
<rscale>  0 0.12360250E+03</rscale>
<asrwt>0</asrwt>
<pdfrwt beam="2">  1        2 0.11187504E-01 0.13207565E+03</pdfrwt>
<pdfrwt beam="1">  1       -2 0.31226902E-01 0.13207565E+03</pdfrwt>
<totfact> 0.50256321E+03</totfact>
</mgrwt>
</event>
<event>
 7    1  0.1378058E-005  0.1319661E+03  0.7546771E-02  0.1238489E+00
         -1   -1    0    0    0  501 -0.00000000000E+00  0.00000000000E+00  0.13717727360E+04  0.13717727360E+04  0.00000000000E+00 0.  1.
          1   -1    0    0  501    0  0.00000000000E+00 -0.00000000000E+00 -0.13332653375E+02  0.13332653375E+02  0.00000000000E+00 0. -1.
         23    2    1    2    0    0  0.40166681958E+02  0.13358192053E+02  0.25120859952E+03  0.27003740572E+03  0.89569170932E+02 0.  0.
          5    1    1    2  502    0 -0.41762748633E+02 -0.58430728804E+02  0.90296378208E+03  0.90582777557E+03  0.47000000000E+01 0.  1.
         -5    1    1    2    0  502  0.15960666753E+01  0.45072536751E+02  0.20426770105E+03  0.20924020811E+03  0.47000000000E+01 0.  1.
        -11    1    3    3    0    0 -0.26488117493E+01  0.44345685629E+02  0.14057409633E+03  0.14742670245E+03  0.00000000000E+00 0.  1.
         11    1    3    3    0    0  0.42815493707E+02 -0.30987493576E+02  0.11063450319E+03  0.12261070327E+03  0.00000000000E+00 0. -1.
<mgrwt>
<rscale>  0 0.12283722E+03</rscale>
<asrwt>0</asrwt>
<pdfrwt beam="2">  1        1 0.20511785E-02 0.13196610E+03</pdfrwt>
<pdfrwt beam="1">  1       -1 0.21104185E+00 0.13196610E+03</pdfrwt>
<totfact> 0.81001942E+02</totfact>
</mgrwt>
</event>
<event>
 7    1  0.1378058E-005  0.2104424E+03  0.7546771E-02  0.1144812E+00
         -1   -1    0    0    0  501 -0.00000000000E+00  0.00000000000E+00  0.39765146923E+02  0.39765146923E+02  0.00000000000E+00 0.  1.
          1   -1    0    0  501    0  0.00000000000E+00 -0.00000000000E+00 -0.10261945765E+04  0.10261945765E+04  0.00000000000E+00 0. -1.
         23    2    1    2    0    0 -0.67175313430E+02  0.15540864090E+03 -0.49907145558E+03  0.53510777946E+03  0.92755859418E+02 0.  0.
          5    1    1    2  502    0  0.68753880744E+01 -0.45875420055E+01 -0.20388995192E+03  0.20411153568E+03  0.47000000000E+01 0.  1.
         -5    1    1    2    0  502  0.60299925355E+02 -0.15082109889E+03 -0.28346802206E+03  0.32674040828E+03  0.47000000000E+01 0.  1.
        -11    1    3    3    0    0 -0.68551638005E+02  0.57149861103E+02 -0.30173129230E+03  0.31465410604E+03  0.00000000000E+00 0. -1.
         11    1    3    3    0    0  0.13763245759E+01  0.98258779796E+02 -0.19734016328E+03  0.22045367341E+03  0.00000000000E+00 0.  1.
<mgrwt>
<rscale>  0 0.20595243E+03</rscale>
<asrwt>0</asrwt>
<pdfrwt beam="2">  1        1 0.15787608E+00 0.21044237E+03</pdfrwt>
<pdfrwt beam="1">  1       -1 0.61177154E-02 0.21044237E+03</pdfrwt>
<totfact> 0.19785557E+03</totfact>
</mgrwt>
</event>
<event>
 7    1  0.1378058E-005  0.1290981E+03  0.7546771E-02  0.1248777E+00
          1   -1    0    0  501    0  0.00000000000E+00  0.00000000000E+00  0.14435597358E+03  0.14435597358E+03  0.00000000000E+00 0. -1.
         -1   -1    0    0    0  501 -0.00000000000E+00 -0.00000000000E+00 -0.91163503052E+02  0.91163503052E+02  0.00000000000E+00 0.  1.
         23    2    1    2    0    0 -0.14742813816E+01  0.32244272165E+02  0.62192020331E+02  0.10610810892E+03  0.79681972816E+02 0.  0.
          5    1    1    2  502    0  0.32275272467E+02  0.16294581943E+02 -0.47636555255E+02  0.59987815514E+02  0.47000000000E+01 0. -1.
         -5    1    1    2    0  502 -0.30800991086E+02 -0.48538854108E+02  0.38637005451E+02  0.69423552201E+02  0.47000000000E+01 0. -1.
        -11    1    3    3    0    0  0.31392309455E+02  0.14889884934E+02  0.12994988916E+01  0.34768872050E+02  0.00000000000E+00 0.  1.
         11    1    3    3    0    0 -0.32866590837E+02  0.17354387231E+02  0.60892521439E+02  0.71339236866E+02  0.00000000000E+00 0. -1.
<mgrwt>
<rscale>  0 0.11662142E+03</rscale>
<asrwt>0</asrwt>
<pdfrwt beam="1">  1        1 0.22208611E-01 0.12909806E+03</pdfrwt>
<pdfrwt beam="2">  1       -1 0.14025154E-01 0.12909806E+03</pdfrwt>
<totfact> 0.75220357E+03</totfact>
</mgrwt>
</event>
<event>
 7    1  0.1378058E-005  0.1388237E+03  0.7546771E-02  0.1226363E+00
         -1   -1    0    0    0  501 -0.00000000000E+00  0.00000000000E+00  0.24782372450E+03  0.24782372450E+03  0.00000000000E+00 0. -1.
          1   -1    0    0  501    0  0.00000000000E+00 -0.00000000000E+00 -0.62331782118E+02  0.62331782118E+02  0.00000000000E+00 0.  1.
         23    2    1    2    0    0  0.30591797862E+02 -0.52065513512E+02  0.71495194163E+02  0.13052456095E+03  0.90985836420E+02 0.  0.
          5    1    1    2  502    0  0.39891287581E+02  0.34107501971E+02  0.87374825614E+02  0.10203473265E+03  0.47000000000E+01 0.  1.
         -5    1    1    2    0  502 -0.70483085443E+02  0.17958011541E+02  0.26621922609E+02  0.77596213023E+02  0.47000000000E+01 0.  1.
        -11    1    3    3    0    0 -0.53029157288E+01 -0.36376196221E+02 -0.11691899834E+02  0.38575239318E+02  0.00000000000E+00 0.  1.
         11    1    3    3    0    0  0.35894713591E+02 -0.15689317291E+02  0.83187093997E+02  0.91949321631E+02  0.00000000000E+00 0. -1.
<mgrwt>
<rscale>  0 0.13073909E+03</rscale>
<asrwt>0</asrwt>
<pdfrwt beam="2">  1        1 0.95895050E-02 0.13882369E+03</pdfrwt>
<pdfrwt beam="1">  1       -1 0.38126726E-01 0.13882369E+03</pdfrwt>
<totfact> 0.43750663E+03</totfact>
</mgrwt>
</event>
<event>
 7    1  0.1378058E-005  0.1575554E+03  0.7546771E-02  0.1199396E+00
         -2   -1    0    0    0  501 -0.00000000000E+00  0.00000000000E+00  0.15662147730E+03  0.15662147730E+03  0.00000000000E+00 0.  1.
          2   -1    0    0  501    0  0.00000000000E+00 -0.00000000000E+00 -0.13456130443E+03  0.13456130443E+03  0.00000000000E+00 0. -1.
         23    2    1    2    0    0 -0.17043596445E+02 -0.94395181563E+02  0.36102459179E+01  0.13255083437E+03  0.91409820771E+02 0.  0.
          5    1    1    2  502    0  0.34020558114E+02  0.10544774860E+03  0.49351186242E+02  0.12138474221E+03  0.47000000000E+01 0.  1.
         -5    1    1    2    0  502 -0.16976961669E+02 -0.11052567032E+02 -0.30901259289E+02  0.37247205146E+02  0.47000000000E+01 0.  1.
        -11    1    3    3    0    0 -0.35204672844E+02 -0.37172121050E+02 -0.34228888050E+02  0.61585325773E+02  0.00000000000E+00 0. -1.
         11    1    3    3    0    0  0.18161076399E+02 -0.57223060513E+02  0.37839133968E+02  0.70965508593E+02  0.00000000000E+00 0.  1.
<mgrwt>
<rscale>  0 0.15087950E+03</rscale>
<asrwt>0</asrwt>
<pdfrwt beam="2">  1        2 0.20701739E-01 0.15755537E+03</pdfrwt>
<pdfrwt beam="1">  1       -2 0.24095612E-01 0.15755537E+03</pdfrwt>
<totfact> 0.39161967E+03</totfact>
</mgrwt>
</event>
<event>
 7    1  0.1378058E-005  0.2348875E+03  0.7546771E-02  0.1125613E+00
          1   -1    0    0  501    0  0.00000000000E+00  0.00000000000E+00  0.21122039293E+03  0.21122039293E+03  0.00000000000E+00 0. -1.
         -1   -1    0    0    0  501 -0.00000000000E+00 -0.00000000000E+00 -0.25286138560E+03  0.25286138560E+03  0.00000000000E+00 0.  1.
         23    2    1    2    0    0 -0.16799608289E+03  0.10641843850E+03 -0.56944092461E+02  0.22869631554E+03  0.97528494071E+02 0.  0.
          5    1    1    2  502    0  0.85574906644E+02 -0.79766070809E+00 -0.34480932692E+02  0.92383578785E+02  0.47000000000E+01 0. -1.
         -5    1    1    2    0  502  0.82421176241E+02 -0.10562077780E+03  0.49784032480E+02  0.14300188420E+03  0.47000000000E+01 0. -1.
        -11    1    3    3    0    0 -0.13921445413E+03  0.75242649339E+02 -0.70737871778E+00  0.15824860474E+03  0.00000000000E+00 0.  1.
         11    1    3    3    0    0 -0.28781628760E+02  0.31175789165E+02 -0.56236713744E+02  0.70447710799E+02  0.00000000000E+00 0. -1.
<mgrwt>
<rscale>  0 0.23146491E+03</rscale>
<asrwt>0</asrwt>
<pdfrwt beam="1">  1        1 0.32495445E-01 0.23488749E+03</pdfrwt>
<pdfrwt beam="2">  1       -1 0.38901752E-01 0.23488749E+03</pdfrwt>
<totfact> 0.88809822E+02</totfact>
</mgrwt>
</event>
<event>
 7    1  0.1551606E-005  0.2041490E+03  0.7546771E-02  0.1150332E+00
         -2   -1    0    0    0  501 -0.00000000000E+00  0.00000000000E+00  0.19636642786E+03  0.19636642786E+03  0.00000000000E+00 0.  1.
          2   -1    0    0  501    0  0.00000000000E+00 -0.00000000000E+00 -0.23822870578E+03  0.23822870578E+03  0.00000000000E+00 0. -1.
         23    2    1    2    0    0 -0.15226842857E+03  0.53532423239E+02 -0.11447199734E+03  0.21791799915E+03  0.91285384933E+02 0.  0.
          5    1    1    2  502    0  0.23265268620E+02 -0.65487819279E+02  0.48332624212E+02  0.84782426015E+02  0.47000000000E+01 0.  1.
         -5    1    1    2    0  502  0.12900315995E+03  0.11955396039E+02  0.24277095213E+02  0.13189470848E+03  0.47000000000E+01 0.  1.
        -11    1    3    3    0    0 -0.77001703263E+02 -0.18439101252E+02 -0.33368712061E+02  0.85922835760E+02  0.00000000000E+00 0.  1.
         11    1    3    3    0    0 -0.75266725307E+02  0.71971524491E+02 -0.81103285275E+02  0.13199516339E+03  0.00000000000E+00 0. -1.
<mgrwt>
<rscale>  0 0.19929923E+03</rscale>
<asrwt>0</asrwt>
<pdfrwt beam="2">  1        2 0.36650570E-01 0.20414899E+03</pdfrwt>
<pdfrwt beam="1">  1       -2 0.30210220E-01 0.20414899E+03</pdfrwt>
<totfact> 0.14096364E+03</totfact>
</mgrwt>
</event>
<event>
 7    1  0.1378058E-005  0.1567233E+03  0.7546771E-02  0.1200302E+00
         -1   -1    0    0    0  501 -0.00000000000E+00  0.00000000000E+00  0.37506575775E+02  0.37506575775E+02  0.00000000000E+00 0.  1.
          1   -1    0    0  501    0  0.00000000000E+00 -0.00000000000E+00 -0.59590220121E+03  0.59590220121E+03  0.00000000000E+00 0. -1.
         23    2    1    2    0    0 -0.65964584406E+02  0.67807802885E+02 -0.33894210183E+03  0.36373852874E+03  0.92058374789E+02 0.  0.
          5    1    1    2  502    0  0.34966285326E+02 -0.83143146257E+02 -0.21657045730E+03  0.23464926349E+03  0.47000000000E+01 0. -1.
         -5    1    1    2    0  502  0.30998299080E+02  0.15335343372E+02 -0.28830663030E+01  0.35020984759E+02  0.47000000000E+01 0. -1.
        -11    1    3    3    0    0 -0.52402092395E+02  0.19670604614E+02 -0.67313694569E+02  0.87544534094E+02  0.00000000000E+00 0.  1.
         11    1    3    3    0    0 -0.13562492011E+02  0.48137198270E+02 -0.27162840726E+03  0.27619399464E+03  0.00000000000E+00 0. -1.
<mgrwt>
<rscale>  0 0.15013902E+03</rscale>
<asrwt>0</asrwt>
<pdfrwt beam="2">  1        1 0.91677269E-01 0.15672330E+03</pdfrwt>
<pdfrwt beam="1">  1       -1 0.57702419E-02 0.15672330E+03</pdfrwt>
<totfact> 0.49025916E+03</totfact>
</mgrwt>
</event>
<event>
 7    1  0.1378058E-005  0.1570559E+03  0.7546771E-02  0.1200632E+00
          2   -1    0    0  501    0  0.00000000000E+00  0.00000000000E+00  0.80187019557E+02  0.80187019557E+02  0.00000000000E+00 0. -1.
         -2   -1    0    0    0  501 -0.00000000000E+00 -0.00000000000E+00 -0.36895589986E+03  0.36895589986E+03  0.00000000000E+00 0.  1.
         23    2    1    2    0    0 -0.93684235696E+02 -0.16350155396E+02 -0.11824325065E+02  0.13076446288E+03  0.88968907430E+02 0.  0.
          5    1    1    2  502    0  0.42976047556E+02 -0.50225050472E+02 -0.77089721863E+02  0.10165830795E+03  0.47000000000E+01 0.  1.
         -5    1    1    2    0  502  0.50708188140E+02  0.66575205868E+02 -0.19985483337E+03  0.21672014859E+03  0.47000000000E+01 0.  1.
        -11    1    3    3    0    0 -0.48716320160E+02  0.25753467964E+02  0.23327157709E+02  0.59838760422E+02  0.00000000000E+00 0. -1.
         11    1    3    3    0    0 -0.44967915536E+02 -0.42103623360E+02 -0.35151482775E+02  0.70925702456E+02  0.00000000000E+00 0.  1.
<mgrwt>
<rscale>  0 0.14987093E+03</rscale>
<asrwt>0</asrwt>
<pdfrwt beam="1">  1        2 0.12336464E-01 0.15705590E+03</pdfrwt>
<pdfrwt beam="2">  1       -2 0.56762449E-01 0.15705590E+03</pdfrwt>
<totfact> 0.14345102E+03</totfact>
</mgrwt>
</event>
<event>
 7    1  0.1378058E-005  0.1267897E+03  0.7546771E-02  0.1244377E+00
          1   -1    0    0  501    0  0.00000000000E+00  0.00000000000E+00  0.62870109965E+03  0.62870109965E+03  0.00000000000E+00 0. -1.
         -1   -1    0    0    0  501 -0.00000000000E+00 -0.00000000000E+00 -0.21915683628E+02  0.21915683628E+02  0.00000000000E+00 0.  1.
         23    2    1    2    0    0  0.65105752895E+01 -0.34684441851E+02  0.35678030690E+03  0.37029878694E+03  0.92647752944E+02 0.  0.
          5    1    1    2  502    0 -0.49051702133E+02  0.45851092383E+02  0.21054445761E+03  0.22104173991E+03  0.47000000000E+01 0. -1.
         -5    1    1    2    0  502  0.42541126844E+02 -0.11166650532E+02  0.39460651526E+02  0.59276256428E+02  0.47000000000E+01 0.  1.
        -11    1    3    3    0    0  0.42808279299E+02 -0.38844331697E+02  0.27040143517E+03  0.27651106130E+03  0.00000000000E+00 0.  1.
         11    1    3    3    0    0 -0.36297704010E+02  0.41598898452E+01  0.86378871730E+02  0.93787725642E+02  0.00000000000E+00 0. -1.
<mgrwt>
<rscale>  0 0.11922755E+03</rscale>
<asrwt>0</asrwt>
<pdfrwt beam="1">  1        1 0.96723232E-01 0.12678969E+03</pdfrwt>
<pdfrwt beam="2">  1       -1 0.33716441E-02 0.12678969E+03</pdfrwt>
<totfact> 0.99403493E+03</totfact>
</mgrwt>
</event>
<event>
 7    1  0.1378058E-005  0.1634509E+03  0.7546771E-02  0.1191936E+00
         -1   -1    0    0    0  501 -0.00000000000E+00  0.00000000000E+00  0.30502191427E+02  0.30502191427E+02  0.00000000000E+00 0.  1.
          1   -1    0    0  501    0  0.00000000000E+00 -0.00000000000E+00 -0.77209892113E+03  0.77209892113E+03  0.00000000000E+00 0. -1.
         23    2    1    2    0    0  0.94260259494E+02 -0.46988863131E+02 -0.28006555865E+03  0.31298164499E+03  0.91803285247E+02 0.  0.
          5    1    1    2  502    0 -0.33836994288E+02  0.64510466769E+02 -0.10706061747E+03  0.12957857970E+03  0.47000000000E+01 0.  1.
         -5    1    1    2    0  502 -0.60423265206E+02 -0.17521603638E+02 -0.35447055359E+03  0.36004088786E+03  0.47000000000E+01 0.  1.
        -11    1    3    3    0    0 -0.98319921405E+01 -0.15589511078E+02 -0.81835398035E+01  0.20166091561E+02  0.00000000000E+00 0.  1.
         11    1    3    3    0    0  0.10409225163E+03 -0.31399352053E+02 -0.27188201885E+03  0.29281555343E+03  0.00000000000E+00 0. -1.
<mgrwt>
<rscale>  0 0.15716386E+03</rscale>
<asrwt>0</asrwt>
<pdfrwt beam="2">  1        1 0.11878445E+00 0.16345091E+03</pdfrwt>
<pdfrwt beam="1">  1       -1 0.46926447E-02 0.16345091E+03</pdfrwt>
<totfact> 0.46181141E+03</totfact>
</mgrwt>
</event>
<event>
 7    1  0.1378058E-005  0.3837725E+03  0.7546771E-02  0.1050424E+00
         -2   -1    0    0    0  501 -0.00000000000E+00  0.00000000000E+00  0.11384694963E+03  0.11384694963E+03  0.00000000000E+00 0.  1.
          2   -1    0    0  501    0  0.00000000000E+00 -0.00000000000E+00 -0.13070697360E+04  0.13070697360E+04  0.00000000000E+00 0. -1.
         23    2    1    2    0    0  0.32458479489E+03  0.16218146640E+03 -0.72141134975E+03  0.81273305618E+03  0.91883447551E+02 0.  0.
          5    1    1    2  502    0 -0.24663631321E+03 -0.12045227552E+03 -0.25784831172E+03  0.37662456575E+03  0.47000000000E+01 0. -1.
         -5    1    1    2    0  502 -0.77948481684E+02 -0.41729190882E+02 -0.21396312490E+03  0.23155906370E+03  0.47000000000E+01 0. -1.
        -11    1    3    3    0    0  0.67064210326E+02  0.16491276124E+01 -0.90674153747E+02  0.11279242034E+03  0.00000000000E+00 0. -1.
         11    1    3    3    0    0  0.25752058457E+03  0.16053233879E+03 -0.63073719601E+03  0.69994063584E+03  0.00000000000E+00 0.  1.
<mgrwt>
<rscale>  0 0.38138217E+03</rscale>
<asrwt>0</asrwt>
<pdfrwt beam="2">  1        2 0.20108764E+00 0.38377245E+03</pdfrwt>
<pdfrwt beam="1">  1       -2 0.17514916E-01 0.38377245E+03</pdfrwt>
<totfact> 0.45555189E+02</totfact>
</mgrwt>
</event>
<event>
 7    1  0.1378058E-005  0.1351121E+03  0.7546771E-02  0.1232092E+00
          1   -1    0    0  501    0  0.00000000000E+00  0.00000000000E+00  0.76956890145E+02  0.76956890145E+02  0.00000000000E+00 0. -1.
         -1   -1    0    0    0  501 -0.00000000000E+00 -0.00000000000E+00 -0.20436798878E+03  0.20436798878E+03  0.00000000000E+00 0.  1.
         23    2    1    2    0    0  0.79830165938E+01  0.50664239093E+02 -0.16467388695E+02  0.10649987930E+03  0.91871952868E+02 0.  0.
          5    1    1    2  502    0  0.33630714837E+01  0.31162431649E+02 -0.80746408677E+02  0.86743760065E+02  0.47000000000E+01 0. -1.
         -5    1    1    2    0  502 -0.11346088077E+02 -0.81826670742E+02 -0.30197301267E+02  0.88081239564E+02  0.47000000000E+01 0. -1.
        -11    1    3    3    0    0  0.21423782460E+02  0.68798309129E+02 -0.32263023131E+02  0.78949911054E+02  0.00000000000E+00 0.  1.
         11    1    3    3    0    0 -0.13440765866E+02 -0.18134070036E+02  0.15795634436E+02  0.27549968246E+02  0.00000000000E+00 0. -1.
<mgrwt>
<rscale>  0 0.12692414E+03</rscale>
<asrwt>0</asrwt>
<pdfrwt beam="1">  1        1 0.11839522E-01 0.13511208E+03</pdfrwt>
<pdfrwt beam="2">  1       -1 0.31441229E-01 0.13511208E+03</pdfrwt>
<totfact> 0.46006240E+03</totfact>
</mgrwt>
</event>
<event>
 7    1  0.1378058E-005  0.1453444E+03  0.7546771E-02  0.1216965E+00
         -1   -1    0    0    0  501 -0.00000000000E+00  0.00000000000E+00  0.27657228827E+02  0.27657228827E+02  0.00000000000E+00 0.  1.
          1   -1    0    0  501    0  0.00000000000E+00 -0.00000000000E+00 -0.64888732237E+03  0.64888732237E+03  0.00000000000E+00 0. -1.
         23    2    1    2    0    0 -0.50777843814E+02 -0.54048900521E+02 -0.35219075749E+03  0.37075517112E+03  0.89002214480E+02 0.  0.
          5    1    1    2  502    0 -0.18317260928E+02 -0.30501627944E+02 -0.60411248786E+02  0.70267206683E+02  0.47000000000E+01 0.  1.
         -5    1    1    2    0  502  0.69095104742E+02  0.84550528465E+02 -0.20862808727E+03  0.23552217339E+03  0.47000000000E+01 0.  1.
        -11    1    3    3    0    0  0.18019417451E+02 -0.38951595798E+02 -0.97982713632E+02  0.10696980131E+03  0.00000000000E+00 0. -1.
         11    1    3    3    0    0 -0.68797261265E+02 -0.15097304723E+02 -0.25420804386E+03  0.26378536982E+03  0.00000000000E+00 0.  1.
<mgrwt>
<rscale>  0 0.13733208E+03</rscale>
<asrwt>0</asrwt>
<pdfrwt beam="2">  1        1 0.99828824E-01 0.14534435E+03</pdfrwt>
<pdfrwt beam="1">  1       -1 0.42549581E-02 0.14534435E+03</pdfrwt>
<totfact> 0.68215740E+03</totfact>
</mgrwt>
</event>
<event>
 7    1  0.1378058E-005  0.2442713E+03  0.7546771E-02  0.1138184E+00
         -1   -1    0    0    0  501 -0.00000000000E+00  0.00000000000E+00  0.10817410947E+04  0.10817410947E+04  0.00000000000E+00 0.  1.
          1   -1    0    0  501    0  0.00000000000E+00 -0.00000000000E+00 -0.34991409304E+02  0.34991409304E+02  0.00000000000E+00 0. -1.
         23    2    1    2    0    0  0.61923688672E+02 -0.47733309621E+02  0.37994314877E+03  0.40659206795E+03  0.12184950288E+03 0.  0.
          5    1    1    2  502    0 -0.13461790418E+03 -0.16111346358E+02  0.49121383368E+03  0.50960246860E+03  0.47000000000E+01 0. -1.
         -5    1    1    2    0  502  0.72694215505E+02  0.63844655978E+02  0.17559270296E+03  0.20053796747E+03  0.47000000000E+01 0.  1.
        -11    1    3    3    0    0  0.72247460782E+02 -0.79634386625E+02  0.24519365815E+03  0.26773356368E+03  0.00000000000E+00 0. -1.
         11    1    3    3    0    0 -0.10323772111E+02  0.31901077004E+02  0.13474949062E+03  0.13885850427E+03  0.00000000000E+00 0.  1.
<mgrwt>
<rscale>  0 0.21432809E+03</rscale>
<asrwt>0</asrwt>
<pdfrwt beam="2">  1        1 0.53832946E-02 0.24427133E+03</pdfrwt>
<pdfrwt beam="1">  1       -1 0.16642168E+00 0.24427133E+03</pdfrwt>
<totfact> 0.42894713E+02</totfact>
</mgrwt>
</event>
<event>
 7    1  0.1378058E-005  0.1351847E+03  0.7546771E-02  0.1233513E+00
         -1   -1    0    0    0  501 -0.00000000000E+00  0.00000000000E+00  0.16282127490E+03  0.16282127490E+03  0.00000000000E+00 0.  1.
          1   -1    0    0  501    0  0.00000000000E+00 -0.00000000000E+00 -0.10068485028E+03  0.10068485028E+03  0.00000000000E+00 0. -1.
         23    2    1    2    0    0 -0.18681486942E+02 -0.47966189515E+02 -0.21870624416E+02  0.10434557964E+03  0.88090422227E+02 0.  0.
          5    1    1    2  502    0 -0.29289146858E+02 -0.27313992290E+02  0.64911527220E+01  0.40842788374E+02  0.47000000000E+01 0.  1.
         -5    1    1    2    0  502  0.47970633800E+02  0.75280181805E+02  0.77515896309E+02  0.11831775716E+03  0.47000000000E+01 0.  1.
        -11    1    3    3    0    0 -0.13237106676E+02 -0.14768573494E+02  0.33864565406E+02  0.39244624426E+02  0.00000000000E+00 0.  1.
         11    1    3    3    0    0 -0.54443802660E+01 -0.33197616020E+02 -0.55735189821E+02  0.65100955218E+02  0.00000000000E+00 0. -1.
<mgrwt>
<rscale>  0 0.12600136E+03</rscale>
<asrwt>0</asrwt>
<pdfrwt beam="2">  1        1 0.15489977E-01 0.13518467E+03</pdfrwt>
<pdfrwt beam="1">  1       -1 0.25049427E-01 0.13518467E+03</pdfrwt>
<totfact> 0.47340627E+03</totfact>
</mgrwt>
</event>
<event>
 7    1  0.1378058E-005  0.1332017E+03  0.7546771E-02  0.1235285E+00
         -4   -1    0    0    0  501 -0.00000000000E+00  0.00000000000E+00  0.24730652653E+03  0.24730652653E+03  0.00000000000E+00 0.  1.
          4   -1    0    0  501    0  0.00000000000E+00 -0.00000000000E+00 -0.87784017120E+02  0.87784017120E+02  0.00000000000E+00 0. -1.
         23    2    1    2    0    0  0.34761430427E+02  0.30095001362E+02 -0.26584772851E+02  0.10622682340E+03  0.91996313566E+02 0.  0.
          5    1    1    2  502    0 -0.45285574407E+02 -0.72991600741E+02  0.14352051797E+03  0.16732837807E+03  0.47000000000E+01 0. -1.
         -5    1    1    2    0  502  0.10524143980E+02  0.42896599378E+02  0.42586764288E+02  0.61535342180E+02  0.47000000000E+01 0. -1.
        -11    1    3    3    0    0  0.40835804992E+02  0.19116872661E+02 -0.57378774672E+02  0.72974937975E+02  0.00000000000E+00 0. -1.
         11    1    3    3    0    0 -0.60743745645E+01  0.10978128702E+02  0.30794001821E+02  0.33251885425E+02  0.00000000000E+00 0.  1.
<mgrwt>
<rscale>  0 0.12486178E+03</rscale>
<asrwt>0</asrwt>
<pdfrwt beam="2">  1        4 0.13505234E-01 0.13320166E+03</pdfrwt>
<pdfrwt beam="1">  1       -4 0.38047158E-01 0.13320166E+03</pdfrwt>
<totfact> 0.50264155E+02</totfact>
</mgrwt>
</event>
<event>
 7    1  0.1378058E-005  0.1376242E+03  0.7546771E-02  0.1227829E+00
         -2   -1    0    0    0  501 -0.00000000000E+00  0.00000000000E+00  0.38866976937E+02  0.38866976937E+02  0.00000000000E+00 0.  1.
          2   -1    0    0  501    0  0.00000000000E+00 -0.00000000000E+00 -0.41080180615E+03  0.41080180615E+03  0.00000000000E+00 0. -1.
         23    2    1    2    0    0  0.32609156579E+02 -0.47484260036E+02 -0.21506459151E+03  0.24098556332E+03  0.92212532594E+02 0.  0.
          5    1    1    2  502    0 -0.66177219593E+02  0.18038870736E+02 -0.14761404957E+03  0.16283986883E+03  0.47000000000E+01 0.  1.
         -5    1    1    2    0  502  0.33568063014E+02  0.29445389300E+02 -0.92561881333E+01  0.45843350928E+02  0.47000000000E+01 0.  1.
        -11    1    3    3    0    0  0.11804748796E+02  0.17768027788E+02 -0.78246729416E+01  0.22721804776E+02  0.00000000000E+00 0.  1.
         11    1    3    3    0    0  0.20804407783E+02 -0.65252287824E+02 -0.20723991856E+03  0.21826375855E+03  0.00000000000E+00 0. -1.
<mgrwt>
<rscale>  0 0.12974901E+03</rscale>
<asrwt>0</asrwt>
<pdfrwt beam="2">  1        2 0.63200281E-01 0.13762418E+03</pdfrwt>
<pdfrwt beam="1">  1       -2 0.59795346E-02 0.13762418E+03</pdfrwt>
<totfact> 0.10946700E+04</totfact>
</mgrwt>
</event>
<event>
 7    1  0.1378058E-005  0.2208483E+03  0.7546771E-02  0.1136433E+00
          3   -1    0    0  501    0  0.00000000000E+00  0.00000000000E+00  0.32429347939E+03  0.32429347939E+03  0.00000000000E+00 0. -1.
         -3   -1    0    0    0  501 -0.00000000000E+00 -0.00000000000E+00 -0.20614563358E+03  0.20614563358E+03  0.00000000000E+00 0.  1.
         23    2    1    2    0    0  0.18200710307E+03 -0.46787070550E+01  0.20836208278E+03  0.29187551419E+03  0.92887471561E+02 0.  0.
          5    1    1    2  502    0 -0.91741945371E+02  0.31396704309E+02  0.13960685029E+02  0.98078174475E+02  0.47000000000E+01 0.  1.
         -5    1    1    2    0  502 -0.90265157696E+02 -0.26717997254E+02 -0.10417492200E+03  0.14048542432E+03  0.47000000000E+01 0.  1.
        -11    1    3    3    0    0  0.77373002720E+02  0.30241131041E+02  0.44211187448E+02  0.94104923634E+02  0.00000000000E+00 0. -1.
         11    1    3    3    0    0  0.10463410035E+03 -0.34919838096E+02  0.16415089534E+03  0.19777059055E+03  0.00000000000E+00 0.  1.
<mgrwt>
<rscale>  0 0.21661432E+03</rscale>
<asrwt>0</asrwt>
<pdfrwt beam="1">  1        3 0.49891305E-01 0.22084832E+03</pdfrwt>
<pdfrwt beam="2">  1       -3 0.31714713E-01 0.22084832E+03</pdfrwt>
<totfact> 0.95676994E+01</totfact>
</mgrwt>
</event>
<event>
 7    1  0.1378058E-005  0.1439128E+03  0.7546771E-02  0.1217387E+00
         -2   -1    0    0    0  501 -0.00000000000E+00  0.00000000000E+00  0.25307744817E+03  0.25307744817E+03  0.00000000000E+00 0. -1.
          2   -1    0    0  501    0  0.00000000000E+00 -0.00000000000E+00 -0.69306769924E+02  0.69306769924E+02  0.00000000000E+00 0.  1.
         23    2    1    2    0    0 -0.45955962368E+02 -0.54542445900E+02  0.10585648475E+03  0.15873364014E+03  0.94360713572E+02 0.  0.
          5    1    1    2  502    0 -0.26606883926E+02  0.90332168058E+01  0.72270738691E+02  0.77683170308E+02  0.47000000000E+01 0.  1.
         -5    1    1    2    0  502  0.72562846294E+02  0.45509229094E+02  0.56434548002E+01  0.85967407644E+02  0.47000000000E+01 0.  1.
        -11    1    3    3    0    0 -0.61457308466E+02 -0.37551800251E+02  0.11356454656E+03  0.13447692999E+03  0.00000000000E+00 0. -1.
         11    1    3    3    0    0  0.15501346098E+02 -0.16990645649E+02 -0.77080618022E+01  0.24256710147E+02  0.00000000000E+00 0.  1.
<mgrwt>
<rscale>  0 0.13702656E+03</rscale>
<asrwt>0</asrwt>
<pdfrwt beam="2">  1        2 0.10662580E-01 0.14391279E+03</pdfrwt>
<pdfrwt beam="1">  1       -2 0.38934992E-01 0.14391279E+03</pdfrwt>
<totfact> 0.35652127E+03</totfact>
</mgrwt>
</event>
<event>
 7    1  0.1378058E-005  0.1501440E+03  0.7546771E-02  0.1209384E+00
          2   -1    0    0  501    0  0.00000000000E+00  0.00000000000E+00  0.38740386254E+03  0.38740386254E+03  0.00000000000E+00 0.  1.
         -2   -1    0    0    0  501 -0.00000000000E+00 -0.00000000000E+00 -0.61187852820E+02  0.61187852820E+02  0.00000000000E+00 0. -1.
         23    2    1    2    0    0  0.38818598202E+02 -0.73561005499E+02  0.25307771972E+03  0.28158147212E+03  0.91223287206E+02 0.  0.
          5    1    1    2  502    0 -0.40552424495E+02  0.50236389550E+02 -0.22430776342E+02  0.68508566580E+02  0.47000000000E+01 0.  1.
         -5    1    1    2    0  502  0.17338262932E+01  0.23324615948E+02  0.95569066341E+02  0.98501676656E+02  0.47000000000E+01 0.  1.
        -11    1    3    3    0    0  0.45433095931E+02 -0.37704130112E-01  0.13385084426E+03  0.14135139241E+03  0.00000000000E+00 0.  1.
         11    1    3    3    0    0 -0.66144977289E+01 -0.73523301369E+02  0.11922687546E+03  0.14023007971E+03  0.00000000000E+00 0. -1.
<mgrwt>
<rscale>  0 0.14297276E+03</rscale>
<asrwt>0</asrwt>
<pdfrwt beam="1">  1        2 0.59600593E-01 0.15014397E+03</pdfrwt>
<pdfrwt beam="2">  1       -2 0.94135161E-02 0.15014397E+03</pdfrwt>
<totfact> 0.58264030E+03</totfact>
</mgrwt>
</event>
<event>
 7    1  0.1378058E-005  0.1577556E+03  0.7546771E-02  0.1199838E+00
         -2   -1    0    0    0  501 -0.00000000000E+00  0.00000000000E+00  0.52922096255E+02  0.52922096255E+02  0.00000000000E+00 0.  1.
          2   -1    0    0  501    0  0.00000000000E+00 -0.00000000000E+00 -0.43593708595E+03  0.43593708595E+03  0.00000000000E+00 0. -1.
         23    2    1    2    0    0  0.65091401389E+02  0.70895027918E+02 -0.25159418879E+03  0.28353442748E+03  0.88482428850E+02 0.  0.
          5    1    1    2  502    0  0.30551407786E+02  0.17601724262E+01 -0.58737384451E+01  0.31513132628E+02  0.47000000000E+01 0.  1.
         -5    1    1    2    0  502 -0.95642809175E+02 -0.72655200344E+02 -0.12554706246E+03  0.17381162210E+03  0.47000000000E+01 0.  1.
        -11    1    3    3    0    0  0.87086074039E+02  0.50380469862E+02 -0.19697452068E+03  0.22118123300E+03  0.00000000000E+00 0.  1.
         11    1    3    3    0    0 -0.21994672650E+02  0.20514558056E+02 -0.54619668113E+02  0.62353194481E+02  0.00000000000E+00 0. -1.
<mgrwt>
<rscale>  0 0.15051789E+03</rscale>
<asrwt>0</asrwt>
<pdfrwt beam="2">  1        2 0.67067241E-01 0.15775560E+03</pdfrwt>
<pdfrwt beam="1">  1       -2 0.81418613E-02 0.15775560E+03</pdfrwt>
<totfact> 0.64527626E+03</totfact>
</mgrwt>
</event>
<event>
 7    1  0.1378058E-005  0.1904700E+03  0.7546771E-02  0.1162794E+00
          3   -1    0    0  501    0  0.00000000000E+00  0.00000000000E+00  0.44343644737E+03  0.44343644737E+03  0.00000000000E+00 0. -1.
         -3   -1    0    0    0  501 -0.00000000000E+00 -0.00000000000E+00 -0.10029014872E+03  0.10029014872E+03  0.00000000000E+00 0.  1.
         23    2    1    2    0    0 -0.14108692192E+03  0.27362232640E+02  0.30506087344E+03  0.34948627603E+03  0.91784036273E+02 0.  0.
          5    1    1    2  502    0  0.11782079772E+03 -0.41499174327E+02  0.76775770260E+02  0.14669877554E+03  0.47000000000E+01 0. -1.
         -5    1    1    2    0  502  0.23266124195E+02  0.14136941687E+02 -0.38690345059E+02  0.47541544528E+02  0.47000000000E+01 0. -1.
        -11    1    3    3    0    0 -0.54292000870E+02  0.54352901320E+02  0.10868930090E+03  0.13309854759E+03  0.00000000000E+00 0.  1.
         11    1    3    3    0    0 -0.86794921045E+02 -0.26990668681E+02  0.19637157254E+03  0.21638772844E+03  0.00000000000E+00 0. -1.
<mgrwt>
<rscale>  0 0.18527482E+03</rscale>
<asrwt>0</asrwt>
<pdfrwt beam="1">  1        3 0.68220991E-01 0.19046995E+03</pdfrwt>
<pdfrwt beam="2">  1       -3 0.15429254E-01 0.19046995E+03</pdfrwt>
<totfact> 0.18075892E+02</totfact>
</mgrwt>
</event>
<event>
 7    1  0.1378058E-005  0.1458955E+03  0.7546771E-02  0.1217475E+00
         -2   -1    0    0    0  501 -0.00000000000E+00  0.00000000000E+00  0.25485347903E+02  0.25485347903E+02  0.00000000000E+00 0.  1.
          2   -1    0    0  501    0  0.00000000000E+00 -0.00000000000E+00 -0.66887394514E+03  0.66887394514E+03  0.00000000000E+00 0. -1.
         23    2    1    2    0    0  0.10930423019E+02  0.74429114626E+02 -0.32348147494E+03  0.34275433080E+03  0.84741367721E+02 0.  0.
          5    1    1    2  502    0 -0.38252313603E+02 -0.96933156077E+02 -0.18855920407E+03  0.21548999903E+03  0.47000000000E+01 0. -1.
         -5    1    1    2    0  502  0.27321890584E+02  0.22504041452E+02 -0.13134791823E+03  0.13611496322E+03  0.47000000000E+01 0. -1.
        -11    1    3    3    0    0  0.59804942559E+00  0.74124874380E+02 -0.32403207201E+03  0.33240282543E+03  0.00000000000E+00 0. -1.
         11    1    3    3    0    0  0.10332373594E+02  0.30424024546E+00  0.55059707313E+00  0.10351505366E+02  0.00000000000E+00 0.  1.
<mgrwt>
<rscale>  0 0.13696294E+03</rscale>
<asrwt>0</asrwt>
<pdfrwt beam="2">  1        2 0.10290367E+00 0.14589545E+03</pdfrwt>
<pdfrwt beam="1">  1       -2 0.39208234E-02 0.14589545E+03</pdfrwt>
<totfact> 0.12036338E+04</totfact>
</mgrwt>
</event>
<event>
 7    1  0.1378058E-005  0.1520051E+03  0.7546771E-02  0.1218450E+00
         -2   -1    0    0    0  501 -0.00000000000E+00  0.00000000000E+00  0.90803194995E+02  0.90803194995E+02  0.00000000000E+00 0.  1.
          2   -1    0    0  501    0  0.00000000000E+00 -0.00000000000E+00 -0.17758565395E+03  0.17758565395E+03  0.00000000000E+00 0. -1.
         23    2    1    2    0    0 -0.65708913143E+01 -0.29091007158E+02 -0.56959038539E+02  0.11348569915E+03  0.93515819683E+02 0.  0.
          5    1    1    2  502    0  0.37400480475E+02  0.29592077188E+02 -0.81498978247E+02  0.94544489143E+02  0.47000000000E+01 0. -1.
         -5    1    1    2    0  502 -0.30829589160E+02 -0.50107003038E+00  0.51675557827E+02  0.60358660652E+02  0.47000000000E+01 0.  1.
        -11    1    3    3    0    0  0.19103764937E+02 -0.44267245958E+02  0.10870851739E+01  0.48225767528E+02  0.00000000000E+00 0.  1.
         11    1    3    3    0    0 -0.25674656251E+02  0.15176238801E+02 -0.58046123713E+02  0.65259931626E+02  0.00000000000E+00 0. -1.
<mgrwt>
<rscale>  0 0.13626152E+03</rscale>
<asrwt>0</asrwt>
<pdfrwt beam="2">  1        2 0.27320870E-01 0.15200510E+03</pdfrwt>
<pdfrwt beam="1">  1       -2 0.13969722E-01 0.15200510E+03</pdfrwt>
<totfact> 0.71699364E+03</totfact>
</mgrwt>
</event>
<event>
 7    1  0.1378058E-005  0.1594748E+03  0.7546771E-02  0.1197605E+00
         -2   -1    0    0    0  501 -0.00000000000E+00  0.00000000000E+00  0.28183014870E+03  0.28183014870E+03  0.00000000000E+00 0.  1.
          2   -1    0    0  501    0  0.00000000000E+00 -0.00000000000E+00 -0.86314476599E+02  0.86314476599E+02  0.00000000000E+00 0. -1.
         23    2    1    2    0    0  0.79552670373E+02  0.58971658501E+02  0.25947394435E+02  0.13536659239E+03  0.88569538707E+02 0.  0.
          5    1    1    2  502    0  0.80796622668E+01 -0.64619029207E+02  0.10513560019E+03  0.12375978469E+03  0.47000000000E+01 0. -1.
         -5    1    1    2    0  502 -0.87632332640E+02  0.56473707067E+01  0.64432677477E+02  0.10901824823E+03  0.47000000000E+01 0. -1.
        -11    1    3    3    0    0  0.59234956404E+02  0.59170437687E+02  0.54809295504E+02  0.10006987374E+03  0.00000000000E+00 0.  1.
         11    1    3    3    0    0  0.20317713969E+02 -0.19877918688E+00 -0.28861901069E+02  0.35296718649E+02  0.00000000000E+00 0. -1.
<mgrwt>
<rscale>  0 0.15235782E+03</rscale>
<asrwt>0</asrwt>
<pdfrwt beam="2">  1        2 0.13279150E-01 0.15947480E+03</pdfrwt>
<pdfrwt beam="1">  1       -2 0.43358484E-01 0.15947480E+03</pdfrwt>
<totfact> 0.22408431E+03</totfact>
</mgrwt>
</event>
<event>
 7    1  0.1378058E-005  0.1107900E+03  0.7546771E-02  0.1268711E+00
         -2   -1    0    0    0  501 -0.00000000000E+00  0.00000000000E+00  0.11930130969E+04  0.11930130969E+04  0.00000000000E+00 0.  1.
          2   -1    0    0  501    0  0.00000000000E+00 -0.00000000000E+00 -0.86804714382E+01  0.86804714382E+01  0.00000000000E+00 0. -1.
         23    2    1    2    0    0 -0.44033535163E+01  0.91009846557E+01  0.48158378230E+03  0.49026517154E+03  0.91295025105E+02 0.  0.
          5    1    1    2  502    0  0.46854704603E+02 -0.19157778554E+02  0.18607651373E+03  0.19289619692E+03  0.47000000000E+01 0. -1.
         -5    1    1    2    0  502 -0.42451351086E+02  0.10056793898E+02  0.51667232939E+03  0.51853219984E+03  0.47000000000E+01 0.  1.
        -11    1    3    3    0    0 -0.44068672527E+02 -0.13475214697E+02  0.22890634181E+03  0.23349891355E+03  0.00000000000E+00 0.  1.
         11    1    3    3    0    0  0.39665319010E+02  0.22576199352E+02  0.25267744049E+03  0.25676625799E+03  0.00000000000E+00 0. -1.
<mgrwt>
<rscale>  0 0.10571801E+03</rscale>
<asrwt>0</asrwt>
<pdfrwt beam="2">  1        2 0.13354581E-02 0.11079001E+03</pdfrwt>
<pdfrwt beam="1">  1       -2 0.18354035E+00 0.11079001E+03</pdfrwt>
<totfact> 0.16744739E+03</totfact>
</mgrwt>
</event>
<event>
 7    1  0.1378058E-005  0.1619438E+03  0.7546771E-02  0.1194256E+00
         -2   -1    0    0    0  501 -0.00000000000E+00  0.00000000000E+00  0.62763389909E+02  0.62763389909E+02  0.00000000000E+00 0.  1.
          2   -1    0    0  501    0  0.00000000000E+00 -0.00000000000E+00 -0.36743346004E+03  0.36743346004E+03  0.00000000000E+00 0. -1.
         23    2    1    2    0    0  0.95549169531E+02 -0.38368579326E+02 -0.17952307964E+03  0.22553235561E+03  0.89635459634E+02 0.  0.
          5    1    1    2  502    0 -0.75423967888E+02  0.41984035551E+02 -0.14939190119E+03  0.17260204029E+03  0.47000000000E+01 0. -1.
         -5    1    1    2    0  502 -0.20125201643E+02 -0.36154562258E+01  0.24244910698E+02  0.32062454049E+02  0.47000000000E+01 0. -1.
        -11    1    3    3    0    0  0.42712044040E+02 -0.37673779252E+01 -0.14963826625E+03  0.15566027935E+03  0.00000000000E+00 0. -1.
         11    1    3    3    0    0  0.52837125491E+02 -0.34601201400E+02 -0.29884813395E+02  0.69872076255E+02  0.00000000000E+00 0.  1.
<mgrwt>
<rscale>  0 0.15517372E+03</rscale>
<asrwt>0</asrwt>
<pdfrwt beam="2">  1        2 0.56528225E-01 0.16194377E+03</pdfrwt>
<pdfrwt beam="1">  1       -2 0.96559061E-02 0.16194377E+03</pdfrwt>
<totfact> 0.59500046E+03</totfact>
</mgrwt>
</event>
<event>
 7    1  0.1378058E-005  0.1740329E+03  0.7546771E-02  0.1180040E+00
         -2   -1    0    0    0  501 -0.00000000000E+00  0.00000000000E+00  0.16071706354E+03  0.16071706354E+03  0.00000000000E+00 0.  1.
          2   -1    0    0  501    0  0.00000000000E+00 -0.00000000000E+00 -0.16435616248E+03  0.16435616248E+03  0.00000000000E+00 0. -1.
         23    2    1    2    0    0  0.12103193881E+03  0.38481634307E+01  0.39707165221E+01  0.15087406515E+03  0.89909278559E+02 0.  0.
          5    1    1    2  502    0 -0.32999795593E+02 -0.65037730918E-01 -0.62108003384E+02  0.70487479906E+02  0.47000000000E+01 0.  1.
         -5    1    1    2    0  502 -0.88032143222E+02 -0.37831256998E+01  0.54498187928E+02  0.10371168096E+03  0.47000000000E+01 0.  1.
        -11    1    3    3    0    0  0.37428422176E+02 -0.27687259920E+02 -0.29884133462E+02  0.55322080413E+02  0.00000000000E+00 0.  1.
         11    1    3    3    0    0  0.83603516639E+02  0.31535423351E+02  0.33854849984E+02  0.95551984740E+02  0.00000000000E+00 0. -1.
<mgrwt>
<rscale>  0 0.16791500E+03</rscale>
<asrwt>0</asrwt>
<pdfrwt beam="2">  1        2 0.25285564E-01 0.17403287E+03</pdfrwt>
<pdfrwt beam="1">  1       -2 0.24725702E-01 0.17403287E+03</pdfrwt>
<totfact> 0.30069823E+03</totfact>
</mgrwt>
</event>
<event>
 7    1  0.1378058E-005  0.1318951E+03  0.7546771E-02  0.1238200E+00
          2   -1    0    0  501    0  0.00000000000E+00  0.00000000000E+00  0.55890803518E+03  0.55890803518E+03  0.00000000000E+00 0. -1.
         -2   -1    0    0    0  501 -0.00000000000E+00 -0.00000000000E+00 -0.24188956460E+02  0.24188956460E+02  0.00000000000E+00 0.  1.
         23    2    1    2    0    0 -0.89942431642E+01 -0.40320322113E+02  0.25509663045E+03  0.27392872280E+03  0.90862695986E+02 0.  0.
          5    1    1    2  502    0 -0.27825058688E+02  0.34917178006E+02  0.26521374412E+03  0.26898673439E+03  0.47000000000E+01 0.  1.
         -5    1    1    2    0  502  0.36819301852E+02  0.54031441067E+01  0.14408704149E+02  0.40181534445E+02  0.47000000000E+01 0.  1.
        -11    1    3    3    0    0 -0.10354682146E+02  0.84961752954E+01 -0.79597761046E+00  0.13417824613E+02  0.00000000000E+00 0.  1.
         11    1    3    3    0    0  0.13604389815E+01 -0.48816497408E+02  0.25589260806E+03  0.26051089819E+03  0.00000000000E+00 0. -1.
<mgrwt>
<rscale>  0 0.12301789E+03</rscale>
<asrwt>0</asrwt>
<pdfrwt beam="1">  1        2 0.85985842E-01 0.13189505E+03</pdfrwt>
<pdfrwt beam="2">  1       -2 0.37213783E-02 0.13189505E+03</pdfrwt>
<totfact> 0.15858551E+04</totfact>
</mgrwt>
</event>
<event>
 7    1  0.1378058E-005  0.1373625E+03  0.7546771E-02  0.1228181E+00
         -2   -1    0    0    0  501 -0.00000000000E+00  0.00000000000E+00  0.18868138018E+03  0.18868138018E+03  0.00000000000E+00 0. -1.
          2   -1    0    0  501    0  0.00000000000E+00 -0.00000000000E+00 -0.10442986068E+03  0.10442986068E+03  0.00000000000E+00 0.  1.
         23    2    1    2    0    0  0.48383795262E+02 -0.30022499138E+02 -0.31986336692E+02  0.11316761329E+03  0.92419915950E+02 0.  0.
          5    1    1    2  502    0 -0.28563741578E+02 -0.45989039437E+02  0.26088548066E+02  0.60279195594E+02  0.47000000000E+01 0. -1.
         -5    1    1    2    0  502 -0.19820053684E+02  0.76011538575E+02  0.90149308129E+02  0.11966443198E+03  0.47000000000E+01 0. -1.
        -11    1    3    3    0    0  0.27041420876E+02  0.15859880971E+02  0.22666540619E+02  0.38685221093E+02  0.00000000000E+00 0. -1.
         11    1    3    3    0    0  0.21342374386E+02 -0.45882380109E+02 -0.54652877312E+02  0.74482392197E+02  0.00000000000E+00 0.  1.
<mgrwt>
<rscale>  0 0.12951255E+03</rscale>
<asrwt>0</asrwt>
<pdfrwt beam="2">  1        2 0.16066132E-01 0.13736255E+03</pdfrwt>
<pdfrwt beam="1">  1       -2 0.29027905E-01 0.13736255E+03</pdfrwt>
<totfact> 0.37400856E+03</totfact>
</mgrwt>
</event>
<event>
 7    1  0.1378058E-005  0.1922282E+03  0.7546771E-02  0.1161224E+00
         -1   -1    0    0    0  501 -0.00000000000E+00  0.00000000000E+00  0.13348801612E+03  0.13348801612E+03  0.00000000000E+00 0.  1.
          1   -1    0    0  501    0  0.00000000000E+00 -0.00000000000E+00 -0.25580089194E+03  0.25580089194E+03  0.00000000000E+00 0. -1.
         23    2    1    2    0    0 -0.99735812323E+02  0.10666259818E+03 -0.90683008524E+02  0.19447585480E+03  0.90957726186E+02 0.  0.
          5    1    1    2  502    0  0.73298967637E+02 -0.38557206488E+02 -0.73193903073E+02  0.11062926501E+03  0.47000000000E+01 0.  1.
         -5    1    1    2    0  502  0.26436844686E+02 -0.68105391695E+02  0.41564035783E+02  0.84183788258E+02  0.47000000000E+01 0.  1.
        -11    1    3    3    0    0 -0.70873949889E+01  0.13153230215E+02  0.18269068588E+02  0.23600794476E+02  0.00000000000E+00 0.  1.
         11    1    3    3    0    0 -0.92648417334E+02  0.93509367968E+02 -0.10895207711E+03  0.17087506032E+03  0.00000000000E+00 0. -1.
<mgrwt>
<rscale>  0 0.18696900E+03</rscale>
<asrwt>0</asrwt>
<pdfrwt beam="2">  1        1 0.39353983E-01 0.19222819E+03</pdfrwt>
<pdfrwt beam="1">  1       -1 0.20536618E-01 0.19222819E+03</pdfrwt>
<totfact> 0.20461809E+03</totfact>
</mgrwt>
</event>
<event>
 7    1  0.1378058E-005  0.4507649E+03  0.7546771E-02  0.1028080E+00
          2   -1    0    0  501    0  0.00000000000E+00  0.00000000000E+00  0.27551992028E+04  0.27551992028E+04  0.00000000000E+00 0. -1.
         -2   -1    0    0    0  501 -0.00000000000E+00 -0.00000000000E+00 -0.12146135758E+03  0.12146135758E+03  0.00000000000E+00 0.  1.
         23    2    1    2    0    0  0.24987568730E+03  0.35373041161E+03  0.22234068034E+04  0.22671028683E+04  0.93029773768E+02 0.  0.
          5    1    1    2  502    0 -0.25948123016E+03 -0.32823567280E+03  0.35935848608E+03  0.55157028312E+03  0.47000000000E+01 0. -1.
         -5    1    1    2    0  502  0.96055428601E+01 -0.25494738804E+02  0.50972555693E+02  0.57987408928E+02  0.47000000000E+01 0. -1.
        -11    1    3    3    0    0  0.95249008564E+02  0.18390087823E+03  0.86733760031E+03  0.89172104357E+03  0.00000000000E+00 0.  1.
         11    1    3    3    0    0  0.15462667873E+03  0.16982953338E+03  0.13560692031E+04  0.13753818247E+04  0.00000000000E+00 0. -1.
<mgrwt>
<rscale>  0 0.44880205E+03</rscale>
<asrwt>0</asrwt>
<pdfrwt beam="1">  1        2 0.42387675E+00 0.45076492E+03</pdfrwt>
<pdfrwt beam="2">  1       -2 0.18686365E-01 0.45076492E+03</pdfrwt>
<totfact> 0.65208899E+01</totfact>
</mgrwt>
</event>
<event>
 7    1  0.1378058E-005  0.1493023E+03  0.7546771E-02  0.1208652E+00
          2   -1    0    0  501    0  0.00000000000E+00  0.00000000000E+00  0.41563962068E+03  0.41563962068E+03  0.00000000000E+00 0. -1.
         -2   -1    0    0    0  501 -0.00000000000E+00 -0.00000000000E+00 -0.50355141795E+02  0.50355141795E+02  0.00000000000E+00 0.  1.
         23    2    1    2    0    0 -0.89172759622E+01  0.81165457406E+02  0.23707128705E+03  0.26919590000E+03  0.97960645899E+02 0.  0.
          5    1    1    2  502    0  0.22218566220E+02 -0.10367671362E+03  0.56315767459E+02  0.12015024468E+03  0.47000000000E+01 0. -1.
         -5    1    1    2    0  502 -0.13301290258E+02  0.22511256213E+02  0.71897424380E+02  0.76648617804E+02  0.47000000000E+01 0. -1.
        -11    1    3    3    0    0 -0.34817568833E+02  0.25079482258E+02  0.28118334728E+02  0.51301893510E+02  0.00000000000E+00 0.  1.
         11    1    3    3    0    0  0.25900292871E+02  0.56085975148E+02  0.20895295232E+03  0.21789400649E+03  0.00000000000E+00 0. -1.
<mgrwt>
<rscale>  0 0.14353309E+03</rscale>
<asrwt>0</asrwt>
<pdfrwt beam="1">  1        2 0.63944555E-01 0.14930228E+03</pdfrwt>
<pdfrwt beam="2">  1       -2 0.77469452E-02 0.14930228E+03</pdfrwt>
<totfact> 0.73132186E+03</totfact>
</mgrwt>
</event>
<event>
 7    1  0.1378058E-005  0.2381201E+03  0.7546771E-02  0.1123577E+00
         -2   -1    0    0    0  501 -0.00000000000E+00  0.00000000000E+00  0.66264043773E+03  0.66264043773E+03  0.00000000000E+00 0.  1.
          2   -1    0    0  501    0  0.00000000000E+00 -0.00000000000E+00 -0.14056265994E+03  0.14056265994E+03  0.00000000000E+00 0. -1.
         23    2    1    2    0    0  0.12466760385E+03  0.15978940175E+03 -0.62497635274E+01  0.22369365437E+03  0.94472890829E+02 0.  0.
          5    1    1    2  502    0  0.77435828758E+01 -0.30719307901E+02  0.20099012002E+03  0.20352581482E+03  0.47000000000E+01 0.  1.
         -5    1    1    2    0  502 -0.13241118672E+03 -0.12907009385E+03  0.32733742130E+03  0.37598362847E+03  0.47000000000E+01 0.  1.
        -11    1    3    3    0    0  0.11428840167E+03  0.76148288453E+02  0.10605748537E+02  0.13774208686E+03  0.00000000000E+00 0. -1.
         11    1    3    3    0    0  0.10379202181E+02  0.83641113296E+02 -0.16855512065E+02  0.85951567515E+02  0.00000000000E+00 0.  1.
<mgrwt>
<rscale>  0 0.23440568E+03</rscale>
<asrwt>0</asrwt>
<pdfrwt beam="2">  1        2 0.21625025E-01 0.23812015E+03</pdfrwt>
<pdfrwt beam="1">  1       -2 0.10194468E+00 0.23812015E+03</pdfrwt>
<totfact> 0.20908536E+02</totfact>
</mgrwt>
</event>
<event>
 7    1  0.1378058E-005  0.1510762E+03  0.7546771E-02  0.1208148E+00
         -1   -1    0    0    0  501 -0.00000000000E+00  0.00000000000E+00  0.81608817153E+03  0.81608817153E+03  0.00000000000E+00 0.  1.
          1   -1    0    0  501    0  0.00000000000E+00 -0.00000000000E+00 -0.25733540964E+02  0.25733540964E+02  0.00000000000E+00 0. -1.
         23    2    1    2    0    0  0.84832757199E+02 -0.14337268519E+01  0.23046924656E+03  0.26191166559E+03  0.91010959200E+02 0.  0.
          5    1    1    2  502    0 -0.61423289809E+02  0.60052298916E+02  0.36510241796E+03  0.37510127264E+03  0.47000000000E+01 0. -1.
         -5    1    1    2    0  502 -0.23409467390E+02 -0.58618572064E+02  0.19478296605E+03  0.20480877427E+03  0.47000000000E+01 0. -1.
        -11    1    3    3    0    0  0.10403316199E+03 -0.73290509064E+01  0.19590035448E+03  0.22193143686E+03  0.00000000000E+00 0.  1.
         11    1    3    3    0    0 -0.19200404788E+02  0.58953240545E+01  0.34568892081E+02  0.39980228732E+02  0.00000000000E+00 0. -1.
<mgrwt>
<rscale>  0 0.14392101E+03</rscale>
<asrwt>0</asrwt>
<pdfrwt beam="2">  1        1 0.39590069E-02 0.15107620E+03</pdfrwt>
<pdfrwt beam="1">  1       -1 0.12555201E+00 0.15107620E+03</pdfrwt>
<totfact> 0.13423255E+03</totfact>
</mgrwt>
</event>
<event>
 7    1  0.1378058E-005  0.1836588E+03  0.7546771E-02  0.1167465E+00
          2   -1    0    0  501    0  0.00000000000E+00  0.00000000000E+00  0.93480612639E+03  0.93480612639E+03  0.00000000000E+00 0. -1.
         -2   -1    0    0    0  501 -0.00000000000E+00 -0.00000000000E+00 -0.33758624944E+02  0.33758624944E+02  0.00000000000E+00 0.  1.
         23    2    1    2    0    0 -0.11921740535E+03 -0.62388229876E+02  0.46776451754E+03  0.49796441039E+03  0.10516572247E+03 0.  0.
          5    1    1    2  502    0 -0.20221442195E+02  0.54100702328E+01  0.13195203599E+03  0.13368472384E+03  0.47000000000E+01 0.  1.
         -5    1    1    2    0  502  0.13943884754E+03  0.56978159643E+02  0.30133094791E+03  0.33691561710E+03  0.47000000000E+01 0.  1.
        -11    1    3    3    0    0 -0.74479659804E+02  0.11477724749E+02  0.13976165652E+03  0.15878374767E+03  0.00000000000E+00 0.  1.
         11    1    3    3    0    0 -0.44737745542E+02 -0.73865954625E+02  0.32800286102E+03  0.33918066272E+03  0.00000000000E+00 0. -1.
<mgrwt>
<rscale>  0 0.18035006E+03</rscale>
<asrwt>0</asrwt>
<pdfrwt beam="1">  1        2 0.14381631E+00 0.18365875E+03</pdfrwt>
<pdfrwt beam="2">  1       -2 0.51936353E-02 0.18365875E+03</pdfrwt>
<totfact> 0.52510948E+03</totfact>
</mgrwt>
</event>
<event>
 7    1  0.1378058E-005  0.2215387E+03  0.7546771E-02  0.1132741E+00
          4   -1    0    0  501    0  0.00000000000E+00  0.00000000000E+00  0.10729542109E+03  0.10729542109E+03  0.00000000000E+00 0. -1.
         -4   -1    0    0    0  501 -0.00000000000E+00 -0.00000000000E+00 -0.11435576325E+03  0.11435576325E+03  0.00000000000E+00 0.  1.
         23    2    1    2    0    0 -0.13131277106E+02  0.22582965170E+01 -0.12630931897E+02  0.95885333381E+02  0.94111244681E+02 0.  0.
          5    1    1    2  502    0  0.59047502267E+02 -0.15941831748E+02  0.33719174915E+02  0.69998730563E+02  0.47000000000E+01 0. -1.
         -5    1    1    2    0  502 -0.45916225161E+02  0.13683535231E+02 -0.28148585173E+02  0.55767120391E+02  0.47000000000E+01 0. -1.
        -11    1    3    3    0    0  0.21664398066E+01 -0.39306234427E+02 -0.28756836678E+02  0.48750683913E+02  0.00000000000E+00 0.  1.
         11    1    3    3    0    0 -0.15297716913E+02  0.41564530944E+02  0.16125904781E+02  0.47134649467E+02  0.00000000000E+00 0. -1.
<mgrwt>
<rscale>  0 0.22153871E+03</rscale>
<asrwt>0</asrwt>
<pdfrwt beam="1">  1        4 0.16506988E-01 0.22153871E+03</pdfrwt>
<pdfrwt beam="2">  1       -4 0.17593194E-01 0.22153871E+03</pdfrwt>
<totfact> 0.16416627E+03</totfact>
</mgrwt>
</event>
<event>
 7    1  0.1378058E-005  0.1377259E+03  0.7546771E-02  0.1227373E+00
         -1   -1    0    0    0  501 -0.00000000000E+00  0.00000000000E+00  0.67182111179E+02  0.67182111179E+02  0.00000000000E+00 0.  1.
          1   -1    0    0  501    0  0.00000000000E+00 -0.00000000000E+00 -0.27173785711E+03  0.27173785711E+03  0.00000000000E+00 0. -1.
         23    2    1    2    0    0 -0.24910798937E+02  0.52912277174E+02 -0.16053219509E+03  0.19432920427E+03  0.92590480038E+02 0.  0.
          5    1    1    2  502    0  0.34065116225E+02 -0.91359696781E+02 -0.26845803640E+02  0.10124136266E+03  0.47000000000E+01 0. -1.
         -5    1    1    2    0  502 -0.91543172886E+01  0.38447419608E+02 -0.17177747203E+02  0.43349401362E+02  0.47000000000E+01 0. -1.
        -11    1    3    3    0    0 -0.35903665124E+02  0.24589622019E+02 -0.15571400417E+02  0.46218948401E+02  0.00000000000E+00 0.  1.
         11    1    3    3    0    0  0.10992866188E+02  0.28322655155E+02 -0.14496079467E+03  0.14811025587E+03  0.00000000000E+00 0. -1.
<mgrwt>
<rscale>  0 0.13005552E+03</rscale>
<asrwt>0</asrwt>
<pdfrwt beam="2">  1        1 0.41805824E-01 0.13772587E+03</pdfrwt>
<pdfrwt beam="1">  1       -1 0.10335709E-01 0.13772587E+03</pdfrwt>
<totfact> 0.55053009E+03</totfact>
</mgrwt>
</event>
<event>
 7    1  0.1378058E-005  0.2340620E+03  0.7546771E-02  0.1126884E+00
          4   -1    0    0  501    0  0.00000000000E+00  0.00000000000E+00  0.43002332836E+03  0.43002332836E+03  0.00000000000E+00 0. -1.
         -4   -1    0    0    0  501 -0.00000000000E+00 -0.00000000000E+00 -0.11824960524E+03  0.11824960524E+03  0.00000000000E+00 0.  1.
         23    2    1    2    0    0  0.17430155853E+03  0.93687418750E+02  0.14739417611E+03  0.26225605064E+03  0.88852840159E+02 0.  0.
          5    1    1    2  502    0 -0.11122819038E+03  0.68648886543E+01  0.54257507599E+02  0.12403549557E+03  0.47000000000E+01 0. -1.
         -5    1    1    2    0  502 -0.63073368156E+02 -0.10055230740E+03  0.11012203942E+03  0.16198138739E+03  0.47000000000E+01 0. -1.
        -11    1    3    3    0    0  0.25902789685E+02  0.25559656663E+02  0.75555223857E+02  0.83862043943E+02  0.00000000000E+00 0. -1.
         11    1    3    3    0    0  0.14839876885E+03  0.68127762087E+02  0.71838952253E+02  0.17839400669E+03  0.00000000000E+00 0.  1.
<mgrwt>
<rscale>  0 0.22965284E+03</rscale>
<asrwt>0</asrwt>
<pdfrwt beam="1">  1        4 0.66157434E-01 0.23406200E+03</pdfrwt>
<pdfrwt beam="2">  1       -4 0.18192247E-01 0.23406200E+03</pdfrwt>
<totfact> 0.10458341E+02</totfact>
</mgrwt>
</event>
<event>
 7    1  0.1378058E-005  0.1560235E+03  0.7546771E-02  0.1212488E+00
          4   -1    0    0  501    0  0.00000000000E+00  0.00000000000E+00  0.30574316303E+03  0.30574316303E+03  0.00000000000E+00 0. -1.
         -4   -1    0    0    0  501 -0.00000000000E+00 -0.00000000000E+00 -0.58369476338E+02  0.58369476338E+02  0.00000000000E+00 0.  1.
         23    2    1    2    0    0 -0.40737274235E+02 -0.22263049418E+02  0.14371185012E+03  0.17679173962E+03  0.91907858480E+02 0.  0.
          5    1    1    2  502    0 -0.76221896733E+01 -0.57814170141E+02  0.60598637907E+02  0.84230997624E+02  0.47000000000E+01 0. -1.
         -5    1    1    2    0  502  0.48359463908E+02  0.80077219559E+02  0.43063198666E+02  0.10308990213E+03  0.47000000000E+01 0.  1.
        -11    1    3    3    0    0 -0.64533414859E+02 -0.37536695830E+02  0.10625842374E+03  0.12986307321E+03  0.00000000000E+00 0. -1.
         11    1    3    3    0    0  0.23796140624E+02  0.15273646412E+02  0.37453426378E+02  0.46928666408E+02  0.00000000000E+00 0.  1.
<mgrwt>
<rscale>  0 0.14062651E+03</rscale>
<asrwt>0</asrwt>
<pdfrwt beam="1">  1        4 0.47037409E-01 0.15602353E+03</pdfrwt>
<pdfrwt beam="2">  1       -4 0.89799196E-02 0.15602353E+03</pdfrwt>
<totfact> 0.68057622E+02</totfact>
</mgrwt>
</event>
<event>
 7    1  0.1378058E-005  0.1406106E+03  0.7546771E-02  0.1223698E+00
         -1   -1    0    0    0  501 -0.00000000000E+00  0.00000000000E+00  0.13138012675E+03  0.13138012675E+03  0.00000000000E+00 0.  1.
          1   -1    0    0  501    0  0.00000000000E+00 -0.00000000000E+00 -0.14371594627E+03  0.14371594627E+03  0.00000000000E+00 0. -1.
         23    2    1    2    0    0 -0.30079007329E+02  0.56939615616E+02 -0.60462859322E+02  0.12647725417E+03  0.90520008593E+02 0.  0.
          5    1    1    2  502    0 -0.17534900274E+02  0.33554403082E+02  0.15528482334E+02  0.41189737282E+02  0.47000000000E+01 0.  1.
         -5    1    1    2    0  502  0.47613907603E+02 -0.90494018698E+02  0.32598557473E+02  0.10742908157E+03  0.47000000000E+01 0.  1.
        -11    1    3    3    0    0 -0.54672888371E+02  0.46164849626E+02 -0.67869893060E+02  0.98623731666E+02  0.00000000000E+00 0. -1.
         11    1    3    3    0    0  0.24593881042E+02  0.10774765990E+02  0.74070337387E+01  0.27853522500E+02  0.00000000000E+00 0.  1.
<mgrwt>
<rscale>  0 0.13256571E+03</rscale>
<asrwt>0</asrwt>
<pdfrwt beam="2">  1        1 0.22110146E-01 0.14061060E+03</pdfrwt>
<pdfrwt beam="1">  1       -1 0.20212327E-01 0.14061060E+03</pdfrwt>
<totfact> 0.42674407E+03</totfact>
</mgrwt>
</event>
<event>
 7    1  0.1378058E-005  0.1576130E+03  0.7546771E-02  0.1199025E+00
         -1   -1    0    0    0  501 -0.00000000000E+00  0.00000000000E+00  0.39920948966E+02  0.39920948966E+02  0.00000000000E+00 0.  1.
          1   -1    0    0  501    0  0.00000000000E+00 -0.00000000000E+00 -0.53765100102E+03  0.53765100102E+03  0.00000000000E+00 0. -1.
         23    2    1    2    0    0  0.72026185553E+02  0.63479249201E+02 -0.26175219678E+03  0.29379846457E+03  0.92660340923E+02 0.  0.
          5    1    1    2  502    0 -0.37582733504E+02 -0.99607825230E+02 -0.17420465327E+03  0.20421442634E+03  0.47000000000E+01 0. -1.
         -5    1    1    2    0  502 -0.34443452049E+02  0.36128576029E+02 -0.61773202002E+02  0.79559059073E+02  0.47000000000E+01 0. -1.
        -11    1    3    3    0    0  0.42973015259E+02  0.76536501182E+02 -0.23912845526E+03  0.25472913883E+03  0.00000000000E+00 0. -1.
         11    1    3    3    0    0  0.29053170294E+02 -0.13057251981E+02 -0.22623741519E+02  0.39069325740E+02  0.00000000000E+00 0.  1.
<mgrwt>
<rscale>  0 0.15118426E+03</rscale>
<asrwt>0</asrwt>
<pdfrwt beam="2">  1        1 0.82715544E-01 0.15761295E+03</pdfrwt>
<pdfrwt beam="1">  1       -1 0.61416840E-02 0.15761295E+03</pdfrwt>
<totfact> 0.51318672E+03</totfact>
</mgrwt>
</event>
<event>
 7    1  0.1378058E-005  0.1335562E+03  0.7546771E-02  0.1235117E+00
         -1   -1    0    0    0  501 -0.00000000000E+00  0.00000000000E+00  0.48304384355E+02  0.48304384355E+02  0.00000000000E+00 0.  1.
          1   -1    0    0  501    0  0.00000000000E+00 -0.00000000000E+00 -0.43399361412E+03  0.43399361412E+03  0.00000000000E+00 0. -1.
         23    2    1    2    0    0 -0.41490627949E+02  0.22157556946E+02 -0.31493324472E+03  0.33115676844E+03  0.90936390513E+02 0.  0.
          5    1    1    2  502    0 -0.39787351464E+02 -0.11185188771E+02 -0.52510857201E+02  0.66989714945E+02  0.47000000000E+01 0.  1.
         -5    1    1    2    0  502  0.81277979413E+02 -0.10972368174E+02 -0.18245127843E+02  0.84151515083E+02  0.47000000000E+01 0.  1.
        -11    1    3    3    0    0 -0.43624729989E+02  0.50181381684E+02 -0.15331546680E+03  0.16711349585E+03  0.00000000000E+00 0.  1.
         11    1    3    3    0    0  0.21341020407E+01 -0.28023824738E+02 -0.16161777792E+03  0.16404327260E+03  0.00000000000E+00 0. -1.
<mgrwt>
<rscale>  0 0.12496916E+03</rscale>
<asrwt>0</asrwt>
<pdfrwt beam="2">  1        1 0.66768247E-01 0.13355621E+03</pdfrwt>
<pdfrwt beam="1">  1       -1 0.74314438E-02 0.13355621E+03</pdfrwt>
<totfact> 0.50505117E+03</totfact>
</mgrwt>
</event>
<event>
 7    1  0.1378058E-005  0.1520681E+03  0.7546771E-02  0.1205980E+00
          1   -1    0    0  501    0  0.00000000000E+00  0.00000000000E+00  0.60518532237E+03  0.60518532237E+03  0.00000000000E+00 0. -1.
         -1   -1    0    0    0  501 -0.00000000000E+00 -0.00000000000E+00 -0.34171402809E+02  0.34171402809E+02  0.00000000000E+00 0.  1.
         23    2    1    2    0    0  0.61949529390E+02 -0.60514479776E+02  0.33541127081E+03  0.35894041544E+03  0.94009333548E+02 0.  0.
          5    1    1    2  502    0 -0.39669139091E+02  0.34766647395E+02  0.12146736743E+02  0.54332251755E+02  0.47000000000E+01 0.  1.
         -5    1    1    2    0  502 -0.22280390299E+02  0.25747832382E+02  0.22345591201E+03  0.22608405799E+03  0.47000000000E+01 0.  1.
        -11    1    3    3    0    0  0.40241973221E+02 -0.68374237985E+02  0.32325536503E+03  0.33284904063E+03  0.00000000000E+00 0. -1.
         11    1    3    3    0    0  0.21707556169E+02  0.78597582083E+01  0.12155905778E+02  0.26091374805E+02  0.00000000000E+00 0.  1.
<mgrwt>
<rscale>  0 0.14560515E+03</rscale>
<asrwt>0</asrwt>
<pdfrwt beam="1">  1        1 0.93105426E-01 0.15206807E+03</pdfrwt>
<pdfrwt beam="2">  1       -1 0.52571393E-02 0.15206807E+03</pdfrwt>
<totfact> 0.55061648E+03</totfact>
</mgrwt>
</event>
<event>
 7    1  0.1378058E-005  0.1350782E+03  0.7546771E-02  0.1233698E+00
         -1   -1    0    0    0  501 -0.00000000000E+00  0.00000000000E+00  0.19812631580E+03  0.19812631580E+03  0.00000000000E+00 0.  1.
          1   -1    0    0  501    0  0.00000000000E+00 -0.00000000000E+00 -0.71472428662E+02  0.71472428662E+02  0.00000000000E+00 0. -1.
         23    2    1    2    0    0  0.37793724061E+02 -0.34553526428E+02  0.42080337719E+02  0.11022872483E+03  0.88075565213E+02 0.  0.
          5    1    1    2  502    0 -0.28525714678E+02  0.80297300284E+02  0.69610461674E+02  0.11013209889E+03  0.47000000000E+01 0.  1.
         -5    1    1    2    0  502 -0.92680093826E+01 -0.45743773856E+02  0.14963087742E+02  0.49237920745E+02  0.47000000000E+01 0.  1.
        -11    1    3    3    0    0  0.95028970672E+01  0.27697428479E+02  0.27797036910E+02  0.40374841895E+02  0.00000000000E+00 0.  1.
         11    1    3    3    0    0  0.28290826993E+02 -0.62250954907E+02  0.14283300809E+02  0.69853882933E+02  0.00000000000E+00 0. -1.
<mgrwt>
<rscale>  0 0.12588141E+03</rscale>
<asrwt>0</asrwt>
<pdfrwt beam="2">  1        1 0.10995758E-01 0.13507819E+03</pdfrwt>
<pdfrwt beam="1">  1       -1 0.30480972E-01 0.13507819E+03</pdfrwt>
<totfact> 0.53429239E+03</totfact>
</mgrwt>
</event>
<event>
 7    1  0.1378058E-005  0.1416517E+03  0.7546771E-02  0.1222164E+00
         -2   -1    0    0    0  501 -0.00000000000E+00  0.00000000000E+00  0.46895296458E+02  0.46895296458E+02  0.00000000000E+00 0.  1.
          2   -1    0    0  501    0  0.00000000000E+00 -0.00000000000E+00 -0.43252263640E+03  0.43252263640E+03  0.00000000000E+00 0. -1.
         23    2    1    2    0    0  0.32934722946E+02 -0.58319951086E+02 -0.28319739673E+03  0.30461206195E+03  0.90010166664E+02 0.  0.
          5    1    1    2  502    0  0.55888356568E+01  0.23981866129E+02 -0.11805071605E+03  0.12068316597E+03  0.47000000000E+01 0. -1.
         -5    1    1    2    0  502 -0.38523558603E+02  0.34338084956E+02  0.15620772838E+02  0.54122704940E+02  0.47000000000E+01 0. -1.
        -11    1    3    3    0    0  0.53221627058E+02 -0.27726230860E+02 -0.91445804412E+02  0.10937833702E+03  0.00000000000E+00 0.  1.
         11    1    3    3    0    0 -0.20286904111E+02 -0.30593720226E+02 -0.19175159231E+03  0.19523372493E+03  0.00000000000E+00 0. -1.
<mgrwt>
<rscale>  0 0.13363179E+03</rscale>
<asrwt>0</asrwt>
<pdfrwt beam="2">  1        2 0.66541944E-01 0.14165168E+03</pdfrwt>
<pdfrwt beam="1">  1       -2 0.72146611E-02 0.14165168E+03</pdfrwt>
<totfact> 0.77922206E+03</totfact>
</mgrwt>
</event>
<event>
 7    1  0.1378058E-005  0.1602660E+03  0.7546771E-02  0.1196085E+00
         -2   -1    0    0    0  501 -0.00000000000E+00  0.00000000000E+00  0.35471161588E+03  0.35471161588E+03  0.00000000000E+00 0. -1.
          2   -1    0    0  501    0  0.00000000000E+00 -0.00000000000E+00 -0.61596785592E+02  0.61596785592E+02  0.00000000000E+00 0.  1.
         23    2    1    2    0    0 -0.42009134100E+00  0.10030045877E+03  0.13050991181E+03  0.18799822643E+03  0.90830267843E+02 0.  0.
          5    1    1    2  502    0  0.56287502854E+02 -0.21364909322E+02  0.84783222742E+02  0.10409143666E+03  0.47000000000E+01 0.  1.
         -5    1    1    2    0  502 -0.55867411513E+02 -0.78935549448E+02  0.77821695739E+02  0.12421873838E+03  0.47000000000E+01 0.  1.
        -11    1    3    3    0    0 -0.22754444414E+02  0.92771702656E+02  0.57993918755E+02  0.11174814615E+03  0.00000000000E+00 0.  1.
         11    1    3    3    0    0  0.22334353073E+02  0.75287561138E+01  0.72515993052E+02  0.76250080289E+02  0.00000000000E+00 0. -1.
<mgrwt>
<rscale>  0 0.15362733E+03</rscale>
<asrwt>0</asrwt>
<pdfrwt beam="2">  1        2 0.94764287E-02 0.16026596E+03</pdfrwt>
<pdfrwt beam="1">  1       -2 0.54571017E-01 0.16026596E+03</pdfrwt>
<totfact> 0.21464987E+03</totfact>
</mgrwt>
</event>
<event>
 7    1  0.1378058E-005  0.1413015E+03  0.7546771E-02  0.1217117E+00
         -2   -1    0    0    0  501 -0.00000000000E+00  0.00000000000E+00  0.13531866093E+03  0.13531866093E+03  0.00000000000E+00 0.  1.
          2   -1    0    0  501    0  0.00000000000E+00 -0.00000000000E+00 -0.13502473270E+03  0.13502473270E+03  0.00000000000E+00 0. -1.
         23    2    1    2    0    0  0.16795779786E+02 -0.85111828610E+02 -0.21091012626E+02  0.12743282060E+03  0.90929485678E+02 0.  0.
          5    1    1    2  502    0  0.11646544675E+02 -0.28906173992E+01 -0.33062981062E+02  0.35485889992E+02  0.47000000000E+01 0. -1.
         -5    1    1    2    0  502 -0.28442324460E+02  0.88002446009E+02  0.54447921914E+02  0.10742468303E+03  0.47000000000E+01 0.  1.
        -11    1    3    3    0    0  0.35705320690E+02 -0.95004546751E+02 -0.67414847144E+01  0.10171618084E+03  0.00000000000E+00 0. -1.
         11    1    3    3    0    0 -0.18909540904E+02  0.98927181406E+01 -0.14349527912E+02  0.25716639763E+02  0.00000000000E+00 0.  1.
<mgrwt>
<rscale>  0 0.13722165E+03</rscale>
<asrwt>0</asrwt>
<pdfrwt beam="2">  1        2 0.20773036E-01 0.14130151E+03</pdfrwt>
<pdfrwt beam="1">  1       -2 0.20818256E-01 0.14130151E+03</pdfrwt>
<totfact> 0.49856677E+03</totfact>
</mgrwt>
</event>
<event>
 7    1  0.1378058E-005  0.1300194E+03  0.7546771E-02  0.1240532E+00
         -1   -1    0    0    0  501 -0.00000000000E+00  0.00000000000E+00  0.13258365650E+03  0.13258365650E+03  0.00000000000E+00 0.  1.
          1   -1    0    0  501    0  0.00000000000E+00 -0.00000000000E+00 -0.14796671111E+03  0.14796671111E+03  0.00000000000E+00 0. -1.
         23    2    1    2    0    0  0.32187858110E+02 -0.15614300520E+02 -0.87032683612E+02  0.13209595595E+03  0.92708084716E+02 0.  0.
          5    1    1    2  502    0 -0.67558272519E+01  0.68905317393E+02  0.27806035267E+02  0.74758608629E+02  0.47000000000E+01 0. -1.
         -5    1    1    2    0  502 -0.25432030858E+02 -0.53291016873E+02  0.43843593738E+02  0.73695803034E+02  0.47000000000E+01 0. -1.
        -11    1    3    3    0    0  0.31067945619E+02 -0.49570012561E+02 -0.76938967712E+02  0.96654064285E+02  0.00000000000E+00 0. -1.
         11    1    3    3    0    0  0.11199124911E+01  0.33955712041E+02 -0.10093715900E+02  0.35441891666E+02  0.00000000000E+00 0.  1.
<mgrwt>
<rscale>  0 0.12156858E+03</rscale>
<asrwt>0</asrwt>
<pdfrwt beam="2">  1        1 0.22764109E-01 0.13001939E+03</pdfrwt>
<pdfrwt beam="1">  1       -1 0.20397486E-01 0.13001939E+03</pdfrwt>
<totfact> 0.40354404E+03</totfact>
</mgrwt>
</event>
<event>
 7    1  0.1378058E-005  0.1395585E+03  0.7546771E-02  0.1225547E+00
         -2   -1    0    0    0  501 -0.00000000000E+00  0.00000000000E+00  0.35337502075E+02  0.35337502075E+02  0.00000000000E+00 0.  1.
          2   -1    0    0  501    0  0.00000000000E+00 -0.00000000000E+00 -0.48330247286E+03  0.48330247286E+03  0.00000000000E+00 0. -1.
         23    2    1    2    0    0 -0.13922560467E+02  0.60515099914E+02 -0.27797469709E+03  0.29870076455E+03  0.89979439392E+02 0.  0.
          5    1    1    2  502    0 -0.17814520375E+02 -0.64432385269E+02 -0.17485178230E+03  0.18725417267E+03  0.47000000000E+01 0.  1.
         -5    1    1    2    0  502  0.31737080843E+02  0.39172853556E+01  0.48615086010E+01  0.32685037721E+02  0.47000000000E+01 0.  1.
        -11    1    3    3    0    0  0.29615189060E+02  0.34485536464E+02 -0.62176519392E+02  0.77020979038E+02  0.00000000000E+00 0.  1.
         11    1    3    3    0    0 -0.43537749527E+02  0.26029563449E+02 -0.21579817769E+03  0.22167978551E+03  0.00000000000E+00 0. -1.
<mgrwt>
<rscale>  0 0.13129499E+03</rscale>
<asrwt>0</asrwt>
<pdfrwt beam="2">  1        2 0.74354220E-01 0.13955846E+03</pdfrwt>
<pdfrwt beam="1">  1       -2 0.54365392E-02 0.13955846E+03</pdfrwt>
<totfact> 0.10614418E+04</totfact>
</mgrwt>
</event>
<event>
 7    1  0.1378058E-005  0.2333344E+03  0.7546771E-02  0.1124315E+00
          3   -1    0    0  501    0  0.00000000000E+00  0.00000000000E+00  0.19515263784E+03  0.19515263784E+03  0.00000000000E+00 0. -1.
         -3   -1    0    0    0  501 -0.00000000000E+00 -0.00000000000E+00 -0.69746590860E+02  0.69746590860E+02  0.00000000000E+00 0.  1.
         23    2    1    2    0    0  0.24314641402E+02 -0.20339213773E+02  0.89185279394E+02  0.13093260462E+03  0.90467936244E+02 0.  0.
          5    1    1    2  502    0  0.11714969429E+02 -0.45905545658E+02  0.33772967079E+02  0.58371764888E+02  0.47000000000E+01 0.  1.
         -5    1    1    2    0  502 -0.36029610830E+02  0.66244759431E+02  0.24478005044E+01  0.75594859190E+02  0.47000000000E+01 0.  1.
        -11    1    3    3    0    0  0.34109280171E+02 -0.44428242697E+02  0.88723196298E+02  0.10492434086E+03  0.00000000000E+00 0.  1.
         11    1    3    3    0    0 -0.97946387698E+01  0.24089028924E+02  0.46208309633E+00  0.26008263762E+02  0.00000000000E+00 0. -1.
<mgrwt>
<rscale>  0 0.23333436E+03</rscale>
<asrwt>0</asrwt>
<pdfrwt beam="1">  1        3 0.30023483E-01 0.23333436E+03</pdfrwt>
<pdfrwt beam="2">  1       -3 0.10730245E-01 0.23333436E+03</pdfrwt>
<totfact> 0.17552072E+03</totfact>
</mgrwt>
</event>
<event>
 7    1  0.1378058E-005  0.1773457E+03  0.7546771E-02  0.1176283E+00
         -1   -1    0    0    0  501 -0.00000000000E+00  0.00000000000E+00  0.21267626987E+02  0.21267626987E+02  0.00000000000E+00 0.  1.
          1   -1    0    0  501    0  0.00000000000E+00 -0.00000000000E+00 -0.13261846591E+04  0.13261846591E+04  0.00000000000E+00 0. -1.
         23    2    1    2    0    0  0.20547964679E+02  0.12411755436E+03 -0.70532412653E+03  0.72218181315E+03  0.90758259228E+02 0.  0.
          5    1    1    2  502    0  0.45936198102E+02 -0.64547255007E+02 -0.37963553092E+03  0.38784237618E+03  0.47000000000E+01 0. -1.
         -5    1    1    2    0  502 -0.66484162781E+02 -0.59570299349E+02 -0.21995737471E+03  0.23742809681E+03  0.47000000000E+01 0. -1.
        -11    1    3    3    0    0 -0.34689659689E+02  0.46608008580E+02 -0.32333732896E+03  0.32851591628E+03  0.00000000000E+00 0. -1.
         11    1    3    3    0    0  0.55237624367E+02  0.77509545776E+02 -0.38198679758E+03  0.39366589686E+03  0.00000000000E+00 0.  1.
<mgrwt>
<rscale>  0 0.17150925E+03</rscale>
<asrwt>0</asrwt>
<pdfrwt beam="2">  1        1 0.20402846E+00 0.17734574E+03</pdfrwt>
<pdfrwt beam="1">  1       -1 0.32719419E-02 0.17734574E+03</pdfrwt>
<totfact> 0.30886165E+03</totfact>
</mgrwt>
</event>
<event>
 7    1  0.1378058E-005  0.1323119E+03  0.7546771E-02  0.1236415E+00
         -1   -1    0    0    0  501 -0.00000000000E+00  0.00000000000E+00  0.41090500092E+03  0.41090500092E+03  0.00000000000E+00 0.  1.
          1   -1    0    0  501    0  0.00000000000E+00 -0.00000000000E+00 -0.44130954566E+02  0.44130954566E+02  0.00000000000E+00 0. -1.
         23    2    1    2    0    0 -0.30306040999E+02  0.31041393123E+02  0.55024215366E+02  0.11637034740E+03  0.92910544445E+02 0.  0.
          5    1    1    2  502    0  0.63294116067E+02 -0.39995265677E+02  0.10493877445E+03  0.12899613478E+03  0.47000000000E+01 0.  1.
         -5    1    1    2    0  502 -0.32988075068E+02  0.89538725534E+01  0.20681105654E+03  0.20966947331E+03  0.47000000000E+01 0.  1.
        -11    1    3    3    0    0  0.31978074788E+02  0.15187058829E+01  0.27311320019E+02  0.42081016336E+02  0.00000000000E+00 0.  1.
         11    1    3    3    0    0 -0.62284115787E+02  0.29522687240E+02  0.27712895347E+02  0.74289331063E+02  0.00000000000E+00 0. -1.
<mgrwt>
<rscale>  0 0.12414299E+03</rscale>
<asrwt>0</asrwt>
<pdfrwt beam="2">  1        1 0.67893779E-02 0.13231189E+03</pdfrwt>
<pdfrwt beam="1">  1       -1 0.63216152E-01 0.13231189E+03</pdfrwt>
<totfact> 0.27572847E+03</totfact>
</mgrwt>
</event>
<event>
 7    1  0.1378058E-005  0.1375989E+03  0.7546771E-02  0.1228554E+00
         -2   -1    0    0    0  501 -0.00000000000E+00  0.00000000000E+00  0.32001129313E+03  0.32001129313E+03  0.00000000000E+00 0. -1.
          2   -1    0    0  501    0  0.00000000000E+00 -0.00000000000E+00 -0.53965244422E+02  0.53965244422E+02  0.00000000000E+00 0.  1.
         23    2    1    2    0    0  0.24466979477E+02 -0.52060693525E+02  0.51010035045E+02  0.11868465431E+03  0.90416119128E+02 0.  0.
          5    1    1    2  502    0 -0.87173777603E+01  0.76389769705E+02  0.60379846017E+02  0.97873415162E+02  0.47000000000E+01 0. -1.
         -5    1    1    2    0  502 -0.15749601717E+02 -0.24329076180E+02  0.15465616765E+03  0.15741846808E+03  0.47000000000E+01 0. -1.
        -11    1    3    3    0    0 -0.13361268029E+02 -0.30497262108E+02 -0.17418844857E+02  0.37576889647E+02  0.00000000000E+00 0.  1.
         11    1    3    3    0    0  0.37828247506E+02 -0.21563431417E+02  0.68428879902E+02  0.81107764662E+02  0.00000000000E+00 0. -1.
<mgrwt>
<rscale>  0 0.12926263E+03</rscale>
<asrwt>0</asrwt>
<pdfrwt beam="2">  1        2 0.83023455E-02 0.13759890E+03</pdfrwt>
<pdfrwt beam="1">  1       -2 0.49232506E-01 0.13759890E+03</pdfrwt>
<totfact> 0.30815241E+03</totfact>
</mgrwt>
</event>
<event>
 7    1  0.1378058E-005  0.1447647E+03  0.7546771E-02  0.1216824E+00
          2   -1    0    0  501    0  0.00000000000E+00  0.00000000000E+00  0.14055069404E+03  0.14055069404E+03  0.00000000000E+00 0. -1.
         -2   -1    0    0    0  501 -0.00000000000E+00 -0.00000000000E+00 -0.13556142460E+03  0.13556142460E+03  0.00000000000E+00 0.  1.
         23    2    1    2    0    0  0.23053735567E+01 -0.72983226356E+02  0.45012960772E+02  0.12591651453E+03  0.92178825747E+02 0.  0.
          5    1    1    2  502    0  0.26068634070E+02  0.61086090990E+02 -0.77045363329E+02  0.10182908330E+03  0.47000000000E+01 0. -1.
         -5    1    1    2    0  502 -0.28374007627E+02  0.11897135366E+02  0.37021671998E+02  0.48366520820E+02  0.47000000000E+01 0. -1.
        -11    1    3    3    0    0  0.40476107140E+02 -0.67511889758E+02  0.25813092804E+02  0.82840124746E+02  0.00000000000E+00 0.  1.
         11    1    3    3    0    0 -0.38170733583E+02 -0.54713365983E+01  0.19199867968E+02  0.43076389779E+02  0.00000000000E+00 0. -1.
<mgrwt>
<rscale>  0 0.13743429E+03</rscale>
<asrwt>0</asrwt>
<pdfrwt beam="1">  1        2 0.21623184E-01 0.14476472E+03</pdfrwt>
<pdfrwt beam="2">  1       -2 0.20855604E-01 0.14476472E+03</pdfrwt>
<totfact> 0.47583082E+03</totfact>
</mgrwt>
</event>
<event>
 7    1  0.1378058E-005  0.1480763E+03  0.7546771E-02  0.1212620E+00
         -2   -1    0    0    0  501 -0.00000000000E+00  0.00000000000E+00  0.84335579425E+03  0.84335579425E+03  0.00000000000E+00 0.  1.
          2   -1    0    0  501    0  0.00000000000E+00 -0.00000000000E+00 -0.23820114690E+02  0.23820114690E+02  0.00000000000E+00 0. -1.
         23    2    1    2    0    0  0.79594247198E+01 -0.78983175365E+02  0.23178765669E+03  0.26106179826E+03  0.90144607621E+02 0.  0.
          5    1    1    2  502    0  0.82330623779E-01 -0.33779778785E+02  0.16487706260E+03  0.16836750282E+03  0.47000000000E+01 0.  1.
         -5    1    1    2    0  502 -0.80417553435E+01  0.11276295415E+03  0.42287096027E+03  0.43774660786E+03  0.47000000000E+01 0.  1.
        -11    1    3    3    0    0  0.30646273292E+02 -0.82402964632E+02  0.13149475729E+03  0.15817810797E+03  0.00000000000E+00 0. -1.
         11    1    3    3    0    0 -0.22686848572E+02  0.34197892668E+01  0.10029289940E+03  0.10288369029E+03  0.00000000000E+00 0.  1.
<mgrwt>
<rscale>  0 0.14052832E+03</rscale>
<asrwt>0</asrwt>
<pdfrwt beam="2">  1        2 0.36646337E-02 0.14807625E+03</pdfrwt>
<pdfrwt beam="1">  1       -2 0.12974702E+00 0.14807625E+03</pdfrwt>
<totfact> 0.10629909E+03</totfact>
</mgrwt>
</event>
<event>
 7    1  0.1378058E-005  0.1347325E+03  0.7546771E-02  0.1233356E+00
         -1   -1    0    0    0  501 -0.00000000000E+00  0.00000000000E+00  0.53854758997E+03  0.53854758997E+03  0.00000000000E+00 0.  1.
          1   -1    0    0  501    0  0.00000000000E+00 -0.00000000000E+00 -0.31123208922E+02  0.31123208922E+02  0.00000000000E+00 0. -1.
         23    2    1    2    0    0 -0.35832654729E+02  0.35281784463E+02  0.11441749930E+03  0.15421051397E+03  0.90336786598E+02 0.  0.
          5    1    1    2  502    0  0.64458775057E+02  0.22311274272E+02  0.16758649850E+03  0.18099737877E+03  0.47000000000E+01 0. -1.
         -5    1    1    2    0  502 -0.28626120328E+02 -0.57593058735E+02  0.22542038325E+03  0.23446290616E+03  0.47000000000E+01 0. -1.
        -11    1    3    3    0    0 -0.61451121372E+02  0.24648831323E+02  0.10643310594E+03  0.12534676399E+03  0.00000000000E+00 0.  1.
         11    1    3    3    0    0  0.25618466643E+02  0.10632953139E+02  0.79843933676E+01  0.28863749982E+02  0.00000000000E+00 0. -1.
<mgrwt>
<rscale>  0 0.12610258E+03</rscale>
<asrwt>0</asrwt>
<pdfrwt beam="2">  1        1 0.47881864E-02 0.13473247E+03</pdfrwt>
<pdfrwt beam="1">  1       -1 0.82853468E-01 0.13473247E+03</pdfrwt>
<totfact> 0.25891620E+03</totfact>
</mgrwt>
</event>
<event>
 7    1  0.1378058E-005  0.1260483E+03  0.7546771E-02  0.1240642E+00
          2   -1    0    0  501    0  0.00000000000E+00  0.00000000000E+00  0.13291476377E+03  0.13291476377E+03  0.00000000000E+00 0. -1.
         -2   -1    0    0    0  501 -0.00000000000E+00 -0.00000000000E+00 -0.10650056258E+03  0.10650056258E+03  0.00000000000E+00 0.  1.
         23    2    1    2    0    0 -0.49520616175E+01  0.15586794582E+02  0.31434174821E+02  0.11326712973E+03  0.10758189556E+03 0.  0.
          5    1    1    2  502    0  0.29605265873E+01  0.54793352795E+02 -0.72414623816E+01  0.55548222344E+02  0.47000000000E+01 0. -1.
         -5    1    1    2    0  502  0.19915350301E+01 -0.70380147376E+02  0.22214887503E+01  0.70599974283E+02  0.47000000000E+01 0. -1.
        -11    1    3    3    0    0 -0.46721990669E+02 -0.12082957902E+02 -0.87427411751E+01  0.49044651155E+02  0.00000000000E+00 0.  1.
         11    1    3    3    0    0  0.41769929051E+02  0.27669752483E+02  0.40176915996E+02  0.64222478576E+02  0.00000000000E+00 0. -1.
<mgrwt>
<rscale>  0 0.12150042E+03</rscale>
<asrwt>0</asrwt>
<pdfrwt beam="1">  1        2 0.20448425E-01 0.12604827E+03</pdfrwt>
<pdfrwt beam="2">  1       -2 0.16384702E-01 0.12604827E+03</pdfrwt>
<totfact> 0.75184495E+03</totfact>
</mgrwt>
</event>
<event>
 7    1  0.1378058E-005  0.1362945E+03  0.7546771E-02  0.1230923E+00
         -2   -1    0    0    0  501 -0.00000000000E+00  0.00000000000E+00  0.55457078677E+02  0.55457078677E+02  0.00000000000E+00 0.  1.
          2   -1    0    0  501    0  0.00000000000E+00 -0.00000000000E+00 -0.28047683935E+03  0.28047683935E+03  0.00000000000E+00 0. -1.
         23    2    1    2    0    0 -0.41901465051E+02  0.34680630650E+02 -0.14107210010E+03  0.17586080761E+03  0.89817633630E+02 0.  0.
          5    1    1    2  502    0  0.19603641683E+02 -0.69967748710E+02 -0.79596520369E+01  0.73247762337E+02  0.47000000000E+01 0. -1.
         -5    1    1    2    0  502  0.22297823367E+02  0.35287118061E+02 -0.75988008529E+02  0.86825348074E+02  0.47000000000E+01 0. -1.
        -11    1    3    3    0    0 -0.58862159820E+02  0.38584324269E+02 -0.58631881179E+02  0.91603501180E+02  0.00000000000E+00 0.  1.
         11    1    3    3    0    0  0.16960694769E+02 -0.39036936187E+01 -0.82440218923E+02  0.84257306431E+02  0.00000000000E+00 0. -1.
<mgrwt>
<rscale>  0 0.12769075E+03</rscale>
<asrwt>0</asrwt>
<pdfrwt beam="2">  1        2 0.43150283E-01 0.13629450E+03</pdfrwt>
<pdfrwt beam="1">  1       -2 0.85318582E-02 0.13629450E+03</pdfrwt>
<totfact> 0.95154738E+03</totfact>
</mgrwt>
</event>
<event>
 7    1  0.1378058E-005  0.1394796E+03  0.7546771E-02  0.1225279E+00
          4   -1    0    0  501    0  0.00000000000E+00  0.00000000000E+00  0.13463263527E+02  0.13463263527E+02  0.00000000000E+00 0. -1.
         -4   -1    0    0    0  501 -0.00000000000E+00 -0.00000000000E+00 -0.11623370958E+04  0.11623370958E+04  0.00000000000E+00 0.  1.
         23    2    1    2    0    0  0.45601002606E+02 -0.41839384160E+02 -0.46719587605E+03  0.47999909682E+03  0.91088752578E+02 0.  0.
          5    1    1    2  502    0 -0.23264157470E+01  0.74518293668E+02 -0.25660520835E+03  0.26725776182E+03  0.47000000000E+01 0. -1.
         -5    1    1    2    0  502 -0.43274586859E+02 -0.32678909508E+02 -0.42507274786E+03  0.42854350067E+03  0.47000000000E+01 0. -1.
        -11    1    3    3    0    0  0.61603509357E+02  0.24938003221E+01 -0.30097814845E+03  0.30722802159E+03  0.00000000000E+00 0.  1.
         11    1    3    3    0    0 -0.16002506751E+02 -0.44333184482E+02 -0.16621772760E+03  0.17277107523E+03  0.00000000000E+00 0. -1.
<mgrwt>
<rscale>  0 0.13147793E+03</rscale>
<asrwt>0</asrwt>
<pdfrwt beam="1">  1        4 0.20712709E-02 0.13947961E+03</pdfrwt>
<pdfrwt beam="2">  1       -4 0.17882113E+00 0.13947961E+03</pdfrwt>
<totfact> 0.32307925E+02</totfact>
</mgrwt>
</event>
<event>
 7    1  0.1378058E-005  0.1315089E+03  0.7546771E-02  0.1238292E+00
         -1   -1    0    0    0  501 -0.00000000000E+00  0.00000000000E+00  0.54754249364E+02  0.54754249364E+02  0.00000000000E+00 0.  1.
          1   -1    0    0  501    0  0.00000000000E+00 -0.00000000000E+00 -0.24587961480E+03  0.24587961480E+03  0.00000000000E+00 0. -1.
         23    2    1    2    0    0 -0.64308353555E+01 -0.40352474712E+02 -0.85720005268E+02  0.13209637649E+03  0.91825135558E+02 0.  0.
          5    1    1    2  502    0 -0.47029307928E+02  0.53562672449E+02 -0.36540858201E+02  0.80237397778E+02  0.47000000000E+01 0.  1.
         -5    1    1    2    0  502  0.53460143284E+02 -0.13210197738E+02 -0.68864501967E+02  0.88300089894E+02  0.47000000000E+01 0.  1.
        -11    1    3    3    0    0 -0.13053540782E+02  0.85794022217E+01  0.13900480077E+02  0.20909911903E+02  0.00000000000E+00 0.  1.
         11    1    3    3    0    0  0.66227054264E+01 -0.48931876933E+02 -0.99620485344E+02  0.11118646459E+03  0.00000000000E+00 0. -1.
<mgrwt>
<rscale>  0 0.12296027E+03</rscale>
<asrwt>0</asrwt>
<pdfrwt beam="2">  1        1 0.37827633E-01 0.13150892E+03</pdfrwt>
<pdfrwt beam="1">  1       -1 0.84237307E-02 0.13150892E+03</pdfrwt>
<totfact> 0.84754360E+03</totfact>
</mgrwt>
</event>
<event>
 7    1  0.1378058E-005  0.1307645E+03  0.7546771E-02  0.1234231E+00
          1   -1    0    0  501    0  0.00000000000E+00  0.00000000000E+00  0.20495760727E+03  0.20495760727E+03  0.00000000000E+00 0. -1.
         -1   -1    0    0    0  501 -0.00000000000E+00 -0.00000000000E+00 -0.77259370592E+02  0.77259370592E+02  0.00000000000E+00 0.  1.
         23    2    1    2    0    0 -0.24538310108E+01  0.63654144140E+02  0.97983060439E+02  0.14811872257E+03  0.90997826840E+02 0.  0.
          5    1    1    2  502    0  0.45262249825E+02  0.84833459692E+01  0.52051692613E+01  0.46581350400E+02  0.47000000000E+01 0. -1.
         -5    1    1    2    0  502 -0.42808418814E+02 -0.72137490110E+02  0.24510006981E+02  0.87516904898E+02  0.47000000000E+01 0.  1.
        -11    1    3    3    0    0 -0.30155140788E+02  0.51919178882E+02  0.18025196126E+02  0.62688446680E+02  0.00000000000E+00 0.  1.
         11    1    3    3    0    0  0.27701309777E+02  0.11734965258E+02  0.79957864313E+02  0.85430275889E+02  0.00000000000E+00 0. -1.
<mgrwt>
<rscale>  0 0.12553795E+03</rscale>
<asrwt>0</asrwt>
<pdfrwt beam="1">  1        1 0.31531939E-01 0.13076448E+03</pdfrwt>
<pdfrwt beam="2">  1       -1 0.11886057E-01 0.13076448E+03</pdfrwt>
<totfact> 0.62771220E+03</totfact>
</mgrwt>
</event>
<event>
 7    1  0.1378058E-005  0.2431372E+03  0.7546771E-02  0.1121613E+00
          1   -1    0    0  501    0  0.00000000000E+00  0.00000000000E+00  0.13649998041E+03  0.13649998041E+03  0.00000000000E+00 0. -1.
         -1   -1    0    0    0  501 -0.00000000000E+00 -0.00000000000E+00 -0.40822634022E+03  0.40822634022E+03  0.00000000000E+00 0.  1.
         23    2    1    2    0    0 -0.17990499887E+03  0.10547931192E+03 -0.78376711878E+02  0.23408218925E+03  0.71832224636E+02 0.  0.
          5    1    1    2  502    0  0.80312210223E+02 -0.11156148192E+03 -0.78249237745E+02  0.15824363673E+03  0.47000000000E+01 0. -1.
         -5    1    1    2    0  502  0.99592788644E+02  0.60821699997E+01 -0.11510041019E+03  0.15240049464E+03  0.47000000000E+01 0. -1.
        -11    1    3    3    0    0 -0.37578623157E+02  0.60109199061E+02 -0.19568309084E+02  0.73540379728E+02  0.00000000000E+00 0.  1.
         11    1    3    3    0    0 -0.14232637571E+03  0.45370112859E+02 -0.58808402794E+02  0.16054180952E+03  0.00000000000E+00 0. -1.
<mgrwt>
<rscale>  0 0.23728792E+03</rscale>
<asrwt>0</asrwt>
<pdfrwt beam="1">  1        1 0.20999997E-01 0.24313718E+03</pdfrwt>
<pdfrwt beam="2">  1       -1 0.62804052E-01 0.24313718E+03</pdfrwt>
<totfact> 0.63835777E+02</totfact>
</mgrwt>
</event>
<event>
 7    1  0.1378058E-005  0.1396475E+03  0.7546771E-02  0.1226121E+00
          3   -1    0    0  501    0  0.00000000000E+00  0.00000000000E+00  0.32970544866E+03  0.32970544866E+03  0.00000000000E+00 0. -1.
         -3   -1    0    0    0  501 -0.00000000000E+00 -0.00000000000E+00 -0.47652586925E+02  0.47652586925E+02  0.00000000000E+00 0.  1.
         23    2    1    2    0    0  0.42134807708E+02 -0.45839331166E+02  0.15325572925E+03  0.18738405200E+03  0.88027712064E+02 0.  0.
          5    1    1    2  502    0 -0.77608545900E+02  0.42250313780E+00  0.95868968649E+02  0.12343506007E+03  0.47000000000E+01 0.  1.
         -5    1    1    2    0  502  0.35473738192E+02  0.45416828028E+02  0.32928163838E+02  0.66538923520E+02  0.47000000000E+01 0.  1.
        -11    1    3    3    0    0  0.39565099301E+02 -0.32087583885E+02  0.16271083943E+03  0.17049876067E+03  0.00000000000E+00 0. -1.
         11    1    3    3    0    0  0.25697084069E+01 -0.13751747281E+02 -0.94551101789E+01  0.16885291324E+02  0.00000000000E+00 0.  1.
<mgrwt>
<rscale>  0 0.13090344E+03</rscale>
<asrwt>0</asrwt>
<pdfrwt beam="1">  1        3 0.50723914E-01 0.13964746E+03</pdfrwt>
<pdfrwt beam="2">  1       -3 0.73311674E-02 0.13964746E+03</pdfrwt>
<totfact> 0.11061247E+03</totfact>
</mgrwt>
</event>
<event>
 7    1  0.1378058E-005  0.2506327E+03  0.7546771E-02  0.1122921E+00
          2   -1    0    0  501    0  0.00000000000E+00  0.00000000000E+00  0.13303061229E+04  0.13303061229E+04  0.00000000000E+00 0. -1.
         -2   -1    0    0    0  501 -0.00000000000E+00 -0.00000000000E+00 -0.38110274456E+02  0.38110274456E+02  0.00000000000E+00 0.  1.
         23    2    1    2    0    0  0.17095798180E+03 -0.21535436088E+02  0.46833743994E+03  0.50727794296E+03  0.91107338994E+02 0.  0.
          5    1    1    2  502    0 -0.19052854979E+03 -0.27228227403E+02  0.71023420221E+03  0.73586494457E+03  0.47000000000E+01 0. -1.
         -5    1    1    2    0  502  0.19570567987E+02  0.48763663491E+02  0.11362420631E+03  0.12527350984E+03  0.47000000000E+01 0.  1.
        -11    1    3    3    0    0  0.29244148226E+02  0.19574092174E+02  0.35524397694E+02  0.50003481093E+02  0.00000000000E+00 0. -1.
         11    1    3    3    0    0  0.14171383358E+03 -0.41109528262E+02  0.43281304225E+03  0.45727446187E+03  0.00000000000E+00 0.  1.
<mgrwt>
<rscale>  0 0.23536309E+03</rscale>
<asrwt>0</asrwt>
<pdfrwt beam="1">  1        2 0.20466245E+00 0.25063272E+03</pdfrwt>
<pdfrwt beam="2">  1       -2 0.58631202E-02 0.25063272E+03</pdfrwt>
<totfact> 0.25871501E+03</totfact>
</mgrwt>
</event>
<event>
 7    1  0.1378058E-005  0.1292799E+03  0.7546771E-02  0.1242095E+00
          2   -1    0    0  501    0  0.00000000000E+00  0.00000000000E+00  0.38294828735E+03  0.38294828735E+03  0.00000000000E+00 0. -1.
         -2   -1    0    0    0  501 -0.00000000000E+00 -0.00000000000E+00 -0.37134632451E+02  0.37134632451E+02  0.00000000000E+00 0.  1.
         23    2    1    2    0    0  0.13831266735E+02  0.29825162178E+02  0.21455378086E+03  0.23584817502E+03  0.92250704830E+02 0.  0.
          5    1    1    2  502    0  0.29449231224E+02  0.25571501011E+02  0.99455188381E+02  0.10693261139E+03  0.47000000000E+01 0. -1.
         -5    1    1    2    0  502 -0.43280497959E+02 -0.55396663190E+02  0.31804685661E+02  0.77302133387E+02  0.47000000000E+01 0. -1.
        -11    1    3    3    0    0 -0.27258020778E+02  0.34933772435E+02  0.16707493186E+03  0.17285080563E+03  0.00000000000E+00 0. -1.
         11    1    3    3    0    0  0.41089287513E+02 -0.51086102564E+01  0.47478848997E+02  0.62997369383E+02  0.00000000000E+00 0.  1.
<mgrwt>
<rscale>  0 0.12060947E+03</rscale>
<asrwt>0</asrwt>
<pdfrwt beam="1">  1        2 0.58915118E-01 0.12927988E+03</pdfrwt>
<pdfrwt beam="2">  1       -2 0.57130207E-02 0.12927988E+03</pdfrwt>
<totfact> 0.12581425E+04</totfact>
</mgrwt>
</event>
<event>
 7    1  0.1378058E-005  0.1508124E+03  0.7546771E-02  0.1207471E+00
          1   -1    0    0  501    0  0.00000000000E+00  0.00000000000E+00  0.36281976246E+03  0.36281976246E+03  0.00000000000E+00 0. -1.
         -1   -1    0    0    0  501 -0.00000000000E+00 -0.00000000000E+00 -0.71079764755E+02  0.71079764755E+02  0.00000000000E+00 0.  1.
         23    2    1    2    0    0  0.19944012411E+02  0.81996337053E+02  0.24515634643E+03  0.27605652426E+03  0.94786114318E+02 0.  0.
          5    1    1    2  502    0  0.92806946273E+01 -0.27599807017E+02  0.81553279036E+02  0.86723168540E+02  0.47000000000E+01 0.  1.
         -5    1    1    2    0  502 -0.29224707039E+02 -0.54396530036E+02 -0.34969627765E+02  0.71119834417E+02  0.47000000000E+01 0.  1.
        -11    1    3    3    0    0  0.22674832209E+01  0.31801894301E+02  0.78205463704E+01  0.32827776453E+02  0.00000000000E+00 0.  1.
         11    1    3    3    0    0  0.17676529191E+02  0.50194442752E+02  0.23733580006E+03  0.24322874780E+03  0.00000000000E+00 0. -1.
<mgrwt>
<rscale>  0 0.14444409E+03</rscale>
<asrwt>0</asrwt>
<pdfrwt beam="1">  1        1 0.55818424E-01 0.15081239E+03</pdfrwt>
<pdfrwt beam="2">  1       -1 0.10935349E-01 0.15081239E+03</pdfrwt>
<totfact> 0.35414434E+03</totfact>
</mgrwt>
</event>
<event>
 7    1  0.1378058E-005  0.2184938E+03  0.7546771E-02  0.1138500E+00
          1   -1    0    0  501    0  0.00000000000E+00  0.00000000000E+00  0.72030623827E+03  0.72030623827E+03  0.00000000000E+00 0. -1.
         -1   -1    0    0    0  501 -0.00000000000E+00 -0.00000000000E+00 -0.61189599171E+02  0.61189599171E+02  0.00000000000E+00 0.  1.
         23    2    1    2    0    0  0.58056549971E+02 -0.16880264678E+03  0.33704042915E+03  0.39230101179E+03  0.91863683858E+02 0.  0.
          5    1    1    2  502    0 -0.34461429475E+02  0.20943348529E+02  0.17357280642E+03  0.17825774345E+03  0.47000000000E+01 0. -1.
         -5    1    1    2    0  502 -0.23595120496E+02  0.14785929825E+03  0.14850340352E+03  0.21093708220E+03  0.47000000000E+01 0.  1.
        -11    1    3    3    0    0  0.74986679044E+02 -0.81478196670E+02  0.16655357764E+03  0.20000448193E+03  0.00000000000E+00 0.  1.
         11    1    3    3    0    0 -0.16930129072E+02 -0.87324450113E+02  0.17048685151E+03  0.19229652986E+03  0.00000000000E+00 0. -1.
<mgrwt>
<rscale>  0 0.21391813E+03</rscale>
<asrwt>0</asrwt>
<pdfrwt beam="1">  1        1 0.11081634E+00 0.21849377E+03</pdfrwt>
<pdfrwt beam="2">  1       -1 0.94137850E-02 0.21849377E+03</pdfrwt>
<totfact> 0.18033964E+03</totfact>
</mgrwt>
</event>
<event>
 7    1  0.1378058E-005  0.2264751E+03  0.7546771E-02  0.1132279E+00
         -2   -1    0    0    0  501 -0.00000000000E+00  0.00000000000E+00  0.83590986288E+02  0.83590986288E+02  0.00000000000E+00 0.  1.
          2   -1    0    0  501    0  0.00000000000E+00 -0.00000000000E+00 -0.72987366605E+03  0.72987366605E+03  0.00000000000E+00 0. -1.
         23    2    1    2    0    0 -0.13317842285E+03  0.13389894784E+03 -0.50428227282E+03  0.54615382818E+03  0.91202921092E+02 0.  0.
          5    1    1    2  502    0  0.24566988131E+02  0.39641217728E+01 -0.75389987144E+02  0.79529814087E+02  0.47000000000E+01 0. -1.
         -5    1    1    2    0  502  0.10861143472E+03 -0.13786306962E+03 -0.66610419799E+02  0.18778101007E+03  0.47000000000E+01 0. -1.
        -11    1    3    3    0    0 -0.61213600396E+02  0.94910539921E+02 -0.38694979035E+03  0.40309459897E+03  0.00000000000E+00 0. -1.
         11    1    3    3    0    0 -0.71964822453E+02  0.38988407921E+02 -0.11733248246E+03  0.14305922922E+03  0.00000000000E+00 0.  1.
<mgrwt>
<rscale>  0 0.22216539E+03</rscale>
<asrwt>0</asrwt>
<pdfrwt beam="2">  1        2 0.11228825E+00 0.22647508E+03</pdfrwt>
<pdfrwt beam="1">  1       -2 0.12860152E-01 0.22647508E+03</pdfrwt>
<totfact> 0.17542291E+03</totfact>
</mgrwt>
</event>
<event>
 7    1  0.1378058E-005  0.1306215E+03  0.7546771E-02  0.1236324E+00
         -2   -1    0    0    0  501 -0.00000000000E+00  0.00000000000E+00  0.47596271768E+02  0.47596271768E+02  0.00000000000E+00 0.  1.
          2   -1    0    0  501    0  0.00000000000E+00 -0.00000000000E+00 -0.31190666310E+03  0.31190666310E+03  0.00000000000E+00 0. -1.
         23    2    1    2    0    0 -0.25952784444E+02 -0.27668019194E+02 -0.15994714602E+03  0.19230948227E+03  0.99803713071E+02 0.  0.
          5    1    1    2  502    0  0.29625482383E+02 -0.46767677298E+02 -0.38210754093E+02  0.67431717868E+02  0.47000000000E+01 0. -1.
         -5    1    1    2    0  502 -0.36726979389E+01  0.74435696492E+02 -0.66152491215E+02  0.99761734731E+02  0.47000000000E+01 0. -1.
        -11    1    3    3    0    0  0.35421707406E+02  0.40340843338E+01 -0.73183211921E+02  0.81404875156E+02  0.00000000000E+00 0.  1.
         11    1    3    3    0    0 -0.61374491850E+02 -0.31702103528E+02 -0.86763934103E+02  0.11090460711E+03  0.00000000000E+00 0. -1.
<mgrwt>
<rscale>  0 0.12420048E+03</rscale>
<asrwt>0</asrwt>
<pdfrwt beam="2">  1        2 0.47985641E-01 0.13062145E+03</pdfrwt>
<pdfrwt beam="1">  1       -2 0.73225033E-02 0.13062145E+03</pdfrwt>
<totfact> 0.10729784E+04</totfact>
</mgrwt>
</event>
<event>
 7    1  0.1378058E-005  0.1363296E+03  0.7546771E-02  0.1240387E+00
          1   -1    0    0  501    0  0.00000000000E+00  0.00000000000E+00  0.69114493760E+02  0.69114493760E+02  0.00000000000E+00 0. -1.
         -1   -1    0    0    0  501 -0.00000000000E+00 -0.00000000000E+00 -0.21446081103E+03  0.21446081103E+03  0.00000000000E+00 0.  1.
         23    2    1    2    0    0 -0.49280121391E+02  0.23067431386E+02 -0.30443177458E+01  0.86507733299E+02  0.67183951171E+02 0.  0.
          5    1    1    2  502    0  0.17225578274E+01 -0.33158918051E+02 -0.14433762623E+03  0.14818205491E+03  0.47000000000E+01 0. -1.
         -5    1    1    2    0  502  0.47557563563E+02  0.10091486665E+02  0.20356267072E+01  0.48885516580E+02  0.47000000000E+01 0. -1.
        -11    1    3    3    0    0 -0.39580988551E+02  0.28582216958E+02 -0.30021770879E+02  0.57314086468E+02  0.00000000000E+00 0.  1.
         11    1    3    3    0    0 -0.96991328394E+01 -0.55147855726E+01  0.26977453133E+02  0.29193646831E+02  0.00000000000E+00 0. -1.
<mgrwt>
<rscale>  0 0.12165758E+03</rscale>
<asrwt>0</asrwt>
<pdfrwt beam="1">  1        1 0.10632999E-01 0.13632963E+03</pdfrwt>
<pdfrwt beam="2">  1       -1 0.32993971E-01 0.13632963E+03</pdfrwt>
<totfact> 0.48870341E+03</totfact>
</mgrwt>
</event>
<event>
 7    1  0.1378058E-005  0.1570598E+03  0.7546771E-02  0.1199986E+00
          1   -1    0    0  501    0  0.00000000000E+00  0.00000000000E+00  0.62077888802E+02  0.62077888802E+02  0.00000000000E+00 0. -1.
         -1   -1    0    0    0  501 -0.00000000000E+00 -0.00000000000E+00 -0.41414925922E+03  0.41414925922E+03  0.00000000000E+00 0.  1.
         23    2    1    2    0    0  0.70824890688E+02  0.63461140298E+02 -0.60955189643E+02  0.14544562812E+03  0.91626492491E+02 0.  0.
          5    1    1    2  502    0 -0.75122722102E+02 -0.76368555852E+02 -0.12776723160E+03  0.16679968576E+03  0.47000000000E+01 0.  1.
         -5    1    1    2    0  502  0.42978314135E+01  0.12907415555E+02 -0.16334894918E+03  0.16398183415E+03  0.47000000000E+01 0.  1.
        -11    1    3    3    0    0  0.90474041555E+02  0.51233028375E+02 -0.32852132539E+02  0.10903961667E+03  0.00000000000E+00 0.  1.
         11    1    3    3    0    0 -0.19649150867E+02  0.12228111923E+02 -0.28103057103E+02  0.36406011448E+02  0.00000000000E+00 0. -1.
<mgrwt>
<rscale>  0 0.15039683E+03</rscale>
<asrwt>0</asrwt>
<pdfrwt beam="1">  1        1 0.95504446E-02 0.15705981E+03</pdfrwt>
<pdfrwt beam="2">  1       -1 0.63715269E-01 0.15705981E+03</pdfrwt>
<totfact> 0.17307728E+03</totfact>
</mgrwt>
</event>
<event>
 7    1  0.1378058E-005  0.1262916E+03  0.7546771E-02  0.1242218E+00
         -2   -1    0    0    0  501 -0.00000000000E+00  0.00000000000E+00  0.29448450729E+03  0.29448450729E+03  0.00000000000E+00 0.  1.
          2   -1    0    0  501    0  0.00000000000E+00 -0.00000000000E+00 -0.90789585560E+02  0.90789585560E+02  0.00000000000E+00 0. -1.
         23    2    1    2    0    0 -0.17719397916E+02  0.31217604410E+01 -0.38897071980E+02  0.11177740981E+03  0.10323509425E+03 0.  0.
          5    1    1    2  502    0  0.47879443875E+02  0.46629590501E+02  0.14599624642E+03  0.16063546876E+03  0.47000000000E+01 0. -1.
         -5    1    1    2    0  502 -0.30160045959E+02 -0.49751350942E+02  0.96595747292E+02  0.11286121428E+03  0.47000000000E+01 0. -1.
        -11    1    3    3    0    0  0.11299932725E+02  0.20816708947E+02  0.28040181528E+02  0.36705253454E+02  0.00000000000E+00 0.  1.
         11    1    3    3    0    0 -0.29019330641E+02 -0.17694948506E+02 -0.66937253507E+02  0.75072156361E+02  0.00000000000E+00 0. -1.
<mgrwt>
<rscale>  0 0.12053468E+03</rscale>
<asrwt>0</asrwt>
<pdfrwt beam="2">  1        2 0.13967629E-01 0.12629157E+03</pdfrwt>
<pdfrwt beam="1">  1       -2 0.45305308E-01 0.12629157E+03</pdfrwt>
<totfact> 0.19170378E+03</totfact>
</mgrwt>
</event>
<event>
 7    1  0.1378058E-005  0.1636205E+03  0.7546771E-02  0.1191655E+00
          2   -1    0    0  501    0  0.00000000000E+00  0.00000000000E+00  0.31185605892E+03  0.31185605892E+03  0.00000000000E+00 0. -1.
         -2   -1    0    0    0  501 -0.00000000000E+00 -0.00000000000E+00 -0.76781734110E+02  0.76781734110E+02  0.00000000000E+00 0.  1.
         23    2    1    2    0    0  0.56007603656E+02  0.89491836172E+02  0.14584401296E+03  0.20226794789E+03  0.92174867616E+02 0.  0.
          5    1    1    2  502    0 -0.75218432718E+02 -0.10419549847E+02  0.68241813662E+02  0.10220281195E+03  0.47000000000E+01 0. -1.
         -5    1    1    2    0  502  0.19210829062E+02 -0.79072286325E+02  0.20988498184E+02  0.84167033178E+02  0.47000000000E+01 0. -1.
        -11    1    3    3    0    0 -0.89951421368E+01  0.18931721331E+02 -0.67506356573E+01  0.22020302822E+02  0.00000000000E+00 0.  1.
         11    1    3    3    0    0  0.65002745792E+02  0.70560114842E+02  0.15259464862E+03  0.18024764507E+03  0.00000000000E+00 0. -1.
<mgrwt>
<rscale>  0 0.15740774E+03</rscale>
<asrwt>0</asrwt>
<pdfrwt beam="1">  1        2 0.47977855E-01 0.16362051E+03</pdfrwt>
<pdfrwt beam="2">  1       -2 0.11812575E-01 0.16362051E+03</pdfrwt>
<totfact> 0.51508220E+03</totfact>
</mgrwt>
</event>
<event>
 6    1  0.1378058E-005  0.2578329E+03  0.7546771E-02  0.1183693E+00
         -2   -1    0    0    0  501 -0.00000000000E+00  0.00000000000E+00  0.56189843147E+02  0.56189843147E+02  0.00000000000E+00 0.  1.
          2   -1    0    0  501    0  0.00000000000E+00 -0.00000000000E+00 -0.40310758118E+03  0.40310758118E+03  0.00000000000E+00 0. -1.
          5    1    1    2  502    0  0.96753802101E+02  0.39516898028E+02 -0.25557384350E+03  0.27615749661E+03  0.47000000000E+01 0. -1.
         -5    1    1    2    0  502 -0.11265749822E+03 -0.10097244283E+02 -0.50272440405E+02  0.12386716479E+03  0.47000000000E+01 0.  1.
        -11    1    1    2    0    0  0.20120820536E+02 -0.97118739066E+01 -0.24715949476E+02  0.33317353921E+02  0.00000000000E+00 0. -1.
         11    1    1    2    0    0 -0.42171244127E+01 -0.19707779838E+02 -0.16355504650E+02  0.25955409009E+02  0.00000000000E+00 0.  1.
<mgrwt>
<rscale>  0 0.16451408E+03</rscale>
<asrwt>0</asrwt>
<pdfrwt beam="2">  1        2 0.62016551E-01 0.25783285E+03</pdfrwt>
<pdfrwt beam="1">  1       -2 0.86445912E-02 0.25783285E+03</pdfrwt>
<totfact> 0.65625826E+03</totfact>
</mgrwt>
</event>
<event>
 7    1  0.1378058E-005  0.1565480E+03  0.7546771E-02  0.1201787E+00
          1   -1    0    0  501    0  0.00000000000E+00  0.00000000000E+00  0.39389051765E+03  0.39389051765E+03  0.00000000000E+00 0. -1.
         -1   -1    0    0    0  501 -0.00000000000E+00 -0.00000000000E+00 -0.51503460178E+02  0.51503460178E+02  0.00000000000E+00 0.  1.
         23    2    1    2    0    0  0.17920962704E+02 -0.92521115566E+02  0.14940479214E+03  0.19689967337E+03  0.86984893688E+02 0.  0.
          5    1    1    2  502    0  0.15366687487E+02 -0.27258746434E+02  0.47464716959E+02  0.57045277609E+02  0.47000000000E+01 0.  1.
         -5    1    1    2    0  502 -0.33287650191E+02  0.11977986200E+03  0.14551754837E+03  0.19144902684E+03  0.47000000000E+01 0.  1.
        -11    1    3    3    0    0  0.30372098367E+02 -0.66489583498E+02  0.39131151674E+02  0.82913063532E+02  0.00000000000E+00 0.  1.
         11    1    3    3    0    0 -0.12451135663E+02 -0.26031532068E+02  0.11027364047E+03  0.11398660984E+03  0.00000000000E+00 0. -1.
<mgrwt>
<rscale>  0 0.14893565E+03</rscale>
<asrwt>0</asrwt>
<pdfrwt beam="1">  1        1 0.60598539E-01 0.15654796E+03</pdfrwt>
<pdfrwt beam="2">  1       -1 0.79236095E-02 0.15654796E+03</pdfrwt>
<totfact> 0.52292771E+03</totfact>
</mgrwt>
</event>
<event>
 7    1  0.1378058E-005  0.1441193E+03  0.7546771E-02  0.1217753E+00
          2   -1    0    0  501    0  0.00000000000E+00  0.00000000000E+00  0.91406333717E+02  0.91406333717E+02  0.00000000000E+00 0. -1.
         -2   -1    0    0    0  501 -0.00000000000E+00 -0.00000000000E+00 -0.19290963845E+03  0.19290963845E+03  0.00000000000E+00 0.  1.
         23    2    1    2    0    0  0.36350029822E+01 -0.71642673879E+02 -0.19451320552E+02  0.11847597464E+03  0.92262217233E+02 0.  0.
          5    1    1    2  502    0 -0.38434129185E+02  0.47670530692E+02 -0.10185438973E+03  0.11893724602E+03  0.47000000000E+01 0. -1.
         -5    1    1    2    0  502  0.34799126203E+02  0.23972143187E+02  0.19802405551E+02  0.46902751508E+02  0.47000000000E+01 0. -1.
        -11    1    3    3    0    0 -0.56193224707E+01 -0.23468209459E+02  0.36694783709E+02  0.43918570010E+02  0.00000000000E+00 0. -1.
         11    1    3    3    0    0  0.92543254529E+01 -0.48174464420E+02 -0.56146104261E+02  0.74557404632E+02  0.00000000000E+00 0.  1.
<mgrwt>
<rscale>  0 0.13676212E+03</rscale>
<asrwt>0</asrwt>
<pdfrwt beam="1">  1        2 0.14062513E-01 0.14411931E+03</pdfrwt>
<pdfrwt beam="2">  1       -2 0.29678406E-01 0.14411931E+03</pdfrwt>
<totfact> 0.42135358E+03</totfact>
</mgrwt>
</event>
<event>
 7    1  0.1378058E-005  0.1380212E+03  0.7546771E-02  0.1227608E+00
         -2   -1    0    0    0  501 -0.00000000000E+00  0.00000000000E+00  0.59254191085E+02  0.59254191085E+02  0.00000000000E+00 0.  1.
          2   -1    0    0  501    0  0.00000000000E+00 -0.00000000000E+00 -0.32849800733E+03  0.32849800733E+03  0.00000000000E+00 0. -1.
         23    2    1    2    0    0 -0.43605215751E+02 -0.38943297372E+02 -0.21254482043E+03  0.23853886355E+03  0.91145452341E+02 0.  0.
          5    1    1    2  502    0  0.17702623843E+02 -0.43000144963E+02 -0.40047371085E+02  0.61548982840E+02  0.47000000000E+01 0. -1.
         -5    1    1    2    0  502  0.25902591908E+02  0.81943442335E+02 -0.16651624730E+02  0.87664352022E+02  0.47000000000E+01 0. -1.
        -11    1    3    3    0    0  0.13151736572E+01 -0.45791226399E+02 -0.17079427908E+03  0.17683113940E+03  0.00000000000E+00 0. -1.
         11    1    3    3    0    0 -0.44920389408E+02  0.68479290267E+01 -0.41750541351E+02  0.61707724149E+02  0.00000000000E+00 0.  1.
<mgrwt>
<rscale>  0 0.12989746E+03</rscale>
<asrwt>0</asrwt>
<pdfrwt beam="2">  1        2 0.50538155E-01 0.13802117E+03</pdfrwt>
<pdfrwt beam="1">  1       -2 0.91160295E-02 0.13802117E+03</pdfrwt>
<totfact> 0.72661172E+03</totfact>
</mgrwt>
</event>
<event>
 7    1  0.1378058E-005  0.1335045E+03  0.7546771E-02  0.1235091E+00
         -1   -1    0    0    0  501 -0.00000000000E+00  0.00000000000E+00  0.88193654786E+02  0.88193654786E+02  0.00000000000E+00 0.  1.
          1   -1    0    0  501    0  0.00000000000E+00 -0.00000000000E+00 -0.16228136825E+03  0.16228136825E+03  0.00000000000E+00 0. -1.
         23    2    1    2    0    0 -0.36152744098E+02 -0.29853694292E+02 -0.12051324334E+02  0.10326102264E+03  0.91210418323E+02 0.  0.
          5    1    1    2  502    0 -0.41361656798E+02 -0.42478083222E+01  0.48370776457E+00  0.41846797988E+02  0.47000000000E+01 0. -1.
         -5    1    1    2    0  502  0.77514400896E+02  0.34101502614E+02 -0.62520096896E+02  0.10536720241E+03  0.47000000000E+01 0. -1.
        -11    1    3    3    0    0 -0.55973381321E+02 -0.22328388041E+02 -0.36848861716E+02  0.70635790778E+02  0.00000000000E+00 0. -1.
         11    1    3    3    0    0  0.19820637223E+02 -0.75253062514E+01  0.24797537382E+02  0.32625231866E+02  0.00000000000E+00 0.  1.
<mgrwt>
<rscale>  0 0.12498604E+03</rscale>
<asrwt>0</asrwt>
<pdfrwt beam="2">  1        1 0.24966365E-01 0.13350449E+03</pdfrwt>
<pdfrwt beam="1">  1       -1 0.13568254E-01 0.13350449E+03</pdfrwt>
<totfact> 0.68522974E+03</totfact>
</mgrwt>
</event>
<event>
 7    1  0.1378058E-005  0.2050520E+03  0.7546771E-02  0.1149990E+00
         -2   -1    0    0    0  501 -0.00000000000E+00  0.00000000000E+00  0.72879191224E+02  0.72879191224E+02  0.00000000000E+00 0.  1.
          2   -1    0    0  501    0  0.00000000000E+00 -0.00000000000E+00 -0.52714507129E+03  0.52714507129E+03  0.00000000000E+00 0. -1.
         23    2    1    2    0    0 -0.15809943090E+03 -0.37761452237E+02 -0.24893191062E+03  0.30983750093E+03  0.87240033993E+02 0.  0.
          5    1    1    2  502    0  0.13663145317E+03  0.66846263343E+02 -0.10900763220E+03  0.18719329794E+03  0.47000000000E+01 0. -1.
         -5    1    1    2    0  502  0.21467977736E+02 -0.29084811106E+02 -0.96326337247E+02  0.10299346364E+03  0.47000000000E+01 0. -1.
        -11    1    3    3    0    0 -0.12201821830E+03 -0.46867876655E+02 -0.23718143771E+03  0.27081373276E+03  0.00000000000E+00 0. -1.
         11    1    3    3    0    0 -0.36081212605E+02  0.91064244179E+01 -0.11750472917E+02  0.39023768174E+02  0.00000000000E+00 0.  1.
<mgrwt>
<rscale>  0 0.19970283E+03</rscale>
<asrwt>0</asrwt>
<pdfrwt beam="2">  1        2 0.81099242E-01 0.20505199E+03</pdfrwt>
<pdfrwt beam="1">  1       -2 0.11212183E-01 0.20505199E+03</pdfrwt>
<totfact> 0.31967200E+03</totfact>
</mgrwt>
</event>
<event>
 7    1  0.1378058E-005  0.1502211E+03  0.7546771E-02  0.1208791E+00
         -1   -1    0    0    0  501 -0.00000000000E+00  0.00000000000E+00  0.26445256463E+03  0.26445256463E+03  0.00000000000E+00 0.  1.
          1   -1    0    0  501    0  0.00000000000E+00 -0.00000000000E+00 -0.10655268440E+03  0.10655268440E+03  0.00000000000E+00 0. -1.
         23    2    1    2    0    0 -0.82086935457E+02 -0.14261766444E+02 -0.32004543824E+02  0.12886878491E+03  0.92958108546E+02 0.  0.
          5    1    1    2  502    0  0.11023385561E+03  0.28196883995E+01  0.17743057087E+03  0.20895729479E+03  0.47000000000E+01 0.  1.
         -5    1    1    2    0  502 -0.28146920154E+02  0.11442078045E+02  0.12473853180E+02  0.33179169328E+02  0.47000000000E+01 0.  1.
        -11    1    3    3    0    0 -0.32317273905E+02  0.10719560257E+02 -0.58122129626E+02  0.67360946526E+02  0.00000000000E+00 0. -1.
         11    1    3    3    0    0 -0.49769661553E+02 -0.24981326701E+02  0.26117585801E+02  0.61507838386E+02  0.00000000000E+00 0.  1.
<mgrwt>
<rscale>  0 0.14342641E+03</rscale>
<asrwt>0</asrwt>
<pdfrwt beam="2">  1        1 0.16392721E-01 0.15022109E+03</pdfrwt>
<pdfrwt beam="1">  1       -1 0.40685010E-01 0.15022109E+03</pdfrwt>
<totfact> 0.19412357E+03</totfact>
</mgrwt>
</event>
<event>
 7    1  0.1378058E-005  0.1288341E+03  0.7546771E-02  0.1242950E+00
         -1   -1    0    0    0  501 -0.00000000000E+00  0.00000000000E+00  0.10567997445E+03  0.10567997445E+03  0.00000000000E+00 0.  1.
          1   -1    0    0  501    0  0.00000000000E+00 -0.00000000000E+00 -0.12400477791E+03  0.12400477791E+03  0.00000000000E+00 0. -1.
         23    2    1    2    0    0  0.30512594997E+02 -0.77817790100E+01 -0.25842148887E+02  0.10063150994E+03  0.92017985176E+02 0.  0.
          5    1    1    2  502    0 -0.48832667629E+02  0.40010974539E+02  0.43789956939E+02  0.76975046867E+02  0.47000000000E+01 0.  1.
         -5    1    1    2    0  502  0.18320072632E+02 -0.32229195529E+02 -0.36272611520E+02  0.52078195554E+02  0.47000000000E+01 0.  1.
        -11    1    3    3    0    0  0.35407597678E+02  0.17440291278E+02 -0.51123033340E+02  0.64586579652E+02  0.00000000000E+00 0. -1.
         11    1    3    3    0    0 -0.48950026813E+01 -0.25222070288E+02  0.25280884453E+02  0.36044930289E+02  0.00000000000E+00 0.  1.
<mgrwt>
<rscale>  0 0.12008898E+03</rscale>
<asrwt>0</asrwt>
<pdfrwt beam="2">  1        1 0.19077658E-01 0.12883411E+03</pdfrwt>
<pdfrwt beam="1">  1       -1 0.16258458E-01 0.12883411E+03</pdfrwt>
<totfact> 0.72343368E+03</totfact>
</mgrwt>
</event>
<event>
 7    1  0.1378058E-005  0.1342498E+03  0.7546771E-02  0.1234661E+00
          2   -1    0    0  501    0  0.00000000000E+00  0.00000000000E+00  0.48278745324E+03  0.48278745324E+03  0.00000000000E+00 0. -1.
         -2   -1    0    0    0  501 -0.00000000000E+00 -0.00000000000E+00 -0.28855572850E+02  0.28855572850E+02  0.00000000000E+00 0.  1.
         23    2    1    2    0    0 -0.20099550984E+02 -0.44641404182E+02  0.19000275998E+03  0.21553227444E+03  0.89197901369E+02 0.  0.
          5    1    1    2  502    0  0.53811230168E+01 -0.43785128070E+02  0.81501983454E+02  0.92794165937E+02  0.47000000000E+01 0. -1.
         -5    1    1    2    0  502  0.14718427967E+02  0.88426532252E+02  0.18242713695E+03  0.20331658571E+03  0.47000000000E+01 0. -1.
        -11    1    3    3    0    0 -0.31143942766E+02 -0.47702647038E+02  0.19491006024E+03  0.20306506171E+03  0.00000000000E+00 0. -1.
         11    1    3    3    0    0  0.11044391782E+02  0.30612428560E+01 -0.49073002515E+01  0.12467212737E+02  0.00000000000E+00 0.  1.
<mgrwt>
<rscale>  0 0.12526190E+03</rscale>
<asrwt>0</asrwt>
<pdfrwt beam="1">  1        2 0.74274987E-01 0.13424975E+03</pdfrwt>
<pdfrwt beam="2">  1       -2 0.44393192E-02 0.13424975E+03</pdfrwt>
<totfact> 0.14362416E+04</totfact>
</mgrwt>
</event>
<event>
 7    1  0.1378058E-005  0.1346996E+03  0.7546771E-02  0.1238066E+00
         -3   -1    0    0    0  501 -0.00000000000E+00  0.00000000000E+00  0.15371069746E+03  0.15371069746E+03  0.00000000000E+00 0.  1.
          3   -1    0    0  501    0  0.00000000000E+00 -0.00000000000E+00 -0.88489748144E+02  0.88489748144E+02  0.00000000000E+00 0. -1.
         23    2    1    2    0    0  0.33025884907E+02  0.37869623223E+02  0.34872398662E+01  0.94028154282E+02  0.79399719892E+02 0.  0.
          5    1    1    2  502    0 -0.48353295421E+02  0.11344444922E+02 -0.18064169527E+02  0.53057910149E+02  0.47000000000E+01 0. -1.
         -5    1    1    2    0  502  0.15327410514E+02 -0.49214068146E+02  0.79797878974E+02  0.95114381170E+02  0.47000000000E+01 0. -1.
        -11    1    3    3    0    0 -0.12744003938E+02 -0.11638853283E+02 -0.16321976712E+02  0.23754567264E+02  0.00000000000E+00 0. -1.
         11    1    3    3    0    0  0.45769888845E+02  0.49508476507E+02  0.19809216579E+02  0.70273587018E+02  0.00000000000E+00 0.  1.
<mgrwt>
<rscale>  0 0.12310181E+03</rscale>
<asrwt>0</asrwt>
<pdfrwt beam="2">  1        3 0.13613807E-01 0.13469958E+03</pdfrwt>
<pdfrwt beam="1">  1       -3 0.23647800E-01 0.13469958E+03</pdfrwt>
<totfact> 0.16708246E+03</totfact>
</mgrwt>
</event>
<event>
 7    1  0.1378058E-005  0.1674781E+03  0.7546771E-02  0.1187282E+00
         -2   -1    0    0    0  501 -0.00000000000E+00  0.00000000000E+00  0.24172550173E+03  0.24172550173E+03  0.00000000000E+00 0.  1.
          2   -1    0    0  501    0  0.00000000000E+00 -0.00000000000E+00 -0.15104821483E+03  0.15104821483E+03  0.00000000000E+00 0. -1.
         23    2    1    2    0    0 -0.10096421608E+03  0.47243436472E+02 -0.70540207728E+02  0.16030867382E+03  0.91089158401E+02 0.  0.
          5    1    1    2  502    0  0.95079852675E+02  0.21425413187E+02  0.10557958274E+03  0.14376496446E+03  0.47000000000E+01 0. -1.
         -5    1    1    2    0  502  0.58843634010E+01 -0.68668849658E+02  0.55637911889E+02  0.88700078272E+02  0.47000000000E+01 0. -1.
        -11    1    3    3    0    0 -0.54327544170E+02  0.35377272113E+02  0.10873239496E+02  0.65736297240E+02  0.00000000000E+00 0.  1.
         11    1    3    3    0    0 -0.46636671907E+02  0.11866164358E+02 -0.81413447225E+02  0.94572376581E+02  0.00000000000E+00 0. -1.
<mgrwt>
<rscale>  0 0.16125938E+03</rscale>
<asrwt>0</asrwt>
<pdfrwt beam="2">  1        2 0.23238187E-01 0.16747810E+03</pdfrwt>
<pdfrwt beam="1">  1       -2 0.37188539E-01 0.16747810E+03</pdfrwt>
<totfact> 0.15749911E+03</totfact>
</mgrwt>
</event>
<event>
 7    1  0.1378058E-005  0.1271773E+03  0.7546771E-02  0.1244171E+00
          1   -1    0    0  501    0  0.00000000000E+00  0.00000000000E+00  0.12017611402E+02  0.12017611402E+02  0.00000000000E+00 0. -1.
         -1   -1    0    0    0  501 -0.00000000000E+00 -0.00000000000E+00 -0.11453379851E+04  0.11453379851E+04  0.00000000000E+00 0.  1.
         23    2    1    2    0    0  0.20786877240E+02  0.10762852262E+02 -0.34435727514E+03  0.35820802307E+03  0.95828605314E+02 0.  0.
          5    1    1    2  502    0 -0.66096586025E+02 -0.24266852978E+02 -0.31492567155E+03  0.32273504216E+03  0.47000000000E+01 0. -1.
         -5    1    1    2    0  502  0.45309708785E+02  0.13504000717E+02 -0.47403742699E+03  0.47641253125E+03  0.47000000000E+01 0. -1.
        -11    1    3    3    0    0 -0.61350010609E+01  0.45163619321E+02 -0.25140272602E+03  0.25550092250E+03  0.00000000000E+00 0.  1.
         11    1    3    3    0    0  0.26921878301E+02 -0.34400767060E+02 -0.92954549120E+02  0.10270710057E+03  0.00000000000E+00 0. -1.
<mgrwt>
<rscale>  0 0.11935133E+03</rscale>
<asrwt>0</asrwt>
<pdfrwt beam="1">  1        1 0.18488631E-02 0.12717733E+03</pdfrwt>
<pdfrwt beam="2">  1       -1 0.17620586E+00 0.12717733E+03</pdfrwt>
<totfact> 0.15953501E+03</totfact>
</mgrwt>
</event>
<event>
 7    1  0.1378058E-005  0.1316733E+03  0.7546771E-02  0.1238601E+00
          2   -1    0    0  501    0  0.00000000000E+00  0.00000000000E+00  0.80903519798E+02  0.80903519798E+02  0.00000000000E+00 0. -1.
         -2   -1    0    0    0  501 -0.00000000000E+00 -0.00000000000E+00 -0.16677337470E+03  0.16677337470E+03  0.00000000000E+00 0.  1.
         23    2    1    2    0    0  0.41204598533E+02 -0.37907256483E+01 -0.24889775037E+02  0.10256854259E+03  0.90490974618E+02 0.  0.
          5    1    1    2  502    0 -0.81448311453E+02  0.10521533293E+02 -0.63560917399E+02  0.10395484752E+03  0.47000000000E+01 0.  1.
         -5    1    1    2    0  502  0.40243712919E+02 -0.67308076450E+01  0.25808375330E+01  0.41153504389E+02  0.47000000000E+01 0.  1.
        -11    1    3    3    0    0  0.18749856108E+02  0.90501550130E+01 -0.57379096159E+02  0.61039520688E+02  0.00000000000E+00 0.  1.
         11    1    3    3    0    0  0.22454742426E+02 -0.12840880661E+02  0.32489321122E+02  0.41529021907E+02  0.00000000000E+00 0. -1.
<mgrwt>
<rscale>  0 0.12276715E+03</rscale>
<asrwt>0</asrwt>
<pdfrwt beam="1">  1        2 0.12446696E-01 0.13167332E+03</pdfrwt>
<pdfrwt beam="2">  1       -2 0.25657442E-01 0.13167332E+03</pdfrwt>
<totfact> 0.62693042E+03</totfact>
</mgrwt>
</event>
<event>
 7    1  0.1378058E-005  0.1456643E+03  0.7546771E-02  0.1212340E+00
          2   -1    0    0  501    0  0.00000000000E+00  0.00000000000E+00  0.53484517010E+03  0.53484517010E+03  0.00000000000E+00 0. -1.
         -2   -1    0    0    0  501 -0.00000000000E+00 -0.00000000000E+00 -0.35077183561E+02  0.35077183561E+02  0.00000000000E+00 0.  1.
         23    2    1    2    0    0  0.72764256616E+02 -0.17403773093E+02  0.26098435504E+03  0.29021589168E+03  0.10254219546E+03 0.  0.
          5    1    1    2  502    0 -0.77741026590E+02  0.45263121677E+02  0.86994068665E+02  0.12522969050E+03  0.47000000000E+01 0.  1.
         -5    1    1    2    0  502  0.49767699739E+01 -0.27859348584E+02  0.15178956283E+03  0.15447677148E+03  0.47000000000E+01 0.  1.
        -11    1    3    3    0    0  0.23121933040E+01 -0.12834212682E+02 -0.57821905260E+01  0.14265236778E+02  0.00000000000E+00 0.  1.
         11    1    3    3    0    0  0.70452063312E+02 -0.45695604104E+01  0.26676654557E+03  0.27595065490E+03  0.00000000000E+00 0. -1.
<mgrwt>
<rscale>  0 0.14073753E+03</rscale>
<asrwt>0</asrwt>
<pdfrwt beam="1">  1        2 0.82283867E-01 0.14566428E+03</pdfrwt>
<pdfrwt beam="2">  1       -2 0.53964902E-02 0.14566428E+03</pdfrwt>
<totfact> 0.96257992E+03</totfact>
</mgrwt>
</event>
<event>
 7    1  0.1378058E-005  0.2187220E+03  0.7546771E-02  0.1138195E+00
         -2   -1    0    0    0  501 -0.00000000000E+00  0.00000000000E+00  0.50869495223E+02  0.50869495223E+02  0.00000000000E+00 0.  1.
          2   -1    0    0  501    0  0.00000000000E+00 -0.00000000000E+00 -0.88752297065E+03  0.88752297065E+03  0.00000000000E+00 0. -1.
         23    2    1    2    0    0  0.15280070098E+03 -0.94157439136E+02 -0.47063983677E+03  0.51200614500E+03  0.91840944016E+02 0.  0.
          5    1    1    2  502    0 -0.16830834864E+03  0.10429264752E+03 -0.31709234006E+03  0.37386401094E+03  0.47000000000E+01 0.  1.
         -5    1    1    2    0  502  0.15507647659E+02 -0.10135208382E+02 -0.48921298594E+02  0.52522309936E+02  0.47000000000E+01 0.  1.
        -11    1    3    3    0    0  0.12319276874E+03 -0.27996847297E+02 -0.25634957168E+03  0.28578905617E+03  0.00000000000E+00 0.  1.
         11    1    3    3    0    0  0.29607932237E+02 -0.66160591839E+02 -0.21429026509E+03  0.22621708882E+03  0.00000000000E+00 0. -1.
<mgrwt>
<rscale>  0 0.21431365E+03</rscale>
<asrwt>0</asrwt>
<pdfrwt beam="2">  1        2 0.13654199E+00 0.21872199E+03</pdfrwt>
<pdfrwt beam="1">  1       -2 0.78260768E-02 0.21872199E+03</pdfrwt>
<totfact> 0.30117204E+03</totfact>
</mgrwt>
</event>
<event>
 7    1  0.1378058E-005  0.1729475E+03  0.7546771E-02  0.1180471E+00
         -2   -1    0    0    0  501 -0.00000000000E+00  0.00000000000E+00  0.21887661467E+03  0.21887661467E+03  0.00000000000E+00 0.  1.
          2   -1    0    0  501    0  0.00000000000E+00 -0.00000000000E+00 -0.13985637357E+03  0.13985637357E+03  0.00000000000E+00 0. -1.
         23    2    1    2    0    0 -0.85069540524E+02  0.83960393493E+02 -0.28841604010E+02  0.15490706994E+03  0.94224135952E+02 0.  0.
          5    1    1    2  502    0  0.13260135213E+02 -0.11810691450E+02 -0.28309565932E+02  0.33746779722E+02  0.47000000000E+01 0. -1.
         -5    1    1    2    0  502  0.71809405311E+02 -0.72149702043E+02  0.13617141104E+03  0.17007913858E+03  0.47000000000E+01 0. -1.
        -11    1    3    3    0    0 -0.70095715008E+02  0.19235456341E+02 -0.46345893424E+02  0.86205300768E+02  0.00000000000E+00 0. -1.
         11    1    3    3    0    0 -0.14973825516E+02  0.64724937152E+02  0.17504289415E+02  0.68701769175E+02  0.00000000000E+00 0.  1.
<mgrwt>
<rscale>  0 0.16750902E+03</rscale>
<asrwt>0</asrwt>
<pdfrwt beam="2">  1        2 0.21516365E-01 0.17294747E+03</pdfrwt>
<pdfrwt beam="1">  1       -2 0.33673325E-01 0.17294747E+03</pdfrwt>
<totfact> 0.20677753E+03</totfact>
</mgrwt>
</event>
<event>
 6    1  0.1378058E-005  0.1650386E+03  0.7546771E-02  0.1198867E+00
         -1   -1    0    0    0  501 -0.00000000000E+00  0.00000000000E+00  0.14667315827E+03  0.14667315827E+03  0.00000000000E+00 0.  1.
          1   -1    0    0  501    0  0.00000000000E+00 -0.00000000000E+00 -0.37260109425E+03  0.37260109425E+03  0.00000000000E+00 0. -1.
          5    1    1    2  502    0 -0.30179116654E+02 -0.33795497460E+02  0.43781371086E+02  0.63180797595E+02  0.47000000000E+01 0. -1.
         -5    1    1    2    0  502 -0.52796447518E+02  0.10257101904E+03  0.42331873288E+02  0.12297299018E+03  0.47000000000E+01 0. -1.
        -11    1    1    2    0    0  0.32858323103E+02 -0.49522119659E+02 -0.20390933904E+03  0.21239380472E+03  0.00000000000E+00 0. -1.
         11    1    1    2    0    0  0.50117241069E+02 -0.19253401921E+02 -0.10813184131E+03  0.12072666003E+03  0.00000000000E+00 0.  1.
<mgrwt>
<rscale>  0 0.15131421E+03</rscale>
<asrwt>0</asrwt>
<pdfrwt beam="2">  1        1 0.57323245E-01 0.16503861E+03</pdfrwt>
<pdfrwt beam="1">  1       -1 0.22565101E-01 0.16503861E+03</pdfrwt>
<totfact> 0.10925931E+03</totfact>
</mgrwt>
</event>
<event>
 7    1  0.1378058E-005  0.1863780E+03  0.7546771E-02  0.1167370E+00
          1   -1    0    0  501    0  0.00000000000E+00  0.00000000000E+00  0.13724472158E+03  0.13724472158E+03  0.00000000000E+00 0. -1.
         -1   -1    0    0    0  501 -0.00000000000E+00 -0.00000000000E+00 -0.26426438048E+03  0.26426438048E+03  0.00000000000E+00 0.  1.
         23    2    1    2    0    0 -0.13479719658E+03 -0.30711496104E+02  0.18833004224E+02  0.16484530298E+03  0.87782752671E+02 0.  0.
          5    1    1    2  502    0  0.13586883379E+03 -0.12892374984E+02 -0.13376626058E+03  0.19115976511E+03  0.47000000000E+01 0. -1.
         -5    1    1    2    0  502 -0.10716372082E+01  0.43603871088E+02 -0.12086402541E+02  0.45504033959E+02  0.47000000000E+01 0. -1.
        -11    1    3    3    0    0 -0.54815795042E+02 -0.52896626357E+02  0.28392252369E+02  0.81295414758E+02  0.00000000000E+00 0. -1.
         11    1    3    3    0    0 -0.79981401539E+02  0.22185130252E+02 -0.95592481449E+01  0.83549888220E+02  0.00000000000E+00 0.  1.
<mgrwt>
<rscale>  0 0.18044792E+03</rscale>
<asrwt>0</asrwt>
<pdfrwt beam="1">  1        1 0.21114573E-01 0.18637799E+03</pdfrwt>
<pdfrwt beam="2">  1       -1 0.40656058E-01 0.18637799E+03</pdfrwt>
<totfact> 0.14135781E+03</totfact>
</mgrwt>
</event>
<event>
 7    1  0.1415941E-005  0.1617043E+03  0.7546771E-02  0.1193683E+00
         -2   -1    0    0    0  501 -0.00000000000E+00  0.00000000000E+00  0.39831071492E+02  0.39831071492E+02  0.00000000000E+00 0. -1.
          2   -1    0    0  501    0  0.00000000000E+00 -0.00000000000E+00 -0.59083199717E+03  0.59083199717E+03  0.00000000000E+00 0.  1.
         23    2    1    2    0    0 -0.71569021866E+02 -0.73493414058E+02 -0.31855107648E+03  0.34750018202E+03  0.93585155746E+02 0.  0.
          5    1    1    2  502    0 -0.31976961543E+02  0.29306470488E+02 -0.35451786367E+02  0.56216674026E+02  0.47000000000E+01 0.  1.
         -5    1    1    2    0  502  0.10354598341E+03  0.44186943570E+02 -0.19699806283E+03  0.22694621262E+03  0.47000000000E+01 0.  1.
        -11    1    3    3    0    0 -0.49677062704E+02 -0.35370963312E+02 -0.28695264507E+03  0.29336110192E+03  0.00000000000E+00 0.  1.
         11    1    3    3    0    0 -0.21891959162E+02 -0.38122450746E+02 -0.31598431410E+02  0.54139080103E+02  0.00000000000E+00 0. -1.
<mgrwt>
<rscale>  0 0.15566253E+03</rscale>
<asrwt>0</asrwt>
<pdfrwt beam="2">  1        2 0.90897225E-01 0.16170432E+03</pdfrwt>
<pdfrwt beam="1">  1       -2 0.61278575E-02 0.16170432E+03</pdfrwt>
<totfact> 0.71398530E+03</totfact>
</mgrwt>
</event>
<event>
 7    1  0.1378058E-005  0.1305435E+03  0.7546771E-02  0.1238639E+00
          3   -1    0    0  501    0  0.00000000000E+00  0.00000000000E+00  0.98378804463E+02  0.98378804463E+02  0.00000000000E+00 0. -1.
         -3   -1    0    0    0  501 -0.00000000000E+00 -0.00000000000E+00 -0.18218295485E+03  0.18218295485E+03  0.00000000000E+00 0.  1.
         23    2    1    2    0    0  0.35723338115E+02  0.11886701230E+02  0.31087470177E+02  0.10666039054E+03  0.94829096568E+02 0.  0.
          5    1    1    2  502    0 -0.34153903087E+02  0.55755082711E+01  0.18334848782E+02  0.39444037172E+02  0.47000000000E+01 0.  1.
         -5    1    1    2    0  502 -0.15694350285E+01 -0.17462209501E+02 -0.13322646935E+03  0.13445733160E+03  0.47000000000E+01 0.  1.
        -11    1    3    3    0    0  0.15184565483E+02  0.51665599938E+01 -0.34261980197E+02  0.37830512263E+02  0.00000000000E+00 0.  1.
         11    1    3    3    0    0  0.20538772632E+02  0.67201412365E+01  0.65349450374E+02  0.68829878277E+02  0.00000000000E+00 0. -1.
<mgrwt>
<rscale>  0 0.12274330E+03</rscale>
<asrwt>0</asrwt>
<pdfrwt beam="1">  1        3 0.15135201E-01 0.13054349E+03</pdfrwt>
<pdfrwt beam="2">  1       -3 0.28028147E-01 0.13054349E+03</pdfrwt>
<totfact> 0.10200018E+03</totfact>
</mgrwt>
</event>
<event>
 7    1  0.1378058E-005  0.1141854E+03  0.7546771E-02  0.1254591E+00
         -1   -1    0    0    0  501 -0.00000000000E+00  0.00000000000E+00  0.12545643707E+03  0.12545643707E+03  0.00000000000E+00 0.  1.
          1   -1    0    0  501    0  0.00000000000E+00 -0.00000000000E+00 -0.10752599334E+03  0.10752599334E+03  0.00000000000E+00 0. -1.
         23    2    1    2    0    0  0.38481825964E+01  0.24410495731E+02 -0.20427229884E+02  0.11252651351E+03  0.10786224414E+03 0.  0.
          5    1    1    2  502    0 -0.18423530818E+02 -0.11688763564E+01 -0.36181360021E+02  0.40889773450E+02  0.47000000000E+01 0. -1.
         -5    1    1    2    0  502  0.14575348222E+02 -0.23241619374E+02  0.74539033635E+02  0.79566143441E+02  0.47000000000E+01 0.  1.
        -11    1    3    3    0    0 -0.40407424972E+02 -0.49029505078E+01  0.20427271034E+02  0.45541984130E+02  0.00000000000E+00 0.  1.
         11    1    3    3    0    0  0.44255607568E+02  0.29313446238E+02 -0.40854500919E+02  0.66984529385E+02  0.00000000000E+00 0. -1.
<mgrwt>
<rscale>  0 0.11329290E+03</rscale>
<asrwt>0</asrwt>
<pdfrwt beam="2">  1        1 0.16542461E-01 0.11418545E+03</pdfrwt>
<pdfrwt beam="1">  1       -1 0.19300990E-01 0.11418545E+03</pdfrwt>
<totfact> 0.65550034E+03</totfact>
</mgrwt>
</event>
<event>
 7    1  0.1378058E-005  0.1771696E+03  0.7546771E-02  0.1176217E+00
         -2   -1    0    0    0  501 -0.00000000000E+00  0.00000000000E+00  0.12406319465E+03  0.12406319465E+03  0.00000000000E+00 0.  1.
          2   -1    0    0  501    0  0.00000000000E+00 -0.00000000000E+00 -0.28053510515E+03  0.28053510515E+03  0.00000000000E+00 0. -1.
         23    2    1    2    0    0 -0.48145297356E+02 -0.11595536163E+03 -0.16535280903E+03  0.22720625573E+03  0.92290387590E+02 0.  0.
          5    1    1    2  502    0 -0.86977473852E+01  0.43558360738E+02  0.57800739878E+02  0.73047909828E+02  0.47000000000E+01 0. -1.
         -5    1    1    2    0  502  0.56843044741E+02  0.72397000890E+02 -0.48919841349E+02  0.10434413424E+03  0.47000000000E+01 0. -1.
        -11    1    3    3    0    0 -0.72940771428E+01 -0.89582753447E+02 -0.51936094018E+02  0.10380573750E+03  0.00000000000E+00 0.  1.
         11    1    3    3    0    0 -0.40851220213E+02 -0.26372608182E+02 -0.11341671501E+03  0.12340051823E+03  0.00000000000E+00 0. -1.
<mgrwt>
<rscale>  0 0.17157362E+03</rscale>
<asrwt>0</asrwt>
<pdfrwt beam="2">  1        2 0.43159246E-01 0.17716960E+03</pdfrwt>
<pdfrwt beam="1">  1       -2 0.19086646E-01 0.17716960E+03</pdfrwt>
<totfact> 0.26299240E+03</totfact>
</mgrwt>
</event>
<event>
 7    1  0.1378058E-005  0.2287714E+03  0.7546771E-02  0.1127508E+00
          2   -1    0    0  501    0  0.00000000000E+00  0.00000000000E+00  0.70362952407E+02  0.70362952407E+02  0.00000000000E+00 0. -1.
         -2   -1    0    0    0  501 -0.00000000000E+00 -0.00000000000E+00 -0.18595136086E+03  0.18595136086E+03  0.00000000000E+00 0.  1.
         23    2    1    2    0    0 -0.31513357281E+02 -0.55636075527E+01 -0.29982215026E+02  0.10146207506E+03  0.91496306167E+02 0.  0.
          5    1    1    2  502    0  0.59979101834E+02  0.38273385461E+02 -0.85375790887E+02  0.11123605693E+03  0.47000000000E+01 0.  1.
         -5    1    1    2    0  502 -0.28465744553E+02 -0.32709777908E+02 -0.23040253998E+00  0.43616181276E+02  0.47000000000E+01 0.  1.
        -11    1    3    3    0    0  0.11659096486E+02 -0.23092011752E+02 -0.45509599865E+02  0.52347867363E+02  0.00000000000E+00 0.  1.
         11    1    3    3    0    0 -0.43172453767E+02  0.17528404199E+02  0.15527384839E+02  0.49114207700E+02  0.00000000000E+00 0. -1.
<mgrwt>
<rscale>  0 0.22877139E+03</rscale>
<asrwt>0</asrwt>
<pdfrwt beam="1">  1        2 0.10825070E-01 0.22877139E+03</pdfrwt>
<pdfrwt beam="2">  1       -2 0.28607902E-01 0.22877139E+03</pdfrwt>
<totfact> 0.63546279E+03</totfact>
</mgrwt>
</event>
<event>
 7    1  0.1378058E-005  0.1389688E+03  0.7546771E-02  0.1225943E+00
         -1   -1    0    0    0  501 -0.00000000000E+00  0.00000000000E+00  0.43094675226E+02  0.43094675226E+02  0.00000000000E+00 0.  1.
          1   -1    0    0  501    0  0.00000000000E+00 -0.00000000000E+00 -0.38373655740E+03  0.38373655740E+03  0.00000000000E+00 0. -1.
         23    2    1    2    0    0 -0.54479993436E+02  0.26816840633E+02 -0.20542088515E+03  0.23293164424E+03  0.91499716973E+02 0.  0.
          5    1    1    2  502    0  0.10916832276E+02 -0.71872019900E+02 -0.51497896450E+02  0.89212598944E+02  0.47000000000E+01 0.  1.
         -5    1    1    2    0  502  0.43563161161E+02  0.45055179267E+02 -0.83723100577E+02  0.10468698945E+03  0.47000000000E+01 0.  1.
        -11    1    3    3    0    0 -0.39149005351E+02 -0.17600122431E+02 -0.16642003306E+03  0.17186633275E+03  0.00000000000E+00 0.  1.
         11    1    3    3    0    0 -0.15330988086E+02  0.44416963064E+02 -0.39000852092E+02  0.61065311490E+02  0.00000000000E+00 0. -1.
<mgrwt>
<rscale>  0 0.13102488E+03</rscale>
<asrwt>0</asrwt>
<pdfrwt beam="2">  1        1 0.59036391E-01 0.13896882E+03</pdfrwt>
<pdfrwt beam="1">  1       -1 0.66299504E-02 0.13896882E+03</pdfrwt>
<totfact> 0.70181509E+03</totfact>
</mgrwt>
</event>
<event>
 7    1  0.1378058E-005  0.1325094E+03  0.7546771E-02  0.1236747E+00
         -3   -1    0    0    0  501 -0.00000000000E+00  0.00000000000E+00  0.10066552018E+03  0.10066552018E+03  0.00000000000E+00 0.  1.
          3   -1    0    0  501    0  0.00000000000E+00 -0.00000000000E+00 -0.14128011794E+03  0.14128011794E+03  0.00000000000E+00 0. -1.
         23    2    1    2    0    0 -0.36860354636E+02  0.23983857056E+02 -0.41179378525E+02  0.10943506784E+03  0.91358533888E+02 0.  0.
          5    1    1    2  502    0  0.40599390199E+02  0.44439089005E+02  0.15250601170E+02  0.62272096096E+02  0.47000000000E+01 0. -1.
         -5    1    1    2    0  502 -0.37390355630E+01 -0.68422946061E+02 -0.14685820408E+02  0.70238474184E+02  0.47000000000E+01 0. -1.
        -11    1    3    3    0    0 -0.44910688795E+01 -0.31491075302E+02  0.22705828483E+01  0.31890642355E+02  0.00000000000E+00 0.  1.
         11    1    3    3    0    0 -0.32369285757E+02  0.55474932357E+02 -0.43449961373E+02  0.77544425485E+02  0.00000000000E+00 0. -1.
<mgrwt>
<rscale>  0 0.12393262E+03</rscale>
<asrwt>0</asrwt>
<pdfrwt beam="2">  1        3 0.21735403E-01 0.13250937E+03</pdfrwt>
<pdfrwt beam="1">  1       -3 0.15487003E-01 0.13250937E+03</pdfrwt>
<totfact> 0.15549494E+03</totfact>
</mgrwt>
</event>
<event>
 7    1  0.1378058E-005  0.2094822E+03  0.7546771E-02  0.1145713E+00
         -1   -1    0    0    0  501 -0.00000000000E+00  0.00000000000E+00  0.32697133682E+02  0.32697133682E+02  0.00000000000E+00 0.  1.
          1   -1    0    0  501    0  0.00000000000E+00 -0.00000000000E+00 -0.12416060374E+04  0.12416060374E+04  0.00000000000E+00 0. -1.
         23    2    1    2    0    0  0.48986092488E+02 -0.16080447113E+03 -0.51522602681E+03  0.54968000885E+03  0.91828852978E+02 0.  0.
          5    1    1    2  502    0  0.12408277372E+02  0.39812578814E+02 -0.43595337540E+02  0.60511571078E+02  0.47000000000E+01 0. -1.
         -5    1    1    2    0  502 -0.61394369860E+02  0.12099189232E+03 -0.65008753938E+03  0.66411159116E+03  0.47000000000E+01 0. -1.
        -11    1    3    3    0    0 -0.25851182528E+02 -0.33751272727E+02 -0.14708665321E+03  0.15310752954E+03  0.00000000000E+00 0. -1.
         11    1    3    3    0    0  0.74837275016E+02 -0.12705319840E+03 -0.36813937360E+03  0.39657247931E+03  0.00000000000E+00 0.  1.
<mgrwt>
<rscale>  0 0.20484680E+03</rscale>
<asrwt>0</asrwt>
<pdfrwt beam="2">  1        1 0.19101634E+00 0.20948220E+03</pdfrwt>
<pdfrwt beam="1">  1       -1 0.50303277E-02 0.20948220E+03</pdfrwt>
<totfact> 0.18667371E+03</totfact>
</mgrwt>
</event>
<event>
 7    1  0.1646658E-005  0.2673224E+03  0.7546771E-02  0.1104806E+00
         -1   -1    0    0    0  501 -0.00000000000E+00  0.00000000000E+00  0.19748598951E+03  0.19748598951E+03  0.00000000000E+00 0.  1.
          1   -1    0    0  501    0  0.00000000000E+00 -0.00000000000E+00 -0.40840607579E+03  0.40840607579E+03  0.00000000000E+00 0. -1.
         23    2    1    2    0    0 -0.18248973473E+03 -0.15011163059E+03 -0.22341503984E+03  0.33827783363E+03  0.93175145709E+02 0.  0.
          5    1    1    2  502    0  0.73588262745E+02  0.13423923389E+03 -0.15555673929E+02  0.15394633260E+03  0.47000000000E+01 0.  1.
         -5    1    1    2    0  502  0.10890147198E+03  0.15872396700E+02  0.28050627492E+02  0.11366789907E+03  0.47000000000E+01 0.  1.
        -11    1    3    3    0    0 -0.12759885602E+03 -0.46044492487E+02 -0.10713156277E+03  0.17285466464E+03  0.00000000000E+00 0.  1.
         11    1    3    3    0    0 -0.54890878703E+02 -0.10406713810E+03 -0.11628347707E+03  0.16542316899E+03  0.00000000000E+00 0. -1.
<mgrwt>
<rscale>  0 0.26392849E+03</rscale>
<asrwt>0</asrwt>
<pdfrwt beam="2">  1        1 0.62831704E-01 0.26732238E+03</pdfrwt>
<pdfrwt beam="1">  1       -1 0.30382460E-01 0.26732238E+03</pdfrwt>
<totfact> 0.59228042E+02</totfact>
</mgrwt>
</event>
<event>
 7    1  0.1378058E-005  0.2232359E+03  0.7546771E-02  0.1131493E+00
         -2   -1    0    0    0  501 -0.00000000000E+00  0.00000000000E+00  0.20318945290E+02  0.20318945290E+02  0.00000000000E+00 0.  1.
          2   -1    0    0  501    0  0.00000000000E+00 -0.00000000000E+00 -0.61315023769E+03  0.61315023769E+03  0.00000000000E+00 0. -1.
         23    2    1    2    0    0 -0.16930162890E+02  0.19697621040E+02 -0.25166865361E+03  0.26922548876E+03  0.92036003264E+02 0.  0.
          5    1    1    2  502    0  0.11444624769E+01 -0.72231109699E+02 -0.20251422170E+03  0.21506450891E+03  0.47000000000E+01 0.  1.
         -5    1    1    2    0  502  0.15785700413E+02  0.52533488659E+02 -0.13864841709E+03  0.14917918531E+03  0.47000000000E+01 0.  1.
        -11    1    3    3    0    0 -0.31368493267E+02 -0.26251257928E+02 -0.68068911347E+02  0.79413396883E+02  0.00000000000E+00 0.  1.
         11    1    3    3    0    0  0.14438330377E+02  0.45948878968E+02 -0.18359974227E+03  0.18981209188E+03  0.00000000000E+00 0. -1.
<mgrwt>
<rscale>  0 0.22323589E+03</rscale>
<asrwt>0</asrwt>
<pdfrwt beam="2">  1        2 0.94330809E-01 0.22323589E+03</pdfrwt>
<pdfrwt beam="1">  1       -2 0.31259915E-02 0.22323589E+03</pdfrwt>
<totfact> 0.19220188E+04</totfact>
</mgrwt>
</event>
<event>
 7    1  0.1378058E-005  0.1321495E+03  0.7546771E-02  0.1237107E+00
          1   -1    0    0  501    0  0.00000000000E+00  0.00000000000E+00  0.86108294287E+03  0.86108294287E+03  0.00000000000E+00 0. -1.
         -1   -1    0    0    0  501 -0.00000000000E+00 -0.00000000000E+00 -0.15865031383E+02  0.15865031383E+02  0.00000000000E+00 0.  1.
         23    2    1    2    0    0 -0.18084100638E+02  0.38877677345E+02  0.35218996836E+03  0.36651674236E+03  0.91968690995E+02 0.  0.
          5    1    1    2  502    0  0.68884471923E+02 -0.36242813742E+02  0.34918941674E+03  0.35779037268E+03  0.47000000000E+01 0.  1.
         -5    1    1    2    0  502 -0.50800371284E+02 -0.26348636031E+01  0.14383852639E+03  0.15264085922E+03  0.47000000000E+01 0.  1.
        -11    1    3    3    0    0 -0.15340554311E+02 -0.25634094480E+02  0.57074517702E+02  0.64420027766E+02  0.00000000000E+00 0.  1.
         11    1    3    3    0    0 -0.27435463277E+01  0.64511771825E+02  0.29511545066E+03  0.30209671459E+03  0.00000000000E+00 0. -1.
<mgrwt>
<rscale>  0 0.12370483E+03</rscale>
<asrwt>0</asrwt>
<pdfrwt beam="1">  1        1 0.13247426E+00 0.13214950E+03</pdfrwt>
<pdfrwt beam="2">  1       -1 0.24407747E-02 0.13214950E+03</pdfrwt>
<totfact> 0.10076818E+04</totfact>
</mgrwt>
</event>
<event>
 7    1  0.1378058E-005  0.2281183E+03  0.7546771E-02  0.1131023E+00
         -2   -1    0    0    0  501 -0.00000000000E+00  0.00000000000E+00  0.98394749682E+02  0.98394749682E+02  0.00000000000E+00 0.  1.
          2   -1    0    0  501    0  0.00000000000E+00 -0.00000000000E+00 -0.74893997614E+03  0.74893997614E+03  0.00000000000E+00 0. -1.
         23    2    1    2    0    0  0.51285220712E+02 -0.18381489108E+03 -0.56562803922E+03  0.60392375869E+03  0.91491745571E+02 0.  0.
          5    1    1    2  502    0  0.16766475457E+02  0.18910951946E+02 -0.57337826520E+02  0.62836734103E+02  0.47000000000E+01 0. -1.
         -5    1    1    2    0  502 -0.68051696170E+02  0.16490393914E+03 -0.27579360711E+02  0.18057423302E+03  0.47000000000E+01 0. -1.
        -11    1    3    3    0    0  0.18460691385E+02 -0.53413523159E+02 -0.30975776085E+03  0.31487088146E+03  0.00000000000E+00 0. -1.
         11    1    3    3    0    0  0.32824529327E+02 -0.13040136793E+03 -0.25587027837E+03  0.28905287723E+03  0.00000000000E+00 0.  1.
<mgrwt>
<rscale>  0 0.22388054E+03</rscale>
<asrwt>0</asrwt>
<pdfrwt beam="2">  1        2 0.11522154E+00 0.22811833E+03</pdfrwt>
<pdfrwt beam="1">  1       -2 0.15137654E-01 0.22811833E+03</pdfrwt>
<totfact> 0.13005433E+03</totfact>
</mgrwt>
</event>
<event>
 7    1  0.1378058E-005  0.1284029E+03  0.7546771E-02  0.1233796E+00
          2   -1    0    0  501    0  0.00000000000E+00  0.00000000000E+00  0.75606519703E+03  0.75606519703E+03  0.00000000000E+00 0. -1.
         -2   -1    0    0    0  501 -0.00000000000E+00 -0.00000000000E+00 -0.20404241994E+02  0.20404241994E+02  0.00000000000E+00 0.  1.
         23    2    1    2    0    0  0.27524504843E+02 -0.10211156937E+02  0.39750655368E+03  0.41475727167E+03  0.11467461835E+03 0.  0.
          5    1    1    2  502    0 -0.68259759059E+02  0.33800973481E+02  0.25348045676E+03  0.26471934662E+03  0.47000000000E+01 0. -1.
         -5    1    1    2    0  502  0.40735254216E+02 -0.23589816544E+02  0.84673944601E+02  0.96992820739E+02  0.47000000000E+01 0. -1.
        -11    1    3    3    0    0  0.64810259161E+01 -0.60415173986E+02  0.25673067968E+03  0.26382312036E+03  0.00000000000E+00 0. -1.
         11    1    3    3    0    0  0.21043478927E+02  0.50204017049E+02  0.14077587399E+03  0.15093415131E+03  0.00000000000E+00 0.  1.
<mgrwt>
<rscale>  0 0.12581837E+03</rscale>
<asrwt>0</asrwt>
<pdfrwt beam="1">  1        2 0.11631770E+00 0.12840285E+03</pdfrwt>
<pdfrwt beam="2">  1       -2 0.31391147E-02 0.12840285E+03</pdfrwt>
<totfact> 0.14318287E+04</totfact>
</mgrwt>
</event>
<event>
 7    1  0.1378058E-005  0.1700798E+03  0.7546771E-02  0.1184825E+00
          1   -1    0    0  501    0  0.00000000000E+00  0.00000000000E+00  0.38564238893E+03  0.38564238893E+03  0.00000000000E+00 0. -1.
         -1   -1    0    0    0  501 -0.00000000000E+00 -0.00000000000E+00 -0.97842332906E+02  0.97842332906E+02  0.00000000000E+00 0.  1.
         23    2    1    2    0    0  0.75990560915E+02  0.86761894304E+02  0.27739684057E+03  0.31308705495E+03  0.88160678140E+02 0.  0.
          5    1    1    2  502    0 -0.38180451167E+02 -0.11387787271E+03 -0.72337651263E+01  0.12041733307E+03  0.47000000000E+01 0. -1.
         -5    1    1    2    0  502 -0.37810109748E+02  0.27115978411E+02  0.17636980581E+02  0.49980333816E+02  0.47000000000E+01 0. -1.
        -11    1    3    3    0    0 -0.52456359647E+01 -0.13838470880E+02  0.41743418746E+02  0.44289197120E+02  0.00000000000E+00 0.  1.
         11    1    3    3    0    0  0.81236196880E+02  0.10060036518E+03  0.23565342182E+03  0.26879785783E+03  0.00000000000E+00 0. -1.
<mgrwt>
<rscale>  0 0.16347796E+03</rscale>
<asrwt>0</asrwt>
<pdfrwt beam="1">  1        1 0.59329598E-01 0.17007980E+03</pdfrwt>
<pdfrwt beam="2">  1       -1 0.15052667E-01 0.17007980E+03</pdfrwt>
<totfact> 0.20029526E+03</totfact>
</mgrwt>
</event>
<event>
 7    1  0.1378058E-005  0.1412534E+03  0.7546771E-02  0.1229946E+00
          3   -1    0    0  501    0  0.00000000000E+00  0.00000000000E+00  0.16266796731E+02  0.16266796731E+02  0.00000000000E+00 0. -1.
         -3   -1    0    0    0  501 -0.00000000000E+00 -0.00000000000E+00 -0.11924927521E+04  0.11924927521E+04  0.00000000000E+00 0.  1.
         23    2    1    2    0    0 -0.91297602683E+01 -0.22308784414E+02 -0.19545091012E+03  0.21786489423E+03  0.93182720952E+02 0.  0.
          5    1    1    2  502    0 -0.34491984881E+02  0.19078713503E+02 -0.82607316908E+02  0.91650167140E+02  0.47000000000E+01 0. -1.
         -5    1    1    2    0  502  0.43621745149E+02  0.32300709111E+01 -0.89816772830E+03  0.89924448743E+03  0.47000000000E+01 0.  1.
        -11    1    3    3    0    0 -0.48994472768E+02 -0.25342364203E+02 -0.12924605613E+03  0.14052486190E+03  0.00000000000E+00 0. -1.
         11    1    3    3    0    0  0.39864712499E+02  0.30335797892E+01 -0.66204853988E+02  0.77340032329E+02  0.00000000000E+00 0.  1.
<mgrwt>
<rscale>  0 0.12833625E+03</rscale>
<asrwt>0</asrwt>
<pdfrwt beam="1">  1        3 0.25025848E-02 0.14125341E+03</pdfrwt>
<pdfrwt beam="2">  1       -3 0.18346037E+00 0.14125341E+03</pdfrwt>
<totfact> 0.32176831E+02</totfact>
</mgrwt>
</event>
<event>
 7    1  0.1378058E-005  0.1853809E+03  0.7546771E-02  0.1167592E+00
          1   -1    0    0  501    0  0.00000000000E+00  0.00000000000E+00  0.15484562533E+03  0.15484562533E+03  0.00000000000E+00 0. -1.
         -1   -1    0    0    0  501 -0.00000000000E+00 -0.00000000000E+00 -0.22930308172E+03  0.22930308172E+03  0.00000000000E+00 0.  1.
         23    2    1    2    0    0 -0.29793790316E+02  0.13361656870E+03  0.34478222407E+02  0.16912994064E+03  0.93140386673E+02 0.  0.
          5    1    1    2  502    0 -0.47488262971E+02 -0.32767966880E+02 -0.28019519410E+02  0.64312193567E+02  0.47000000000E+01 0.  1.
         -5    1    1    2    0  502  0.77282053288E+02 -0.10084860182E+03 -0.80916159379E+02  0.15070657284E+03  0.47000000000E+01 0.  1.
        -11    1    3    3    0    0 -0.49514493245E+02  0.73719231608E+02  0.52985168418E+02  0.10341004894E+03  0.00000000000E+00 0. -1.
         11    1    3    3    0    0  0.19720702928E+02  0.59897337088E+02 -0.18506946010E+02  0.65719891699E+02  0.00000000000E+00 0.  1.
<mgrwt>
<rscale>  0 0.18021862E+03</rscale>
<asrwt>0</asrwt>
<pdfrwt beam="1">  1        1 0.23822404E-01 0.18538093E+03</pdfrwt>
<pdfrwt beam="2">  1       -1 0.35277397E-01 0.18538093E+03</pdfrwt>
<totfact> 0.15537621E+03</totfact>
</mgrwt>
</event>
<event>
 7    1  0.1420766E-005  0.2143528E+03  0.7546771E-02  0.1138165E+00
         -3   -1    0    0    0  501 -0.00000000000E+00  0.00000000000E+00  0.41177138755E+02  0.41177138755E+02  0.00000000000E+00 0.  1.
          3   -1    0    0  501    0  0.00000000000E+00 -0.00000000000E+00 -0.27896015697E+03  0.27896015697E+03  0.00000000000E+00 0. -1.
         23    2    1    2    0    0 -0.20106056092E+02  0.14079397761E+02 -0.12251039373E+03  0.14833880579E+03  0.79956999690E+02 0.  0.
          5    1    1    2  502    0  0.23430411994E+02 -0.59024779644E+02 -0.20747191074E+02  0.66973463070E+02  0.47000000000E+01 0.  1.
         -5    1    1    2    0  502 -0.33243559025E+01  0.44945381883E+02 -0.94525433409E+02  0.10482502686E+03  0.47000000000E+01 0.  1.
        -11    1    3    3    0    0 -0.38638746001E+02 -0.14253904855E+02 -0.98701732243E+02  0.10694932652E+03  0.00000000000E+00 0. -1.
         11    1    3    3    0    0  0.18532689909E+02  0.28333302616E+02 -0.23808661485E+02  0.41389479268E+02  0.00000000000E+00 0.  1.
<mgrwt>
<rscale>  0 0.21435280E+03</rscale>
<asrwt>0</asrwt>
<pdfrwt beam="2">  1        3 0.42916947E-01 0.21435280E+03</pdfrwt>
<pdfrwt beam="1">  1       -3 0.63349445E-02 0.21435280E+03</pdfrwt>
<totfact> 0.20837784E+03</totfact>
</mgrwt>
</event>
<event>
 7    1  0.6169166E-005  0.4479287E+03  0.7546771E-02  0.1028997E+00
         -2   -1    0    0    0  501 -0.00000000000E+00  0.00000000000E+00  0.17403437685E+03  0.17403437685E+03  0.00000000000E+00 0.  1.
          2   -1    0    0  501    0  0.00000000000E+00 -0.00000000000E+00 -0.12152318715E+04  0.12152318715E+04  0.00000000000E+00 0. -1.
         23    2    1    2    0    0  0.41168361782E+03  0.12462657248E+03 -0.69904881747E+03  0.82561224168E+03  0.89169168732E+02 0.  0.
          5    1    1    2  502    0 -0.11571182063E+03 -0.95387982107E+02 -0.12669008883E+03  0.19636843222E+03  0.47000000000E+01 0.  1.
         -5    1    1    2    0  502 -0.29597179719E+03 -0.29238590376E+02 -0.21545858831E+03  0.36728557442E+03  0.47000000000E+01 0.  1.
        -11    1    3    3    0    0  0.31523196634E+03  0.11835651627E+03 -0.48147348360E+03  0.58753397600E+03  0.00000000000E+00 0. -1.
         11    1    3    3    0    0  0.96451651474E+02  0.62700562098E+01 -0.21757533388E+03  0.23807826568E+03  0.00000000000E+00 0.  1.
<mgrwt>
<rscale>  0 0.44575052E+03</rscale>
<asrwt>0</asrwt>
<pdfrwt beam="2">  1        2 0.18695875E+00 0.44792870E+03</pdfrwt>
<pdfrwt beam="1">  1       -2 0.26774519E-01 0.44792870E+03</pdfrwt>
<totfact> 0.24287810E+02</totfact>
</mgrwt>
</event>
<event>
 7    1  0.1378058E-005  0.2546726E+03  0.7546771E-02  0.1112737E+00
         -2   -1    0    0    0  501 -0.00000000000E+00  0.00000000000E+00  0.11162086224E+03  0.11162086224E+03  0.00000000000E+00 0.  1.
          2   -1    0    0  501    0  0.00000000000E+00 -0.00000000000E+00 -0.67465112804E+03  0.67465112804E+03  0.00000000000E+00 0. -1.
         23    2    1    2    0    0  0.21814564278E+03 -0.40817148860E+02 -0.44505103204E+03  0.50559919788E+03  0.91140367961E+02 0.  0.
          5    1    1    2  502    0 -0.91524694655E+02  0.77676094000E+02 -0.76170912742E+02  0.14224782339E+03  0.47000000000E+01 0.  1.
         -5    1    1    2    0  502 -0.12662094813E+03 -0.36858945140E+02 -0.41808321024E+02  0.13842496902E+03  0.47000000000E+01 0.  1.
        -11    1    3    3    0    0  0.23310785284E+02 -0.29627640399E+02 -0.12671960863E+03  0.13220835450E+03  0.00000000000E+00 0.  1.
         11    1    3    3    0    0  0.19483485750E+03 -0.11189508461E+02 -0.31833142340E+03  0.37339084338E+03  0.00000000000E+00 0. -1.
<mgrwt>
<rscale>  0 0.25090068E+03</rscale>
<asrwt>0</asrwt>
<pdfrwt beam="2">  1        2 0.10379248E+00 0.25467257E+03</pdfrwt>
<pdfrwt beam="1">  1       -2 0.17172440E-01 0.25467257E+03</pdfrwt>
<totfact> 0.11975993E+03</totfact>
</mgrwt>
</event>
<event>
 7    1  0.1378058E-005  0.1966832E+03  0.7546771E-02  0.1155618E+00
          1   -1    0    0  501    0  0.00000000000E+00  0.00000000000E+00  0.61660312763E+03  0.61660312763E+03  0.00000000000E+00 0. -1.
         -1   -1    0    0    0  501 -0.00000000000E+00 -0.00000000000E+00 -0.15714817555E+03  0.15714817555E+03  0.00000000000E+00 0.  1.
         23    2    1    2    0    0  0.16044346644E+03  0.47774021051E+01  0.53315886212E+03  0.56371187881E+03  0.88021477833E+02 0.  0.
          5    1    1    2  502    0 -0.11621992815E+03 -0.55346146467E+02 -0.41023512057E+02  0.13518611678E+03  0.47000000000E+01 0. -1.
         -5    1    1    2    0  502 -0.44223538284E+02  0.50568744362E+02 -0.32680397985E+02  0.74853307590E+02  0.47000000000E+01 0.  1.
        -11    1    3    3    0    0  0.49050666885E+01 -0.15353760525E+02  0.13897557539E+02  0.21282381141E+02  0.00000000000E+00 0.  1.
         11    1    3    3    0    0  0.15553839975E+03  0.20131162630E+02  0.51926130458E+03  0.54242949767E+03  0.00000000000E+00 0. -1.
<mgrwt>
<rscale>  0 0.19318646E+03</rscale>
<asrwt>0</asrwt>
<pdfrwt beam="1">  1        1 0.94862019E-01 0.19668323E+03</pdfrwt>
<pdfrwt beam="2">  1       -1 0.24176643E-01 0.19668323E+03</pdfrwt>
<totfact> 0.50361920E+02</totfact>
</mgrwt>
</event>
<event>
 7    1  0.1378058E-005  0.1506453E+03  0.7546771E-02  0.1207894E+00
          1   -1    0    0  501    0  0.00000000000E+00  0.00000000000E+00  0.22994337541E+03  0.22994337541E+03  0.00000000000E+00 0. -1.
         -1   -1    0    0    0  501 -0.00000000000E+00 -0.00000000000E+00 -0.13933648433E+03  0.13933648433E+03  0.00000000000E+00 0.  1.
         23    2    1    2    0    0 -0.68375647924E+02 -0.48913157591E+02  0.15971007478E+03  0.20354131878E+03  0.94095877959E+02 0.  0.
          5    1    1    2  502    0 -0.22250983036E+02  0.41889815083E+02 -0.56388355807E+02  0.73834947853E+02  0.47000000000E+01 0.  1.
         -5    1    1    2    0  502  0.90626630960E+02  0.70233425078E+01 -0.12714827894E+02  0.91903593115E+02  0.47000000000E+01 0.  1.
        -11    1    3    3    0    0  0.23883455880E+02 -0.86866663201E+01  0.28727763474E+02  0.38355730091E+02  0.00000000000E+00 0. -1.
         11    1    3    3    0    0 -0.92259103805E+02 -0.40226491271E+02  0.13098231131E+03  0.16518558869E+03  0.00000000000E+00 0.  1.
<mgrwt>
<rscale>  0 0.14411714E+03</rscale>
<asrwt>0</asrwt>
<pdfrwt beam="1">  1        1 0.35375904E-01 0.15064533E+03</pdfrwt>
<pdfrwt beam="2">  1       -1 0.21436382E-01 0.15064533E+03</pdfrwt>
<totfact> 0.21622149E+03</totfact>
</mgrwt>
</event>
<event>
 7    1  0.1378058E-005  0.3249384E+03  0.7546771E-02  0.1085810E+00
         -2   -1    0    0    0  501 -0.00000000000E+00  0.00000000000E+00  0.99170529466E+02  0.99170529466E+02  0.00000000000E+00 0.  1.
          2   -1    0    0  501    0  0.00000000000E+00 -0.00000000000E+00 -0.13930580433E+04  0.13930580433E+04  0.00000000000E+00 0. -1.
         23    2    1    2    0    0  0.15141784028E+03 -0.14985341967E+03 -0.10763783614E+04  0.11012104217E+04  0.93223420818E+02 0.  0.
          5    1    1    2  502    0 -0.10145948438E+03  0.25050843952E+02 -0.23320414587E+03  0.25559310516E+03  0.47000000000E+01 0. -1.
         -5    1    1    2    0  502 -0.49958355904E+02  0.12480257571E+03  0.15694993488E+02  0.13542504587E+03  0.47000000000E+01 0.  1.
        -11    1    3    3    0    0  0.74816300988E+02 -0.17440517876E+02 -0.44368204406E+03  0.45028369588E+03  0.00000000000E+00 0.  1.
         11    1    3    3    0    0  0.76601539295E+02 -0.13241290179E+03 -0.63269631735E+03  0.65092672580E+03  0.00000000000E+00 0. -1.
<mgrwt>
<rscale>  0 0.29886452E+03</rscale>
<asrwt>0</asrwt>
<pdfrwt beam="2">  1        2 0.21431662E+00 0.32493840E+03</pdfrwt>
<pdfrwt beam="1">  1       -2 0.15257005E-01 0.32493840E+03</pdfrwt>
<totfact> 0.51791704E+02</totfact>
</mgrwt>
</event>
<event>
 7    1  0.1378058E-005  0.1250705E+03  0.7546771E-02  0.1250229E+00
          2   -1    0    0  501    0  0.00000000000E+00  0.00000000000E+00  0.13964310113E+03  0.13964310113E+03  0.00000000000E+00 0. -1.
         -2   -1    0    0    0  501 -0.00000000000E+00 -0.00000000000E+00 -0.87842231579E+02  0.87842231579E+02  0.00000000000E+00 0.  1.
         23    2    1    2    0    0  0.25123812988E+01 -0.34773260076E+01  0.44887186709E+02  0.10222392011E+03  0.91741301797E+02 0.  0.
          5    1    1    2  502    0 -0.34213511512E+02  0.36812048249E+02  0.43235073949E+02  0.66460912465E+02  0.47000000000E+01 0. -1.
         -5    1    1    2    0  502  0.31701130213E+02 -0.33334722241E+02 -0.36321391112E+02  0.58800500133E+02  0.47000000000E+01 0. -1.
        -11    1    3    3    0    0  0.35637006565E+02 -0.16966490336E+02  0.52475120368E+02  0.65661985112E+02  0.00000000000E+00 0. -1.
         11    1    3    3    0    0 -0.33124625266E+02  0.13489164329E+02 -0.75879336590E+01  0.36561934994E+02  0.00000000000E+00 0.  1.
<mgrwt>
<rscale>  0 0.11577796E+03</rscale>
<asrwt>0</asrwt>
<pdfrwt beam="1">  1        2 0.21483554E-01 0.12507047E+03</pdfrwt>
<pdfrwt beam="2">  1       -2 0.13514189E-01 0.12507047E+03</pdfrwt>
<totfact> 0.97300820E+03</totfact>
</mgrwt>
</event>
<event>
 7    1  0.3712379E-005  0.1762021E+03  0.7546771E-02  0.1177972E+00
          1   -1    0    0  501    0  0.00000000000E+00  0.00000000000E+00  0.89351982741E+03  0.89351982741E+03  0.00000000000E+00 0. -1.
         -1   -1    0    0    0  501 -0.00000000000E+00 -0.00000000000E+00 -0.30938579718E+02  0.30938579718E+02  0.00000000000E+00 0.  1.
         23    2    1    2    0    0  0.11901470715E+03 -0.35461764254E+02  0.47262082272E+03  0.49653748833E+03  0.88073821344E+02 0.  0.
          5    1    1    2  502    0 -0.18553159147E+02 -0.33043060900E+02  0.19035920292E+03  0.19415143503E+03  0.47000000000E+01 0. -1.
         -5    1    1    2    0  502 -0.10046154800E+03  0.68504825153E+02  0.19960122204E+03  0.23376948376E+03  0.47000000000E+01 0. -1.
        -11    1    3    3    0    0  0.58408876155E+02 -0.61066599714E+02  0.30429876122E+03  0.31581396818E+03  0.00000000000E+00 0.  1.
         11    1    3    3    0    0  0.60605830994E+02  0.25604835460E+02  0.16832206150E+03  0.18072352016E+03  0.00000000000E+00 0. -1.
<mgrwt>
<rscale>  0 0.16988116E+03</rscale>
<asrwt>0</asrwt>
<pdfrwt beam="1">  1        1 0.13746457E+00 0.17620210E+03</pdfrwt>
<pdfrwt beam="2">  1       -1 0.47597822E-02 0.17620210E+03</pdfrwt>
<totfact> 0.36167814E+03</totfact>
</mgrwt>
</event>
<event>
 7    1  0.1378058E-005  0.1339359E+03  0.7546771E-02  0.1234927E+00
         -2   -1    0    0    0  501 -0.00000000000E+00  0.00000000000E+00  0.59181073299E+02  0.59181073299E+02  0.00000000000E+00 0.  1.
          2   -1    0    0  501    0  0.00000000000E+00 -0.00000000000E+00 -0.33745268618E+03  0.33745268618E+03  0.00000000000E+00 0. -1.
         23    2    1    2    0    0  0.36101824687E+02  0.26900440123E+02 -0.23456510360E+03  0.25574698683E+03  0.91426243608E+02 0.  0.
          5    1    1    2  502    0 -0.71560018987E+02  0.19046151412E+02 -0.34895558672E+02  0.81996232938E+02  0.47000000000E+01 0. -1.
         -5    1    1    2    0  502  0.35458194300E+02 -0.45946591535E+02 -0.88109506038E+01  0.58890539709E+02  0.47000000000E+01 0.  1.
        -11    1    3    3    0    0 -0.17081675468E+02 -0.22443496319E+02 -0.49527566248E+02  0.56995385622E+02  0.00000000000E+00 0.  1.
         11    1    3    3    0    0  0.53183500155E+02  0.49343936442E+02 -0.18503753736E+03  0.19875160121E+03  0.00000000000E+00 0. -1.
<mgrwt>
<rscale>  0 0.12509138E+03</rscale>
<asrwt>0</asrwt>
<pdfrwt beam="2">  1        2 0.51915797E-01 0.13393589E+03</pdfrwt>
<pdfrwt beam="1">  1       -2 0.91047807E-02 0.13393589E+03</pdfrwt>
<totfact> 0.70617717E+03</totfact>
</mgrwt>
</event>
<event>
 7    1  0.1378058E-005  0.1438910E+03  0.7546771E-02  0.1219374E+00
         -2   -1    0    0    0  501 -0.00000000000E+00  0.00000000000E+00  0.26510405530E+03  0.26510405530E+03  0.00000000000E+00 0.  1.
          2   -1    0    0  501    0  0.00000000000E+00 -0.00000000000E+00 -0.63456499999E+02  0.63456499999E+02  0.00000000000E+00 0. -1.
         23    2    1    2    0    0  0.69677303644E+02 -0.14867954895E+02  0.68752509151E+02  0.13268886004E+03  0.88337100582E+02 0.  0.
          5    1    1    2  502    0 -0.10593990496E+03  0.96524208108E+01  0.10540059174E+03  0.14982592376E+03  0.47000000000E+01 0.  1.
         -5    1    1    2    0  502  0.36262601312E+02  0.52155340840E+01  0.27494454404E+02  0.46045771496E+02  0.47000000000E+01 0.  1.
        -11    1    3    3    0    0  0.35239057424E+02  0.11168860692E+02  0.79954157467E+02  0.88086332160E+02  0.00000000000E+00 0.  1.
         11    1    3    3    0    0  0.34438246220E+02 -0.26036815587E+02 -0.11201648315E+02  0.44602527883E+02  0.00000000000E+00 0. -1.
<mgrwt>
<rscale>  0 0.13560083E+03</rscale>
<asrwt>0</asrwt>
<pdfrwt beam="2">  1        2 0.97625386E-02 0.14389103E+03</pdfrwt>
<pdfrwt beam="1">  1       -2 0.40785239E-01 0.14389103E+03</pdfrwt>
<totfact> 0.36380590E+03</totfact>
</mgrwt>
</event>
<event>
 7    1  0.1378058E-005  0.2300457E+03  0.7546771E-02  0.1126608E+00
         -2   -1    0    0    0  501 -0.00000000000E+00  0.00000000000E+00  0.81524761596E+02  0.81524761596E+02  0.00000000000E+00 0.  1.
          2   -1    0    0  501    0  0.00000000000E+00 -0.00000000000E+00 -0.16228513929E+03  0.16228513929E+03  0.00000000000E+00 0. -1.
         23    2    1    2    0    0 -0.28371345035E+02 -0.96575069257E+01 -0.62326539753E+02  0.11394731159E+03  0.90560430666E+02 0.  0.
          5    1    1    2  502    0 -0.31588639084E+02 -0.12300608854E+02 -0.48313581473E+02  0.59206750055E+02  0.47000000000E+01 0. -1.
         -5    1    1    2    0  502  0.59959984119E+02  0.21958115780E+02  0.29879743536E+02  0.70655839235E+02  0.47000000000E+01 0. -1.
        -11    1    3    3    0    0 -0.32319644215E+02 -0.39730861754E+02 -0.81537731343E+01  0.51861207026E+02  0.00000000000E+00 0.  1.
         11    1    3    3    0    0  0.39482991799E+01  0.30073354828E+02 -0.54172766619E+02  0.62086104566E+02  0.00000000000E+00 0. -1.
<mgrwt>
<rscale>  0 0.23004571E+03</rscale>
<asrwt>0</asrwt>
<pdfrwt beam="2">  1        2 0.24966944E-01 0.23004571E+03</pdfrwt>
<pdfrwt beam="1">  1       -2 0.12542271E-01 0.23004571E+03</pdfrwt>
<totfact> 0.97032846E+03</totfact>
</mgrwt>
</event>
<event>
 7    1  0.1378058E-005  0.1451380E+03  0.7546771E-02  0.1217282E+00
         -1   -1    0    0    0  501 -0.00000000000E+00  0.00000000000E+00  0.37033174736E+02  0.37033174736E+02  0.00000000000E+00 0.  1.
          1   -1    0    0  501    0  0.00000000000E+00 -0.00000000000E+00 -0.47991834562E+03  0.47991834562E+03  0.00000000000E+00 0. -1.
         23    2    1    2    0    0 -0.32695567917E+02 -0.66132845269E+02 -0.25127828474E+03  0.27658045294E+03  0.88957389703E+02 0.  0.
          5    1    1    2  502    0  0.66842516098E+02  0.82946745349E+02 -0.14573928859E+03  0.18058270892E+03  0.47000000000E+01 0. -1.
         -5    1    1    2    0  502 -0.34146948181E+02 -0.16813900079E+02 -0.45867597550E+02  0.59788358490E+02  0.47000000000E+01 0. -1.
        -11    1    3    3    0    0 -0.12084295316E+02 -0.82941368742E+02 -0.14958811759E+03  0.17146983924E+03  0.00000000000E+00 0.  1.
         11    1    3    3    0    0 -0.20611272601E+02  0.16808523473E+02 -0.10169016715E+03  0.10511061371E+03  0.00000000000E+00 0. -1.
<mgrwt>
<rscale>  0 0.13710250E+03</rscale>
<asrwt>0</asrwt>
<pdfrwt beam="2">  1        1 0.73833587E-01 0.14513804E+03</pdfrwt>
<pdfrwt beam="1">  1       -1 0.56974118E-02 0.14513804E+03</pdfrwt>
<totfact> 0.66347548E+03</totfact>
</mgrwt>
</event>
<event>
 7    1  0.1378058E-005  0.1485020E+03  0.7546771E-02  0.1211919E+00
          2   -1    0    0  501    0  0.00000000000E+00  0.00000000000E+00  0.60485966811E+03  0.60485966811E+03  0.00000000000E+00 0. -1.
         -2   -1    0    0    0  501 -0.00000000000E+00 -0.00000000000E+00 -0.30844535111E+02  0.30844535111E+02  0.00000000000E+00 0.  1.
         23    2    1    2    0    0  0.68161203260E+02  0.42205269832E+02  0.31096059460E+03  0.33362718366E+03  0.90461991205E+02 0.  0.
          5    1    1    2  502    0 -0.12220681201E+02 -0.66238516276E+02  0.21196121366E+03  0.22245568588E+03  0.47000000000E+01 0. -1.
         -5    1    1    2    0  502 -0.55940522059E+02  0.24033246444E+02  0.51093324742E+02  0.79621333674E+02  0.47000000000E+01 0. -1.
        -11    1    3    3    0    0  0.22666194417E+02  0.62384233437E+02  0.13022985555E+03  0.14616895781E+03  0.00000000000E+00 0.  1.
         11    1    3    3    0    0  0.45495008844E+02 -0.20178963605E+02  0.18073073905E+03  0.18745822585E+03  0.00000000000E+00 0. -1.
<mgrwt>
<rscale>  0 0.14105312E+03</rscale>
<asrwt>0</asrwt>
<pdfrwt beam="1">  1        2 0.93055325E-01 0.14850197E+03</pdfrwt>
<pdfrwt beam="2">  1       -2 0.47453136E-02 0.14850197E+03</pdfrwt>
<totfact> 0.10180924E+04</totfact>
</mgrwt>
</event>
<event>
 6    1  0.1378058E-005  0.5736686E+03  0.7546771E-02  0.9961593E-01
         -2   -1    0    0    0  501 -0.00000000000E+00  0.00000000000E+00  0.19251269520E+03  0.19251269520E+03  0.00000000000E+00 0.  1.
          2   -1    0    0  501    0  0.00000000000E+00 -0.00000000000E+00 -0.42736872800E+03  0.42736872800E+03  0.00000000000E+00 0. -1.
          5    1    1    2  502    0  0.20293585997E+00 -0.61415356327E+01 -0.30258175625E+02  0.31231503887E+02  0.47000000000E+01 0.  1.
         -5    1    1    2    0  502 -0.12804417784E+03 -0.15386291862E+03  0.69173782325E+02  0.21184006081E+03  0.47000000000E+01 0.  1.
        -11    1    1    2    0    0 -0.27194429835E+01 -0.29021782752E+02 -0.32642437763E+02  0.43762860823E+02  0.00000000000E+00 0. -1.
         11    1    1    2    0    0  0.13056068496E+03  0.18902623701E+03 -0.24112920173E+03  0.33304699768E+03  0.00000000000E+00 0.  1.
<mgrwt>
<rscale>  0 0.57366857E+03</rscale>
<asrwt>0</asrwt>
<pdfrwt beam="2">  1        2 0.65749035E-01 0.57366857E+03</pdfrwt>
<pdfrwt beam="1">  1       -2 0.29617338E-01 0.57366857E+03</pdfrwt>
<totfact> 0.77825992E+02</totfact>
</mgrwt>
</event>
<event>
 7    1  0.1378058E-005  0.2467173E+03  0.7546771E-02  0.1118284E+00
          4   -1    0    0  501    0  0.00000000000E+00  0.00000000000E+00  0.13264097859E+04  0.13264097859E+04  0.00000000000E+00 0. -1.
         -4   -1    0    0    0  501 -0.00000000000E+00 -0.00000000000E+00 -0.46135682720E+02  0.46135682720E+02  0.00000000000E+00 0.  1.
         23    2    1    2    0    0 -0.16205876859E+03  0.13777094520E+03  0.80489446321E+03  0.83695678095E+03  0.86009757879E+02 0.  0.
          5    1    1    2  502    0  0.45869619442E+02 -0.70442865284E+02  0.31650408970E+03  0.32751053121E+03  0.47000000000E+01 0. -1.
         -5    1    1    2    0  502  0.11618914915E+03 -0.67328079916E+02  0.15887555029E+03  0.20807815649E+03  0.47000000000E+01 0. -1.
        -11    1    3    3    0    0 -0.15618436726E+03  0.14920568701E+03  0.74402050546E+03  0.77474021850E+03  0.00000000000E+00 0.  1.
         11    1    3    3    0    0 -0.58744013330E+01 -0.11434741806E+02  0.60873957747E+02  0.62216562449E+02  0.00000000000E+00 0. -1.
<mgrwt>
<rscale>  0 0.24227903E+03</rscale>
<asrwt>0</asrwt>
<pdfrwt beam="1">  1        4 0.20406302E+00 0.24671733E+03</pdfrwt>
<pdfrwt beam="2">  1       -4 0.70977983E-02 0.24671733E+03</pdfrwt>
<totfact> 0.33379310E+01</totfact>
</mgrwt>
</event>
<event>
 7    1  0.1378058E-005  0.1447650E+03  0.7546771E-02  0.1217130E+00
          1   -1    0    0  501    0  0.00000000000E+00  0.00000000000E+00  0.56167914472E+03  0.56167914472E+03  0.00000000000E+00 0. -1.
         -1   -1    0    0    0  501 -0.00000000000E+00 -0.00000000000E+00 -0.36116824116E+02  0.36116824116E+02  0.00000000000E+00 0.  1.
         23    2    1    2    0    0 -0.67242199819E+02 -0.28471022642E+02  0.35684121266E+03  0.37548153769E+03  0.91206477459E+02 0.  0.
          5    1    1    2  502    0  0.16502255883E+02 -0.19544545325E+02 -0.11897714111E+02  0.28599987801E+02  0.47000000000E+01 0.  1.
         -5    1    1    2    0  502  0.50739943936E+02  0.48015567967E+02  0.18061882206E+03  0.19371444334E+03  0.47000000000E+01 0.  1.
        -11    1    3    3    0    0 -0.83303931733E+02 -0.48485615314E+01  0.21162315980E+03  0.22748058236E+03  0.00000000000E+00 0.  1.
         11    1    3    3    0    0  0.16061731914E+02 -0.23622461111E+02  0.14521805286E+03  0.14800095533E+03  0.00000000000E+00 0. -1.
<mgrwt>
<rscale>  0 0.13721200E+03</rscale>
<asrwt>0</asrwt>
<pdfrwt beam="1">  1        1 0.86412170E-01 0.14476496E+03</pdfrwt>
<pdfrwt beam="2">  1       -1 0.55564349E-02 0.14476496E+03</pdfrwt>
<totfact> 0.55965658E+03</totfact>
</mgrwt>
</event>
<event>
 7    1  0.1378058E-005  0.1522741E+03  0.7546771E-02  0.1206535E+00
         -2   -1    0    0    0  501 -0.00000000000E+00  0.00000000000E+00  0.10566232969E+03  0.10566232969E+03  0.00000000000E+00 0.  1.
          2   -1    0    0  501    0  0.00000000000E+00 -0.00000000000E+00 -0.22439258207E+03  0.22439258207E+03  0.00000000000E+00 0. -1.
         23    2    1    2    0    0 -0.86956487880E+02 -0.13237959520E+00 -0.12542179966E+03  0.17763384011E+03  0.90893921759E+02 0.  0.
          5    1    1    2  502    0  0.41324037652E+02  0.62014726719E+02 -0.33093573140E+01  0.74743188745E+02  0.47000000000E+01 0.  1.
         -5    1    1    2    0  502  0.45632450228E+02 -0.61882347124E+02  0.10000904596E+02  0.77677882902E+02  0.47000000000E+01 0.  1.
        -11    1    3    3    0    0 -0.40524385555E+02  0.44824855928E+02 -0.51064808736E+02  0.79114526004E+02  0.00000000000E+00 0.  1.
         11    1    3    3    0    0 -0.46432102325E+02 -0.44957235523E+02 -0.74356990926E+02  0.98519314106E+02  0.00000000000E+00 0. -1.
<mgrwt>
<rscale>  0 0.14517144E+03</rscale>
<asrwt>0</asrwt>
<pdfrwt beam="2">  1        2 0.34521936E-01 0.15227412E+03</pdfrwt>
<pdfrwt beam="1">  1       -2 0.16255743E-01 0.15227412E+03</pdfrwt>
<totfact> 0.43393535E+03</totfact>
</mgrwt>
</event>
<event>
 7    1  0.1378058E-005  0.1427260E+03  0.7546771E-02  0.1220466E+00
          1   -1    0    0  501    0  0.00000000000E+00  0.00000000000E+00  0.35199277819E+03  0.35199277819E+03  0.00000000000E+00 0. -1.
         -1   -1    0    0    0  501 -0.00000000000E+00 -0.00000000000E+00 -0.48569350708E+02  0.48569350708E+02  0.00000000000E+00 0.  1.
         23    2    1    2    0    0  0.46270074383E+02 -0.51011191963E+02  0.17438921909E+03  0.20815489856E+03  0.90409073508E+02 0.  0.
          5    1    1    2  502    0  0.41709568277E+02  0.25616676095E+01  0.34403615842E+02  0.54331841583E+02  0.47000000000E+01 0. -1.
         -5    1    1    2    0  502 -0.87979642660E+02  0.48449524353E+02  0.94630592557E+02  0.13807538876E+03  0.47000000000E+01 0. -1.
        -11    1    3    3    0    0  0.55588901177E+02 -0.27950887418E+02  0.45998535889E+02  0.77377279259E+02  0.00000000000E+00 0.  1.
         11    1    3    3    0    0 -0.93188267945E+01 -0.23060304545E+02  0.12839068320E+03  0.13077761930E+03  0.00000000000E+00 0. -1.
<mgrwt>
<rscale>  0 0.13482548E+03</rscale>
<asrwt>0</asrwt>
<pdfrwt beam="1">  1        1 0.54152733E-01 0.14272601E+03</pdfrwt>
<pdfrwt beam="2">  1       -1 0.74722080E-02 0.14272601E+03</pdfrwt>
<totfact> 0.65458547E+03</totfact>
</mgrwt>
</event>
<event>
 7    1  0.1378058E-005  0.1417888E+03  0.7546771E-02  0.1221432E+00
          2   -1    0    0  501    0  0.00000000000E+00  0.00000000000E+00  0.26163693923E+03  0.26163693923E+03  0.00000000000E+00 0. -1.
         -2   -1    0    0    0  501 -0.00000000000E+00 -0.00000000000E+00 -0.62381527444E+02  0.62381527444E+02  0.00000000000E+00 0.  1.
         23    2    1    2    0    0 -0.46304315069E+02 -0.48315441892E+02  0.83662917697E+02  0.14108217139E+03  0.91794464792E+02 0.  0.
          5    1    1    2  502    0  0.44760885472E+02 -0.21824641457E+02  0.28958417616E+01  0.50103170982E+02  0.47000000000E+01 0. -1.
         -5    1    1    2    0  502  0.15434295967E+01  0.70140083349E+02  0.11269665233E+03  0.13283312431E+03  0.47000000000E+01 0. -1.
        -11    1    3    3    0    0 -0.16521012738E+02 -0.82949635483E+01 -0.19266183361E+02  0.26700863346E+02  0.00000000000E+00 0.  1.
         11    1    3    3    0    0 -0.29783302331E+02 -0.40020478344E+02  0.10292910106E+03  0.11438130804E+03  0.00000000000E+00 0. -1.
<mgrwt>
<rscale>  0 0.13414513E+03</rscale>
<asrwt>0</asrwt>
<pdfrwt beam="1">  1        2 0.40251836E-01 0.14178880E+03</pdfrwt>
<pdfrwt beam="2">  1       -2 0.95971582E-02 0.14178880E+03</pdfrwt>
<totfact> 0.85511434E+03</totfact>
</mgrwt>
</event>
<event>
 7    1  0.1378058E-005  0.1425881E+03  0.7546771E-02  0.1221130E+00
          2   -1    0    0  501    0  0.00000000000E+00  0.00000000000E+00  0.13055910663E+03  0.13055910663E+03  0.00000000000E+00 0. -1.
         -2   -1    0    0    0  501 -0.00000000000E+00 -0.00000000000E+00 -0.13704356524E+03  0.13704356524E+03  0.00000000000E+00 0.  1.
         23    2    1    2    0    0 -0.65295392611E+02  0.21067916181E+02  0.37314151927E+02  0.11843935022E+03  0.89040374882E+02 0.  0.
          5    1    1    2  502    0 -0.30437759985E+02 -0.11355610904E+02 -0.41347182260E+02  0.52792865168E+02  0.47000000000E+01 0. -1.
         -5    1    1    2    0  502  0.95733152596E+02 -0.97123052770E+01 -0.24514282808E+01  0.96370456471E+02  0.47000000000E+01 0. -1.
        -11    1    3    3    0    0 -0.35462978979E+02 -0.74796144615E+01 -0.24755069226E+02  0.43890556649E+02  0.00000000000E+00 0.  1.
         11    1    3    3    0    0 -0.29832413632E+02  0.28547530643E+02  0.62069221154E+02  0.74548793575E+02  0.00000000000E+00 0. -1.
<mgrwt>
<rscale>  0 0.13435745E+03</rscale>
<asrwt>0</asrwt>
<pdfrwt beam="1">  1        2 0.20086016E-01 0.14258814E+03</pdfrwt>
<pdfrwt beam="2">  1       -2 0.21083625E-01 0.14258814E+03</pdfrwt>
<totfact> 0.50709235E+03</totfact>
</mgrwt>
</event>
<event>
 7    1  0.1378058E-005  0.1688611E+03  0.7546771E-02  0.1183739E+00
         -1   -1    0    0    0  501 -0.00000000000E+00  0.00000000000E+00  0.20265654115E+03  0.20265654115E+03  0.00000000000E+00 0.  1.
          1   -1    0    0  501    0  0.00000000000E+00 -0.00000000000E+00 -0.13700719531E+03  0.13700719531E+03  0.00000000000E+00 0. -1.
         23    2    1    2    0    0  0.11352726537E+03 -0.10931313741E+01 -0.14653512253E+02  0.15268077274E+03  0.10102998577E+03 0.  0.
          5    1    1    2  502    0  0.33892909547E+01 -0.53768179949E+01  0.68774791525E+02  0.69227591423E+02  0.47000000000E+01 0. -1.
         -5    1    1    2    0  502 -0.11691655632E+03  0.64699493690E+01  0.11528066573E+02  0.11775537230E+03  0.47000000000E+01 0. -1.
        -11    1    3    3    0    0  0.10577940480E+03  0.37305085200E+02 -0.16964883808E+02  0.11344055335E+03  0.00000000000E+00 0.  1.
         11    1    3    3    0    0  0.77478605676E+01 -0.38398216574E+02  0.23113715558E+01  0.39240219392E+02  0.00000000000E+00 0. -1.
<mgrwt>
<rscale>  0 0.16447163E+03</rscale>
<asrwt>0</asrwt>
<pdfrwt beam="2">  1        1 0.21078030E-01 0.16886113E+03</pdfrwt>
<pdfrwt beam="1">  1       -1 0.31177929E-01 0.16886113E+03</pdfrwt>
<totfact> 0.22370154E+03</totfact>
</mgrwt>
</event>
<event>
 7    1  0.1378058E-005  0.1282236E+03  0.7546771E-02  0.1244753E+00
          2   -1    0    0  501    0  0.00000000000E+00  0.00000000000E+00  0.15691415337E+03  0.15691415337E+03  0.00000000000E+00 0. -1.
         -2   -1    0    0    0  501 -0.00000000000E+00 -0.00000000000E+00 -0.10351183480E+03  0.10351183480E+03  0.00000000000E+00 0.  1.
         23    2    1    2    0    0 -0.28402011808E+02 -0.35603974658E+01  0.85873462837E+02  0.12815477050E+03  0.90719583758E+02 0.  0.
          5    1    1    2  502    0  0.56208372394E+02 -0.37068485025E+02  0.85263221743E+01  0.68031183137E+02  0.47000000000E+01 0.  1.
         -5    1    1    2    0  502 -0.27806360586E+02  0.40628882491E+02 -0.40997466449E+02  0.64240034533E+02  0.47000000000E+01 0.  1.
        -11    1    3    3    0    0 -0.24960036644E+02 -0.17481428884E+02  0.10207022128E+03  0.10652198767E+03  0.00000000000E+00 0. -1.
         11    1    3    3    0    0 -0.34419751638E+01  0.13921031418E+02 -0.16196758444E+02  0.21632782828E+02  0.00000000000E+00 0.  1.
<mgrwt>
<rscale>  0 0.11900179E+03</rscale>
<asrwt>0</asrwt>
<pdfrwt beam="1">  1        2 0.24140639E-01 0.12822363E+03</pdfrwt>
<pdfrwt beam="2">  1       -2 0.15924898E-01 0.12822363E+03</pdfrwt>
<totfact> 0.65559241E+03</totfact>
</mgrwt>
</event>
<event>
 7    1  0.1378058E-005  0.1270008E+03  0.7546771E-02  0.1245072E+00
          1   -1    0    0  501    0  0.00000000000E+00  0.00000000000E+00  0.82685434251E+03  0.82685434251E+03  0.00000000000E+00 0. -1.
         -1   -1    0    0    0  501 -0.00000000000E+00 -0.00000000000E+00 -0.15208537725E+02  0.15208537725E+02  0.00000000000E+00 0.  1.
         23    2    1    2    0    0  0.13633809167E+02 -0.17854708201E+02  0.35028056309E+03  0.36353693441E+03  0.94646491969E+02 0.  0.
          5    1    1    2  502    0  0.24068162667E+02  0.23239014527E+02  0.42271042170E+03  0.42405839086E+03  0.47000000000E+01 0. -1.
         -5    1    1    2    0  502 -0.37701971834E+02 -0.53843063261E+01  0.38654820000E+02  0.54467554966E+02  0.47000000000E+01 0. -1.
        -11    1    3    3    0    0 -0.38610319112E+02  0.72666169175E+01  0.14492304070E+03  0.15015408150E+03  0.00000000000E+00 0.  1.
         11    1    3    3    0    0  0.52244128279E+02 -0.25121325118E+02  0.20535752239E+03  0.21338285291E+03  0.00000000000E+00 0. -1.
<mgrwt>
<rscale>  0 0.11881089E+03</rscale>
<asrwt>0</asrwt>
<pdfrwt beam="1">  1        1 0.12720833E+00 0.12700077E+03</pdfrwt>
<pdfrwt beam="2">  1       -1 0.23397757E-02 0.12700077E+03</pdfrwt>
<totfact> 0.11373267E+04</totfact>
</mgrwt>
</event>
<event>
 7    1  0.1378058E-005  0.1271617E+03  0.7546771E-02  0.1246906E+00
         -1   -1    0    0    0  501 -0.00000000000E+00  0.00000000000E+00  0.27491535130E+03  0.27491535130E+03  0.00000000000E+00 0.  1.
          1   -1    0    0  501    0  0.00000000000E+00 -0.00000000000E+00 -0.44942689828E+02  0.44942689828E+02  0.00000000000E+00 0. -1.
         23    2    1    2    0    0 -0.31392622524E+01  0.23138947688E+02  0.77857973272E+02  0.12159309530E+03  0.90430918134E+02 0.  0.
          5    1    1    2  502    0  0.52431929158E+02  0.16542603125E+02  0.10705440403E+03  0.12043878252E+03  0.47000000000E+01 0. -1.
         -5    1    1    2    0  502 -0.49292666905E+02 -0.39681550813E+02  0.45060284170E+02  0.77826163307E+02  0.47000000000E+01 0. -1.
        -11    1    3    3    0    0  0.10271174250E+02  0.41567003588E+02  0.25289809972E+01  0.42891823843E+02  0.00000000000E+00 0. -1.
         11    1    3    3    0    0 -0.13410436502E+02 -0.18428055899E+02  0.75328992275E+02  0.78701271455E+02  0.00000000000E+00 0.  1.
<mgrwt>
<rscale>  0 0.11772012E+03</rscale>
<asrwt>0</asrwt>
<pdfrwt beam="2">  1        1 0.69142602E-02 0.12716175E+03</pdfrwt>
<pdfrwt beam="1">  1       -1 0.42294668E-01 0.12716175E+03</pdfrwt>
<totfact> 0.56185837E+03</totfact>
</mgrwt>
</event>
<event>
 7    1  0.1378058E-005  0.1327625E+03  0.7546771E-02  0.1236984E+00
         -2   -1    0    0    0  501 -0.00000000000E+00  0.00000000000E+00  0.46142133450E+02  0.46142133450E+02  0.00000000000E+00 0.  1.
          2   -1    0    0  501    0  0.00000000000E+00 -0.00000000000E+00 -0.42463006124E+03  0.42463006124E+03  0.00000000000E+00 0. -1.
         23    2    1    2    0    0  0.95012454190E+01 -0.43716773215E+02 -0.30048463917E+03  0.31679036738E+03  0.89798043173E+02 0.  0.
          5    1    1    2  502    0 -0.35591589529E+02  0.10944974732E+02 -0.99731013109E+02  0.10655946083E+03  0.47000000000E+01 0.  1.
         -5    1    1    2    0  502  0.26090344110E+02  0.32771798483E+02  0.21727724490E+02  0.47422366485E+02  0.47000000000E+01 0.  1.
        -11    1    3    3    0    0  0.80192572690E+01  0.24178071295E+02 -0.38629446738E+02  0.46272257065E+02  0.00000000000E+00 0.  1.
         11    1    3    3    0    0  0.14819881500E+01 -0.67894844510E+02 -0.26185519244E+03  0.27051811031E+03  0.00000000000E+00 0. -1.
<mgrwt>
<rscale>  0 0.12378243E+03</rscale>
<asrwt>0</asrwt>
<pdfrwt beam="2">  1        2 0.65327703E-01 0.13276253E+03</pdfrwt>
<pdfrwt beam="1">  1       -2 0.70987897E-02 0.13276253E+03</pdfrwt>
<totfact> 0.81143322E+03</totfact>
</mgrwt>
</event>
<event>
 7    1  0.1378058E-005  0.1344849E+03  0.7546771E-02  0.1233315E+00
         -2   -1    0    0    0  501 -0.00000000000E+00  0.00000000000E+00  0.19292962639E+02  0.19292962639E+02  0.00000000000E+00 0.  1.
          2   -1    0    0  501    0  0.00000000000E+00 -0.00000000000E+00 -0.77493219494E+03  0.77493219494E+03  0.00000000000E+00 0. -1.
         23    2    1    2    0    0  0.47393206225E+02  0.14586995986E+02 -0.41878860138E+03  0.43152069318E+03  0.91473053706E+02 0.  0.
          5    1    1    2  502    0 -0.29927201915E+02  0.48562385536E+02 -0.23216335428E+03  0.23911473349E+03  0.47000000000E+01 0. -1.
         -5    1    1    2    0  502 -0.17466004310E+02 -0.63149381522E+02 -0.10468727665E+03  0.12358973090E+03  0.47000000000E+01 0. -1.
        -11    1    3    3    0    0  0.97509847693E+01 -0.35626034013E+02 -0.21945974432E+03  0.22254634434E+03  0.00000000000E+00 0. -1.
         11    1    3    3    0    0  0.37642221456E+02  0.50213029999E+02 -0.19932885706E+03  0.20897434884E+03  0.00000000000E+00 0.  1.
<mgrwt>
<rscale>  0 0.12612892E+03</rscale>
<asrwt>0</asrwt>
<pdfrwt beam="2">  1        2 0.11922033E+00 0.13448487E+03</pdfrwt>
<pdfrwt beam="1">  1       -2 0.29681482E-02 0.13448487E+03</pdfrwt>
<totfact> 0.15135996E+04</totfact>
</mgrwt>
</event>
<event>
 7    1  0.1378058E-005  0.2190246E+03  0.7546771E-02  0.1134612E+00
          2   -1    0    0  501    0  0.00000000000E+00  0.00000000000E+00  0.11508824986E+02  0.11508824986E+02  0.00000000000E+00 0. -1.
         -2   -1    0    0    0  501 -0.00000000000E+00 -0.00000000000E+00 -0.10420647208E+04  0.10420647208E+04  0.00000000000E+00 0.  1.
         23    2    1    2    0    0 -0.19493668927E+02 -0.52448901481E+01 -0.37852935990E+03  0.38936783373E+03  0.88968093375E+02 0.  0.
          5    1    1    2  502    0  0.67613454511E+02  0.24966355550E+02 -0.31624844135E+03  0.32439183836E+03  0.47000000000E+01 0.  1.
         -5    1    1    2    0  502 -0.48119785585E+02 -0.19721465402E+02 -0.33577809455E+03  0.33981387368E+03  0.47000000000E+01 0.  1.
        -11    1    3    3    0    0  0.30855681864E+02  0.17385572836E+02 -0.12652426796E+03  0.13138767685E+03  0.00000000000E+00 0. -1.
         11    1    3    3    0    0 -0.50349350791E+02 -0.22630462984E+02 -0.25200509194E+03  0.25798015688E+03  0.00000000000E+00 0.  1.
<mgrwt>
<rscale>  0 0.21902457E+03</rscale>
<asrwt>0</asrwt>
<pdfrwt beam="1">  1        2 0.17705880E-02 0.21902457E+03</pdfrwt>
<pdfrwt beam="2">  1       -2 0.16031769E+00 0.21902457E+03</pdfrwt>
<totfact> 0.17093398E+03</totfact>
</mgrwt>
</event>
<event>
 7    1  0.1378058E-005  0.1890994E+03  0.7546771E-02  0.1165411E+00
          4   -1    0    0  501    0  0.00000000000E+00  0.00000000000E+00  0.72719249073E+02  0.72719249073E+02  0.00000000000E+00 0. -1.
         -4   -1    0    0    0  501 -0.00000000000E+00 -0.00000000000E+00 -0.43594317818E+03  0.43594317818E+03  0.00000000000E+00 0.  1.
         23    2    1    2    0    0  0.12484000393E+02  0.14134715725E+03 -0.13625285310E+03  0.21323991382E+03  0.82289438811E+02 0.  0.
          5    1    1    2  502    0 -0.66122021736E+02 -0.10114035680E+03 -0.15990803294E+03  0.20048481871E+03  0.47000000000E+01 0.  1.
         -5    1    1    2    0  502  0.53638021342E+02 -0.40206800447E+02 -0.67063043064E+02  0.94937694730E+02  0.47000000000E+01 0.  1.
        -11    1    3    3    0    0 -0.21966520618E+02  0.39063509395E+01 -0.17203265887E+02  0.28173391044E+02  0.00000000000E+00 0. -1.
         11    1    3    3    0    0  0.34450521011E+02  0.13744080631E+03 -0.11904958721E+03  0.18506652277E+03  0.00000000000E+00 0.  1.
<mgrwt>
<rscale>  0 0.18249444E+03</rscale>
<asrwt>0</asrwt>
<pdfrwt beam="1">  1        4 0.11187577E-01 0.18909942E+03</pdfrwt>
<pdfrwt beam="2">  1       -4 0.67068181E-01 0.18909942E+03</pdfrwt>
<totfact> 0.23118347E+02</totfact>
</mgrwt>
</event>
<event>
 7    1  0.1378058E-005  0.1358380E+03  0.7546771E-02  0.1232071E+00
         -2   -1    0    0    0  501 -0.00000000000E+00  0.00000000000E+00  0.46500597819E+02  0.46500597819E+02  0.00000000000E+00 0.  1.
          2   -1    0    0  501    0  0.00000000000E+00 -0.00000000000E+00 -0.34231145178E+03  0.34231145178E+03  0.00000000000E+00 0. -1.
         23    2    1    2    0    0  0.58522740067E+00  0.53152077000E+02 -0.19084068470E+03  0.21714170052E+03  0.88909309899E+02 0.  0.
          5    1    1    2  502    0  0.18334940888E+02 -0.85389444903E+02 -0.10127744990E+03  0.13381606486E+03  0.47000000000E+01 0. -1.
         -5    1    1    2    0  502 -0.18920168289E+02  0.32237367903E+02 -0.36927193673E+01  0.37854284219E+02  0.47000000000E+01 0. -1.
        -11    1    3    3    0    0 -0.21778914957E+02  0.37122028237E+02 -0.26564512943E+02  0.50577064614E+02  0.00000000000E+00 0.  1.
         11    1    3    3    0    0  0.22364142357E+02  0.16030048763E+02 -0.16427617176E+03  0.16656463590E+03  0.00000000000E+00 0. -1.
<mgrwt>
<rscale>  0 0.12693833E+03</rscale>
<asrwt>0</asrwt>
<pdfrwt beam="2">  1        2 0.52663299E-01 0.13583804E+03</pdfrwt>
<pdfrwt beam="1">  1       -2 0.71539382E-02 0.13583804E+03</pdfrwt>
<totfact> 0.10105653E+04</totfact>
</mgrwt>
</event>
<event>
 7    1  0.1378058E-005  0.1315127E+03  0.7546771E-02  0.1238475E+00
         -4   -1    0    0    0  501 -0.00000000000E+00  0.00000000000E+00  0.11005423268E+03  0.11005423268E+03  0.00000000000E+00 0.  1.
          4   -1    0    0  501    0  0.00000000000E+00 -0.00000000000E+00 -0.18336628187E+03  0.18336628187E+03  0.00000000000E+00 0. -1.
         23    2    1    2    0    0  0.23187475389E+02 -0.33676105898E+02 -0.11778707889E+03  0.15459108153E+03  0.91394022856E+02 0.  0.
          5    1    1    2  502    0  0.21620294846E+02  0.17036964726E+02  0.76276348228E+02  0.81227252910E+02  0.47000000000E+01 0. -1.
         -5    1    1    2    0  502 -0.44807770236E+02  0.16639141172E+02 -0.31801318538E+02  0.57602180108E+02  0.47000000000E+01 0. -1.
        -11    1    3    3    0    0 -0.16630712757E+02 -0.36644949902E+02 -0.12738831422E+02  0.42210316110E+02  0.00000000000E+00 0.  1.
         11    1    3    3    0    0  0.39818188146E+02  0.29688440036E+01 -0.10504824746E+03  0.11238076542E+03  0.00000000000E+00 0. -1.
<mgrwt>
<rscale>  0 0.12284546E+03</rscale>
<asrwt>0</asrwt>
<pdfrwt beam="2">  1        4 0.28210197E-01 0.13151267E+03</pdfrwt>
<pdfrwt beam="1">  1       -4 0.16931420E-01 0.13151267E+03</pdfrwt>
<totfact> 0.59845425E+02</totfact>
</mgrwt>
</event>
<event>
 7    1  0.1378058E-005  0.1631774E+03  0.7546771E-02  0.1191946E+00
          2   -1    0    0  501    0  0.00000000000E+00  0.00000000000E+00  0.41467549372E+03  0.41467549372E+03  0.00000000000E+00 0. -1.
         -2   -1    0    0    0  501 -0.00000000000E+00 -0.00000000000E+00 -0.69736982045E+02  0.69736982045E+02  0.00000000000E+00 0.  1.
         23    2    1    2    0    0  0.14155512712E+02 -0.10400157100E+03  0.27112553983E+03  0.30531688522E+03  0.93234310979E+02 0.  0.
          5    1    1    2  502    0  0.28878858727E+02  0.99841186259E+02  0.84820628970E+02  0.13423442202E+03  0.47000000000E+01 0.  1.
         -5    1    1    2    0  502 -0.43034371439E+02  0.41603847405E+01 -0.11007657124E+02  0.44861168528E+02  0.47000000000E+01 0.  1.
        -11    1    3    3    0    0  0.40727605480E+02 -0.17388556369E+02  0.13256851058E+03  0.13976948786E+03  0.00000000000E+00 0. -1.
         11    1    3    3    0    0 -0.26572092767E+02 -0.86613014631E+02  0.13855702925E+03  0.16554739736E+03  0.00000000000E+00 0.  1.
<mgrwt>
<rscale>  0 0.15715532E+03</rscale>
<asrwt>0</asrwt>
<pdfrwt beam="1">  1        2 0.63796228E-01 0.16317744E+03</pdfrwt>
<pdfrwt beam="2">  1       -2 0.10728767E-01 0.16317744E+03</pdfrwt>
<totfact> 0.44253874E+03</totfact>
</mgrwt>
</event>
<event>
 7    1  0.1378058E-005  0.2030011E+03  0.7546771E-02  0.1150405E+00
         -2   -1    0    0    0  501 -0.00000000000E+00  0.00000000000E+00  0.59311918368E+03  0.59311918368E+03  0.00000000000E+00 0.  1.
          2   -1    0    0  501    0  0.00000000000E+00 -0.00000000000E+00 -0.86403456725E+02  0.86403456725E+02  0.00000000000E+00 0. -1.
         23    2    1    2    0    0 -0.11415174708E+03 -0.11204708148E+03  0.75365905636E+02  0.20279196830E+03  0.99294475406E+02 0.  0.
          5    1    1    2  502    0  0.10220394960E+03  0.13258103920E+03  0.41498620816E+03  0.44750309745E+03  0.47000000000E+01 0.  1.
         -5    1    1    2    0  502  0.11947797479E+02 -0.20533957726E+02  0.16363613164E+02  0.29227574656E+02  0.47000000000E+01 0.  1.
        -11    1    3    3    0    0 -0.47873557615E+02 -0.67250596389E+02 -0.13030046369E+02  0.83572138550E+02  0.00000000000E+00 0. -1.
         11    1    3    3    0    0 -0.66278189461E+02 -0.44796485088E+02  0.88395952005E+02  0.11921982975E+03  0.00000000000E+00 0.  1.
<mgrwt>
<rscale>  0 0.19921295E+03</rscale>
<asrwt>0</asrwt>
<pdfrwt beam="2">  1        2 0.13292840E-01 0.20300115E+03</pdfrwt>
<pdfrwt beam="1">  1       -2 0.91249103E-01 0.20300115E+03</pdfrwt>
<totfact> 0.47628859E+02</totfact>
</mgrwt>
</event>
<event>
 7    1  0.1378058E-005  0.1396927E+03  0.7546771E-02  0.1224588E+00
          1   -1    0    0  501    0  0.00000000000E+00  0.00000000000E+00  0.39624858672E+03  0.39624858672E+03  0.00000000000E+00 0. -1.
         -1   -1    0    0    0  501 -0.00000000000E+00 -0.00000000000E+00 -0.42511711268E+02  0.42511711268E+02  0.00000000000E+00 0.  1.
         23    2    1    2    0    0  0.62350874669E+02  0.16185737507E+01  0.21401652614E+03  0.24118544475E+03  0.92071135250E+02 0.  0.
          5    1    1    2  502    0 -0.91568703175E+02 -0.21057929255E+02  0.63412486997E+02  0.11345262136E+03  0.47000000000E+01 0.  1.
         -5    1    1    2    0  502  0.29217828506E+02  0.19439355504E+02  0.76307862313E+02  0.84122231876E+02  0.47000000000E+01 0.  1.
        -11    1    3    3    0    0  0.59201822252E+01 -0.23394539932E+02  0.69474935844E+01  0.25112162856E+02  0.00000000000E+00 0.  1.
         11    1    3    3    0    0  0.56430692444E+02  0.25013113683E+02  0.20706903255E+03  0.21607328189E+03  0.00000000000E+00 0. -1.
<mgrwt>
<rscale>  0 0.13195165E+03</rscale>
<asrwt>0</asrwt>
<pdfrwt beam="1">  1        1 0.60961319E-01 0.13969269E+03</pdfrwt>
<pdfrwt beam="2">  1       -1 0.65402635E-02 0.13969269E+03</pdfrwt>
<totfact> 0.68814210E+03</totfact>
</mgrwt>
</event>
<event>
 7    1  0.1378058E-005  0.1275610E+03  0.7546771E-02  0.1245778E+00
         -2   -1    0    0    0  501 -0.00000000000E+00  0.00000000000E+00  0.28524267784E+03  0.28524267784E+03  0.00000000000E+00 0.  1.
          2   -1    0    0  501    0  0.00000000000E+00 -0.00000000000E+00 -0.51333931162E+02  0.51333931162E+02  0.00000000000E+00 0. -1.
         23    2    1    2    0    0  0.42787200562E+01  0.25073941752E+02  0.36289380482E+02  0.10136344587E+03  0.91162596625E+02 0.  0.
          5    1    1    2  502    0  0.60099431339E+02 -0.13651001013E+02  0.89344601681E+02  0.10864087318E+03  0.47000000000E+01 0. -1.
         -5    1    1    2    0  502 -0.64378151395E+02 -0.11422940739E+02  0.10827476452E+03  0.12657228995E+03  0.47000000000E+01 0. -1.
        -11    1    3    3    0    0 -0.36444877096E+02  0.14296704906E+02  0.43612529646E+02  0.58606122376E+02  0.00000000000E+00 0.  1.
         11    1    3    3    0    0  0.40723597153E+02  0.10777236845E+02 -0.73231491638E+01  0.42757323498E+02  0.00000000000E+00 0. -1.
<mgrwt>
<rscale>  0 0.11838936E+03</rscale>
<asrwt>0</asrwt>
<pdfrwt beam="2">  1        2 0.78975280E-02 0.12756104E+03</pdfrwt>
<pdfrwt beam="1">  1       -2 0.43883488E-01 0.12756104E+03</pdfrwt>
<totfact> 0.40838897E+03</totfact>
</mgrwt>
</event>
<event>
 7    1  0.1582170E-005  0.2530254E+03  0.7546771E-02  0.1113623E+00
         -1   -1    0    0    0  501 -0.00000000000E+00  0.00000000000E+00  0.25974495933E+02  0.25974495933E+02  0.00000000000E+00 0.  1.
          1   -1    0    0  501    0  0.00000000000E+00 -0.00000000000E+00 -0.23333351413E+04  0.23333351413E+04  0.00000000000E+00 0. -1.
         23    2    1    2    0    0  0.78768848218E+02 -0.20541107944E+03 -0.11494239255E+04  0.11740504636E+04  0.93919580169E+02 0.  0.
          5    1    1    2  502    0 -0.27615891807E+02  0.54432645315E+02 -0.64996528757E+03  0.65284187627E+03  0.47000000000E+01 0. -1.
         -5    1    1    2    0  502 -0.51152956411E+02  0.15097843412E+03 -0.50797143228E+03  0.53241729736E+03  0.47000000000E+01 0. -1.
        -11    1    3    3    0    0 -0.22433198662E+01 -0.11340939360E+03 -0.64845834025E+03  0.65830459674E+03  0.00000000000E+00 0. -1.
         11    1    3    3    0    0  0.81012168084E+02 -0.92001685833E+02 -0.50096558522E+03  0.51574586683E+03  0.00000000000E+00 0.  1.
<mgrwt>
<rscale>  0 0.24949725E+03</rscale>
<asrwt>0</asrwt>
<pdfrwt beam="2">  1        1 0.35897479E+00 0.25302542E+03</pdfrwt>
<pdfrwt beam="1">  1       -1 0.39960746E-02 0.25302542E+03</pdfrwt>
<totfact> 0.50465938E+02</totfact>
</mgrwt>
</event>
<event>
 7    1  0.1378058E-005  0.1352837E+03  0.7546771E-02  0.1228748E+00
          1   -1    0    0  501    0  0.00000000000E+00  0.00000000000E+00  0.63742968695E+02  0.63742968695E+02  0.00000000000E+00 0. -1.
         -1   -1    0    0    0  501 -0.00000000000E+00 -0.00000000000E+00 -0.24735543490E+03  0.24735543490E+03  0.00000000000E+00 0.  1.
         23    2    1    2    0    0  0.99605865554E+01 -0.50770300846E+02 -0.57599681495E+02  0.12621765385E+03  0.99681172255E+02 0.  0.
          5    1    1    2  502    0 -0.34305658378E+02  0.42525135733E+02 -0.14337761274E+03  0.15350731318E+03  0.47000000000E+01 0.  1.
         -5    1    1    2    0  502  0.24345071823E+02  0.82451651128E+01  0.17364828024E+02  0.31373436568E+02  0.47000000000E+01 0.  1.
        -11    1    3    3    0    0  0.28077308375E+02 -0.34811933495E+02 -0.81043615749E+02  0.92564969686E+02  0.00000000000E+00 0.  1.
         11    1    3    3    0    0 -0.18116721820E+02 -0.15958367351E+02  0.23443934255E+02  0.33652684162E+02  0.00000000000E+00 0. -1.
<mgrwt>
<rscale>  0 0.12913295E+03</rscale>
<asrwt>0</asrwt>
<pdfrwt beam="1">  1        1 0.98066107E-02 0.13528366E+03</pdfrwt>
<pdfrwt beam="2">  1       -1 0.38054682E-01 0.13528366E+03</pdfrwt>
<totfact> 0.42541866E+03</totfact>
</mgrwt>
</event>
<event>
 7    1  0.1378058E-005  0.1605693E+03  0.7546771E-02  0.1195142E+00
          1   -1    0    0  501    0  0.00000000000E+00  0.00000000000E+00  0.22474925344E+03  0.22474925344E+03  0.00000000000E+00 0. -1.
         -1   -1    0    0    0  501 -0.00000000000E+00 -0.00000000000E+00 -0.10014629701E+03  0.10014629701E+03  0.00000000000E+00 0.  1.
         23    2    1    2    0    0 -0.16191513585E+02 -0.99480902417E+02  0.76766772124E+02  0.15735210464E+03  0.93316303364E+02 0.  0.
          5    1    1    2  502    0 -0.53572437481E+02  0.41130513151E+02  0.32833538745E+02  0.75245308400E+02  0.47000000000E+01 0.  1.
         -5    1    1    2    0  502  0.69763951066E+02  0.58350389266E+02  0.15002645568E+02  0.92298137413E+02  0.47000000000E+01 0.  1.
        -11    1    3    3    0    0  0.32731350177E+02 -0.73011411564E+02  0.32903800049E+02  0.86513973211E+02  0.00000000000E+00 0.  1.
         11    1    3    3    0    0 -0.48922863762E+02 -0.26469490853E+02  0.43862972075E+02  0.70838131426E+02  0.00000000000E+00 0. -1.
<mgrwt>
<rscale>  0 0.15442175E+03</rscale>
<asrwt>0</asrwt>
<pdfrwt beam="1">  1        1 0.34576808E-01 0.16056932E+03</pdfrwt>
<pdfrwt beam="2">  1       -1 0.15407123E-01 0.16056932E+03</pdfrwt>
<totfact> 0.37808116E+03</totfact>
</mgrwt>
</event>
<event>
 7    1  0.1430145E-005  0.1271550E+03  0.7546771E-02  0.1250382E+00
          1   -1    0    0  501    0  0.00000000000E+00  0.00000000000E+00  0.79001100315E+02  0.79001100315E+02  0.00000000000E+00 0. -1.
         -1   -1    0    0    0  501 -0.00000000000E+00 -0.00000000000E+00 -0.15033971691E+03  0.15033971691E+03  0.00000000000E+00 0.  1.
         23    2    1    2    0    0 -0.22196298259E+02  0.71301188098E+01 -0.86157585039E+01  0.87557365293E+02  0.83955623229E+02 0.  0.
          5    1    1    2  502    0  0.26521315541E+02  0.48003412995E+02 -0.66293709308E+02  0.86166430419E+02  0.47000000000E+01 0.  1.
         -5    1    1    2    0  502 -0.43250172827E+01 -0.55133531805E+02  0.35708512155E+01  0.55617021515E+02  0.47000000000E+01 0.  1.
        -11    1    3    3    0    0  0.69678599502E+01  0.30855925411E+02  0.22447813239E+02  0.38788445760E+02  0.00000000000E+00 0. -1.
         11    1    3    3    0    0 -0.29164158209E+02 -0.23725806601E+02 -0.31063571743E+02  0.48768919533E+02  0.00000000000E+00 0.  1.
<mgrwt>
<rscale>  0 0.11568978E+03</rscale>
<asrwt>0</asrwt>
<pdfrwt beam="1">  1        1 0.12154015E-01 0.12715499E+03</pdfrwt>
<pdfrwt beam="2">  1       -1 0.23129187E-01 0.12715499E+03</pdfrwt>
<totfact> 0.73609032E+03</totfact>
</mgrwt>
</event>
<event>
 7    1  0.1378058E-005  0.1764927E+03  0.7546771E-02  0.1176812E+00
         -1   -1    0    0    0  501 -0.00000000000E+00  0.00000000000E+00  0.99543432501E+03  0.99543432501E+03  0.00000000000E+00 0.  1.
          1   -1    0    0  501    0  0.00000000000E+00 -0.00000000000E+00 -0.40061320626E+02  0.40061320626E+02  0.00000000000E+00 0. -1.
         23    2    1    2    0    0 -0.11752584891E+03  0.41368357680E+02  0.16943932675E+03  0.22998871379E+03  0.93066948186E+02 0.  0.
          5    1    1    2  502    0  0.62054452331E+02 -0.43177381098E+02  0.15916984898E+03  0.17627300451E+03  0.47000000000E+01 0. -1.
         -5    1    1    2    0  502  0.55471396575E+02  0.18090234172E+01  0.62676382865E+03  0.62923392733E+03  0.47000000000E+01 0. -1.
        -11    1    3    3    0    0 -0.88245559475E+02 -0.17271684734E+02  0.10093008923E+03  0.13517571074E+03  0.00000000000E+00 0. -1.
         11    1    3    3    0    0 -0.29280289432E+02  0.58640042414E+02  0.68509237515E+02  0.94813003056E+02  0.00000000000E+00 0.  1.
<mgrwt>
<rscale>  0 0.17099704E+03</rscale>
<asrwt>0</asrwt>
<pdfrwt beam="2">  1        1 0.61632809E-02 0.17649270E+03</pdfrwt>
<pdfrwt beam="1">  1       -1 0.15314372E+00 0.17649270E+03</pdfrwt>
<totfact> 0.44521347E+02</totfact>
</mgrwt>
</event>
<event>
 7    1  0.1378058E-005  0.1259026E+03  0.7546771E-02  0.1250892E+00
         -2   -1    0    0    0  501 -0.00000000000E+00  0.00000000000E+00  0.34058786204E+02  0.34058786204E+02  0.00000000000E+00 0.  1.
          2   -1    0    0  501    0  0.00000000000E+00 -0.00000000000E+00 -0.33872284355E+03  0.33872284355E+03  0.00000000000E+00 0. -1.
         23    2    1    2    0    0 -0.14904564788E+02 -0.16701116897E+01 -0.12154687219E+03  0.15055791796E+03  0.87573450301E+02 0.  0.
          5    1    1    2  502    0  0.41791394635E+02 -0.19986786577E+02 -0.18146311510E+03  0.18734178510E+03  0.47000000000E+01 0. -1.
         -5    1    1    2    0  502 -0.26886829847E+02  0.21656898267E+02 -0.16540700547E+01  0.34881926688E+02  0.47000000000E+01 0. -1.
        -11    1    3    3    0    0 -0.43293748951E+02 -0.15621593248E+02 -0.33288853981E+02  0.56802558686E+02  0.00000000000E+00 0.  1.
         11    1    3    3    0    0  0.28389184163E+02  0.13951481559E+02 -0.88258018207E+02  0.93755359276E+02  0.00000000000E+00 0. -1.
<mgrwt>
<rscale>  0 0.11539542E+03</rscale>
<asrwt>0</asrwt>
<pdfrwt beam="2">  1        2 0.52111208E-01 0.12590264E+03</pdfrwt>
<pdfrwt beam="1">  1       -2 0.52398131E-02 0.12590264E+03</pdfrwt>
<totfact> 0.16287888E+04</totfact>
</mgrwt>
</event>
<event>
 7    1  0.1378058E-005  0.1453041E+03  0.7546771E-02  0.1217230E+00
         -2   -1    0    0    0  501 -0.00000000000E+00  0.00000000000E+00  0.78454794810E+02  0.78454794810E+02  0.00000000000E+00 0. -1.
          2   -1    0    0  501    0  0.00000000000E+00 -0.00000000000E+00 -0.26121346425E+03  0.26121346425E+03  0.00000000000E+00 0.  1.
         23    2    1    2    0    0  0.72462168492E+02  0.15438445001E+02 -0.15261250909E+03  0.19126994137E+03  0.88343087410E+02 0.  0.
          5    1    1    2  502    0 -0.83844817672E+02 -0.45081516235E+02  0.11295539544E+02  0.95979038180E+02  0.47000000000E+01 0. -1.
         -5    1    1    2    0  502  0.11382649180E+02  0.29643071234E+02 -0.41441699888E+02  0.52419279508E+02  0.47000000000E+01 0. -1.
        -11    1    3    3    0    0  0.46226912887E+02 -0.90251284634E+01 -0.14774377160E+03  0.15506966971E+03  0.00000000000E+00 0.  1.
         11    1    3    3    0    0  0.26235255605E+02  0.24463573464E+02 -0.48687374971E+01  0.36200271658E+02  0.00000000000E+00 0. -1.
<mgrwt>
<rscale>  0 0.13713986E+03</rscale>
<asrwt>0</asrwt>
<pdfrwt beam="2">  1        2 0.40186686E-01 0.14530406E+03</pdfrwt>
<pdfrwt beam="1">  1       -2 0.12069969E-01 0.14530406E+03</pdfrwt>
<totfact> 0.59679028E+03</totfact>
</mgrwt>
</event>
<event>
 7    1  0.1378058E-005  0.1577918E+03  0.7546771E-02  0.1199200E+00
          1   -1    0    0  501    0  0.00000000000E+00  0.00000000000E+00  0.65026023824E+02  0.65026023824E+02  0.00000000000E+00 0. -1.
         -1   -1    0    0    0  501 -0.00000000000E+00 -0.00000000000E+00 -0.36982665731E+03  0.36982665731E+03  0.00000000000E+00 0.  1.
         23    2    1    2    0    0  0.34877104973E+01  0.96232010214E+02 -0.64410534736E+02  0.14730153216E+03  0.90973954937E+02 0.  0.
          5    1    1    2  502    0  0.28103025281E+00 -0.12147500116E+03 -0.22888069622E+03  0.25916156734E+03  0.47000000000E+01 0. -1.
         -5    1    1    2    0  502 -0.37687407501E+01  0.25242990943E+02 -0.11509402523E+02  0.28389581629E+02  0.47000000000E+01 0. -1.
        -11    1    3    3    0    0  0.39911443315E+02  0.56114848224E+02 -0.62636897989E+02  0.93086951225E+02  0.00000000000E+00 0.  1.
         11    1    3    3    0    0 -0.36423732817E+02  0.40117161990E+02 -0.17736367470E+01  0.54214580933E+02  0.00000000000E+00 0. -1.
<mgrwt>
<rscale>  0 0.15104106E+03</rscale>
<asrwt>0</asrwt>
<pdfrwt beam="1">  1        1 0.10004004E-01 0.15779184E+03</pdfrwt>
<pdfrwt beam="2">  1       -1 0.56896407E-01 0.15779184E+03</pdfrwt>
<totfact> 0.20196304E+03</totfact>
</mgrwt>
</event>
<event>
 7    1  0.1378058E-005  0.1400472E+03  0.7546771E-02  0.1224065E+00
         -2   -1    0    0    0  501 -0.00000000000E+00  0.00000000000E+00  0.46912185847E+02  0.46912185847E+02  0.00000000000E+00 0.  1.
          2   -1    0    0  501    0  0.00000000000E+00 -0.00000000000E+00 -0.33812109979E+03  0.33812109979E+03  0.00000000000E+00 0. -1.
         23    2    1    2    0    0  0.44936252779E+02  0.43969779602E+02 -0.12040340708E+03  0.16415381769E+03  0.92178560914E+02 0.  0.
          5    1    1    2  502    0 -0.75789954872E+02  0.20658653551E+01 -0.59645206672E+02  0.96581704986E+02  0.47000000000E+01 0. -1.
         -5    1    1    2    0  502  0.30853702093E+02 -0.46035644957E+02 -0.11116030019E+03  0.12429776296E+03  0.47000000000E+01 0. -1.
        -11    1    3    3    0    0  0.33345900731E+02  0.69394726128E+02 -0.60029873299E+02  0.97627674345E+02  0.00000000000E+00 0.  1.
         11    1    3    3    0    0  0.11590352048E+02 -0.25424946525E+02 -0.60373533783E+02  0.66526143342E+02  0.00000000000E+00 0. -1.
<mgrwt>
<rscale>  0 0.13231217E+03</rscale>
<asrwt>0</asrwt>
<pdfrwt beam="2">  1        2 0.52018630E-01 0.14004720E+03</pdfrwt>
<pdfrwt beam="1">  1       -2 0.72172595E-02 0.14004720E+03</pdfrwt>
<totfact> 0.10123536E+04</totfact>
</mgrwt>
</event>
<event>
 7    1  0.1378058E-005  0.2198556E+03  0.7546771E-02  0.1137383E+00
          2   -1    0    0  501    0  0.00000000000E+00  0.00000000000E+00  0.50559998095E+03  0.50559998095E+03  0.00000000000E+00 0.  1.
         -2   -1    0    0    0  501 -0.00000000000E+00 -0.00000000000E+00 -0.88353746540E+02  0.88353746540E+02  0.00000000000E+00 0. -1.
         23    2    1    2    0    0  0.10996101590E+03  0.14359474633E+03  0.18706369215E+03  0.27564491486E+03  0.90974820551E+02 0.  0.
          5    1    1    2  502    0 -0.13111300590E+03 -0.10956093435E+03  0.14535604236E+03  0.22437621911E+03  0.47000000000E+01 0.  1.
         -5    1    1    2    0  502  0.21151990004E+02 -0.34033811985E+02  0.84826499910E+02  0.93932593525E+02  0.47000000000E+01 0.  1.
        -11    1    3    3    0    0  0.46231976919E+02  0.93093613798E+02  0.15834009803E+03  0.18940803379E+03  0.00000000000E+00 0. -1.
         11    1    3    3    0    0  0.63729038981E+02  0.50501132537E+02  0.28723594113E+02  0.86236881065E+02  0.00000000000E+00 0.  1.
<mgrwt>
<rscale>  0 0.21536957E+03</rscale>
<asrwt>0</asrwt>
<pdfrwt beam="1">  1        2 0.77784610E-01 0.21985563E+03</pdfrwt>
<pdfrwt beam="2">  1       -2 0.13592884E-01 0.21985563E+03</pdfrwt>
<totfact> 0.24582824E+03</totfact>
</mgrwt>
</event>
<event>
 7    1  0.1378058E-005  0.1282931E+03  0.7546771E-02  0.1244128E+00
          2   -1    0    0  501    0  0.00000000000E+00  0.00000000000E+00  0.70637380671E+03  0.70637380671E+03  0.00000000000E+00 0.  1.
         -2   -1    0    0    0  501 -0.00000000000E+00 -0.00000000000E+00 -0.17949960751E+02  0.17949960751E+02  0.00000000000E+00 0. -1.
         23    2    1    2    0    0 -0.13192160149E+02  0.25523551941E+02  0.26637588709E+03  0.28320745265E+03  0.91787053661E+02 0.  0.
          5    1    1    2  502    0  0.33062356937E+02 -0.47905129998E+02  0.87484111877E+02  0.10518355745E+03  0.47000000000E+01 0.  1.
         -5    1    1    2    0  502 -0.19870196788E+02  0.22381578057E+02  0.33456384699E+03  0.33593275737E+03  0.47000000000E+01 0.  1.
        -11    1    3    3    0    0  0.39313960585E+02  0.76231889961E+01  0.95637517393E+02  0.10368334119E+03  0.00000000000E+00 0. -1.
         11    1    3    3    0    0 -0.52506120734E+02  0.17900362945E+02  0.17073836969E+03  0.17952411146E+03  0.00000000000E+00 0.  1.
<mgrwt>
<rscale>  0 0.11937744E+03</rscale>
<asrwt>0</asrwt>
<pdfrwt beam="1">  1        2 0.10867287E+00 0.12829312E+03</pdfrwt>
<pdfrwt beam="2">  1       -2 0.27615330E-02 0.12829312E+03</pdfrwt>
<totfact> 0.18747966E+04</totfact>
</mgrwt>
</event>
<event>
 7    1  0.1378058E-005  0.1718280E+03  0.7546771E-02  0.1182286E+00
          1   -1    0    0  501    0  0.00000000000E+00  0.00000000000E+00  0.13967838651E+04  0.13967838651E+04  0.00000000000E+00 0. -1.
         -1   -1    0    0    0  501 -0.00000000000E+00 -0.00000000000E+00 -0.18509929782E+02  0.18509929782E+02  0.00000000000E+00 0.  1.
         23    2    1    2    0    0 -0.72712797348E+02 -0.92802196742E+02  0.68873459683E+03  0.70466775657E+03  0.91114782902E+02 0.  0.
          5    1    1    2  502    0  0.93237612691E+02  0.29898543810E+02  0.50742435648E+03  0.51680629146E+03  0.47000000000E+01 0. -1.
         -5    1    1    2    0  502 -0.20524815343E+02  0.62903652932E+02  0.18211498200E+03  0.19381974684E+03  0.47000000000E+01 0. -1.
        -11    1    3    3    0    0 -0.38537728643E+02 -0.10453557080E+03  0.47426630045E+03  0.48717693483E+03  0.00000000000E+00 0.  1.
         11    1    3    3    0    0 -0.34175068705E+02  0.11733374062E+02  0.21446829638E+03  0.21749082174E+03  0.00000000000E+00 0. -1.
<mgrwt>
<rscale>  0 0.16581270E+03</rscale>
<asrwt>0</asrwt>
<pdfrwt beam="1">  1        1 0.21488974E+00 0.17182802E+03</pdfrwt>
<pdfrwt beam="2">  1       -1 0.28476826E-02 0.17182802E+03</pdfrwt>
<totfact> 0.33952555E+03</totfact>
</mgrwt>
</event>
<event>
 7    1  0.1378058E-005  0.1716023E+03  0.7546771E-02  0.1203290E+00
          1   -1    0    0  501    0  0.00000000000E+00  0.00000000000E+00  0.29700957132E+03  0.29700957132E+03  0.00000000000E+00 0. -1.
         -1   -1    0    0    0  501 -0.00000000000E+00 -0.00000000000E+00 -0.68407149503E+02  0.68407149503E+02  0.00000000000E+00 0.  1.
         23    2    1    2    0    0 -0.24130893147E+02  0.25523106985E+02  0.14886030482E+03  0.17619156049E+03  0.87466260016E+02 0.  0.
          5    1    1    2  502    0  0.23327895631E+02  0.59351940908E+02  0.82246078423E+02  0.10417941745E+03  0.47000000000E+01 0. -1.
         -5    1    1    2    0  502  0.80299751561E+00 -0.84875047893E+02 -0.25039614292E+01  0.85045742884E+02  0.47000000000E+01 0.  1.
        -11    1    3    3    0    0 -0.21601130001E+02 -0.91417744756E+01  0.13770472831E+03  0.13968812783E+03  0.00000000000E+00 0. -1.
         11    1    3    3    0    0 -0.25297631463E+01  0.34664881461E+02  0.11155576508E+02  0.36503432654E+02  0.00000000000E+00 0.  1.
<mgrwt>
<rscale>  0 0.14773007E+03</rscale>
<asrwt>0</asrwt>
<pdfrwt beam="1">  1        1 0.45693779E-01 0.17160232E+03</pdfrwt>
<pdfrwt beam="2">  1       -1 0.10524177E-01 0.17160232E+03</pdfrwt>
<totfact> 0.48543917E+03</totfact>
</mgrwt>
</event>
<event>
 7    1  0.1378058E-005  0.1359265E+03  0.7546771E-02  0.1230842E+00
         -2   -1    0    0    0  501 -0.00000000000E+00  0.00000000000E+00  0.22556737026E+02  0.22556737026E+02  0.00000000000E+00 0.  1.
          2   -1    0    0  501    0  0.00000000000E+00 -0.00000000000E+00 -0.69243515643E+03  0.69243515643E+03  0.00000000000E+00 0. -1.
         23    2    1    2    0    0 -0.41921172139E+02  0.33043014504E+02 -0.38519202718E+03  0.39952027482E+03  0.91620558352E+02 0.  0.
          5    1    1    2  502    0  0.27935879807E+01 -0.63736098282E+01  0.12191863521E+02  0.14804005274E+02  0.47000000000E+01 0.  1.
         -5    1    1    2    0  502  0.39127584158E+02 -0.26669404676E+02 -0.29687825574E+03  0.30066761336E+03  0.47000000000E+01 0.  1.
        -11    1    3    3    0    0 -0.23563948476E+01 -0.30461087177E+02 -0.13295564363E+03  0.13642079608E+03  0.00000000000E+00 0. -1.
         11    1    3    3    0    0 -0.39564777291E+02  0.63504101681E+02 -0.25223638354E+03  0.26309947874E+03  0.00000000000E+00 0.  1.
<mgrwt>
<rscale>  0 0.12774412E+03</rscale>
<asrwt>0</asrwt>
<pdfrwt beam="2">  1        2 0.10652849E+00 0.13592645E+03</pdfrwt>
<pdfrwt beam="1">  1       -2 0.34702672E-02 0.13592645E+03</pdfrwt>
<totfact> 0.13779936E+04</totfact>
</mgrwt>
</event>
<event>
 7    1  0.1378058E-005  0.1585713E+03  0.7546771E-02  0.1198135E+00
         -2   -1    0    0    0  501 -0.00000000000E+00  0.00000000000E+00  0.18262534166E+03  0.18262534166E+03  0.00000000000E+00 0.  1.
          2   -1    0    0  501    0  0.00000000000E+00 -0.00000000000E+00 -0.14466982762E+03  0.14466982762E+03  0.00000000000E+00 0. -1.
         23    2    1    2    0    0  0.60051053831E+00 -0.97528305842E+02 -0.53886107872E+02  0.14404741009E+03  0.91289718361E+02 0.  0.
          5    1    1    2  502    0 -0.40671931807E+02  0.14999024387E+02 -0.11384109624E+02  0.45065116458E+02  0.47000000000E+01 0. -1.
         -5    1    1    2    0  502  0.40071421268E+02  0.82529281455E+02  0.10322573154E+03  0.13818264273E+03  0.47000000000E+01 0. -1.
        -11    1    3    3    0    0  0.39100062932E+02 -0.16097171553E+02 -0.26503598627E+02  0.49903653107E+02  0.00000000000E+00 0. -1.
         11    1    3    3    0    0 -0.38499552393E+02 -0.81431134289E+02 -0.27382509245E+02  0.94143756981E+02  0.00000000000E+00 0.  1.
<mgrwt>
<rscale>  0 0.15191858E+03</rscale>
<asrwt>0</asrwt>
<pdfrwt beam="2">  1        2 0.22256896E-01 0.15857130E+03</pdfrwt>
<pdfrwt beam="1">  1       -2 0.28096206E-01 0.15857130E+03</pdfrwt>
<totfact> 0.27540150E+03</totfact>
</mgrwt>
</event>
<event>
 7    1  0.1378058E-005  0.1278032E+03  0.7546771E-02  0.1246391E+00
          2   -1    0    0  501    0  0.00000000000E+00  0.00000000000E+00  0.36091133608E+03  0.36091133608E+03  0.00000000000E+00 0. -1.
         -2   -1    0    0    0  501 -0.00000000000E+00 -0.00000000000E+00 -0.48021029884E+02  0.48021029884E+02  0.00000000000E+00 0.  1.
         23    2    1    2    0    0 -0.22303032405E+02 -0.14521019310E+02  0.24953810772E+03  0.26628889901E+03  0.89063041017E+02 0.  0.
          5    1    1    2  502    0  0.28449556477E+02 -0.43014178635E+02 -0.60784420843E+01  0.52140524408E+02  0.47000000000E+01 0. -1.
         -5    1    1    2    0  502 -0.61465240726E+01  0.57535197945E+02  0.69430640556E+02  0.90502942542E+02  0.47000000000E+01 0. -1.
        -11    1    3    3    0    0 -0.39681043810E+02 -0.42569170457E+02  0.18279757325E+03  0.19183761961E+03  0.00000000000E+00 0.  1.
         11    1    3    3    0    0  0.17378011405E+02  0.28048151146E+02  0.66740534474E+02  0.74451279405E+02  0.00000000000E+00 0. -1.
<mgrwt>
<rscale>  0 0.11802492E+03</rscale>
<asrwt>0</asrwt>
<pdfrwt beam="1">  1        2 0.55524819E-01 0.12780320E+03</pdfrwt>
<pdfrwt beam="2">  1       -2 0.73878510E-02 0.12780320E+03</pdfrwt>
<totfact> 0.90534741E+03</totfact>
</mgrwt>
</event>
<event>
 7    1  0.1378058E-005  0.2504340E+03  0.7546771E-02  0.1115385E+00
         -1   -1    0    0    0  501 -0.00000000000E+00  0.00000000000E+00  0.10061850066E+03  0.10061850066E+03  0.00000000000E+00 0.  1.
          1   -1    0    0  501    0  0.00000000000E+00 -0.00000000000E+00 -0.62191789799E+03  0.62191789799E+03  0.00000000000E+00 0. -1.
         23    2    1    2    0    0  0.17953963954E+03  0.12189114212E+03 -0.33787270712E+03  0.41211326677E+03  0.92668472178E+02 0.  0.
          5    1    1    2  502    0 -0.19049839652E+03 -0.13431978927E+03 -0.17264563607E+03  0.29010351691E+03  0.47000000000E+01 0. -1.
         -5    1    1    2    0  502  0.10958756985E+02  0.12428647142E+02 -0.10781054138E+02  0.20319614975E+02  0.47000000000E+01 0. -1.
        -11    1    3    3    0    0  0.83060355136E+02  0.95823065482E+01 -0.16128013483E+03  0.18166487026E+03  0.00000000000E+00 0.  1.
         11    1    3    3    0    0  0.96479284404E+02  0.11230883558E+03 -0.17659257229E+03  0.23044839651E+03  0.00000000000E+00 0. -1.
<mgrwt>
<rscale>  0 0.24673554E+03</rscale>
<asrwt>0</asrwt>
<pdfrwt beam="2">  1        1 0.95679677E-01 0.25043396E+03</pdfrwt>
<pdfrwt beam="1">  1       -1 0.15479769E-01 0.25043396E+03</pdfrwt>
<totfact> 0.10234624E+03</totfact>
</mgrwt>
</event>
<event>
 7    1  0.1378058E-005  0.1294234E+03  0.7546771E-02  0.1242660E+00
         -1   -1    0    0    0  501 -0.00000000000E+00  0.00000000000E+00  0.51576258115E+03  0.51576258115E+03  0.00000000000E+00 0.  1.
          1   -1    0    0  501    0  0.00000000000E+00 -0.00000000000E+00 -0.25260824164E+02  0.25260824164E+02  0.00000000000E+00 0. -1.
         23    2    1    2    0    0  0.26524065321E+02 -0.20552950952E+02  0.17183445024E+03  0.19707678871E+03  0.90477801285E+02 0.  0.
          5    1    1    2  502    0 -0.34097469162E+02 -0.25950891695E+02  0.27861091102E+03  0.28192590502E+03  0.47000000000E+01 0. -1.
         -5    1    1    2    0  502  0.75734038411E+01  0.46503842647E+02  0.40056395728E+02  0.62020711584E+02  0.47000000000E+01 0. -1.
        -11    1    3    3    0    0  0.42091090765E+02 -0.41577136026E+02  0.68643121990E+02  0.90621169483E+02  0.00000000000E+00 0. -1.
         11    1    3    3    0    0 -0.15567025444E+02  0.21024185074E+02  0.10319132825E+03  0.10645561923E+03  0.00000000000E+00 0.  1.
<mgrwt>
<rscale>  0 0.12026551E+03</rscale>
<asrwt>0</asrwt>
<pdfrwt beam="2">  1        1 0.38862810E-02 0.12942342E+03</pdfrwt>
<pdfrwt beam="1">  1       -1 0.79348082E-01 0.12942342E+03</pdfrwt>
<totfact> 0.37586025E+03</totfact>
</mgrwt>
</event>
<event>
 7    1  0.1378058E-005  0.2618581E+03  0.7546771E-02  0.1129103E+00
         -2   -1    0    0    0  501 -0.00000000000E+00  0.00000000000E+00  0.93851005808E+03  0.93851005808E+03  0.00000000000E+00 0.  1.
          2   -1    0    0  501    0  0.00000000000E+00 -0.00000000000E+00 -0.52492329844E+02  0.52492329844E+02  0.00000000000E+00 0. -1.
         23    2    1    2    0    0  0.93997645993E+02  0.66874595459E+02  0.14999467685E+03  0.20978564715E+03  0.90575083213E+02 0.  0.
          5    1    1    2  502    0 -0.10712600554E+03  0.61971540666E+02  0.26201130069E+03  0.28980763379E+03  0.47000000000E+01 0. -1.
         -5    1    1    2    0  502  0.13128359551E+02 -0.12884613612E+03  0.47401175069E+03  0.49140910697E+03  0.47000000000E+01 0.  1.
        -11    1    3    3    0    0 -0.14770767779E+01  0.32857351527E+02  0.80319356440E+02  0.86792778064E+02  0.00000000000E+00 0.  1.
         11    1    3    3    0    0  0.95474722771E+02  0.34017243932E+02  0.69675320408E+02  0.12299286909E+03  0.00000000000E+00 0. -1.
<mgrwt>
<rscale>  0 0.22653413E+03</rscale>
<asrwt>0</asrwt>
<pdfrwt beam="2">  1        2 0.80757438E-02 0.26185810E+03</pdfrwt>
<pdfrwt beam="1">  1       -2 0.14438615E+00 0.26185810E+03</pdfrwt>
<totfact> 0.29385154E+02</totfact>
</mgrwt>
</event>
<event>
 7    1  0.1378058E-005  0.1369758E+03  0.7546771E-02  0.1229354E+00
          2   -1    0    0  501    0  0.00000000000E+00  0.00000000000E+00  0.14242098291E+02  0.14242098291E+02  0.00000000000E+00 0. -1.
         -2   -1    0    0    0  501 -0.00000000000E+00 -0.00000000000E+00 -0.13488325620E+04  0.13488325620E+04  0.00000000000E+00 0.  1.
         23    2    1    2    0    0  0.49592129140E+02 -0.26034556158E+02 -0.28119909613E+03  0.30081492124E+03  0.90991800660E+02 0.  0.
          5    1    1    2  502    0 -0.48356013812E+02 -0.42917849456E+02 -0.62152072244E+03  0.62489226616E+03  0.47000000000E+01 0.  1.
         -5    1    1    2    0  502 -0.12361153275E+01  0.68952405614E+02 -0.43187064516E+03  0.43736747293E+03  0.47000000000E+01 0.  1.
        -11    1    3    3    0    0  0.46534304548E+02 -0.14020764547E+02 -0.28398102436E+03  0.28810978036E+03  0.00000000000E+00 0.  1.
         11    1    3    3    0    0  0.30578245917E+01 -0.12013791611E+02  0.27819282336E+01  0.12705140881E+02  0.00000000000E+00 0. -1.
<mgrwt>
<rscale>  0 0.12872873E+03</rscale>
<asrwt>0</asrwt>
<pdfrwt beam="1">  1        2 0.21910910E-02 0.13697584E+03</pdfrwt>
<pdfrwt beam="2">  1       -2 0.20751281E+00 0.13697584E+03</pdfrwt>
<totfact> 0.60950584E+02</totfact>
</mgrwt>
</event>
<event>
 7    1  0.1378058E-005  0.1506847E+03  0.7546771E-02  0.1208703E+00
         -1   -1    0    0    0  501 -0.00000000000E+00  0.00000000000E+00  0.20646192452E+02  0.20646192452E+02  0.00000000000E+00 0.  1.
          1   -1    0    0  501    0  0.00000000000E+00 -0.00000000000E+00 -0.93102692120E+03  0.93102692120E+03  0.00000000000E+00 0. -1.
         23    2    1    2    0    0  0.15168835141E+02  0.82760724516E+02 -0.34590724517E+03  0.36743326151E+03  0.90972239293E+02 0.  0.
          5    1    1    2  502    0 -0.42592304949E+02 -0.10592546106E+03 -0.41486323709E+03  0.43031140263E+03  0.47000000000E+01 0. -1.
         -5    1    1    2    0  502  0.27423469808E+02  0.23164736546E+02 -0.14961024649E+03  0.15392844951E+03  0.47000000000E+01 0. -1.
        -11    1    3    3    0    0  0.45261488823E+02  0.27979016237E+02 -0.95297349060E+02  0.10914674735E+03  0.00000000000E+00 0.  1.
         11    1    3    3    0    0 -0.30092653682E+02  0.54781708279E+02 -0.25060989611E+03  0.25828651416E+03  0.00000000000E+00 0. -1.
<mgrwt>
<rscale>  0 0.14349426E+03</rscale>
<asrwt>0</asrwt>
<pdfrwt beam="2">  1        1 0.14323491E+00 0.15068474E+03</pdfrwt>
<pdfrwt beam="1">  1       -1 0.31763374E-02 0.15068474E+03</pdfrwt>
<totfact> 0.61084678E+03</totfact>
</mgrwt>
</event>
<event>
 7    1  0.1378058E-005  0.2827990E+03  0.7546771E-02  0.1095764E+00
          2   -1    0    0  501    0  0.00000000000E+00  0.00000000000E+00  0.95804098058E+03  0.95804098058E+03  0.00000000000E+00 0. -1.
         -2   -1    0    0    0  501 -0.00000000000E+00 -0.00000000000E+00 -0.25269833024E+03  0.25269833024E+03  0.00000000000E+00 0.  1.
         23    2    1    2    0    0 -0.16668704655E+03 -0.19121929040E+03  0.85061252757E+03  0.89281066992E+03  0.96019954999E+02 0.  0.
          5    1    1    2  502    0  0.15816528017E+03  0.20613692353E+03 -0.14925124670E+03  0.29967767974E+03  0.47000000000E+01 0. -1.
         -5    1    1    2    0  502  0.85217663818E+01 -0.14917633132E+02  0.39813694688E+01  0.18250961163E+02  0.47000000000E+01 0. -1.
        -11    1    3    3    0    0 -0.12655999589E+03 -0.11431820678E+03  0.41555687503E+03  0.44919216527E+03  0.00000000000E+00 0.  1.
         11    1    3    3    0    0 -0.40127050659E+02 -0.76901083625E+02  0.43505565254E+03  0.44361850465E+03  0.00000000000E+00 0. -1.
<mgrwt>
<rscale>  0 0.27986297E+03</rscale>
<asrwt>0</asrwt>
<pdfrwt beam="1">  1        2 0.14739092E+00 0.28279902E+03</pdfrwt>
<pdfrwt beam="2">  1       -2 0.38876667E-01 0.28279902E+03</pdfrwt>
<totfact> 0.17703067E+02</totfact>
</mgrwt>
</event>
<event>
 7    1  0.1378058E-005  0.1283573E+03  0.7546771E-02  0.1244227E+00
         -1   -1    0    0    0  501 -0.00000000000E+00  0.00000000000E+00  0.35575616487E+03  0.35575616487E+03  0.00000000000E+00 0.  1.
          1   -1    0    0  501    0  0.00000000000E+00 -0.00000000000E+00 -0.37862698569E+02  0.37862698569E+02  0.00000000000E+00 0. -1.
         23    2    1    2    0    0 -0.20111855362E+02  0.21225394962E+02  0.86972805922E+02  0.12942205489E+03  0.91273189951E+02 0.  0.
          5    1    1    2  502    0  0.24057963268E+02  0.15350360003E+02 -0.13789511458E+01  0.28955321706E+02  0.47000000000E+01 0.  1.
         -5    1    1    2    0  502 -0.39461079058E+01 -0.36575754965E+02  0.23229961152E+03  0.23524148684E+03  0.47000000000E+01 0.  1.
        -11    1    3    3    0    0  0.70550967804E+01  0.15647594357E+02 -0.15582678984E+02  0.23182784217E+02  0.00000000000E+00 0. -1.
         11    1    3    3    0    0 -0.27166952143E+02  0.55778006057E+01  0.10255548491E+03  0.10623927067E+03  0.00000000000E+00 0.  1.
<mgrwt>
<rscale>  0 0.11931776E+03</rscale>
<asrwt>0</asrwt>
<pdfrwt beam="2">  1        1 0.58250308E-02 0.12835732E+03</pdfrwt>
<pdfrwt beam="1">  1       -1 0.54731715E-01 0.12835732E+03</pdfrwt>
<totfact> 0.44459903E+03</totfact>
</mgrwt>
</event>
<event>
 7    1  0.1378058E-005  0.1684338E+03  0.7546771E-02  0.1182978E+00
          1   -1    0    0  501    0  0.00000000000E+00  0.00000000000E+00  0.70946167042E+03  0.70946167042E+03  0.00000000000E+00 0. -1.
         -1   -1    0    0    0  501 -0.00000000000E+00 -0.00000000000E+00 -0.46864025311E+02  0.46864025311E+02  0.00000000000E+00 0.  1.
         23    2    1    2    0    0  0.25114984009E+02  0.11009331717E+03  0.49413891244E+03  0.51810671801E+03  0.10728469393E+03 0.  0.
          5    1    1    2  502    0 -0.30675249882E+02 -0.11756091027E+02  0.12697823755E+03  0.13124305484E+03  0.47000000000E+01 0.  1.
         -5    1    1    2    0  502  0.55602658732E+01 -0.98337226140E+02  0.41480495116E+02  0.10697592288E+03  0.47000000000E+01 0.  1.
        -11    1    3    3    0    0 -0.13864585402E+02  0.11459663696E+03  0.34040912897E+03  0.35944817570E+03  0.00000000000E+00 0.  1.
         11    1    3    3    0    0  0.38979569411E+02 -0.45033197927E+01  0.15372978347E+03  0.15865854230E+03  0.00000000000E+00 0. -1.
<mgrwt>
<rscale>  0 0.16517190E+03</rscale>
<asrwt>0</asrwt>
<pdfrwt beam="1">  1        1 0.10914794E+00 0.16843378E+03</pdfrwt>
<pdfrwt beam="2">  1       -1 0.72098506E-02 0.16843378E+03</pdfrwt>
<totfact> 0.27539874E+03</totfact>
</mgrwt>
</event>
<event>
 7    1  0.1378058E-005  0.2178254E+03  0.7546771E-02  0.1140569E+00
         -2   -1    0    0    0  501 -0.00000000000E+00  0.00000000000E+00  0.80747419388E+02  0.80747419388E+02  0.00000000000E+00 0.  1.
          2   -1    0    0  501    0  0.00000000000E+00 -0.00000000000E+00 -0.67122503395E+03  0.67122503395E+03  0.00000000000E+00 0. -1.
         23    2    1    2    0    0 -0.17641036493E+03 -0.26510717302E+02 -0.45830140289E+03  0.49718147715E+03  0.72978149788E+02 0.  0.
          5    1    1    2  502    0  0.93682269417E+02 -0.33635045656E+02 -0.11293003772E+03  0.15060865618E+03  0.47000000000E+01 0. -1.
         -5    1    1    2    0  502  0.82728095516E+02  0.60145762958E+02 -0.19246173962E+02  0.10418232001E+03  0.47000000000E+01 0. -1.
        -11    1    3    3    0    0 -0.87539706273E+02  0.18740614007E+02 -0.17021070582E+03  0.19231769331E+03  0.00000000000E+00 0.  1.
         11    1    3    3    0    0 -0.88870658660E+02 -0.45251331309E+02 -0.28809069707E+03  0.30486378384E+03  0.00000000000E+00 0. -1.
<mgrwt>
<rscale>  0 0.21126380E+03</rscale>
<asrwt>0</asrwt>
<pdfrwt beam="2">  1        2 0.10326539E+00 0.21782537E+03</pdfrwt>
<pdfrwt beam="1">  1       -2 0.12422680E-01 0.21782537E+03</pdfrwt>
<totfact> 0.20524598E+03</totfact>
</mgrwt>
</event>
<event>
 7    1  0.1378058E-005  0.1300193E+03  0.7546771E-02  0.1241959E+00
         -1   -1    0    0    0  501 -0.00000000000E+00  0.00000000000E+00  0.55993750648E+02  0.55993750648E+02  0.00000000000E+00 0.  1.
          1   -1    0    0  501    0  0.00000000000E+00 -0.00000000000E+00 -0.23037500702E+03  0.23037500702E+03  0.00000000000E+00 0. -1.
         23    2    1    2    0    0  0.53752734297E+01 -0.35462970544E+02 -0.84617399119E+02  0.12837329843E+03  0.89627471638E+02 0.  0.
          5    1    1    2  502    0  0.23123934826E+02  0.78724571118E+00  0.25175153472E+02  0.34513974996E+02  0.47000000000E+01 0.  1.
         -5    1    1    2    0  502 -0.28499208256E+02  0.34675724833E+02 -0.11493901072E+03  0.12348148424E+03  0.47000000000E+01 0.  1.
        -11    1    3    3    0    0 -0.15495829671E+01 -0.15718394957E+02  0.17824974444E+02  0.23815937129E+02  0.00000000000E+00 0.  1.
         11    1    3    3    0    0  0.69248563969E+01 -0.19744575588E+02 -0.10244237356E+03  0.10455736130E+03  0.00000000000E+00 0. -1.
<mgrwt>
<rscale>  0 0.12069256E+03</rscale>
<asrwt>0</asrwt>
<pdfrwt beam="2">  1        1 0.35442309E-01 0.13001929E+03</pdfrwt>
<pdfrwt beam="1">  1       -1 0.86144230E-02 0.13001929E+03</pdfrwt>
<totfact> 0.88726752E+03</totfact>
</mgrwt>
</event>
<event>
 7    1  0.1378058E-005  0.1270509E+03  0.7546771E-02  0.1246773E+00
          1   -1    0    0  501    0  0.00000000000E+00  0.00000000000E+00  0.36709124304E+03  0.36709124304E+03  0.00000000000E+00 0. -1.
         -1   -1    0    0    0  501 -0.00000000000E+00 -0.00000000000E+00 -0.35816978140E+02  0.35816978140E+02  0.00000000000E+00 0.  1.
         23    2    1    2    0    0  0.98775404182E-01  0.22724075197E+02  0.19597757213E+03  0.21730885300E+03  0.91101786274E+02 0.  0.
          5    1    1    2  502    0 -0.50568555490E+02  0.21588838460E+01  0.15469286283E+02  0.53134060658E+02  0.47000000000E+01 0.  1.
         -5    1    1    2    0  502  0.50469780086E+02 -0.24882959043E+02  0.11982740649E+03  0.13246530752E+03  0.47000000000E+01 0.  1.
        -11    1    3    3    0    0 -0.27247977050E+02  0.12373687347E+01  0.11532972314E+02  0.29614063975E+02  0.00000000000E+00 0.  1.
         11    1    3    3    0    0  0.27346752454E+02  0.21486706462E+02  0.18444459982E+03  0.18769478902E+03  0.00000000000E+00 0. -1.
<mgrwt>
<rscale>  0 0.11779906E+03</rscale>
<asrwt>0</asrwt>
<pdfrwt beam="1">  1        1 0.56475573E-01 0.12705090E+03</pdfrwt>
<pdfrwt beam="2">  1       -1 0.55103046E-02 0.12705090E+03</pdfrwt>
<totfact> 0.97117147E+03</totfact>
</mgrwt>
</event>
<event>
 7    1  0.1378058E-005  0.1984853E+03  0.7546771E-02  0.1151023E+00
         -1   -1    0    0    0  501 -0.00000000000E+00  0.00000000000E+00  0.12051543240E+04  0.12051543240E+04  0.00000000000E+00 0.  1.
          1   -1    0    0  501    0  0.00000000000E+00 -0.00000000000E+00 -0.81724799169E+01  0.81724799169E+01  0.00000000000E+00 0. -1.
         23    2    1    2    0    0  0.21980469228E+02  0.37329483944E+01  0.26689626630E+03  0.27461469324E+03  0.60683909284E+02 0.  0.
          5    1    1    2  502    0 -0.62907319342E+02 -0.33745643909E+02  0.65940652458E+03  0.66327607673E+03  0.47000000000E+01 0. -1.
         -5    1    1    2    0  502  0.40926850115E+02  0.30012695515E+02  0.27067905322E+03  0.27543603396E+03  0.47000000000E+01 0. -1.
        -11    1    3    3    0    0 -0.18998790730E+02  0.11765241797E+02  0.76757538856E+02  0.79944322719E+02  0.00000000000E+00 0.  1.
         11    1    3    3    0    0  0.40979259957E+02 -0.80322934029E+01  0.19013872744E+03  0.19467037052E+03  0.00000000000E+00 0. -1.
<mgrwt>
<rscale>  0 0.19848526E+03</rscale>
<asrwt>0</asrwt>
<pdfrwt beam="2">  1        1 0.12573056E-02 0.19848526E+03</pdfrwt>
<pdfrwt beam="1">  1       -1 0.18540822E+00 0.19848526E+03</pdfrwt>
<totfact> 0.24206825E+03</totfact>
</mgrwt>
</event>
<event>
 7    1  0.1378058E-005  0.2276854E+03  0.7546771E-02  0.1128280E+00
          3   -1    0    0  501    0  0.00000000000E+00  0.00000000000E+00  0.76791221233E+02  0.76791221233E+02  0.00000000000E+00 0. -1.
         -3   -1    0    0    0  501 -0.00000000000E+00 -0.00000000000E+00 -0.16877137564E+03  0.16877137564E+03  0.00000000000E+00 0.  1.
         23    2    1    2    0    0  0.11147854511E+02  0.28002715730E+02 -0.19575101209E+02  0.97994581315E+02  0.91166477563E+02 0.  0.
          5    1    1    2  502    0 -0.48826273688E+02 -0.50026428699E+02 -0.76193712910E+02  0.10350951868E+03  0.47000000000E+01 0. -1.
         -5    1    1    2    0  502  0.37678419177E+02  0.22023712970E+02  0.37886597110E+01  0.44058496877E+02  0.47000000000E+01 0. -1.
        -11    1    3    3    0    0  0.30519931435E+02 -0.41140185993E+01  0.25052361901E+02  0.39699020147E+02  0.00000000000E+00 0. -1.
         11    1    3    3    0    0 -0.19372076923E+02  0.32116734329E+02 -0.44627463110E+02  0.58295561168E+02  0.00000000000E+00 0.  1.
<mgrwt>
<rscale>  0 0.22768540E+03</rscale>
<asrwt>0</asrwt>
<pdfrwt beam="1">  1        3 0.11814034E-01 0.22768540E+03</pdfrwt>
<pdfrwt beam="2">  1       -3 0.25964827E-01 0.22768540E+03</pdfrwt>
<totfact> 0.19457768E+03</totfact>
</mgrwt>
</event>
<event>
 7    1  0.1378058E-005  0.1382973E+03  0.7546771E-02  0.1225780E+00
          1   -1    0    0  501    0  0.00000000000E+00  0.00000000000E+00  0.90285181521E+02  0.90285181521E+02  0.00000000000E+00 0. -1.
         -1   -1    0    0    0  501 -0.00000000000E+00 -0.00000000000E+00 -0.17398631131E+03  0.17398631131E+03  0.00000000000E+00 0.  1.
         23    2    1    2    0    0 -0.57739099607E+02 -0.12960263841E+02 -0.28586105955E+02  0.11539632850E+03  0.94854494441E+02 0.  0.
          5    1    1    2  502    0  0.71614171039E+02  0.56382115155E+02 -0.45790348117E+02  0.10210963903E+03  0.47000000000E+01 0.  1.
         -5    1    1    2    0  502 -0.13875071432E+02 -0.43421851315E+02 -0.93246757154E+01  0.46765525294E+02  0.47000000000E+01 0.  1.
        -11    1    3    3    0    0 -0.49326518889E+01 -0.45287229766E+02 -0.28011214788E+02  0.53477961708E+02  0.00000000000E+00 0.  1.
         11    1    3    3    0    0 -0.52806447718E+02  0.32326965925E+02 -0.57489116673E+00  0.61918366794E+02  0.00000000000E+00 0. -1.
<mgrwt>
<rscale>  0 0.13113553E+03</rscale>
<asrwt>0</asrwt>
<pdfrwt beam="1">  1        1 0.13890028E-01 0.13829732E+03</pdfrwt>
<pdfrwt beam="2">  1       -1 0.26767124E-01 0.13829732E+03</pdfrwt>
<totfact> 0.48945227E+03</totfact>
</mgrwt>
</event>
<event>
 7    1  0.1378058E-005  0.1388594E+03  0.7546771E-02  0.1225324E+00
          2   -1    0    0  501    0  0.00000000000E+00  0.00000000000E+00  0.74381630324E+02  0.74381630324E+02  0.00000000000E+00 0. -1.
         -2   -1    0    0    0  501 -0.00000000000E+00 -0.00000000000E+00 -0.21473912982E+03  0.21473912982E+03  0.00000000000E+00 0.  1.
         23    2    1    2    0    0 -0.23111195890E+02  0.55894904033E+02 -0.82431563783E+02  0.13866361508E+03  0.93671061519E+02 0.  0.
          5    1    1    2  502    0 -0.17175012515E+02 -0.86329646209E+02 -0.36214846760E+02  0.95296348279E+02  0.47000000000E+01 0.  1.
         -5    1    1    2    0  502  0.40286208405E+02  0.30434742175E+02 -0.21711088954E+02  0.55160796790E+02  0.47000000000E+01 0.  1.
        -11    1    3    3    0    0 -0.48638442837E+02  0.58000985424E+02 -0.32162389170E+02  0.82244949444E+02  0.00000000000E+00 0. -1.
         11    1    3    3    0    0  0.25527246948E+02 -0.21060813910E+01 -0.50269174612E+02  0.56418665633E+02  0.00000000000E+00 0.  1.
<mgrwt>
<rscale>  0 0.13144737E+03</rscale>
<asrwt>0</asrwt>
<pdfrwt beam="1">  1        2 0.11443328E-01 0.13885942E+03</pdfrwt>
<pdfrwt beam="2">  1       -2 0.33036789E-01 0.13885942E+03</pdfrwt>
<totfact> 0.44284588E+03</totfact>
</mgrwt>
</event>
<event>
 7    1  0.1378058E-005  0.1667421E+03  0.7546771E-02  0.1188259E+00
         -2   -1    0    0    0  501 -0.00000000000E+00  0.00000000000E+00  0.11700974904E+03  0.11700974904E+03  0.00000000000E+00 0.  1.
          2   -1    0    0  501    0  0.00000000000E+00 -0.00000000000E+00 -0.21106622566E+03  0.21106622566E+03  0.00000000000E+00 0. -1.
         23    2    1    2    0    0 -0.10473320778E+03  0.34753383419E+02 -0.14957804777E+02  0.14352377563E+03  0.90545545325E+02 0.  0.
          5    1    1    2  502    0  0.12843578036E+03 -0.48526219025E+02 -0.74759872697E+02  0.15640227676E+03  0.47000000000E+01 0. -1.
         -5    1    1    2    0  502 -0.23702572584E+02  0.13772835606E+02 -0.43387991453E+01  0.28149922305E+02  0.47000000000E+01 0. -1.
        -11    1    3    3    0    0 -0.83926943221E+02 -0.71058982472E+01  0.18252794252E+02  0.86182307270E+02  0.00000000000E+00 0.  1.
         11    1    3    3    0    0 -0.20806264556E+02  0.41859281666E+02 -0.33210599029E+02  0.57341468365E+02  0.00000000000E+00 0. -1.
<mgrwt>
<rscale>  0 0.16038804E+03</rscale>
<asrwt>0</asrwt>
<pdfrwt beam="2">  1        2 0.32471727E-01 0.16674206E+03</pdfrwt>
<pdfrwt beam="1">  1       -2 0.18001500E-01 0.16674206E+03</pdfrwt>
<totfact> 0.39304811E+03</totfact>
</mgrwt>
</event>
<event>
 7    1  0.1378058E-005  0.1672349E+03  0.7546771E-02  0.1187256E+00
         -1   -1    0    0    0  501 -0.00000000000E+00  0.00000000000E+00  0.60035425073E+03  0.60035425073E+03  0.00000000000E+00 0.  1.
          1   -1    0    0  501    0  0.00000000000E+00 -0.00000000000E+00 -0.53088821189E+02  0.53088821189E+02  0.00000000000E+00 0. -1.
         23    2    1    2    0    0 -0.94687009713E+02 -0.58131868138E+02  0.99809957596E+02  0.17575706063E+03  0.92647573231E+02 0.  0.
          5    1    1    2  502    0  0.36853589862E+02  0.89451215087E+02  0.21028115995E+03  0.23151665858E+03  0.47000000000E+01 0. -1.
         -5    1    1    2    0  502  0.57833419851E+02 -0.31319346949E+02  0.23717431199E+03  0.24616935271E+03  0.47000000000E+01 0. -1.
        -11    1    3    3    0    0 -0.32569350013E+02 -0.66309474282E+01 -0.14148601008E+02  0.36123606334E+02  0.00000000000E+00 0. -1.
         11    1    3    3    0    0 -0.62117659700E+02 -0.51500920710E+02  0.11395855860E+03  0.13963345430E+03  0.00000000000E+00 0.  1.
<mgrwt>
<rscale>  0 0.16128262E+03</rscale>
<asrwt>0</asrwt>
<pdfrwt beam="2">  1        1 0.81675114E-02 0.16723494E+03</pdfrwt>
<pdfrwt beam="1">  1       -1 0.92362188E-01 0.16723494E+03</pdfrwt>
<totfact> 0.10047895E+03</totfact>
</mgrwt>
</event>
<event>
 7    1  0.1378058E-005  0.1547871E+03  0.7546771E-02  0.1203231E+00
          2   -1    0    0  501    0  0.00000000000E+00  0.00000000000E+00  0.16292716203E+02  0.16292716203E+02  0.00000000000E+00 0.  1.
         -2   -1    0    0    0  501 -0.00000000000E+00 -0.00000000000E+00 -0.14222391738E+04  0.14222391738E+04  0.00000000000E+00 0. -1.
         23    2    1    2    0    0  0.90815590776E+02 -0.88560170067E+01 -0.38476858016E+03  0.40568955459E+03  0.90615969142E+02 0.  0.
          5    1    1    2  502    0 -0.10789185108E+03  0.41610783698E+02 -0.83448316774E+03  0.84247038885E+03  0.47000000000E+01 0.  1.
         -5    1    1    2    0  502  0.17076260300E+02 -0.32754766691E+02 -0.18669470967E+03  0.19037194653E+03  0.47000000000E+01 0.  1.
        -11    1    3    3    0    0  0.80816717575E+02 -0.43934149605E+02 -0.28371934842E+03  0.29825864616E+03  0.00000000000E+00 0.  1.
         11    1    3    3    0    0  0.99988732007E+01  0.35078132598E+02 -0.10104923173E+03  0.10743090843E+03  0.00000000000E+00 0. -1.
<mgrwt>
<rscale>  0 0.14777759E+03</rscale>
<asrwt>0</asrwt>
<pdfrwt beam="1">  1        2 0.25065722E-02 0.15478706E+03</pdfrwt>
<pdfrwt beam="2">  1       -2 0.21880599E+00 0.15478706E+03</pdfrwt>
<totfact> 0.43548002E+02</totfact>
</mgrwt>
</event>
<event>
 7    1  0.1378058E-005  0.4126936E+03  0.7546771E-02  0.1040199E+00
         -1   -1    0    0    0  501 -0.00000000000E+00  0.00000000000E+00  0.87507383547E+03  0.87507383547E+03  0.00000000000E+00 0.  1.
          1   -1    0    0  501    0  0.00000000000E+00 -0.00000000000E+00 -0.19204017408E+03  0.19204017408E+03  0.00000000000E+00 0. -1.
         23    2    1    2    0    0 -0.38588619851E+03 -0.76038843132E+02  0.29124268249E+03  0.49806550300E+03  0.92503412382E+02 0.  0.
          5    1    1    2  502    0  0.96352569166E+02  0.72805714822E+02  0.14329203887E+03  0.18745449608E+03  0.47000000000E+01 0. -1.
         -5    1    1    2    0  502  0.28953362935E+03  0.32331283099E+01  0.24849894002E+03  0.38159401048E+03  0.47000000000E+01 0. -1.
        -11    1    3    3    0    0 -0.35813349888E+03 -0.90386608639E+02  0.28418281155E+03  0.46603563429E+03  0.00000000000E+00 0.  1.
         11    1    3    3    0    0 -0.27752699629E+02  0.14347765507E+02  0.70598709367E+01  0.32029868707E+02  0.00000000000E+00 0. -1.
<mgrwt>
<rscale>  0 0.41051257E+03</rscale>
<asrwt>0</asrwt>
<pdfrwt beam="2">  1        1 0.29544643E-01 0.41269363E+03</pdfrwt>
<pdfrwt beam="1">  1       -1 0.13462674E+00 0.41269363E+03</pdfrwt>
<totfact> 0.76191064E+01</totfact>
</mgrwt>
</event>
<event>
 7    1  0.1378058E-005  0.1355338E+03  0.7546771E-02  0.1231221E+00
         -1   -1    0    0    0  501 -0.00000000000E+00  0.00000000000E+00  0.73921655977E+02  0.73921655977E+02  0.00000000000E+00 0.  1.
          1   -1    0    0  501    0  0.00000000000E+00 -0.00000000000E+00 -0.19875724254E+03  0.19875724254E+03  0.00000000000E+00 0. -1.
         23    2    1    2    0    0  0.52354462065E+02 -0.18839899895E+01 -0.44131281229E+02  0.11493674927E+03  0.92294892775E+02 0.  0.
          5    1    1    2  502    0 -0.82334103563E+02  0.96366816374E+01 -0.92477751634E+02  0.12428191658E+03  0.47000000000E+01 0.  1.
         -5    1    1    2    0  502  0.29979641498E+02 -0.77526916479E+01  0.11773446302E+02  0.33460232665E+02  0.47000000000E+01 0.  1.
        -11    1    3    3    0    0  0.30206546854E+02 -0.89794538238E+01  0.26123320541E+02  0.40932797851E+02  0.00000000000E+00 0.  1.
         11    1    3    3    0    0  0.22147915211E+02  0.70954638343E+01 -0.70254601770E+02  0.74003951415E+02  0.00000000000E+00 0. -1.
<mgrwt>
<rscale>  0 0.12749461E+03</rscale>
<asrwt>0</asrwt>
<pdfrwt beam="2">  1        1 0.30578037E-01 0.13553376E+03</pdfrwt>
<pdfrwt beam="1">  1       -1 0.11372563E-01 0.13553376E+03</pdfrwt>
<totfact> 0.69966831E+03</totfact>
</mgrwt>
</event>
<event>
 7    1  0.1378058E-005  0.2106901E+03  0.7546771E-02  0.1153443E+00
         -1   -1    0    0    0  501 -0.00000000000E+00  0.00000000000E+00  0.32737108252E+02  0.32737108252E+02  0.00000000000E+00 0.  1.
          1   -1    0    0  501    0  0.00000000000E+00 -0.00000000000E+00 -0.10529593207E+04  0.10529593207E+04  0.00000000000E+00 0. -1.
         23    2    1    2    0    0 -0.12384008390E+03 -0.33930283956E+02 -0.51438529127E+03  0.53773537602E+03  0.89885906578E+02 0.  0.
          5    1    1    2  502    0 -0.35211565777E+02  0.45958719226E+01 -0.18720208663E+03  0.19059823620E+03  0.47000000000E+01 0. -1.
         -5    1    1    2    0  502  0.15905164968E+03  0.29334412033E+02 -0.31863483455E+03  0.35736281674E+03  0.47000000000E+01 0.  1.
        -11    1    3    3    0    0 -0.41622087086E+02 -0.43058340106E+02 -0.33346765908E+03  0.33880244751E+03  0.00000000000E+00 0. -1.
         11    1    3    3    0    0 -0.82217996818E+02  0.91280561499E+01 -0.18091763219E+03  0.19893292851E+03  0.00000000000E+00 0.  1.
<mgrwt>
<rscale>  0 0.19567141E+03</rscale>
<asrwt>0</asrwt>
<pdfrwt beam="2">  1        1 0.16199372E+00 0.21069012E+03</pdfrwt>
<pdfrwt beam="1">  1       -1 0.50364788E-02 0.21069012E+03</pdfrwt>
<totfact> 0.25325587E+03</totfact>
</mgrwt>
</event>
<event>
 7    1  0.1378058E-005  0.1491511E+03  0.7546771E-02  0.1211240E+00
          4   -1    0    0  501    0  0.00000000000E+00  0.00000000000E+00  0.36409355856E+02  0.36409355856E+02  0.00000000000E+00 0. -1.
         -4   -1    0    0    0  501 -0.00000000000E+00 -0.00000000000E+00 -0.50984702133E+03  0.50984702133E+03  0.00000000000E+00 0.  1.
         23    2    1    2    0    0 -0.72290715398E+02  0.37293983569E+02 -0.17727298920E+03  0.21465484401E+03  0.89633702456E+02 0.  0.
          5    1    1    2  502    0  0.72810002651E+02  0.18063652328E+02 -0.24428121290E+03  0.25558363210E+03  0.47000000000E+01 0. -1.
         -5    1    1    2    0  502 -0.51928725288E+00 -0.55357635898E+02 -0.51883463372E+02  0.76017901069E+02  0.47000000000E+01 0. -1.
        -11    1    3    3    0    0  0.17055325059E+02  0.13916870760E+02 -0.11363368955E+02  0.24772758398E+02  0.00000000000E+00 0. -1.
         11    1    3    3    0    0 -0.89346040457E+02  0.23377112810E+02 -0.16590962024E+03  0.18988208561E+03  0.00000000000E+00 0.  1.
<mgrwt>
<rscale>  0 0.14156415E+03</rscale>
<asrwt>0</asrwt>
<pdfrwt beam="1">  1        4 0.56014396E-02 0.14915114E+03</pdfrwt>
<pdfrwt beam="2">  1       -4 0.78437999E-01 0.14915114E+03</pdfrwt>
<totfact> 0.49876816E+02</totfact>
</mgrwt>
</event>
<event>
 7    1  0.1378058E-005  0.1339325E+03  0.7546771E-02  0.1235786E+00
         -1   -1    0    0    0  501 -0.00000000000E+00  0.00000000000E+00  0.74693950061E+02  0.74693950061E+02  0.00000000000E+00 0.  1.
          1   -1    0    0  501    0  0.00000000000E+00 -0.00000000000E+00 -0.18839117858E+03  0.18839117858E+03  0.00000000000E+00 0. -1.
         23    2    1    2    0    0 -0.38393343127E+02 -0.28946282502E+02 -0.70090524992E+02  0.12223252064E+03  0.87841740320E+02 0.  0.
          5    1    1    2  502    0  0.13002397520E+00  0.73556293501E+02 -0.33785134767E+02  0.81080642271E+02  0.47000000000E+01 0.  1.
         -5    1    1    2    0  502  0.38263319152E+02 -0.44610010999E+02 -0.98215687598E+01  0.59771965726E+02  0.47000000000E+01 0.  1.
        -11    1    3    3    0    0  0.36779283781E+01  0.20987051990E+02 -0.49301553917E+02  0.53708721145E+02  0.00000000000E+00 0.  1.
         11    1    3    3    0    0 -0.42071271505E+02 -0.49933334492E+02 -0.20788971075E+02  0.68523799500E+02  0.00000000000E+00 0. -1.
<mgrwt>
<rscale>  0 0.12454229E+03</rscale>
<asrwt>0</asrwt>
<pdfrwt beam="2">  1        1 0.28983258E-01 0.13393249E+03</pdfrwt>
<pdfrwt beam="1">  1       -1 0.11491377E-01 0.13393249E+03</pdfrwt>
<totfact> 0.73541691E+03</totfact>
</mgrwt>
</event>
<event>
 7    1  0.1378058E-005  0.3293201E+03  0.7546771E-02  0.1072590E+00
         -2   -1    0    0    0  501 -0.00000000000E+00  0.00000000000E+00  0.51817346452E+03  0.51817346452E+03  0.00000000000E+00 0.  1.
          2   -1    0    0  501    0  0.00000000000E+00 -0.00000000000E+00 -0.20312874628E+03  0.20312874628E+03  0.00000000000E+00 0. -1.
         23    2    1    2    0    0  0.14362759168E+03 -0.26866743756E+03  0.16822997814E+03  0.36073836785E+03  0.94972455975E+02 0.  0.
          5    1    1    2  502    0 -0.85900988878E+02  0.14561575513E+03  0.14772359836E+03  0.22456019136E+03  0.47000000000E+01 0. -1.
         -5    1    1    2    0  502 -0.57726602804E+02  0.12305168244E+03 -0.90885825693E+00  0.13600365159E+03  0.47000000000E+01 0. -1.
        -11    1    3    3    0    0  0.61745536417E+02 -0.20454557477E+03  0.96781770500E+02  0.23455940511E+03  0.00000000000E+00 0.  1.
         11    1    3    3    0    0  0.81882055265E+02 -0.64121862795E+02  0.71448207637E+02  0.12617896274E+03  0.00000000000E+00 0. -1.
<mgrwt>
<rscale>  0 0.32673720E+03</rscale>
<asrwt>0</asrwt>
<pdfrwt beam="2">  1        2 0.31250577E-01 0.32932008E+03</pdfrwt>
<pdfrwt beam="1">  1       -2 0.79718994E-01 0.32932008E+03</pdfrwt>
<totfact> 0.24146213E+02</totfact>
</mgrwt>
</event>
<event>
 7    1  0.1378058E-005  0.1701347E+03  0.7546771E-02  0.1184444E+00
          2   -1    0    0  501    0  0.00000000000E+00  0.00000000000E+00  0.97799637763E+03  0.97799637763E+03  0.00000000000E+00 0. -1.
         -2   -1    0    0    0  501 -0.00000000000E+00 -0.00000000000E+00 -0.28168609311E+02  0.28168609311E+02  0.00000000000E+00 0.  1.
         23    2    1    2    0    0  0.41084510375E+02  0.10785488091E+03  0.59416057452E+03  0.61189990308E+03  0.89855944348E+02 0.  0.
          5    1    1    2  502    0 -0.55105155107E+02 -0.11800106568E+03  0.20758491540E+03  0.24510082971E+03  0.47000000000E+01 0. -1.
         -5    1    1    2    0  502  0.14020644731E+02  0.10146184774E+02  0.14808227839E+03  0.14916425416E+03  0.47000000000E+01 0. -1.
        -11    1    3    3    0    0  0.59583801056E+02  0.37455200642E+02  0.22962835763E+03  0.24017140552E+03  0.00000000000E+00 0.  1.
         11    1    3    3    0    0 -0.18499290681E+02  0.70399680268E+02  0.36453221690E+03  0.37172849755E+03  0.00000000000E+00 0. -1.
<mgrwt>
<rscale>  0 0.16382602E+03</rscale>
<asrwt>0</asrwt>
<pdfrwt beam="1">  1        2 0.15046096E+00 0.17013466E+03</pdfrwt>
<pdfrwt beam="2">  1       -2 0.43336330E-02 0.17013466E+03</pdfrwt>
<totfact> 0.64691867E+03</totfact>
</mgrwt>
</event>
<event>
 7    1  0.1378058E-005  0.1499140E+03  0.7546771E-02  0.1210111E+00
          2   -1    0    0  501    0  0.00000000000E+00  0.00000000000E+00  0.73622731909E+02  0.73622731909E+02  0.00000000000E+00 0.  1.
         -2   -1    0    0    0  501 -0.00000000000E+00 -0.00000000000E+00 -0.58672027273E+03  0.58672027273E+03  0.00000000000E+00 0. -1.
         23    2    1    2    0    0 -0.24675144392E+02  0.78976555101E+02  0.37779035168E+01  0.12216606377E+03  0.89800420802E+02 0.  0.
          5    1    1    2  502    0  0.38589355030E+02 -0.17590286518E+02 -0.42244258276E+03  0.42459201856E+03  0.47000000000E+01 0.  1.
         -5    1    1    2    0  502 -0.13914210638E+02 -0.61386268583E+02 -0.94432861576E+02  0.11358492230E+03  0.47000000000E+01 0.  1.
        -11    1    3    3    0    0  0.25057535279E+02  0.63260443928E+02  0.12796623927E+02  0.69235232535E+02  0.00000000000E+00 0.  1.
         11    1    3    3    0    0 -0.49732679671E+02  0.15716111173E+02 -0.90187204102E+01  0.52930831237E+02  0.00000000000E+00 0. -1.
<mgrwt>
<rscale>  0 0.14241878E+03</rscale>
<asrwt>0</asrwt>
<pdfrwt beam="1">  1        2 0.11326574E-01 0.14991396E+03</pdfrwt>
<pdfrwt beam="2">  1       -2 0.90264660E-01 0.14991396E+03</pdfrwt>
<totfact> 0.58842046E+02</totfact>
</mgrwt>
</event>
<event>
 7    1  0.1378058E-005  0.1251658E+03  0.7546771E-02  0.1250403E+00
          1   -1    0    0  501    0  0.00000000000E+00  0.00000000000E+00  0.14596002217E+03  0.14596002217E+03  0.00000000000E+00 0. -1.
         -1   -1    0    0    0  501 -0.00000000000E+00 -0.00000000000E+00 -0.94002092461E+02  0.94002092461E+02  0.00000000000E+00 0.  1.
         23    2    1    2    0    0 -0.42972453508E+01  0.54240569410E+01  0.67889622061E+02  0.11378642143E+03  0.91051975300E+02 0.  0.
          5    1    1    2  502    0  0.31984337403E+02 -0.51933545331E+02 -0.32636876500E+02  0.69335032108E+02  0.47000000000E+01 0. -1.
         -5    1    1    2    0  502 -0.27687092052E+02  0.46509488390E+02  0.16705184152E+02  0.56840661099E+02  0.47000000000E+01 0. -1.
        -11    1    3    3    0    0  0.16589797334E+02  0.42838851234E+02  0.21781155493E+02  0.50841000041E+02  0.00000000000E+00 0.  1.
         11    1    3    3    0    0 -0.20887042685E+02 -0.37414794293E+02  0.46108466568E+02  0.62945421385E+02  0.00000000000E+00 0. -1.
<mgrwt>
<rscale>  0 0.11567763E+03</rscale>
<asrwt>0</asrwt>
<pdfrwt beam="1">  1        1 0.22455388E-01 0.12516584E+03</pdfrwt>
<pdfrwt beam="2">  1       -1 0.14461860E-01 0.12516584E+03</pdfrwt>
<totfact> 0.70555804E+03</totfact>
</mgrwt>
</event>
<event>
 7    1  0.1378058E-005  0.1362817E+03  0.7546771E-02  0.1232942E+00
         -1   -1    0    0    0  501 -0.00000000000E+00  0.00000000000E+00  0.74540879737E+02  0.74540879737E+02  0.00000000000E+00 0.  1.
          1   -1    0    0  501    0  0.00000000000E+00 -0.00000000000E+00 -0.20969103149E+03  0.20969103149E+03  0.00000000000E+00 0. -1.
         23    2    1    2    0    0  0.28377628834E+02 -0.31646938138E+02 -0.10325101686E+03  0.14426675106E+03  0.91352637991E+02 0.  0.
          5    1    1    2  502    0 -0.62835996108E+02 -0.26470160357E+02 -0.12155167830E+02  0.69418080507E+02  0.47000000000E+01 0. -1.
         -5    1    1    2    0  502  0.34458367274E+02  0.58117098495E+02 -0.19743967062E+02  0.70547079656E+02  0.47000000000E+01 0.  1.
        -11    1    3    3    0    0  0.50346975574E+02  0.78019247621E+01 -0.32818628365E+02  0.60603220600E+02  0.00000000000E+00 0.  1.
         11    1    3    3    0    0 -0.21969346740E+02 -0.39448862900E+02 -0.70432388494E+02  0.83663530461E+02  0.00000000000E+00 0. -1.
<mgrwt>
<rscale>  0 0.12637107E+03</rscale>
<asrwt>0</asrwt>
<pdfrwt beam="2">  1        1 0.32260159E-01 0.13628166E+03</pdfrwt>
<pdfrwt beam="1">  1       -1 0.11467827E-01 0.13628166E+03</pdfrwt>
<totfact> 0.64654172E+03</totfact>
</mgrwt>
</event>
<event>
 7    1  0.1378058E-005  0.1530659E+03  0.7546771E-02  0.1204967E+00
          3   -1    0    0  501    0  0.00000000000E+00  0.00000000000E+00  0.15697373731E+03  0.15697373731E+03  0.00000000000E+00 0. -1.
         -3   -1    0    0    0  501 -0.00000000000E+00 -0.00000000000E+00 -0.12748779975E+03  0.12748779975E+03  0.00000000000E+00 0.  1.
         23    2    1    2    0    0 -0.54716026802E+02 -0.69350548650E+02  0.29263113666E+02  0.13139542886E+03  0.92763606636E+02 0.  0.
          5    1    1    2  502    0 -0.34717759516E+02  0.47969107069E+02  0.10840198700E+02  0.60381768496E+02  0.47000000000E+01 0. -1.
         -5    1    1    2    0  502  0.89433786318E+02  0.21381441580E+02 -0.10617374803E+02  0.92684339707E+02  0.47000000000E+01 0. -1.
        -11    1    3    3    0    0 -0.56909341726E+02 -0.37553726129E+02 -0.21467965444E+02  0.71483068360E+02  0.00000000000E+00 0.  1.
         11    1    3    3    0    0  0.21933149235E+01 -0.31796822521E+02  0.50731079110E+02  0.59912360497E+02  0.00000000000E+00 0. -1.
<mgrwt>
<rscale>  0 0.14640042E+03</rscale>
<asrwt>0</asrwt>
<pdfrwt beam="1">  1        3 0.24149806E-01 0.15306595E+03</pdfrwt>
<pdfrwt beam="2">  1       -3 0.19613508E-01 0.15306595E+03</pdfrwt>
<totfact> 0.87388467E+02</totfact>
</mgrwt>
</event>
<event>
 7    1  0.1378058E-005  0.1401343E+03  0.7546771E-02  0.1223340E+00
          2   -1    0    0  501    0  0.00000000000E+00  0.00000000000E+00  0.10367679538E+04  0.10367679538E+04  0.00000000000E+00 0. -1.
         -2   -1    0    0    0  501 -0.00000000000E+00 -0.00000000000E+00 -0.15459419704E+02  0.15459419704E+02  0.00000000000E+00 0.  1.
         23    2    1    2    0    0 -0.29240282139E+01 -0.63295229821E+02  0.45743873861E+03  0.47120519301E+03  0.93644531505E+02 0.  0.
          5    1    1    2  502    0  0.52815202630E+02  0.53136767286E+02  0.44974471141E+03  0.45596639910E+03  0.47000000000E+01 0. -1.
         -5    1    1    2    0  502 -0.49891174416E+02  0.10158462535E+02  0.11412508413E+03  0.12505578144E+03  0.47000000000E+01 0. -1.
        -11    1    3    3    0    0 -0.34381185681E+02 -0.72003453486E+02  0.30088206852E+03  0.31128215882E+03  0.00000000000E+00 0.  1.
         11    1    3    3    0    0  0.31457157468E+02  0.87082236655E+01  0.15655667008E+03  0.15992303418E+03  0.00000000000E+00 0. -1.
<mgrwt>
<rscale>  0 0.13281352E+03</rscale>
<asrwt>0</asrwt>
<pdfrwt beam="1">  1        2 0.15950271E+00 0.14013432E+03</pdfrwt>
<pdfrwt beam="2">  1       -2 0.23783731E-02 0.14013432E+03</pdfrwt>
<totfact> 0.14342902E+04</totfact>
</mgrwt>
</event>
<event>
 7    1  0.1378058E-005  0.1433020E+03  0.7546771E-02  0.1211103E+00
          3   -1    0    0  501    0  0.00000000000E+00  0.00000000000E+00  0.47265877260E+02  0.47265877260E+02  0.00000000000E+00 0. -1.
         -3   -1    0    0    0  501 -0.00000000000E+00 -0.00000000000E+00 -0.55810165581E+03  0.55810165581E+03  0.00000000000E+00 0.  1.
         23    2    1    2    0    0 -0.11496693914E+02 -0.82557727318E+02 -0.97926968877E+02  0.16829871606E+03  0.10856709577E+03 0.  0.
          5    1    1    2  502    0  0.16123295695E+02  0.43375569557E+02 -0.38005523530E+02  0.60065884803E+02  0.47000000000E+01 0. -1.
         -5    1    1    2    0  502 -0.46266017811E+01  0.39182157761E+02 -0.37490328614E+03  0.37700293220E+03  0.47000000000E+01 0.  1.
        -11    1    3    3    0    0  0.13832423238E+02 -0.69488960610E+02 -0.11500022340E+03  0.13507443489E+03  0.00000000000E+00 0. -1.
         11    1    3    3    0    0 -0.25329117152E+02 -0.13068766708E+02  0.17073254525E+02  0.33224281166E+02  0.00000000000E+00 0.  1.
<mgrwt>
<rscale>  0 0.14166750E+03</rscale>
<asrwt>0</asrwt>
<pdfrwt beam="1">  1        3 0.72716733E-02 0.14330201E+03</pdfrwt>
<pdfrwt beam="2">  1       -3 0.85861795E-01 0.14330201E+03</pdfrwt>
<totfact> 0.37262372E+02</totfact>
</mgrwt>
</event>
<event>
 7    1  0.1378058E-005  0.1942507E+03  0.7546771E-02  0.1159382E+00
         -1   -1    0    0    0  501 -0.00000000000E+00  0.00000000000E+00  0.13567025329E+03  0.13567025329E+03  0.00000000000E+00 0.  1.
          1   -1    0    0  501    0  0.00000000000E+00 -0.00000000000E+00 -0.26770253975E+03  0.26770253975E+03  0.00000000000E+00 0. -1.
         23    2    1    2    0    0  0.11120190992E+03 -0.98699483602E+02 -0.11454327368E+03  0.20833635057E+03  0.90423562134E+02 0.  0.
          5    1    1    2  502    0  0.17151886676E+02 -0.99954697430E+01 -0.17343455406E+02  0.26776521009E+02  0.47000000000E+01 0.  1.
         -5    1    1    2    0  502 -0.12835379660E+03  0.10869495335E+03 -0.14555737729E+00  0.16825992146E+03  0.47000000000E+01 0.  1.
        -11    1    3    3    0    0  0.81406361076E+02 -0.13617860891E+02 -0.41910192507E+02  0.92568385504E+02  0.00000000000E+00 0.  1.
         11    1    3    3    0    0  0.29795548844E+02 -0.85081622711E+02 -0.72633081173E+02  0.11576796506E+03  0.00000000000E+00 0. -1.
<mgrwt>
<rscale>  0 0.18898330E+03</rscale>
<asrwt>0</asrwt>
<pdfrwt beam="2">  1        1 0.41185006E-01 0.19425074E+03</pdfrwt>
<pdfrwt beam="1">  1       -1 0.20872346E-01 0.19425074E+03</pdfrwt>
<totfact> 0.18835031E+03</totfact>
</mgrwt>
</event>
<event>
 7    1  0.1378058E-005  0.1675625E+03  0.7546771E-02  0.1187243E+00
          2   -1    0    0  501    0  0.00000000000E+00  0.00000000000E+00  0.22337187944E+03  0.22337187944E+03  0.00000000000E+00 0. -1.
         -2   -1    0    0    0  501 -0.00000000000E+00 -0.00000000000E+00 -0.11310301221E+03  0.11310301221E+03  0.00000000000E+00 0.  1.
         23    2    1    2    0    0  0.10932534115E+03 -0.22370113701E+02  0.84780678889E+02  0.16698498697E+03  0.90795209979E+02 0.  0.
          5    1    1    2  502    0 -0.48241524670E+02 -0.17139842989E+02  0.67886916102E+02  0.85157162341E+02  0.47000000000E+01 0.  1.
         -5    1    1    2    0  502 -0.61083816482E+02  0.39509956690E+02 -0.42398727760E+02  0.84332742332E+02  0.47000000000E+01 0.  1.
        -11    1    3    3    0    0  0.62772619843E+02 -0.23014972364E+02 -0.37445866497E+01  0.66963517560E+02  0.00000000000E+00 0.  1.
         11    1    3    3    0    0  0.46552721308E+02  0.64485866253E+00  0.88525265539E+02  0.10002146941E+03  0.00000000000E+00 0. -1.
<mgrwt>
<rscale>  0 0.16129427E+03</rscale>
<asrwt>0</asrwt>
<pdfrwt beam="1">  1        2 0.34364905E-01 0.16756247E+03</pdfrwt>
<pdfrwt beam="2">  1       -2 0.17400463E-01 0.16756247E+03</pdfrwt>
<totfact> 0.39140021E+03</totfact>
</mgrwt>
</event>
<event>
 7    1  0.1378058E-005  0.1579744E+03  0.7546771E-02  0.1198973E+00
         -1   -1    0    0    0  501 -0.00000000000E+00  0.00000000000E+00  0.25356129764E+03  0.25356129764E+03  0.00000000000E+00 0. -1.
          1   -1    0    0  501    0  0.00000000000E+00 -0.00000000000E+00 -0.93971616902E+02  0.93971616902E+02  0.00000000000E+00 0.  1.
         23    2    1    2    0    0  0.95450461640E+02  0.14893974847E+02  0.15235643422E+02  0.13353760306E+03  0.90926044053E+02 0.  0.
          5    1    1    2  502    0 -0.62027556558E+02 -0.68598145183E+02  0.10178112370E+03  0.13760309021E+03  0.47000000000E+01 0.  1.
         -5    1    1    2    0  502 -0.33422905082E+02  0.53704170337E+02  0.42572913613E+02  0.76392221261E+02  0.47000000000E+01 0.  1.
        -11    1    3    3    0    0  0.34013331545E+02 -0.38365070072E+02  0.35584007811E+01  0.51395014744E+02  0.00000000000E+00 0. -1.
         11    1    3    3    0    0  0.61437130095E+02  0.53259044919E+02  0.11677242641E+02  0.82142588318E+02  0.00000000000E+00 0.  1.
<mgrwt>
<rscale>  0 0.15122709E+03</rscale>
<asrwt>0</asrwt>
<pdfrwt beam="2">  1        1 0.14457172E-01 0.15797438E+03</pdfrwt>
<pdfrwt beam="1">  1       -1 0.39009430E-01 0.15797438E+03</pdfrwt>
<totfact> 0.24651663E+03</totfact>
</mgrwt>
</event>
<event>
 7    1  0.1378058E-005  0.1600996E+03  0.7546771E-02  0.1195151E+00
         -1   -1    0    0    0  501 -0.00000000000E+00  0.00000000000E+00  0.76571029553E+02  0.76571029553E+02  0.00000000000E+00 0.  1.
          1   -1    0    0  501    0  0.00000000000E+00 -0.00000000000E+00 -0.44469764437E+03  0.44469764437E+03  0.00000000000E+00 0. -1.
         23    2    1    2    0    0 -0.78991015844E+02  0.61368052799E+02 -0.32823313891E+03  0.35627356985E+03  0.95855331665E+02 0.  0.
          5    1    1    2  502    0  0.29578972786E+02  0.38226571519E+02 -0.16468498678E+02  0.51278532057E+02  0.47000000000E+01 0.  1.
         -5    1    1    2    0  502  0.49412043057E+02 -0.99594624318E+02 -0.23424977228E+02  0.11371657201E+03  0.47000000000E+01 0.  1.
        -11    1    3    3    0    0  0.18570947014E+02 -0.44612044867E+01 -0.68617726938E+02  0.71226223180E+02  0.00000000000E+00 0.  1.
         11    1    3    3    0    0 -0.97561962857E+02  0.65829257285E+02 -0.25961541197E+03  0.28504734667E+03  0.00000000000E+00 0. -1.
<mgrwt>
<rscale>  0 0.15441450E+03</rscale>
<asrwt>0</asrwt>
<pdfrwt beam="2">  1        1 0.68415021E-01 0.16009964E+03</pdfrwt>
<pdfrwt beam="1">  1       -1 0.11780159E-01 0.16009964E+03</pdfrwt>
<totfact> 0.24449689E+03</totfact>
</mgrwt>
</event>
<event>
 7    1  0.1378058E-005  0.1295772E+03  0.7546771E-02  0.1241181E+00
          2   -1    0    0  501    0  0.00000000000E+00  0.00000000000E+00  0.35704182208E+02  0.35704182208E+02  0.00000000000E+00 0.  1.
         -2   -1    0    0    0  501 -0.00000000000E+00 -0.00000000000E+00 -0.39311014517E+03  0.39311014517E+03  0.00000000000E+00 0. -1.
         23    2    1    2    0    0 -0.26070908303E+02 -0.22043113151E+02 -0.10075820766E+03  0.14131072254E+03  0.93010283290E+02 0.  0.
          5    1    1    2  502    0  0.57311142437E+01 -0.23179693669E+02 -0.22948139296E+03  0.23076815981E+03  0.47000000000E+01 0.  1.
         -5    1    1    2    0  502  0.20339794060E+02  0.45222806820E+02 -0.27166362347E+02  0.56735445026E+02  0.47000000000E+01 0.  1.
        -11    1    3    3    0    0 -0.58036043699E+02 -0.14045741324E+02 -0.39021880990E+02  0.71331426549E+02  0.00000000000E+00 0.  1.
         11    1    3    3    0    0  0.31965135396E+02 -0.79973718270E+01 -0.61736326673E+02  0.69979295995E+02  0.00000000000E+00 0. -1.
<mgrwt>
<rscale>  0 0.12116887E+03</rscale>
<asrwt>0</asrwt>
<pdfrwt beam="1">  1        2 0.54929511E-02 0.12957721E+03</pdfrwt>
<pdfrwt beam="2">  1       -2 0.60478484E-01 0.12957721E+03</pdfrwt>
<totfact> 0.34330777E+03</totfact>
</mgrwt>
</event>
<event>
 7    1  0.1378058E-005  0.1267322E+03  0.7546771E-02  0.1252627E+00
          2   -1    0    0  501    0  0.00000000000E+00  0.00000000000E+00  0.51011625829E+03  0.51011625829E+03  0.00000000000E+00 0. -1.
         -2   -1    0    0    0  501 -0.00000000000E+00 -0.00000000000E+00 -0.22196966066E+02  0.22196966066E+02  0.00000000000E+00 0.  1.
         23    2    1    2    0    0 -0.16690273527E+02  0.12463267864E+02  0.23063884832E+03  0.24551316061E+03  0.81538551622E+02 0.  0.
          5    1    1    2  502    0  0.87651885119E+01  0.29227076425E+02  0.54186513374E+01  0.31344892859E+02  0.47000000000E+01 0. -1.
         -5    1    1    2    0  502  0.79250850154E+01 -0.41690344289E+02  0.25186179257E+03  0.25545517089E+03  0.47000000000E+01 0. -1.
        -11    1    3    3    0    0 -0.35617218005E+02 -0.21983572321E+02  0.86233304628E+02  0.95854298274E+02  0.00000000000E+00 0.  1.
         11    1    3    3    0    0  0.18926944478E+02  0.34446840185E+02  0.14440554369E+03  0.14965886233E+03  0.00000000000E+00 0. -1.
<mgrwt>
<rscale>  0 0.11440316E+03</rscale>
<asrwt>0</asrwt>
<pdfrwt beam="1">  1        2 0.78479416E-01 0.12673220E+03</pdfrwt>
<pdfrwt beam="2">  1       -2 0.34149182E-02 0.12673220E+03</pdfrwt>
<totfact> 0.19856290E+04</totfact>
</mgrwt>
</event>
<event>
 7    1  0.1378058E-005  0.2198417E+03  0.7546771E-02  0.1137362E+00
         -2   -1    0    0    0  501 -0.00000000000E+00  0.00000000000E+00  0.34448788799E+02  0.34448788799E+02  0.00000000000E+00 0.  1.
          2   -1    0    0  501    0  0.00000000000E+00 -0.00000000000E+00 -0.14506714622E+04  0.14506714622E+04  0.00000000000E+00 0. -1.
         23    2    1    2    0    0 -0.16909874450E+03 -0.64105058971E+02 -0.92532059174E+03  0.94723994469E+03  0.91331655745E+02 0.  0.
          5    1    1    2  502    0  0.18556317783E+03  0.58404885374E+02 -0.39542646423E+03  0.44071419562E+03  0.47000000000E+01 0. -1.
         -5    1    1    2    0  502 -0.16464433328E+02  0.57001735966E+01 -0.95475617440E+02  0.97166110704E+02  0.47000000000E+01 0. -1.
        -11    1    3    3    0    0 -0.10786893701E+03 -0.84718630257E+02 -0.58769353095E+03  0.60348706713E+03  0.00000000000E+00 0. -1.
         11    1    3    3    0    0 -0.61229807496E+02  0.20613571287E+02 -0.33762706079E+03  0.34375287755E+03  0.00000000000E+00 0.  1.
<mgrwt>
<rscale>  0 0.21539742E+03</rscale>
<asrwt>0</asrwt>
<pdfrwt beam="2">  1        2 0.22318019E+00 0.21984169E+03</pdfrwt>
<pdfrwt beam="1">  1       -2 0.52998146E-02 0.21984169E+03</pdfrwt>
<totfact> 0.25970687E+03</totfact>
</mgrwt>
</event>
<event>
 7    1  0.1378058E-005  0.3009081E+03  0.7546771E-02  0.1131104E+00
          2   -1    0    0  501    0  0.00000000000E+00  0.00000000000E+00  0.12136669762E+03  0.12136669762E+03  0.00000000000E+00 0. -1.
         -2   -1    0    0    0  501 -0.00000000000E+00 -0.00000000000E+00 -0.32383153411E+03  0.32383153411E+03  0.00000000000E+00 0.  1.
         23    2    1    2    0    0 -0.13496350176E+02 -0.22537891544E+02 -0.23065956542E+02  0.94870303101E+02  0.88194263055E+02 0.  0.
          5    1    1    2  502    0 -0.86939768656E+01  0.81251023553E+02  0.60837209869E+02  0.10198318571E+03  0.47000000000E+01 0. -1.
         -5    1    1    2    0  502  0.22190327042E+02 -0.58713132009E+02 -0.24023608982E+03  0.24834474292E+03  0.47000000000E+01 0.  1.
        -11    1    3    3    0    0 -0.46440804085E+02 -0.87354969142E+00 -0.29347714406E+02  0.54943604851E+02  0.00000000000E+00 0.  1.
         11    1    3    3    0    0  0.32944453909E+02 -0.21664341853E+02  0.62817578646E+01  0.39926698250E+02  0.00000000000E+00 0. -1.
<mgrwt>
<rscale>  0 0.22376914E+03</rscale>
<asrwt>0</asrwt>
<pdfrwt beam="1">  1        2 0.18671800E-01 0.30090812E+03</pdfrwt>
<pdfrwt beam="2">  1       -2 0.49820236E-01 0.30090812E+03</pdfrwt>
<totfact> 0.11656177E+03</totfact>
</mgrwt>
</event>
<event>
 7    1  0.1378058E-005  0.1344115E+03  0.7546771E-02  0.1231861E+00
         -2   -1    0    0    0  501 -0.00000000000E+00  0.00000000000E+00  0.36891764770E+02  0.36891764770E+02  0.00000000000E+00 0.  1.
          2   -1    0    0  501    0  0.00000000000E+00 -0.00000000000E+00 -0.46979709094E+03  0.46979709094E+03  0.00000000000E+00 0. -1.
         23    2    1    2    0    0 -0.29423587502E+02  0.39687214079E+02 -0.29579844040E+03  0.31468691025E+03  0.95343126008E+02 0.  0.
          5    1    1    2  502    0 -0.86098369995E+01 -0.70923629671E+02 -0.37557270457E+02  0.80851277684E+02  0.47000000000E+01 0. -1.
         -5    1    1    2    0  502  0.38033424502E+02  0.31236415592E+02 -0.99549615316E+02  0.11115066778E+03  0.47000000000E+01 0. -1.
        -11    1    3    3    0    0  0.11238487945E+02 -0.18218696021E+02 -0.17844841496E+02  0.27868671730E+02  0.00000000000E+00 0. -1.
         11    1    3    3    0    0 -0.40662075447E+02  0.57905910100E+02 -0.27795359890E+03  0.28681823852E+03  0.00000000000E+00 0.  1.
<mgrwt>
<rscale>  0 0.12707535E+03</rscale>
<asrwt>0</asrwt>
<pdfrwt beam="2">  1        2 0.72276475E-01 0.13441149E+03</pdfrwt>
<pdfrwt beam="1">  1       -2 0.56756562E-02 0.13441149E+03</pdfrwt>
<totfact> 0.10232004E+04</totfact>
</mgrwt>
</event>
<event>
 7    1  0.1378058E-005  0.1463997E+03  0.7546771E-02  0.1209449E+00
         -2   -1    0    0    0  501 -0.00000000000E+00  0.00000000000E+00  0.57599457366E+02  0.57599457366E+02  0.00000000000E+00 0.  1.
          2   -1    0    0  501    0  0.00000000000E+00 -0.00000000000E+00 -0.36915108798E+03  0.36915108798E+03  0.00000000000E+00 0. -1.
         23    2    1    2    0    0 -0.76210185259E+02  0.63220191646E+00 -0.21005292837E+03  0.24860775866E+03  0.10897335881E+03 0.  0.
          5    1    1    2  502    0  0.95435228370E+02  0.24484594947E+02 -0.35547183680E+02  0.10484784438E+03  0.47000000000E+01 0. -1.
         -5    1    1    2    0  502 -0.19225043112E+02 -0.25116796864E+02 -0.65951518557E+02  0.73294942303E+02  0.47000000000E+01 0. -1.
        -11    1    3    3    0    0 -0.96060833207E+02 -0.63017987385E+01 -0.20573269393E+03  0.22714166878E+03  0.00000000000E+00 0. -1.
         11    1    3    3    0    0  0.19850647949E+02  0.69340006550E+01 -0.43202344439E+01  0.21466089880E+02  0.00000000000E+00 0.  1.
<mgrwt>
<rscale>  0 0.14292276E+03</rscale>
<asrwt>0</asrwt>
<pdfrwt beam="2">  1        2 0.56792475E-01 0.14639968E+03</pdfrwt>
<pdfrwt beam="1">  1       -2 0.88614551E-02 0.14639968E+03</pdfrwt>
<totfact> 0.67324424E+03</totfact>
</mgrwt>
</event>
<event>
 7    1  0.1378058E-005  0.1392187E+03  0.7546771E-02  0.1225573E+00
          2   -1    0    0  501    0  0.00000000000E+00  0.00000000000E+00  0.12789604892E+03  0.12789604892E+03  0.00000000000E+00 0. -1.
         -2   -1    0    0    0  501 -0.00000000000E+00 -0.00000000000E+00 -0.12976194262E+03  0.12976194262E+03  0.00000000000E+00 0.  1.
         23    2    1    2    0    0  0.60245949909E+02  0.11200033590E+02  0.31520244648E+02  0.11449207155E+03  0.91432452626E+02 0.  0.
          5    1    1    2  502    0 -0.77150997457E+02 -0.30438063131E+02  0.18505960348E+02  0.85107653382E+02  0.47000000000E+01 0. -1.
         -5    1    1    2    0  502  0.16905047548E+02  0.19238029540E+02 -0.51892098695E+02  0.58058266596E+02  0.47000000000E+01 0. -1.
        -11    1    3    3    0    0  0.49332459766E+02  0.11394955225E+02 -0.25322615906E+02  0.56610700998E+02  0.00000000000E+00 0.  1.
         11    1    3    3    0    0  0.10913490143E+02 -0.19492163462E+00  0.56842860554E+02  0.57881370557E+02  0.00000000000E+00 0. -1.
<mgrwt>
<rscale>  0 0.13127687E+03</rscale>
<asrwt>0</asrwt>
<pdfrwt beam="1">  1        2 0.19676315E-01 0.13921870E+03</pdfrwt>
<pdfrwt beam="2">  1       -2 0.19963376E-01 0.13921870E+03</pdfrwt>
<totfact> 0.56865855E+03</totfact>
</mgrwt>
</event>
<event>
 7    1  0.1378058E-005  0.1759712E+03  0.7546771E-02  0.1174747E+00
          1   -1    0    0  501    0  0.00000000000E+00  0.00000000000E+00  0.55694060254E+03  0.55694060254E+03  0.00000000000E+00 0. -1.
         -1   -1    0    0    0  501 -0.00000000000E+00 -0.00000000000E+00 -0.52800188034E+02  0.52800188034E+02  0.00000000000E+00 0.  1.
         23    2    1    2    0    0  0.85358193223E+02  0.89763752555E+02  0.28095397799E+03  0.32552597507E+03  0.10811322895E+03 0.  0.
          5    1    1    2  502    0 -0.27511196917E+02 -0.71807937266E+02  0.20768889999E+03  0.22151752750E+03  0.47000000000E+01 0.  1.
         -5    1    1    2    0  502 -0.57846996305E+02 -0.17955815288E+02  0.15497536517E+02  0.62697287998E+02  0.47000000000E+01 0.  1.
        -11    1    3    3    0    0  0.86209444457E+02  0.37933317056E+02  0.10033628204E+03  0.13761676624E+03  0.00000000000E+00 0.  1.
         11    1    3    3    0    0 -0.85125123483E+00  0.51830435498E+02  0.18061769595E+03  0.18790920883E+03  0.00000000000E+00 0. -1.
<mgrwt>
<rscale>  0 0.17300796E+03</rscale>
<asrwt>0</asrwt>
<pdfrwt beam="1">  1        1 0.85683166E-01 0.17597124E+03</pdfrwt>
<pdfrwt beam="2">  1       -1 0.81231062E-02 0.17597124E+03</pdfrwt>
<totfact> 0.32257390E+03</totfact>
</mgrwt>
</event>
<event>
 7    1  0.1378058E-005  0.1455221E+03  0.7546771E-02  0.1227646E+00
         -4   -1    0    0    0  501 -0.00000000000E+00  0.00000000000E+00  0.76290483577E+03  0.76290483577E+03  0.00000000000E+00 0.  1.
          4   -1    0    0  501    0  0.00000000000E+00 -0.00000000000E+00 -0.19962293257E+02  0.19962293257E+02  0.00000000000E+00 0. -1.
         23    2    1    2    0    0 -0.10907793781E+02  0.15047133909E+02  0.19214993330E+03  0.21317494708E+03  0.90424360607E+02 0.  0.
          5    1    1    2  502    0  0.43123983868E+02 -0.28083930053E+02  0.66920174214E+02  0.84550486862E+02  0.47000000000E+01 0. -1.
         -5    1    1    2    0  502 -0.32216190088E+02  0.13036796144E+02  0.48387243500E+03  0.48514169508E+03  0.47000000000E+01 0.  1.
        -11    1    3    3    0    0 -0.41471500426E+02  0.33961908305E+02  0.88475456178E+02  0.10344661865E+03  0.00000000000E+00 0.  1.
         11    1    3    3    0    0  0.30563706646E+02 -0.18914774396E+02  0.10367447712E+03  0.10972832844E+03  0.00000000000E+00 0. -1.
<mgrwt>
<rscale>  0 0.12987160E+03</rscale>
<asrwt>0</asrwt>
<pdfrwt beam="2">  1        4 0.30711226E-02 0.14552211E+03</pdfrwt>
<pdfrwt beam="1">  1       -4 0.11736995E+00 0.14552211E+03</pdfrwt>
<totfact> 0.51300837E+02</totfact>
</mgrwt>
</event>
<event>
 7    1  0.1378058E-005  0.1324245E+03  0.7546771E-02  0.1238988E+00
          2   -1    0    0  501    0  0.00000000000E+00  0.00000000000E+00  0.11393381937E+03  0.11393381937E+03  0.00000000000E+00 0. -1.
         -2   -1    0    0    0  501 -0.00000000000E+00 -0.00000000000E+00 -0.19799251433E+03  0.19799251433E+03  0.00000000000E+00 0.  1.
         23    2    1    2    0    0  0.40838198669E+02 -0.15628501112E+02  0.61693112043E+02  0.11500039365E+03  0.86643187549E+02 0.  0.
          5    1    1    2  502    0  0.25706078515E+02 -0.37177412390E+02 -0.67237625286E+02  0.81153870633E+02  0.47000000000E+01 0. -1.
         -5    1    1    2    0  502 -0.66544277184E+02  0.52805913502E+02 -0.78514181712E+02  0.11577206941E+03  0.47000000000E+01 0. -1.
        -11    1    3    3    0    0  0.36117932822E+02  0.31373145259E+02  0.42568032996E+02  0.64037619787E+02  0.00000000000E+00 0.  1.
         11    1    3    3    0    0  0.47202658468E+01 -0.47001646372E+02  0.19125079047E+02  0.50962773863E+02  0.00000000000E+00 0. -1.
<mgrwt>
<rscale>  0 0.12252566E+03</rscale>
<asrwt>0</asrwt>
<pdfrwt beam="1">  1        2 0.17528280E-01 0.13242446E+03</pdfrwt>
<pdfrwt beam="2">  1       -2 0.30460387E-01 0.13242446E+03</pdfrwt>
<totfact> 0.30956282E+03</totfact>
</mgrwt>
</event>
<event>
 7    1  0.1378058E-005  0.1519411E+03  0.7546771E-02  0.1207438E+00
          4   -1    0    0  501    0  0.00000000000E+00  0.00000000000E+00  0.32278519099E+02  0.32278519099E+02  0.00000000000E+00 0. -1.
         -4   -1    0    0    0  501 -0.00000000000E+00 -0.00000000000E+00 -0.77902183021E+03  0.77902183021E+03  0.00000000000E+00 0.  1.
         23    2    1    2    0    0  0.53799715657E+01  0.86212483068E+02 -0.14616152359E+03  0.19179684596E+03  0.89226133014E+02 0.  0.
          5    1    1    2  502    0  0.49147904203E+02 -0.79569173305E+02 -0.31395474869E+03  0.32762241080E+03  0.47000000000E+01 0.  1.
         -5    1    1    2    0  502 -0.54527875769E+02 -0.66433097636E+01 -0.28662703883E+03  0.29188109255E+03  0.47000000000E+01 0.  1.
        -11    1    3    3    0    0  0.37654816935E+01  0.46295199785E+02 -0.14453372797E+03  0.15181377704E+03  0.00000000000E+00 0.  1.
         11    1    3    3    0    0  0.16144898721E+01  0.39917283283E+02 -0.16277956131E+01  0.39983068927E+02  0.00000000000E+00 0. -1.
<mgrwt>
<rscale>  0 0.14446979E+03</rscale>
<asrwt>0</asrwt>
<pdfrwt beam="1">  1        4 0.49659262E-02 0.15194113E+03</pdfrwt>
<pdfrwt beam="2">  1       -4 0.11984951E+00 0.15194113E+03</pdfrwt>
<totfact> 0.22899970E+02</totfact>
</mgrwt>
</event>
<event>
 7    1  0.1378058E-005  0.1365548E+03  0.7546771E-02  0.1228657E+00
         -1   -1    0    0    0  501 -0.00000000000E+00  0.00000000000E+00  0.81139221071E+02  0.81139221071E+02  0.00000000000E+00 0.  1.
          1   -1    0    0  501    0  0.00000000000E+00 -0.00000000000E+00 -0.18831622561E+03  0.18831622561E+03  0.00000000000E+00 0. -1.
         23    2    1    2    0    0  0.29975717592E+01  0.54869958042E+02 -0.61242052475E+02  0.12538173617E+03  0.94605988403E+02 0.  0.
          5    1    1    2  502    0 -0.18467584697E+02 -0.58898595644E+02 -0.82937203393E+02  0.10349283048E+03  0.47000000000E+01 0. -1.
         -5    1    1    2    0  502  0.15470012938E+02  0.40286376025E+01  0.37002251327E+02  0.40580880036E+02  0.47000000000E+01 0. -1.
        -11    1    3    3    0    0  0.30841345946E+02 -0.85629926147E-01 -0.55518293806E+02  0.63509659890E+02  0.00000000000E+00 0. -1.
         11    1    3    3    0    0 -0.27843774187E+02  0.54955587968E+02 -0.57237586686E+01  0.61872076280E+02  0.00000000000E+00 0.  1.
<mgrwt>
<rscale>  0 0.12919389E+03</rscale>
<asrwt>0</asrwt>
<pdfrwt beam="2">  1        1 0.28971727E-01 0.13655480E+03</pdfrwt>
<pdfrwt beam="1">  1       -1 0.12482957E-01 0.13655480E+03</pdfrwt>
<totfact> 0.64844122E+03</totfact>
</mgrwt>
</event>
<event>
 7    1  0.1378058E-005  0.1609834E+03  0.7546771E-02  0.1195943E+00
         -1   -1    0    0    0  501 -0.00000000000E+00  0.00000000000E+00  0.50827801453E+02  0.50827801453E+02  0.00000000000E+00 0.  1.
          1   -1    0    0  501    0  0.00000000000E+00 -0.00000000000E+00 -0.64082323614E+03  0.64082323614E+03  0.00000000000E+00 0. -1.
         23    2    1    2    0    0 -0.47726489029E+02 -0.89513213053E+02 -0.47576636788E+03  0.49425821645E+03  0.87447782462E+02 0.  0.
          5    1    1    2  502    0  0.16857448419E+02 -0.11295146612E+01 -0.98733021175E+02  0.10027835679E+03  0.47000000000E+01 0.  1.
         -5    1    1    2    0  502  0.30869040610E+02  0.90642727715E+02 -0.15496045633E+02  0.97114464350E+02  0.47000000000E+01 0.  1.
        -11    1    3    3    0    0 -0.24009587996E+02  0.13128383406E+02 -0.73573869601E+02  0.78497955735E+02  0.00000000000E+00 0.  1.
         11    1    3    3    0    0 -0.23716901032E+02 -0.10264159646E+03 -0.40219249828E+03  0.41576026071E+03  0.00000000000E+00 0. -1.
<mgrwt>
<rscale>  0 0.15374682E+03</rscale>
<asrwt>0</asrwt>
<pdfrwt beam="2">  1        1 0.98588195E-01 0.16098337E+03</pdfrwt>
<pdfrwt beam="1">  1       -1 0.78196614E-02 0.16098337E+03</pdfrwt>
<totfact> 0.28114898E+03</totfact>
</mgrwt>
</event>
<event>
 7    1  0.1378058E-005  0.1618389E+03  0.7546771E-02  0.1193781E+00
          2   -1    0    0  501    0  0.00000000000E+00  0.00000000000E+00  0.51453071892E+03  0.51453071892E+03  0.00000000000E+00 0. -1.
         -2   -1    0    0    0  501 -0.00000000000E+00 -0.00000000000E+00 -0.43933910988E+02  0.43933910988E+02  0.00000000000E+00 0.  1.
         23    2    1    2    0    0  0.55508774125E+02 -0.86519059579E+02  0.19858809733E+03  0.24195149769E+03  0.92393306892E+02 0.  0.
          5    1    1    2  502    0 -0.26964538401E+02  0.58438859259E+02  0.26838591685E+03  0.27603491983E+03  0.47000000000E+01 0. -1.
         -5    1    1    2    0  502 -0.28544235723E+02  0.28080200320E+02  0.36227937461E+01  0.40478212381E+02  0.47000000000E+01 0. -1.
        -11    1    3    3    0    0 -0.13731938489E+01 -0.33836679723E+02  0.60646876012E+01  0.34403299140E+02  0.00000000000E+00 0.  1.
         11    1    3    3    0    0  0.56881967974E+02 -0.52682379856E+02  0.19252340973E+03  0.20754819855E+03  0.00000000000E+00 0. -1.
<mgrwt>
<rscale>  0 0.15557890E+03</rscale>
<asrwt>0</asrwt>
<pdfrwt beam="1">  1        2 0.79158568E-01 0.16183888E+03</pdfrwt>
<pdfrwt beam="2">  1       -2 0.67590636E-02 0.16183888E+03</pdfrwt>
<totfact> 0.71806210E+03</totfact>
</mgrwt>
</event>
<event>
 7    1  0.1378058E-005  0.1341095E+03  0.7546771E-02  0.1230938E+00
         -3   -1    0    0    0  501 -0.00000000000E+00  0.00000000000E+00  0.34785588751E+02  0.34785588751E+02  0.00000000000E+00 0.  1.
          3   -1    0    0  501    0  0.00000000000E+00 -0.00000000000E+00 -0.44924377577E+03  0.44924377577E+03  0.00000000000E+00 0. -1.
         23    2    1    2    0    0 -0.47968985778E+02  0.73140791189E+01 -0.23909950615E+03  0.26326701514E+03  0.98926377007E+02 0.  0.
          5    1    1    2  502    0  0.36408830941E+02 -0.39306301969E+02 -0.13706068773E+02  0.55502564501E+02  0.47000000000E+01 0.  1.
         -5    1    1    2    0  502  0.11560154837E+02  0.31992222850E+02 -0.16165261209E+03  0.16525978488E+03  0.47000000000E+01 0.  1.
        -11    1    3    3    0    0  0.57915704095E+01  0.19612493855E+02 -0.28278089996E+01  0.20644338370E+02  0.00000000000E+00 0.  1.
         11    1    3    3    0    0 -0.53760556187E+02 -0.12298414736E+02 -0.23627169715E+03  0.24262267677E+03  0.00000000000E+00 0. -1.
<mgrwt>
<rscale>  0 0.12768096E+03</rscale>
<asrwt>0</asrwt>
<pdfrwt beam="2">  1        3 0.69114429E-01 0.13410946E+03</pdfrwt>
<pdfrwt beam="1">  1       -3 0.53516289E-02 0.13410946E+03</pdfrwt>
<totfact> 0.96413072E+02</totfact>
</mgrwt>
</event>
<event>
 7    1  0.1378058E-005  0.1373218E+03  0.7546771E-02  0.1228795E+00
         -3   -1    0    0    0  501 -0.00000000000E+00  0.00000000000E+00  0.40403779553E+02  0.40403779553E+02  0.00000000000E+00 0.  1.
          3   -1    0    0  501    0  0.00000000000E+00 -0.00000000000E+00 -0.37931607830E+03  0.37931607830E+03  0.00000000000E+00 0. -1.
         23    2    1    2    0    0  0.44446581676E+02  0.35443823006E+02 -0.18144609296E+03  0.21078714014E+03  0.90976758488E+02 0.  0.
          5    1    1    2  502    0 -0.35061015854E+02 -0.63562548868E+02 -0.31206001963E+02  0.79154134509E+02  0.47000000000E+01 0. -1.
         -5    1    1    2    0  502 -0.93855658221E+01  0.28118725862E+02 -0.12626020383E+03  0.12977858321E+03  0.47000000000E+01 0. -1.
        -11    1    3    3    0    0  0.42321072316E+02  0.43664476165E+01 -0.17349897069E+03  0.17863939055E+03  0.00000000000E+00 0. -1.
         11    1    3    3    0    0  0.21255093599E+01  0.31077375389E+02 -0.79471222739E+01  0.32147749588E+02  0.00000000000E+00 0.  1.
<mgrwt>
<rscale>  0 0.12910174E+03</rscale>
<asrwt>0</asrwt>
<pdfrwt beam="2">  1        3 0.58356316E-01 0.13732179E+03</pdfrwt>
<pdfrwt beam="1">  1       -3 0.62159664E-02 0.13732179E+03</pdfrwt>
<totfact> 0.10834740E+03</totfact>
</mgrwt>
</event>
<event>
 7    1  0.1378058E-005  0.2440294E+03  0.7546771E-02  0.1119809E+00
         -1   -1    0    0    0  501 -0.00000000000E+00  0.00000000000E+00  0.62900682617E+02  0.62900682617E+02  0.00000000000E+00 0.  1.
          1   -1    0    0  501    0  0.00000000000E+00 -0.00000000000E+00 -0.90597392987E+03  0.90597392987E+03  0.00000000000E+00 0. -1.
         23    2    1    2    0    0 -0.16765885241E+03 -0.12575308147E+03 -0.47894614189E+03  0.53053807909E+03  0.90321194859E+02 0.  0.
          5    1    1    2  502    0 -0.85439396700E+01 -0.14133982834E+02 -0.14116221907E+02  0.22228947271E+02  0.47000000000E+01 0. -1.
         -5    1    1    2    0  502  0.17620279208E+03  0.13988706430E+03 -0.35001088345E+03  0.41610758612E+03  0.47000000000E+01 0. -1.
        -11    1    3    3    0    0 -0.28401702263E+02 -0.59789897266E+02 -0.21441877056E+03  0.22440342616E+03  0.00000000000E+00 0.  1.
         11    1    3    3    0    0 -0.13925715015E+03 -0.65963184201E+02 -0.26452737134E+03  0.30613465293E+03  0.00000000000E+00 0. -1.
<mgrwt>
<rscale>  0 0.23997546E+03</rscale>
<asrwt>0</asrwt>
<pdfrwt beam="2">  1        1 0.13938060E+00 0.24402944E+03</pdfrwt>
<pdfrwt beam="1">  1       -1 0.96770284E-02 0.24402944E+03</pdfrwt>
<totfact> 0.12132294E+03</totfact>
</mgrwt>
</event>
<event>
 7    1  0.1378058E-005  0.1794990E+03  0.7546771E-02  0.1173924E+00
          1   -1    0    0  501    0  0.00000000000E+00  0.00000000000E+00  0.64572612934E+03  0.64572612934E+03  0.00000000000E+00 0. -1.
         -1   -1    0    0    0  501 -0.00000000000E+00 -0.00000000000E+00 -0.44701946501E+02  0.44701946501E+02  0.00000000000E+00 0.  1.
         23    2    1    2    0    0  0.11251996135E+03  0.62716666286E+02  0.32290714951E+03  0.35941604521E+03  0.91196186421E+02 0.  0.
          5    1    1    2  502    0 -0.78607752644E+02  0.24860629110E+02  0.10081817349E+03  0.13032123296E+03  0.47000000000E+01 0. -1.
         -5    1    1    2    0  502 -0.33912208703E+02 -0.87577295396E+02  0.17729885984E+03  0.20069079767E+03  0.47000000000E+01 0. -1.
        -11    1    3    3    0    0  0.60873036152E+02 -0.16326893663E+02  0.14173160811E+03  0.15511267751E+03  0.00000000000E+00 0. -1.
         11    1    3    3    0    0  0.51646925194E+02  0.79043559949E+02  0.18117554140E+03  0.20430336770E+03  0.00000000000E+00 0.  1.
<mgrwt>
<rscale>  0 0.17381813E+03</rscale>
<asrwt>0</asrwt>
<pdfrwt beam="1">  1        1 0.99342475E-01 0.17949897E+03</pdfrwt>
<pdfrwt beam="2">  1       -1 0.68772230E-02 0.17949897E+03</pdfrwt>
<totfact> 0.33888735E+03</totfact>
</mgrwt>
</event>
<event>
 7    1  0.1378058E-005  0.1324537E+03  0.7546771E-02  0.1240098E+00
          2   -1    0    0  501    0  0.00000000000E+00  0.00000000000E+00  0.67927417718E+03  0.67927417718E+03  0.00000000000E+00 0. -1.
         -2   -1    0    0    0  501 -0.00000000000E+00 -0.00000000000E+00 -0.19441021331E+02  0.19441021331E+02  0.00000000000E+00 0.  1.
         23    2    1    2    0    0 -0.26641808021E+02 -0.23765170802E+01  0.32774548301E+03  0.34118730739E+03  0.90973860638E+02 0.  0.
          5    1    1    2  502    0  0.66966384285E+02  0.88131546013E+01  0.29329376835E+03  0.30100746314E+03  0.47000000000E+01 0. -1.
         -5    1    1    2    0  502 -0.40324576263E+02 -0.64366375210E+01  0.38793904492E+02  0.56520427980E+02  0.47000000000E+01 0.  1.
        -11    1    3    3    0    0 -0.59780153178E+02 -0.10519344954E+02  0.21077974583E+03  0.21934544578E+03  0.00000000000E+00 0. -1.
         11    1    3    3    0    0  0.33138345156E+02  0.81428278737E+01  0.11696573718E+03  0.12184186160E+03  0.00000000000E+00 0.  1.
<mgrwt>
<rscale>  0 0.12183668E+03</rscale>
<asrwt>0</asrwt>
<pdfrwt beam="1">  1        2 0.10450370E+00 0.13245365E+03</pdfrwt>
<pdfrwt beam="2">  1       -2 0.29909269E-02 0.13245365E+03</pdfrwt>
<totfact> 0.17512176E+04</totfact>
</mgrwt>
</event>
<event>
 7    1  0.1378058E-005  0.1572070E+03  0.7546771E-02  0.1200031E+00
         -2   -1    0    0    0  501 -0.00000000000E+00  0.00000000000E+00  0.18687127544E+03  0.18687127544E+03  0.00000000000E+00 0.  1.
          2   -1    0    0  501    0  0.00000000000E+00 -0.00000000000E+00 -0.16781943455E+03  0.16781943455E+03  0.00000000000E+00 0. -1.
         23    2    1    2    0    0 -0.67285843430E+02  0.67553895102E+02 -0.93454423716E+02  0.16137305749E+03  0.90645578498E+02 0.  0.
          5    1    1    2  502    0  0.44300241455E+02 -0.64077243380E+02  0.13797431510E+03  0.15851626459E+03  0.47000000000E+01 0. -1.
         -5    1    1    2    0  502  0.22985601975E+02 -0.34766517227E+01 -0.25468050487E+02  0.34801387917E+02  0.47000000000E+01 0. -1.
        -11    1    3    3    0    0 -0.31555221924E+02  0.71520362454E+02 -0.97753898322E+02  0.12516676441E+03  0.00000000000E+00 0. -1.
         11    1    3    3    0    0 -0.35730621506E+02 -0.39664673519E+01  0.42994746052E+01  0.36206293076E+02  0.00000000000E+00 0.  1.
<mgrwt>
<rscale>  0 0.15036038E+03</rscale>
<asrwt>0</asrwt>
<pdfrwt beam="2">  1        2 0.25818374E-01 0.15720705E+03</pdfrwt>
<pdfrwt beam="1">  1       -2 0.28749427E-01 0.15720705E+03</pdfrwt>
<totfact> 0.22397448E+03</totfact>
</mgrwt>
</event>
<event>
 7    1  0.1378058E-005  0.1306709E+03  0.7546771E-02  0.1239513E+00
         -1   -1    0    0    0  501 -0.00000000000E+00  0.00000000000E+00  0.21134333066E+02  0.21134333066E+02  0.00000000000E+00 0.  1.
          1   -1    0    0  501    0  0.00000000000E+00 -0.00000000000E+00 -0.63969211451E+03  0.63969211451E+03  0.00000000000E+00 0. -1.
         23    2    1    2    0    0  0.89423004292E+01  0.37012321276E+02 -0.31092818075E+03  0.32659471799E+03  0.92400755269E+02 0.  0.
          5    1    1    2  502    0 -0.32669055498E+02 -0.41278285696E+02 -0.30498296160E+03  0.30952844929E+03  0.47000000000E+01 0. -1.
         -5    1    1    2    0  502  0.23726755069E+02  0.42659644195E+01 -0.26466390979E+01  0.24703280289E+02  0.47000000000E+01 0. -1.
        -11    1    3    3    0    0 -0.20038935065E+02 -0.12708250858E+02 -0.23265323819E+02  0.33231518937E+02  0.00000000000E+00 0.  1.
         11    1    3    3    0    0  0.28981235494E+02  0.49720572135E+02 -0.28766285693E+03  0.29336319906E+03  0.00000000000E+00 0. -1.
<mgrwt>
<rscale>  0 0.12219901E+03</rscale>
<asrwt>0</asrwt>
<pdfrwt beam="2">  1        1 0.98414153E-01 0.13067088E+03</pdfrwt>
<pdfrwt beam="1">  1       -1 0.32514365E-02 0.13067088E+03</pdfrwt>
<totfact> 0.10254215E+04</totfact>
</mgrwt>
</event>
<event>
 7    1  0.1378058E-005  0.1307853E+03  0.7546771E-02  0.1239810E+00
          1   -1    0    0  501    0  0.00000000000E+00  0.00000000000E+00  0.11137164466E+02  0.11137164466E+02  0.00000000000E+00 0. -1.
         -1   -1    0    0    0  501 -0.00000000000E+00 -0.00000000000E+00 -0.13079084607E+04  0.13079084607E+04  0.00000000000E+00 0.  1.
         23    2    1    2    0    0  0.12606113059E+02 -0.36328915411E+02 -0.36769992158E+03  0.38081408728E+03  0.91309542523E+02 0.  0.
          5    1    1    2  502    0 -0.40454879606E+02  0.28095871690E+02 -0.87723496500E+03  0.87862918749E+03  0.47000000000E+01 0.  1.
         -5    1    1    2    0  502  0.27848766547E+02  0.82330437216E+01 -0.51836409618E+02  0.59602350366E+02  0.47000000000E+01 0.  1.
        -11    1    3    3    0    0 -0.34221941483E+02 -0.39296255493E+02 -0.19923559052E+03  0.20593726594E+03  0.00000000000E+00 0.  1.
         11    1    3    3    0    0  0.46828054542E+02  0.29673400817E+01 -0.16846433107E+03  0.17487682134E+03  0.00000000000E+00 0. -1.
<mgrwt>
<rscale>  0 0.12201461E+03</rscale>
<asrwt>0</asrwt>
<pdfrwt beam="1">  1        1 0.17134109E-02 0.13078532E+03</pdfrwt>
<pdfrwt beam="2">  1       -1 0.20121658E+00 0.13078532E+03</pdfrwt>
<totfact> 0.12055221E+03</totfact>
</mgrwt>
</event>
<event>
 7    1  0.1378058E-005  0.1624034E+03  0.7546771E-02  0.1193103E+00
          1   -1    0    0  501    0  0.00000000000E+00  0.00000000000E+00  0.81768800684E+03  0.81768800684E+03  0.00000000000E+00 0. -1.
         -1   -1    0    0    0  501 -0.00000000000E+00 -0.00000000000E+00 -0.28125406199E+02  0.28125406199E+02  0.00000000000E+00 0.  1.
         23    2    1    2    0    0  0.65105477840E+02 -0.80795440656E+02  0.41346356252E+03  0.43614846867E+03  0.92232004816E+02 0.  0.
          5    1    1    2  502    0 -0.33968571485E+02  0.31924147425E+02  0.33549752430E+03  0.33875314589E+03  0.47000000000E+01 0. -1.
         -5    1    1    2    0  502 -0.31136906355E+02  0.48871293231E+02  0.40601513816E+02  0.70911798479E+02  0.47000000000E+01 0. -1.
        -11    1    3    3    0    0  0.67519456309E+02 -0.58529894853E+02  0.40033898058E+03  0.41019010830E+03  0.00000000000E+00 0. -1.
         11    1    3    3    0    0 -0.24139784690E+01 -0.22265545803E+02  0.13124581938E+02  0.25958360369E+02  0.00000000000E+00 0.  1.
<mgrwt>
<rscale>  0 0.15615868E+03</rscale>
<asrwt>0</asrwt>
<pdfrwt beam="1">  1        1 0.12579814E+00 0.16240345E+03</pdfrwt>
<pdfrwt beam="2">  1       -1 0.43269862E-02 0.16240345E+03</pdfrwt>
<totfact> 0.47734539E+03</totfact>
</mgrwt>
</event>
<event>
 7    1  0.1378058E-005  0.1302022E+03  0.7546771E-02  0.1238936E+00
         -1   -1    0    0    0  501 -0.00000000000E+00  0.00000000000E+00  0.10747190390E+03  0.10747190390E+03  0.00000000000E+00 0.  1.
          1   -1    0    0  501    0  0.00000000000E+00 -0.00000000000E+00 -0.13119898380E+03  0.13119898380E+03  0.00000000000E+00 0. -1.
         23    2    1    2    0    0  0.32438345977E+02  0.16591467146E+02 -0.34858953402E+02  0.10799366097E+03  0.95498487451E+02 0.  0.
          5    1    1    2  502    0  0.41430712257E+02  0.83349204384E-01 -0.22843769700E+02  0.47544070917E+02  0.47000000000E+01 0.  1.
         -5    1    1    2    0  502 -0.73869058234E+02 -0.16674816351E+02  0.33975643201E+02  0.83133155814E+02  0.47000000000E+01 0.  1.
        -11    1    3    3    0    0  0.61060045026E+02  0.48812654076E+01  0.18616230644E+00  0.61255126373E+02  0.00000000000E+00 0.  1.
         11    1    3    3    0    0 -0.28621699049E+02  0.11710201739E+02 -0.35045115709E+02  0.46738534597E+02  0.00000000000E+00 0. -1.
<mgrwt>
<rscale>  0 0.12255761E+03</rscale>
<asrwt>0</asrwt>
<pdfrwt beam="2">  1        1 0.20184459E-01 0.13020222E+03</pdfrwt>
<pdfrwt beam="1">  1       -1 0.16534139E-01 0.13020222E+03</pdfrwt>
<totfact> 0.65630630E+03</totfact>
</mgrwt>
</event>
<event>
 7    1  0.1378058E-005  0.1324350E+03  0.7546771E-02  0.1236910E+00
          2   -1    0    0  501    0  0.00000000000E+00  0.00000000000E+00  0.26797401753E+03  0.26797401753E+03  0.00000000000E+00 0. -1.
         -2   -1    0    0    0  501 -0.00000000000E+00 -0.00000000000E+00 -0.51027452810E+02  0.51027452810E+02  0.00000000000E+00 0.  1.
         23    2    1    2    0    0  0.42665418868E+02  0.94897276210E+01  0.10072476662E+03  0.14280117818E+03  0.91303367849E+02 0.  0.
          5    1    1    2  502    0 -0.86620875357E+02 -0.79343492598E+01  0.66091200176E+02  0.10934471495E+03  0.47000000000E+01 0. -1.
         -5    1    1    2    0  502  0.43955456489E+02 -0.15553783613E+01  0.50130597919E+02  0.66855577214E+02  0.47000000000E+01 0. -1.
        -11    1    3    3    0    0 -0.11113451050E+02  0.25685536998E+02  0.76823187311E+02  0.81762202231E+02  0.00000000000E+00 0. -1.
         11    1    3    3    0    0  0.53778869919E+02 -0.16195809377E+02  0.23901579312E+02  0.61038975947E+02  0.00000000000E+00 0.  1.
<mgrwt>
<rscale>  0 0.12382979E+03</rscale>
<asrwt>0</asrwt>
<pdfrwt beam="1">  1        2 0.41226771E-01 0.13243503E+03</pdfrwt>
<pdfrwt beam="2">  1       -2 0.78503775E-02 0.13243503E+03</pdfrwt>
<totfact> 0.11334345E+04</totfact>
</mgrwt>
</event>
<event>
 7    1  0.1378058E-005  0.1644063E+03  0.7546771E-02  0.1191091E+00
          1   -1    0    0  501    0  0.00000000000E+00  0.00000000000E+00  0.77315064149E+03  0.77315064149E+03  0.00000000000E+00 0. -1.
         -1   -1    0    0    0  501 -0.00000000000E+00 -0.00000000000E+00 -0.33498493706E+02  0.33498493706E+02  0.00000000000E+00 0.  1.
         23    2    1    2    0    0 -0.79329998032E+01  0.10649323743E+03  0.47427492560E+03  0.49447212316E+03  0.90345079691E+02 0.  0.
          5    1    1    2  502    0  0.24210884048E+02  0.11554432578E+02  0.77981622779E+01  0.28329722086E+02  0.47000000000E+01 0. -1.
         -5    1    1    2    0  502 -0.16277884245E+02 -0.11804767001E+03  0.25757905991E+03  0.28384728995E+03  0.47000000000E+01 0. -1.
        -11    1    3    3    0    0  0.24463687152E+02  0.27164470374E+02  0.51834862697E+02  0.63428963657E+02  0.00000000000E+00 0.  1.
         11    1    3    3    0    0 -0.32396686955E+02  0.79328767057E+02  0.42244006290E+03  0.43104315950E+03  0.00000000000E+00 0. -1.
<mgrwt>
<rscale>  0 0.15789793E+03</rscale>
<asrwt>0</asrwt>
<pdfrwt beam="1">  1        1 0.11894624E+00 0.16440626E+03</pdfrwt>
<pdfrwt beam="2">  1       -1 0.51536150E-02 0.16440626E+03</pdfrwt>
<totfact> 0.40106857E+03</totfact>
</mgrwt>
</event>
<event>
 7    1  0.1378058E-005  0.1487218E+03  0.7546771E-02  0.1211298E+00
         -2   -1    0    0    0  501 -0.00000000000E+00  0.00000000000E+00  0.43391800489E+02  0.43391800489E+02  0.00000000000E+00 0.  1.
          2   -1    0    0  501    0  0.00000000000E+00 -0.00000000000E+00 -0.47151643536E+03  0.47151643536E+03  0.00000000000E+00 0. -1.
         23    2    1    2    0    0 -0.69976234027E+02 -0.39958780509E+02 -0.27810553693E+03  0.30366452424E+03  0.91520905494E+02 0.  0.
          5    1    1    2  502    0  0.74909668527E+02 -0.21364373852E+02 -0.46818929954E+02  0.91005478467E+02  0.47000000000E+01 0.  1.
         -5    1    1    2    0  502 -0.49334345002E+01  0.61323154361E+02 -0.10320016799E+03  0.12023823314E+03  0.47000000000E+01 0.  1.
        -11    1    3    3    0    0 -0.25887135952E+02  0.17252081406E+02 -0.23431770061E+02  0.38946450015E+02  0.00000000000E+00 0.  1.
         11    1    3    3    0    0 -0.44089098075E+02 -0.57210861914E+02 -0.25467376686E+03  0.26471807422E+03  0.00000000000E+00 0. -1.
<mgrwt>
<rscale>  0 0.14152002E+03</rscale>
<asrwt>0</asrwt>
<pdfrwt beam="2">  1        2 0.72540988E-01 0.14872181E+03</pdfrwt>
<pdfrwt beam="1">  1       -2 0.66756618E-02 0.14872181E+03</pdfrwt>
<totfact> 0.80164563E+03</totfact>
</mgrwt>
</event>
<event>
 7    1  0.1378058E-005  0.1595565E+03  0.7546771E-02  0.1197645E+00
          1   -1    0    0  501    0  0.00000000000E+00  0.00000000000E+00  0.41221903537E+03  0.41221903537E+03  0.00000000000E+00 0. -1.
         -1   -1    0    0    0  501 -0.00000000000E+00 -0.00000000000E+00 -0.53413606416E+02  0.53413606416E+02  0.00000000000E+00 0.  1.
         23    2    1    2    0    0 -0.36318853313E+02 -0.92275958313E+02  0.20431514163E+03  0.24353913798E+03  0.87935903020E+02 0.  0.
          5    1    1    2  502    0 -0.31542110280E+02  0.34173568426E+02  0.11532201745E+03  0.12443470259E+03  0.47000000000E+01 0.  1.
         -5    1    1    2    0  502  0.67860963592E+02  0.58102389887E+02  0.39168269873E+02  0.97658801217E+02  0.47000000000E+01 0.  1.
        -11    1    3    3    0    0 -0.55486541728E+02 -0.31545887562E+02  0.69039676407E+02  0.94023275062E+02  0.00000000000E+00 0.  1.
         11    1    3    3    0    0  0.19167688415E+02 -0.60730070752E+02  0.13527546523E+03  0.14951586292E+03  0.00000000000E+00 0. -1.
<mgrwt>
<rscale>  0 0.15232526E+03</rscale>
<asrwt>0</asrwt>
<pdfrwt beam="1">  1        1 0.63418311E-01 0.15955650E+03</pdfrwt>
<pdfrwt beam="2">  1       -1 0.82174782E-02 0.15955650E+03</pdfrwt>
<totfact> 0.46758561E+03</totfact>
</mgrwt>
</event>
<event>
 7    1  0.1378058E-005  0.1297633E+03  0.7546771E-02  0.1240835E+00
          1   -1    0    0  501    0  0.00000000000E+00  0.00000000000E+00  0.52461750900E+03  0.52461750900E+03  0.00000000000E+00 0. -1.
         -1   -1    0    0    0  501 -0.00000000000E+00 -0.00000000000E+00 -0.25041647460E+02  0.25041647460E+02  0.00000000000E+00 0.  1.
         23    2    1    2    0    0  0.34314111835E+02  0.59405456533E+01  0.22563762721E+03  0.24654091569E+03  0.93044806120E+02 0.  0.
          5    1    1    2  502    0 -0.55407922727E+02 -0.45106331272E+02  0.96704135249E+02  0.12032621824E+03  0.47000000000E+01 0.  1.
         -5    1    1    2    0  502  0.21093810892E+02  0.39165785619E+02  0.17723409908E+03  0.18279202253E+03  0.47000000000E+01 0.  1.
        -11    1    3    3    0    0 -0.20147123899E+01 -0.12338566434E+02 -0.41573010560E+01  0.13175068870E+02  0.00000000000E+00 0.  1.
         11    1    3    3    0    0  0.36328824225E+02  0.18279112087E+02  0.22979492826E+03  0.23336584682E+03  0.00000000000E+00 0. -1.
<mgrwt>
<rscale>  0 0.12138192E+03</rscale>
<asrwt>0</asrwt>
<pdfrwt beam="1">  1        1 0.80710378E-01 0.12976329E+03</pdfrwt>
<pdfrwt beam="2">  1       -1 0.38525615E-02 0.12976329E+03</pdfrwt>
<totfact> 0.10449394E+04</totfact>
</mgrwt>
</event>
<event>
 7    1  0.1378058E-005  0.1592409E+03  0.7546771E-02  0.1196602E+00
         -2   -1    0    0    0  501 -0.00000000000E+00  0.00000000000E+00  0.71530479767E+02  0.71530479767E+02  0.00000000000E+00 0.  1.
          2   -1    0    0  501    0  0.00000000000E+00 -0.00000000000E+00 -0.38527269438E+03  0.38527269438E+03  0.00000000000E+00 0. -1.
         23    2    1    2    0    0 -0.11576411822E+02 -0.97974104687E+02 -0.25096316764E+03  0.28563406957E+03  0.94187959339E+02 0.  0.
          5    1    1    2  502    0  0.33497108114E+02  0.11968135771E+02  0.26948466578E+02  0.44873181041E+02  0.47000000000E+01 0.  1.
         -5    1    1    2    0  502 -0.21920696291E+02  0.86005968916E+02 -0.89727513546E+02  0.12629592354E+03  0.47000000000E+01 0.  1.
        -11    1    3    3    0    0  0.89808412651E+01 -0.38860573791E+02 -0.20273641042E+03  0.20662248623E+03  0.00000000000E+00 0. -1.
         11    1    3    3    0    0 -0.20557253087E+02 -0.59113530896E+02 -0.48226757222E+02  0.79011583338E+02  0.00000000000E+00 0.  1.
<mgrwt>
<rscale>  0 0.15319430E+03</rscale>
<asrwt>0</asrwt>
<pdfrwt beam="2">  1        2 0.59272721E-01 0.15924087E+03</pdfrwt>
<pdfrwt beam="1">  1       -2 0.11004689E-01 0.15924087E+03</pdfrwt>
<totfact> 0.45948390E+03</totfact>
</mgrwt>
</event>
<event>
 7    1  0.1378058E-005  0.1258713E+03  0.7546771E-02  0.1247204E+00
         -1   -1    0    0    0  501 -0.00000000000E+00  0.00000000000E+00  0.16008983690E+03  0.16008983690E+03  0.00000000000E+00 0.  1.
          1   -1    0    0  501    0  0.00000000000E+00 -0.00000000000E+00 -0.17570544222E+03  0.17570544222E+03  0.00000000000E+00 0. -1.
         23    2    1    2    0    0  0.15936829355E+02  0.25484264993E+02 -0.13287684001E+03  0.16376683244E+03  0.90883939735E+02 0.  0.
          5    1    1    2  502    0  0.19421446658E+02  0.34278872689E+02  0.50667900221E+01  0.39999950803E+02  0.47000000000E+01 0. -1.
         -5    1    1    2    0  502 -0.35358276013E+02 -0.59763137681E+02  0.11219444467E+03  0.13202849588E+03  0.47000000000E+01 0.  1.
        -11    1    3    3    0    0  0.28569928863E+02  0.20652156021E+02 -0.14273877916E+03  0.14702758741E+03  0.00000000000E+00 0. -1.
         11    1    3    3    0    0 -0.12633099508E+02  0.48321089718E+01  0.98619391459E+01  0.16739245025E+02  0.00000000000E+00 0.  1.
<mgrwt>
<rscale>  0 0.11754433E+03</rscale>
<asrwt>0</asrwt>
<pdfrwt beam="2">  1        1 0.27031607E-01 0.12587132E+03</pdfrwt>
<pdfrwt beam="1">  1       -1 0.24629206E-01 0.12587132E+03</pdfrwt>
<totfact> 0.23926420E+03</totfact>
</mgrwt>
</event>
<event>
 7    1  0.1378058E-005  0.1535173E+03  0.7546771E-02  0.1203171E+00
          1   -1    0    0  501    0  0.00000000000E+00  0.00000000000E+00  0.85762067001E+02  0.85762067001E+02  0.00000000000E+00 0. -1.
         -1   -1    0    0    0  501 -0.00000000000E+00 -0.00000000000E+00 -0.24484965161E+03  0.24484965161E+03  0.00000000000E+00 0.  1.
         23    2    1    2    0    0  0.80940394639E+02  0.37285035371E+02 -0.45377806484E+02  0.13956857839E+03  0.97358725367E+02 0.  0.
          5    1    1    2  502    0  0.17813931300E+02 -0.47543646073E+02 -0.21075692300E+02  0.55172540599E+02  0.47000000000E+01 0.  1.
         -5    1    1    2    0  502 -0.98754325939E+02  0.10258610702E+02 -0.92634085825E+02  0.13587059962E+03  0.47000000000E+01 0.  1.
        -11    1    3    3    0    0  0.36070625128E+02  0.30638727068E+02  0.26750108500E+02  0.54363497848E+02  0.00000000000E+00 0. -1.
         11    1    3    3    0    0  0.44869769511E+02  0.66463083028E+01 -0.72127914984E+02  0.85205080541E+02  0.00000000000E+00 0.  1.
<mgrwt>
<rscale>  0 0.14782566E+03</rscale>
<asrwt>0</asrwt>
<pdfrwt beam="1">  1        1 0.13194164E-01 0.15351732E+03</pdfrwt>
<pdfrwt beam="2">  1       -1 0.37669177E-01 0.15351732E+03</pdfrwt>
<totfact> 0.29486697E+03</totfact>
</mgrwt>
</event>
<event>
 7    1  0.1378058E-005  0.1454925E+03  0.7546771E-02  0.1212686E+00
         -2   -1    0    0    0  501 -0.00000000000E+00  0.00000000000E+00  0.39529856990E+02  0.39529856990E+02  0.00000000000E+00 0.  1.
          2   -1    0    0  501    0  0.00000000000E+00 -0.00000000000E+00 -0.46920990617E+03  0.46920990617E+03  0.00000000000E+00 0. -1.
         23    2    1    2    0    0  0.25784264105E+02  0.69910024349E+02 -0.18548332341E+03  0.22448617463E+03  0.10216525612E+03 0.  0.
          5    1    1    2  502    0  0.98334588082E+01  0.34942395413E+01 -0.17991173780E+03  0.18027542822E+03  0.47000000000E+01 0. -1.
         -5    1    1    2    0  502 -0.35617722913E+02 -0.73404263890E+02 -0.64284987977E+02  0.10397816031E+03  0.47000000000E+01 0. -1.
        -11    1    3    3    0    0  0.13876327959E+02  0.37615293843E+02 -0.18578780598E+03  0.19006465126E+03  0.00000000000E+00 0. -1.
         11    1    3    3    0    0  0.11907936146E+02  0.32294730506E+02  0.30448256764E+00  0.34421523373E+02  0.00000000000E+00 0.  1.
<mgrwt>
<rscale>  0 0.14047900E+03</rscale>
<asrwt>0</asrwt>
<pdfrwt beam="2">  1        2 0.72186138E-01 0.14549248E+03</pdfrwt>
<pdfrwt beam="1">  1       -2 0.60815166E-02 0.14549248E+03</pdfrwt>
<totfact> 0.92773000E+03</totfact>
</mgrwt>
</event>
<event>
 7    1  0.1378058E-005  0.1470660E+03  0.7546771E-02  0.1213383E+00
          1   -1    0    0  501    0  0.00000000000E+00  0.00000000000E+00  0.12505443319E+03  0.12505443319E+03  0.00000000000E+00 0. -1.
         -1   -1    0    0    0  501 -0.00000000000E+00 -0.00000000000E+00 -0.38319827904E+03  0.38319827904E+03  0.00000000000E+00 0.  1.
         23    2    1    2    0    0  0.17302072120E+02 -0.75521490354E+02  0.76411080634E+02  0.14280036212E+03  0.92468551267E+02 0.  0.
          5    1    1    2  502    0 -0.63725136740E+02  0.99215946798E+01 -0.17860533006E+03  0.18995074367E+03  0.47000000000E+01 0. -1.
         -5    1    1    2    0  502  0.46423064620E+02  0.65599895674E+02 -0.15594959642E+03  0.17550160645E+03  0.47000000000E+01 0. -1.
        -11    1    3    3    0    0  0.41193399020E+01  0.21589728318E+02  0.20033426569E+02  0.29739258737E+02  0.00000000000E+00 0.  1.
         11    1    3    3    0    0  0.13182732218E+02 -0.97111218672E+02  0.56377654064E+02  0.11306110338E+03  0.00000000000E+00 0. -1.
<mgrwt>
<rscale>  0 0.13996017E+03</rscale>
<asrwt>0</asrwt>
<pdfrwt beam="1">  1        1 0.19239144E-01 0.14706604E+03</pdfrwt>
<pdfrwt beam="2">  1       -1 0.58953580E-01 0.14706604E+03</pdfrwt>
<totfact> 0.80296084E+02</totfact>
</mgrwt>
</event>
<event>
 7    1  0.1378058E-005  0.1574967E+03  0.7546771E-02  0.1199824E+00
          2   -1    0    0  501    0  0.00000000000E+00  0.00000000000E+00  0.66872213804E+03  0.66872213804E+03  0.00000000000E+00 0. -1.
         -2   -1    0    0    0  501 -0.00000000000E+00 -0.00000000000E+00 -0.34266618705E+02  0.34266618705E+02  0.00000000000E+00 0.  1.
         23    2    1    2    0    0  0.92100291421E+02  0.26416738074E+02  0.39579907938E+03  0.41704801220E+03  0.89954574695E+02 0.  0.
          5    1    1    2  502    0  0.79700018673E+00 -0.58751219885E+02  0.85080158135E+02  0.10350393401E+03  0.47000000000E+01 0. -1.
         -5    1    1    2    0  502 -0.92897291608E+02  0.32334481811E+02  0.15357628182E+03  0.18243681054E+03  0.47000000000E+01 0. -1.
        -11    1    3    3    0    0  0.18443742089E+02  0.50633359510E+02  0.16264967740E+03  0.17134417492E+03  0.00000000000E+00 0.  1.
         11    1    3    3    0    0  0.73656549331E+02 -0.24216621436E+02  0.23314940198E+03  0.24570383728E+03  0.00000000000E+00 0. -1.
<mgrwt>
<rscale>  0 0.15052958E+03</rscale>
<asrwt>0</asrwt>
<pdfrwt beam="1">  1        2 0.10288032E+00 0.15749671E+03</pdfrwt>
<pdfrwt beam="2">  1       -2 0.52717880E-02 0.15749671E+03</pdfrwt>
<totfact> 0.77608295E+03</totfact>
</mgrwt>
</event>
<event>
 7    1  0.1378058E-005  0.1478825E+03  0.7546771E-02  0.1217245E+00
         -1   -1    0    0    0  501 -0.00000000000E+00  0.00000000000E+00  0.68800639664E+02  0.68800639664E+02  0.00000000000E+00 0.  1.
          1   -1    0    0  501    0  0.00000000000E+00 -0.00000000000E+00 -0.28488951942E+03  0.28488951942E+03  0.00000000000E+00 0. -1.
         23    2    1    2    0    0 -0.57340437398E+02  0.16906461508E+02 -0.16359099569E+03  0.19676575321E+03  0.91547766568E+02 0.  0.
          5    1    1    2  502    0  0.79382125189E+02 -0.37616227452E+02 -0.77627259930E+02  0.11732256327E+03  0.47000000000E+01 0. -1.
         -5    1    1    2    0  502 -0.22041687792E+02  0.20709765944E+02  0.25129375867E+02  0.39601842604E+02  0.47000000000E+01 0.  1.
        -11    1    3    3    0    0 -0.73822492393E+02  0.26472156885E+02 -0.83977482348E+02  0.11490323327E+03  0.00000000000E+00 0.  1.
         11    1    3    3    0    0  0.16482054996E+02 -0.95656953770E+01 -0.79613513345E+02  0.81862519947E+02  0.00000000000E+00 0. -1.
<mgrwt>
<rscale>  0 0.13712928E+03</rscale>
<asrwt>0</asrwt>
<pdfrwt beam="2">  1        1 0.43829156E-01 0.14788253E+03</pdfrwt>
<pdfrwt beam="1">  1       -1 0.10584714E-01 0.14788253E+03</pdfrwt>
<totfact> 0.50271414E+03</totfact>
</mgrwt>
</event>
<event>
 7    1  0.1378058E-005  0.1477866E+03  0.7546771E-02  0.1209401E+00
         -1   -1    0    0    0  501 -0.00000000000E+00  0.00000000000E+00  0.19070850124E+03  0.19070850124E+03  0.00000000000E+00 0.  1.
          1   -1    0    0  501    0  0.00000000000E+00 -0.00000000000E+00 -0.10073245667E+03  0.10073245667E+03  0.00000000000E+00 0. -1.
         23    2    1    2    0    0 -0.72798060489E+02  0.30250405837E+02  0.43435713159E+02  0.13649945328E+03  0.10261966139E+03 0.  0.
          5    1    1    2  502    0  0.10370942678E+03 -0.42376482239E+02  0.24397662859E+02  0.11475516286E+03  0.47000000000E+01 0. -1.
         -5    1    1    2    0  502 -0.30911366290E+02  0.12126076402E+02  0.22142668550E+02  0.40186341776E+02  0.47000000000E+01 0. -1.
        -11    1    3    3    0    0  0.44265134464E+01 -0.11093949049E+02  0.47333357502E+02  0.48817173815E+02  0.00000000000E+00 0.  1.
         11    1    3    3    0    0 -0.77224573935E+02  0.41344354886E+02 -0.38976443436E+01  0.87682279463E+02  0.00000000000E+00 0. -1.
<mgrwt>
<rscale>  0 0.14295958E+03</rscale>
<asrwt>0</asrwt>
<pdfrwt beam="2">  1        1 0.15497301E-01 0.14778656E+03</pdfrwt>
<pdfrwt beam="1">  1       -1 0.29339769E-01 0.14778656E+03</pdfrwt>
<totfact> 0.36576269E+03</totfact>
</mgrwt>
</event>
<event>
 6    1  0.1378058E-005  0.7042428E+03  0.7546771E-02  0.9710004E-01
         -1   -1    0    0    0  501 -0.00000000000E+00  0.00000000000E+00  0.91058400993E+02  0.91058400993E+02  0.00000000000E+00 0.  1.
          1   -1    0    0  501    0  0.00000000000E+00 -0.00000000000E+00 -0.13616479577E+04  0.13616479577E+04  0.00000000000E+00 0. -1.
          5    1    1    2  502    0 -0.49427136961E+02 -0.12152719454E+03 -0.23183471641E+03  0.26642320960E+03  0.47000000000E+01 0.  1.
         -5    1    1    2    0  502 -0.10586237917E+03 -0.91269894296E+01 -0.15634699616E+03  0.18909420528E+03  0.47000000000E+01 0.  1.
        -11    1    1    2    0    0  0.22255848026E+02 -0.11352658262E+03 -0.55822325556E+03  0.57008491541E+03  0.00000000000E+00 0. -1.
         11    1    1    2    0    0  0.13303366810E+03  0.24418076659E+03 -0.32418458862E+03  0.42710402845E+03  0.00000000000E+00 0.  1.
<mgrwt>
<rscale>  0 0.70424282E+03</rscale>
<asrwt>0</asrwt>
<pdfrwt beam="2">  1        1 0.20948430E+00 0.70424282E+03</pdfrwt>
<pdfrwt beam="1">  1       -1 0.14008985E-01 0.70424282E+03</pdfrwt>
<totfact> 0.30609601E+02</totfact>
</mgrwt>
</event>
<event>
 7    1  0.1378058E-005  0.1973587E+03  0.7546771E-02  0.1156363E+00
         -4   -1    0    0    0  501 -0.00000000000E+00  0.00000000000E+00  0.62774557865E+02  0.62774557865E+02  0.00000000000E+00 0.  1.
          4   -1    0    0  501    0  0.00000000000E+00 -0.00000000000E+00 -0.60689092558E+03  0.60689092558E+03  0.00000000000E+00 0. -1.
         23    2    1    2    0    0  0.50405695189E+02  0.14417968529E+03 -0.35080702274E+03  0.39340659694E+03  0.91513209736E+02 0.  0.
          5    1    1    2  502    0 -0.58712261859E+02 -0.81647552869E+02 -0.18739568328E+03  0.21272678415E+03  0.47000000000E+01 0. -1.
         -5    1    1    2    0  502  0.83065666699E+01 -0.62532132416E+02 -0.59136616865E+01  0.63532102349E+02  0.47000000000E+01 0. -1.
        -11    1    3    3    0    0  0.65213239171E+02  0.10471603223E+03 -0.18523669430E+03  0.22255526704E+03  0.00000000000E+00 0.  1.
         11    1    3    3    0    0 -0.14807543981E+02  0.39463653053E+02 -0.16557032844E+03  0.17085132990E+03  0.00000000000E+00 0. -1.
<mgrwt>
<rscale>  0 0.19234465E+03</rscale>
<asrwt>0</asrwt>
<pdfrwt beam="2">  1        4 0.93367836E-01 0.19735873E+03</pdfrwt>
<pdfrwt beam="1">  1       -4 0.96576241E-02 0.19735873E+03</pdfrwt>
<totfact> 0.14317582E+02</totfact>
</mgrwt>
</event>
<event>
 7    1  0.1378058E-005  0.1638534E+03  0.7546771E-02  0.1191335E+00
         -1   -1    0    0    0  501 -0.00000000000E+00  0.00000000000E+00  0.14455738180E+03  0.14455738180E+03  0.00000000000E+00 0.  1.
          1   -1    0    0  501    0  0.00000000000E+00 -0.00000000000E+00 -0.16348748008E+03  0.16348748008E+03  0.00000000000E+00 0. -1.
         23    2    1    2    0    0  0.92914108681E+02  0.50856404094E+02  0.12895268099E+02  0.14112930042E+03  0.92367667875E+02 0.  0.
          5    1    1    2  502    0  0.26905042011E+02  0.72147549012E+01  0.49972394963E+01  0.28687913421E+02  0.47000000000E+01 0.  1.
         -5    1    1    2    0  502 -0.11981915069E+03 -0.58071158995E+02 -0.36822605871E+02  0.13822764804E+03  0.47000000000E+01 0.  1.
        -11    1    3    3    0    0  0.40117537318E+02  0.27260668351E+02 -0.39914580225E+02  0.62815082217E+02  0.00000000000E+00 0. -1.
         11    1    3    3    0    0  0.52796571363E+02  0.23595735743E+02  0.52809848324E+02  0.78314218204E+02  0.00000000000E+00 0.  1.
<mgrwt>
<rscale>  0 0.15768517E+03</rscale>
<asrwt>0</asrwt>
<pdfrwt beam="2">  1        1 0.25151920E-01 0.16385344E+03</pdfrwt>
<pdfrwt beam="1">  1       -1 0.22239597E-01 0.16385344E+03</pdfrwt>
<totfact> 0.31308270E+03</totfact>
</mgrwt>
</event>
<event>
 7    1  0.1378058E-005  0.1543268E+03  0.7546771E-02  0.1203511E+00
         -1   -1    0    0    0  501 -0.00000000000E+00  0.00000000000E+00  0.22115060257E+02  0.22115060257E+02  0.00000000000E+00 0.  1.
          1   -1    0    0  501    0  0.00000000000E+00 -0.00000000000E+00 -0.95712526356E+03  0.95712526356E+03  0.00000000000E+00 0. -1.
         23    2    1    2    0    0 -0.88084405669E+02 -0.20750846001E+02 -0.53917062259E+03  0.55438066357E+03  0.91888517990E+02 0.  0.
          5    1    1    2  502    0  0.43508410893E+02 -0.52516341230E+02 -0.18209669013E+03  0.19450512197E+03  0.47000000000E+01 0.  1.
         -5    1    1    2    0  502  0.44575994776E+02  0.73267187230E+02 -0.21374289058E+03  0.23035453829E+03  0.47000000000E+01 0.  1.
        -11    1    3    3    0    0 -0.49066543288E+02  0.35411023828E+02 -0.24379462957E+03  0.25119173490E+03  0.00000000000E+00 0. -1.
         11    1    3    3    0    0 -0.39017862381E+02 -0.56161869829E+02 -0.29537599302E+03  0.30318892866E+03  0.00000000000E+00 0.  1.
<mgrwt>
<rscale>  0 0.14755440E+03</rscale>
<asrwt>0</asrwt>
<pdfrwt beam="2">  1        1 0.14725006E+00 0.15432679E+03</pdfrwt>
<pdfrwt beam="1">  1       -1 0.34023166E-02 0.15432679E+03</pdfrwt>
<totfact> 0.52841720E+03</totfact>
</mgrwt>
</event>
<event>
 7    1  0.1378058E-005  0.1468351E+03  0.7546771E-02  0.1214241E+00
         -2   -1    0    0    0  501 -0.00000000000E+00  0.00000000000E+00  0.36024104495E+02  0.36024104495E+02  0.00000000000E+00 0. -1.
          2   -1    0    0  501    0  0.00000000000E+00 -0.00000000000E+00 -0.53377881700E+03  0.53377881700E+03  0.00000000000E+00 0.  1.
         23    2    1    2    0    0 -0.57119413045E+00 -0.77038206840E+02 -0.30566882092E+03  0.32802300653E+03  0.90721844986E+02 0.  0.
          5    1    1    2  502    0 -0.93240390107E+01 -0.24752760458E+02 -0.10177441436E+03  0.10526043071E+03  0.47000000000E+01 0.  1.
         -5    1    1    2    0  502  0.98952331411E+01  0.10179096730E+03 -0.90311477219E+02  0.13651948425E+03  0.47000000000E+01 0.  1.
        -11    1    3    3    0    0 -0.18496401501E+02 -0.56890781238E+02 -0.29147090620E+03  0.29754657958E+03  0.00000000000E+00 0.  1.
         11    1    3    3    0    0  0.17925207370E+02 -0.20147425601E+02 -0.14197914722E+02  0.30476426958E+02  0.00000000000E+00 0. -1.
<mgrwt>
<rscale>  0 0.13932433E+03</rscale>
<asrwt>0</asrwt>
<pdfrwt beam="2">  1        2 0.82119812E-01 0.14683507E+03</pdfrwt>
<pdfrwt beam="1">  1       -2 0.55421703E-02 0.14683507E+03</pdfrwt>
<totfact> 0.92713889E+03</totfact>
</mgrwt>
</event>
<event>
 7    1  0.1378058E-005  0.1290343E+03  0.7546771E-02  0.1243091E+00
          3   -1    0    0  501    0  0.00000000000E+00  0.00000000000E+00  0.28567148717E+03  0.28567148717E+03  0.00000000000E+00 0. -1.
         -3   -1    0    0    0  501 -0.00000000000E+00 -0.00000000000E+00 -0.51256861267E+02  0.51256861267E+02  0.00000000000E+00 0.  1.
         23    2    1    2    0    0  0.30844314636E+02  0.85789043293E+01  0.16303013280E+03  0.18946446177E+03  0.91065848300E+02 0.  0.
          5    1    1    2  502    0  0.52721815407E+01 -0.11703851089E+02 -0.33612309255E+02  0.36285718430E+02  0.47000000000E+01 0.  1.
         -5    1    1    2    0  502 -0.36116496177E+02  0.31249467600E+01  0.10499680235E+03  0.11117816824E+03  0.47000000000E+01 0.  1.
        -11    1    3    3    0    0  0.21118174564E+02 -0.29350994723E+02  0.20314561403E+02  0.41474565617E+02  0.00000000000E+00 0.  1.
         11    1    3    3    0    0  0.97261400717E+01  0.37929899052E+02  0.14271557140E+03  0.14798989615E+03  0.00000000000E+00 0. -1.
<mgrwt>
<rscale>  0 0.12000352E+03</rscale>
<asrwt>0</asrwt>
<pdfrwt beam="1">  1        3 0.43949459E-01 0.12903431E+03</pdfrwt>
<pdfrwt beam="2">  1       -3 0.78856711E-02 0.12903431E+03</pdfrwt>
<totfact> 0.12880301E+03</totfact>
</mgrwt>
</event>
<event>
 7    1  0.1378058E-005  0.1491096E+03  0.7546771E-02  0.1209984E+00
          2   -1    0    0  501    0  0.00000000000E+00  0.00000000000E+00  0.14060476356E+03  0.14060476356E+03  0.00000000000E+00 0. -1.
         -2   -1    0    0    0  501 -0.00000000000E+00 -0.00000000000E+00 -0.13305979162E+03  0.13305979162E+03  0.00000000000E+00 0.  1.
         23    2    1    2    0    0  0.63552614008E+02  0.50706627275E+02  0.18333113085E+01  0.12444557613E+03  0.94197895900E+02 0.  0.
          5    1    1    2  502    0 -0.55960784913E+02  0.26907591265E+02  0.27556792461E+02  0.68096216682E+02  0.47000000000E+01 0.  1.
         -5    1    1    2    0  502 -0.75918290952E+01 -0.77614218540E+02 -0.21845131826E+02  0.81122762361E+02  0.47000000000E+01 0.  1.
        -11    1    3    3    0    0  0.54999166187E+02  0.60945839921E+02  0.34584748848E+02  0.89080910064E+02  0.00000000000E+00 0. -1.
         11    1    3    3    0    0  0.85534478208E+01 -0.10239212646E+02 -0.32751437540E+02  0.35364666069E+02  0.00000000000E+00 0.  1.
<mgrwt>
<rscale>  0 0.14251558E+03</rscale>
<asrwt>0</asrwt>
<pdfrwt beam="1">  1        2 0.21631502E-01 0.14910963E+03</pdfrwt>
<pdfrwt beam="2">  1       -2 0.20470737E-01 0.14910963E+03</pdfrwt>
<totfact> 0.49184115E+03</totfact>
</mgrwt>
</event>
<event>
 7    1  0.1378058E-005  0.2539229E+03  0.7546771E-02  0.1113174E+00
          2   -1    0    0  501    0  0.00000000000E+00  0.00000000000E+00  0.38578668443E+03  0.38578668443E+03  0.00000000000E+00 0. -1.
         -2   -1    0    0    0  501 -0.00000000000E+00 -0.00000000000E+00 -0.19303726308E+03  0.19303726308E+03  0.00000000000E+00 0.  1.
         23    2    1    2    0    0  0.21150059105E+03 -0.64173911399E+02 -0.29735827523E+02  0.24121987634E+03  0.91934859478E+02 0.  0.
          5    1    1    2  502    0  0.30102694722E+01  0.20555163278E+02  0.63618395322E+02  0.67089244168E+02  0.47000000000E+01 0. -1.
         -5    1    1    2    0  502 -0.21451086052E+03  0.43618748121E+02  0.15886685356E+03  0.27051482700E+03  0.47000000000E+01 0. -1.
        -11    1    3    3    0    0  0.86587881568E+02 -0.75958496147E+01 -0.53473549461E+02  0.10205184299E+03  0.00000000000E+00 0.  1.
         11    1    3    3    0    0  0.12491270948E+03 -0.56578061784E+02  0.23737721938E+02  0.13916803335E+03  0.00000000000E+00 0. -1.
<mgrwt>
<rscale>  0 0.25020636E+03</rscale>
<asrwt>0</asrwt>
<pdfrwt beam="1">  1        2 0.59351798E-01 0.25392287E+03</pdfrwt>
<pdfrwt beam="2">  1       -2 0.29698040E-01 0.25392287E+03</pdfrwt>
<totfact> 0.86695749E+02</totfact>
</mgrwt>
</event>
<event>
 7    1  0.1378058E-005  0.1434852E+03  0.7546771E-02  0.1219539E+00
         -2   -1    0    0    0  501 -0.00000000000E+00  0.00000000000E+00  0.17362350999E+02  0.17362350999E+02  0.00000000000E+00 0.  1.
          2   -1    0    0  501    0  0.00000000000E+00 -0.00000000000E+00 -0.95629449932E+03  0.95629449932E+03  0.00000000000E+00 0. -1.
         23    2    1    2    0    0 -0.27461752721E+02 -0.64890478750E+02 -0.43331521336E+03  0.44807479138E+03  0.89688474420E+02 0.  0.
          5    1    1    2  502    0  0.38315800850E+02  0.99542331645E+02 -0.38508018041E+03  0.39960682142E+03  0.47000000000E+01 0.  1.
         -5    1    1    2    0  502 -0.10854048129E+02 -0.34651852895E+02 -0.12053675456E+03  0.12597523752E+03  0.47000000000E+01 0.  1.
        -11    1    3    3    0    0 -0.57975921500E+02 -0.48845922323E+02 -0.23932522004E+03  0.25104520021E+03  0.00000000000E+00 0.  1.
         11    1    3    3    0    0  0.30514168779E+02 -0.16044556427E+02 -0.19398999332E+03  0.19702959117E+03  0.00000000000E+00 0. -1.
<mgrwt>
<rscale>  0 0.13548328E+03</rscale>
<asrwt>0</asrwt>
<pdfrwt beam="2">  1        2 0.14712227E+00 0.14348525E+03</pdfrwt>
<pdfrwt beam="1">  1       -2 0.26711302E-02 0.14348525E+03</pdfrwt>
<totfact> 0.13545041E+04</totfact>
</mgrwt>
</event>
<event>
 7    1  0.1378058E-005  0.1645444E+03  0.7546771E-02  0.1204413E+00
         -2   -1    0    0    0  501 -0.00000000000E+00  0.00000000000E+00  0.24448247901E+02  0.24448247901E+02  0.00000000000E+00 0.  1.
          2   -1    0    0  501    0  0.00000000000E+00 -0.00000000000E+00 -0.82317669326E+03  0.82317669326E+03  0.00000000000E+00 0. -1.
         23    2    1    2    0    0 -0.33790536500E+02 -0.36695337405E+02 -0.45121485933E+03  0.46312456680E+03  0.91657879934E+02 0.  0.
          5    1    1    2  502    0  0.63268740849E+02  0.14512000450E+02 -0.34048759705E+03  0.34665173514E+03  0.47000000000E+01 0. -1.
         -5    1    1    2    0  502 -0.29478204348E+02  0.22183336955E+02 -0.70259889808E+01  0.37848639226E+02  0.47000000000E+01 0.  1.
        -11    1    3    3    0    0 -0.44677836161E+02  0.15145284231E+02 -0.27856156086E+03  0.28252793113E+03  0.00000000000E+00 0. -1.
         11    1    3    3    0    0  0.10887299660E+02 -0.51840621636E+02 -0.17265329847E+03  0.18059663567E+03  0.00000000000E+00 0.  1.
<mgrwt>
<rscale>  0 0.14683795E+03</rscale>
<asrwt>0</asrwt>
<pdfrwt beam="2">  1        2 0.12664257E+00 0.16454436E+03</pdfrwt>
<pdfrwt beam="1">  1       -2 0.37612687E-02 0.16454436E+03</pdfrwt>
<totfact> 0.10016965E+04</totfact>
</mgrwt>
</event>
<event>
 7    1  0.1378058E-005  0.1623400E+03  0.7546771E-02  0.1193501E+00
         -4   -1    0    0    0  501 -0.00000000000E+00  0.00000000000E+00  0.89489344451E+02  0.89489344451E+02  0.00000000000E+00 0.  1.
          4   -1    0    0  501    0  0.00000000000E+00 -0.00000000000E+00 -0.25279998631E+03  0.25279998631E+03  0.00000000000E+00 0. -1.
         23    2    1    2    0    0  0.70732256266E+02  0.75674464258E+02 -0.86602774778E+02  0.16273887217E+03  0.90852756145E+02 0.  0.
          5    1    1    2  502    0 -0.37322357961E+02 -0.45077250367E+02  0.28236573266E+02  0.65148376605E+02  0.47000000000E+01 0.  1.
         -5    1    1    2    0  502 -0.33409898305E+02 -0.30597213891E+02 -0.10494444034E+03  0.11440208198E+03  0.47000000000E+01 0.  1.
        -11    1    3    3    0    0  0.50229429397E+02  0.95052145606E+02 -0.79322093455E+02  0.13360351968E+03  0.00000000000E+00 0. -1.
         11    1    3    3    0    0  0.20502826869E+02 -0.19377681348E+02 -0.72806813230E+01  0.29135352487E+02  0.00000000000E+00 0.  1.
<mgrwt>
<rscale>  0 0.15581788E+03</rscale>
<asrwt>0</asrwt>
<pdfrwt beam="2">  1        4 0.38892305E-01 0.16233998E+03</pdfrwt>
<pdfrwt beam="1">  1       -4 0.13767592E-01 0.16233998E+03</pdfrwt>
<totfact> 0.48332020E+02</totfact>
</mgrwt>
</event>
<event>
 7    1  0.1378058E-005  0.1282569E+03  0.7546771E-02  0.1244589E+00
         -4   -1    0    0    0  501 -0.00000000000E+00  0.00000000000E+00  0.10121033678E+03  0.10121033678E+03  0.00000000000E+00 0.  1.
          4   -1    0    0  501    0  0.00000000000E+00 -0.00000000000E+00 -0.12561124655E+03  0.12561124655E+03  0.00000000000E+00 0. -1.
         23    2    1    2    0    0  0.20735883505E+02  0.19849470886E+02 -0.24892681412E+02  0.98563697039E+02  0.90946019302E+02 0.  0.
          5    1    1    2  502    0 -0.38404142115E+02  0.85439009699E+01 -0.52284363592E+02  0.65601989692E+02  0.47000000000E+01 0.  1.
         -5    1    1    2    0  502  0.17668258610E+02 -0.28393371856E+02  0.52776135236E+02  0.62655896595E+02  0.47000000000E+01 0.  1.
        -11    1    3    3    0    0 -0.16771608456E+02 -0.12261337019E+02 -0.41549809806E+02  0.46454428536E+02  0.00000000000E+00 0. -1.
         11    1    3    3    0    0  0.37507491961E+02  0.32110807904E+02  0.16657128394E+02  0.52109268502E+02  0.00000000000E+00 0.  1.
<mgrwt>
<rscale>  0 0.11910005E+03</rscale>
<asrwt>0</asrwt>
<pdfrwt beam="2">  1        4 0.19324807E-01 0.12825694E+03</pdfrwt>
<pdfrwt beam="1">  1       -4 0.15570821E-01 0.12825694E+03</pdfrwt>
<totfact> 0.13782367E+03</totfact>
</mgrwt>
</event>
<event>
 7    1  0.1378058E-005  0.1534563E+03  0.7546771E-02  0.1205723E+00
          2   -1    0    0  501    0  0.00000000000E+00  0.00000000000E+00  0.55542163521E+03  0.55542163521E+03  0.00000000000E+00 0. -1.
         -2   -1    0    0    0  501 -0.00000000000E+00 -0.00000000000E+00 -0.48302444004E+02  0.48302444004E+02  0.00000000000E+00 0.  1.
         23    2    1    2    0    0 -0.80258551990E+02  0.38466559080E+02  0.39318162255E+03  0.41259428383E+03  0.87870036986E+02 0.  0.
          5    1    1    2  502    0 -0.30211519601E+02 -0.10480739690E+02  0.37442252359E+01  0.32537532846E+02  0.47000000000E+01 0.  1.
         -5    1    1    2    0  502  0.11047007159E+03 -0.27985819390E+02  0.11019334342E+03  0.15859226254E+03  0.47000000000E+01 0.  1.
        -11    1    3    3    0    0 -0.65231142287E+02 -0.11570380347E+01  0.33085053458E+03  0.33722176219E+03  0.00000000000E+00 0. -1.
         11    1    3    3    0    0 -0.15027409703E+02  0.39623597115E+02  0.62331087974E+02  0.75372521642E+02  0.00000000000E+00 0.  1.
<mgrwt>
<rscale>  0 0.14580617E+03</rscale>
<asrwt>0</asrwt>
<pdfrwt beam="1">  1        2 0.85449478E-01 0.15345628E+03</pdfrwt>
<pdfrwt beam="2">  1       -2 0.74311456E-02 0.15345628E+03</pdfrwt>
<totfact> 0.56822853E+03</totfact>
</mgrwt>
</event>
<event>
 7    1  0.1378058E-005  0.3840992E+03  0.7546771E-02  0.1095907E+00
          2   -1    0    0  501    0  0.00000000000E+00  0.00000000000E+00  0.21995509383E+03  0.21995509383E+03  0.00000000000E+00 0. -1.
         -2   -1    0    0    0  501 -0.00000000000E+00 -0.00000000000E+00 -0.27587155505E+03  0.27587155505E+03  0.00000000000E+00 0.  1.
         23    2    1    2    0    0 -0.43026967648E+02  0.39109257511E+02 -0.12651874086E+01  0.10785887656E+03  0.90835469859E+02 0.  0.
          5    1    1    2  502    0  0.87865272804E+02 -0.98264041831E+02  0.13226662743E+03  0.18679582119E+03  0.47000000000E+01 0. -1.
         -5    1    1    2    0  502 -0.44838305156E+02  0.59154784319E+02 -0.18691790124E+03  0.20117195113E+03  0.47000000000E+01 0.  1.
        -11    1    3    3    0    0  0.11022231749E+01  0.52530132109E+02  0.21072267326E+02  0.56609805914E+02  0.00000000000E+00 0.  1.
         11    1    3    3    0    0 -0.44129190823E+02 -0.13420874598E+02 -0.22337454734E+02  0.51249070642E+02  0.00000000000E+00 0. -1.
<mgrwt>
<rscale>  0 0.27960124E+03</rscale>
<asrwt>0</asrwt>
<pdfrwt beam="1">  1        2 0.33839245E-01 0.38409925E+03</pdfrwt>
<pdfrwt beam="2">  1       -2 0.42441778E-01 0.38409925E+03</pdfrwt>
<totfact> 0.81934072E+02</totfact>
</mgrwt>
</event>
<event>
 7    1  0.1378058E-005  0.1454723E+03  0.7546771E-02  0.1216120E+00
         -2   -1    0    0    0  501 -0.00000000000E+00  0.00000000000E+00  0.74502515291E+02  0.74502515291E+02  0.00000000000E+00 0.  1.
          2   -1    0    0  501    0  0.00000000000E+00 -0.00000000000E+00 -0.27339205622E+03  0.27339205622E+03  0.00000000000E+00 0. -1.
         23    2    1    2    0    0 -0.68510585558E+02  0.29364882020E+02 -0.15764075023E+03  0.19668725238E+03  0.90990507669E+02 0.  0.
          5    1    1    2  502    0 -0.11752588039E+02  0.30018905377E+02  0.15705095256E+02  0.36166255303E+02  0.47000000000E+01 0. -1.
         -5    1    1    2    0  502  0.80263173596E+02 -0.59383787397E+02 -0.56953885950E+02  0.11504106383E+03  0.47000000000E+01 0. -1.
        -11    1    3    3    0    0 -0.33780920367E+02 -0.20085911043E+02 -0.11811146324E+03  0.12447856101E+03  0.00000000000E+00 0. -1.
         11    1    3    3    0    0 -0.34729665191E+02  0.49450793063E+02 -0.39529286992E+02  0.72208691367E+02  0.00000000000E+00 0.  1.
<mgrwt>
<rscale>  0 0.13794586E+03</rscale>
<asrwt>0</asrwt>
<pdfrwt beam="2">  1        2 0.42060316E-01 0.14547230E+03</pdfrwt>
<pdfrwt beam="1">  1       -2 0.11461925E-01 0.14547230E+03</pdfrwt>
<totfact> 0.61750100E+03</totfact>
</mgrwt>
</event>
<event>
 7    1  0.1378058E-005  0.1458877E+03  0.7546771E-02  0.1216114E+00
         -1   -1    0    0    0  501 -0.00000000000E+00  0.00000000000E+00  0.42756069212E+03  0.42756069212E+03  0.00000000000E+00 0.  1.
          1   -1    0    0  501    0  0.00000000000E+00 -0.00000000000E+00 -0.40925191273E+02  0.40925191273E+02  0.00000000000E+00 0. -1.
         23    2    1    2    0    0 -0.73662669582E+02 -0.15166602411E+02  0.14328114780E+03  0.18475261363E+03  0.89150581656E+02 0.  0.
          5    1    1    2  502    0 -0.26941463435E+01 -0.44658817577E+02  0.10931440935E+03  0.11820913037E+03  0.47000000000E+01 0.  1.
         -5    1    1    2    0  502  0.76356815925E+02  0.59825419988E+02  0.13403994370E+03  0.16552413939E+03  0.47000000000E+01 0.  1.
        -11    1    3    3    0    0 -0.86346169551E+02 -0.15233288261E+02  0.14732316798E+03  0.17144045582E+03  0.00000000000E+00 0.  1.
         11    1    3    3    0    0  0.12683499969E+02  0.66685849533E-01 -0.40420201800E+01  0.13312157812E+02  0.00000000000E+00 0. -1.
<mgrwt>
<rscale>  0 0.13795027E+03</rscale>
<asrwt>0</asrwt>
<pdfrwt beam="2">  1        1 0.62961836E-02 0.14588772E+03</pdfrwt>
<pdfrwt beam="1">  1       -1 0.65778565E-01 0.14588772E+03</pdfrwt>
<totfact> 0.28422996E+03</totfact>
</mgrwt>
</event>
<event>
 7    1  0.1378058E-005  0.1352073E+03  0.7546771E-02  0.1231523E+00
          3   -1    0    0  501    0  0.00000000000E+00  0.00000000000E+00  0.12196410216E+03  0.12196410216E+03  0.00000000000E+00 0. -1.
         -3   -1    0    0    0  501 -0.00000000000E+00 -0.00000000000E+00 -0.13657324325E+03  0.13657324325E+03  0.00000000000E+00 0.  1.
         23    2    1    2    0    0  0.71878872830E+00 -0.51528889710E+02  0.38890575274E+02  0.11313022217E+03  0.92899016096E+02 0.  0.
          5    1    1    2  502    0 -0.30379687387E+02 -0.21143460455E+02 -0.55351842265E+02  0.66752436419E+02  0.47000000000E+01 0.  1.
         -5    1    1    2    0  502  0.29660898659E+02  0.72672350165E+02  0.18521259054E+01  0.78654686816E+02  0.47000000000E+01 0.  1.
        -11    1    3    3    0    0  0.35030665084E+02 -0.53466969562E+02  0.38300619909E+01  0.64035409776E+02  0.00000000000E+00 0.  1.
         11    1    3    3    0    0 -0.34311876355E+02  0.19380798524E+01  0.35060513283E+02  0.49094812396E+02  0.00000000000E+00 0. -1.
<mgrwt>
<rscale>  0 0.12729679E+03</rscale>
<asrwt>0</asrwt>
<pdfrwt beam="1">  1        3 0.18763708E-01 0.13520729E+03</pdfrwt>
<pdfrwt beam="2">  1       -3 0.21011268E-01 0.13520729E+03</pdfrwt>
<totfact> 0.11883289E+03</totfact>
</mgrwt>
</event>
<event>
 7    1  0.1378058E-005  0.1685091E+03  0.7546771E-02  0.1187043E+00
         -2   -1    0    0    0  501 -0.00000000000E+00  0.00000000000E+00  0.32889518343E+02  0.32889518343E+02  0.00000000000E+00 0.  1.
          2   -1    0    0  501    0  0.00000000000E+00 -0.00000000000E+00 -0.74532501825E+03  0.74532501825E+03  0.00000000000E+00 0. -1.
         23    2    1    2    0    0  0.69856948777E+02  0.88823314909E+02 -0.37571833254E+03  0.40168594046E+03  0.86126388478E+02 0.  0.
          5    1    1    2  502    0 -0.12356450126E+02 -0.59582112970E+02 -0.29098009386E+03  0.29731164637E+03  0.47000000000E+01 0. -1.
         -5    1    1    2    0  502 -0.57500498651E+02 -0.29241201940E+02 -0.45737073501E+02  0.79216949754E+02  0.47000000000E+01 0. -1.
        -11    1    3    3    0    0 -0.81978684296E+01  0.55761020833E+02 -0.12779203268E+03  0.13966853657E+03  0.00000000000E+00 0.  1.
         11    1    3    3    0    0  0.78054817207E+02  0.33062294076E+02 -0.24792629986E+03  0.26201740389E+03  0.00000000000E+00 0. -1.
<mgrwt>
<rscale>  0 0.16147395E+03</rscale>
<asrwt>0</asrwt>
<pdfrwt beam="2">  1        2 0.11466538E+00 0.16850915E+03</pdfrwt>
<pdfrwt beam="1">  1       -2 0.50599262E-02 0.16850915E+03</pdfrwt>
<totfact> 0.72748315E+03</totfact>
</mgrwt>
</event>
<event>
 7    1  0.1378058E-005  0.1449182E+03  0.7546771E-02  0.1216902E+00
         -2   -1    0    0    0  501 -0.00000000000E+00  0.00000000000E+00  0.10371769344E+04  0.10371769344E+04  0.00000000000E+00 0.  1.
          2   -1    0    0  501    0  0.00000000000E+00 -0.00000000000E+00 -0.16839630907E+02  0.16839630907E+02  0.00000000000E+00 0. -1.
         23    2    1    2    0    0 -0.44339249853E+02 -0.58402437654E+02  0.38681587662E+03  0.40413143907E+03  0.91207915439E+02 0.  0.
          5    1    1    2  502    0  0.86190305830E+02  0.25623991397E+02  0.44134952725E+03  0.45044073190E+03  0.47000000000E+01 0. -1.
         -5    1    1    2    0  502 -0.41851055977E+02  0.32778446257E+02  0.19217189960E+03  0.19944439431E+03  0.47000000000E+01 0. -1.
        -11    1    3    3    0    0  0.37125443286E+01 -0.66037253340E+02  0.18291679427E+03  0.19450772592E+03  0.00000000000E+00 0.  1.
         11    1    3    3    0    0 -0.48051794182E+02  0.76348156870E+01  0.20389908234E+03  0.20962371315E+03  0.00000000000E+00 0. -1.
<mgrwt>
<rscale>  0 0.13737736E+03</rscale>
<asrwt>0</asrwt>
<pdfrwt beam="2">  1        2 0.25907133E-02 0.14491818E+03</pdfrwt>
<pdfrwt beam="1">  1       -2 0.15956563E+00 0.14491818E+03</pdfrwt>
<totfact> 0.10033042E+03</totfact>
</mgrwt>
</event>
<event>
 7    1  0.1378058E-005  0.1258794E+03  0.7546771E-02  0.1248132E+00
         -2   -1    0    0    0  501 -0.00000000000E+00  0.00000000000E+00  0.39640195877E+02  0.39640195877E+02  0.00000000000E+00 0.  1.
          2   -1    0    0  501    0  0.00000000000E+00 -0.00000000000E+00 -0.32582835516E+03  0.32582835516E+03  0.00000000000E+00 0. -1.
         23    2    1    2    0    0  0.49696967640E+01 -0.13999056258E+02 -0.16966691678E+03  0.19393770392E+03  0.92759360117E+02 0.  0.
          5    1    1    2  502    0 -0.12405154950E+02 -0.33904245903E+01  0.25091137479E+02  0.28583877068E+02  0.47000000000E+01 0. -1.
         -5    1    1    2    0  502  0.74354581858E+01  0.17389480849E+02 -0.14161237999E+03  0.14294697006E+03  0.47000000000E+01 0. -1.
        -11    1    3    3    0    0  0.34571526846E+02 -0.21951970173E+02 -0.29532061533E+02  0.50489821958E+02  0.00000000000E+00 0.  1.
         11    1    3    3    0    0 -0.29601830082E+02  0.79529139145E+01 -0.14013485524E+03  0.14344788196E+03  0.00000000000E+00 0. -1.
<mgrwt>
<rscale>  0 0.11699849E+03</rscale>
<asrwt>0</asrwt>
<pdfrwt beam="2">  1        2 0.50127440E-01 0.12587943E+03</pdfrwt>
<pdfrwt beam="1">  1       -2 0.60984915E-02 0.12587943E+03</pdfrwt>
<totfact> 0.13498570E+04</totfact>
</mgrwt>
</event>
<event>
 7    1  0.1378058E-005  0.1351735E+03  0.7546771E-02  0.1229311E+00
         -2   -1    0    0    0  501 -0.00000000000E+00  0.00000000000E+00  0.39524344983E+02  0.39524344983E+02  0.00000000000E+00 0.  1.
          2   -1    0    0  501    0  0.00000000000E+00 -0.00000000000E+00 -0.40333739442E+03  0.40333739442E+03  0.00000000000E+00 0. -1.
         23    2    1    2    0    0 -0.30922834871E+02 -0.56637051059E+02 -0.21313942783E+03  0.24044036170E+03  0.90659663414E+02 0.  0.
          5    1    1    2  502    0  0.36942311452E+02 -0.28065776349E+02 -0.76405240207E+02  0.89511300452E+02  0.47000000000E+01 0. -1.
         -5    1    1    2    0  502 -0.60194765804E+01  0.84702827408E+02 -0.74268381402E+02  0.11291007725E+03  0.47000000000E+01 0.  1.
        -11    1    3    3    0    0 -0.15782648548E+02  0.18649667939E+02 -0.10501681091E+03  0.10782129976E+03  0.00000000000E+00 0.  1.
         11    1    3    3    0    0 -0.15140186323E+02 -0.75286718998E+02 -0.10812261693E+03  0.13261906194E+03  0.00000000000E+00 0. -1.
<mgrwt>
<rscale>  0 0.12875751E+03</rscale>
<asrwt>0</asrwt>
<pdfrwt beam="2">  1        2 0.62051905E-01 0.13517350E+03</pdfrwt>
<pdfrwt beam="1">  1       -2 0.60806687E-02 0.13517350E+03</pdfrwt>
<totfact> 0.10869184E+04</totfact>
</mgrwt>
</event>
<event>
 7    1  0.1378058E-005  0.1344187E+03  0.7546771E-02  0.1233532E+00
         -3   -1    0    0    0  501 -0.00000000000E+00  0.00000000000E+00  0.54910625264E+02  0.54910625264E+02  0.00000000000E+00 0.  1.
          3   -1    0    0  501    0  0.00000000000E+00 -0.00000000000E+00 -0.30556188162E+03  0.30556188162E+03  0.00000000000E+00 0. -1.
         23    2    1    2    0    0  0.51620440500E+02  0.21868072271E+02 -0.18211391204E+03  0.20958923150E+03  0.87288524680E+02 0.  0.
          5    1    1    2  502    0 -0.22815117512E+02 -0.52392967899E+02 -0.87480441059E+02  0.10459670282E+03  0.47000000000E+01 0. -1.
         -5    1    1    2    0  502 -0.28805322988E+02  0.30524895628E+02  0.18943096744E+02  0.46286572565E+02  0.47000000000E+01 0.  1.
        -11    1    3    3    0    0  0.18011459470E+02  0.50528141499E+02 -0.64122801271E+02  0.83601671026E+02  0.00000000000E+00 0. -1.
         11    1    3    3    0    0  0.33608981031E+02 -0.28660069228E+02 -0.11799111077E+03  0.12598756048E+03  0.00000000000E+00 0.  1.
<mgrwt>
<rscale>  0 0.12598891E+03</rscale>
<asrwt>0</asrwt>
<pdfrwt beam="2">  1        3 0.47009521E-01 0.13441873E+03</pdfrwt>
<pdfrwt beam="1">  1       -3 0.84477884E-02 0.13441873E+03</pdfrwt>
<totfact> 0.10157715E+03</totfact>
</mgrwt>
</event>
<event>
 7    1  0.1378058E-005  0.2099169E+03  0.7546771E-02  0.1141632E+00
         -1   -1    0    0    0  501 -0.00000000000E+00  0.00000000000E+00  0.40447271551E+02  0.40447271551E+02  0.00000000000E+00 0.  1.
          1   -1    0    0  501    0  0.00000000000E+00 -0.00000000000E+00 -0.27236151992E+03  0.27236151992E+03  0.00000000000E+00 0. -1.
         23    2    1    2    0    0 -0.18630060940E+02  0.32097138865E+02 -0.98841431930E+02  0.12650058986E+03  0.69681167286E+02 0.  0.
          5    1    1    2  502    0 -0.14732349270E+00  0.47438696622E+02 -0.59542675014E+02  0.76274974856E+02  0.47000000000E+01 0. -1.
         -5    1    1    2    0  502  0.18777384432E+02 -0.79535835488E+02 -0.73530141427E+02  0.11003322676E+03  0.47000000000E+01 0. -1.
        -11    1    3    3    0    0 -0.36898766997E+02  0.43672005349E+02 -0.75085908197E+02  0.94375084990E+02  0.00000000000E+00 0. -1.
         11    1    3    3    0    0  0.18268706058E+02 -0.11574866483E+02 -0.23755523733E+02  0.32125504867E+02  0.00000000000E+00 0.  1.
<mgrwt>
<rscale>  0 0.20991694E+03</rscale>
<asrwt>0</asrwt>
<pdfrwt beam="2">  1        1 0.41901771E-01 0.20991694E+03</pdfrwt>
<pdfrwt beam="1">  1       -1 0.62226573E-02 0.20991694E+03</pdfrwt>
<totfact> 0.12188549E+04</totfact>
</mgrwt>
</event>
<event>
 7    1  0.1378058E-005  0.1496652E+03  0.7546771E-02  0.1215590E+00
         -1   -1    0    0    0  501 -0.00000000000E+00  0.00000000000E+00  0.24098987969E+03  0.24098987969E+03  0.00000000000E+00 0.  1.
          1   -1    0    0  501    0  0.00000000000E+00 -0.00000000000E+00 -0.70304953408E+02  0.70304953408E+02  0.00000000000E+00 0. -1.
         23    2    1    2    0    0 -0.56476713588E+02 -0.21580651461E+02  0.88280574269E+02  0.14044359834E+03  0.90970329381E+02 0.  0.
          5    1    1    2  502    0 -0.54144981867E+01 -0.49224496575E+02  0.51863011702E+02  0.71862576050E+02  0.47000000000E+01 0. -1.
         -5    1    1    2    0  502  0.61891211774E+02  0.70805148036E+02  0.30541340309E+02  0.98988658700E+02  0.47000000000E+01 0.  1.
        -11    1    3    3    0    0 -0.54933573894E+02  0.19469551683E+02  0.79267109176E+02  0.98387171830E+02  0.00000000000E+00 0.  1.
         11    1    3    3    0    0 -0.15431396932E+01 -0.41050203144E+02  0.90134650926E+01  0.42056426515E+02  0.00000000000E+00 0. -1.
<mgrwt>
<rscale>  0 0.13833273E+03</rscale>
<asrwt>0</asrwt>
<pdfrwt beam="2">  1        1 0.10816147E-01 0.14966518E+03</pdfrwt>
<pdfrwt beam="1">  1       -1 0.37075366E-01 0.14966518E+03</pdfrwt>
<totfact> 0.39324507E+03</totfact>
</mgrwt>
</event>
<event>
 7    1  0.1378058E-005  0.1430689E+03  0.7546771E-02  0.1219721E+00
          2   -1    0    0  501    0  0.00000000000E+00  0.00000000000E+00  0.43193179184E+03  0.43193179184E+03  0.00000000000E+00 0. -1.
         -2   -1    0    0    0  501 -0.00000000000E+00 -0.00000000000E+00 -0.38651790087E+02  0.38651790087E+02  0.00000000000E+00 0.  1.
         23    2    1    2    0    0 -0.10742167769E+02 -0.68782323214E+02  0.19263244584E+03  0.22415277944E+03  0.91053869701E+02 0.  0.
          5    1    1    2  502    0  0.25771738809E+02  0.49329074155E+02  0.21179240863E+03  0.21903345505E+03  0.47000000000E+01 0.  1.
         -5    1    1    2    0  502 -0.15029571040E+02  0.19453249059E+02 -0.11144852712E+02  0.27397347437E+02  0.47000000000E+01 0.  1.
        -11    1    3    3    0    0 -0.39726146653E+01 -0.87962157914E+02  0.12072680298E+03  0.14942584733E+03  0.00000000000E+00 0.  1.
         11    1    3    3    0    0 -0.67695531034E+01  0.19179834700E+02  0.71905642861E+02  0.74726932117E+02  0.00000000000E+00 0. -1.
<mgrwt>
<rscale>  0 0.13535420E+03</rscale>
<asrwt>0</asrwt>
<pdfrwt beam="1">  1        2 0.66451041E-01 0.14306886E+03</pdfrwt>
<pdfrwt beam="2">  1       -2 0.59464296E-02 0.14306886E+03</pdfrwt>
<totfact> 0.10488716E+04</totfact>
</mgrwt>
</event>
<event>
 7    1  0.1378058E-005  0.1562307E+03  0.7546771E-02  0.1201031E+00
          1   -1    0    0  501    0  0.00000000000E+00  0.00000000000E+00  0.32785430233E+03  0.32785430233E+03  0.00000000000E+00 0. -1.
         -1   -1    0    0    0  501 -0.00000000000E+00 -0.00000000000E+00 -0.68073492032E+02  0.68073492032E+02  0.00000000000E+00 0.  1.
         23    2    1    2    0    0  0.47889273109E+02 -0.80555414352E+02  0.17335877682E+03  0.21738701228E+03  0.91767588772E+02 0.  0.
          5    1    1    2  502    0  0.15814099966E+02  0.55326387091E+02  0.93089863149E+02  0.10953952477E+03  0.47000000000E+01 0.  1.
         -5    1    1    2    0  502 -0.63703373075E+02  0.25229027261E+02 -0.66678296675E+01  0.69001257308E+02  0.47000000000E+01 0.  1.
        -11    1    3    3    0    0 -0.27120677204E+02 -0.29305836556E+02  0.60828451403E+02  0.72763065413E+02  0.00000000000E+00 0.  1.
         11    1    3    3    0    0  0.75009950313E+02 -0.51249577796E+02  0.11253032541E+03  0.14462394687E+03  0.00000000000E+00 0. -1.
<mgrwt>
<rscale>  0 0.14954712E+03</rscale>
<asrwt>0</asrwt>
<pdfrwt beam="1">  1        1 0.50439122E-01 0.15623074E+03</pdfrwt>
<pdfrwt beam="2">  1       -1 0.10472845E-01 0.15623074E+03</pdfrwt>
<totfact> 0.43036144E+03</totfact>
</mgrwt>
</event>
<event>
 7    1  0.1378058E-005  0.1451238E+03  0.7546771E-02  0.1216487E+00
         -1   -1    0    0    0  501 -0.00000000000E+00  0.00000000000E+00  0.19300324872E+03  0.19300324872E+03  0.00000000000E+00 0.  1.
          1   -1    0    0  501    0  0.00000000000E+00 -0.00000000000E+00 -0.13553491921E+03  0.13553491921E+03  0.00000000000E+00 0. -1.
         23    2    1    2    0    0 -0.22143016033E+02  0.70277619362E+02 -0.68767297720E+02  0.13619378170E+03  0.91599934469E+02 0.  0.
          5    1    1    2  502    0 -0.21766631142E+02  0.15203880918E+02  0.82241360503E+02  0.86548689208E+02  0.47000000000E+01 0. -1.
         -5    1    1    2    0  502  0.43909647175E+02 -0.85481500281E+02  0.43994266721E+02  0.10579569703E+03  0.47000000000E+01 0. -1.
        -11    1    3    3    0    0 -0.55243229112E+02  0.24039077617E+02 -0.41291130472E+02  0.73038682019E+02  0.00000000000E+00 0.  1.
         11    1    3    3    0    0  0.33100213080E+02  0.46238541745E+02 -0.27476167249E+02  0.63155099678E+02  0.00000000000E+00 0. -1.
<mgrwt>
<rscale>  0 0.13767872E+03</rscale>
<asrwt>0</asrwt>
<pdfrwt beam="2">  1        1 0.20851526E-01 0.14512384E+03</pdfrwt>
<pdfrwt beam="1">  1       -1 0.29692808E-01 0.14512384E+03</pdfrwt>
<totfact> 0.24479037E+03</totfact>
</mgrwt>
</event>
<event>
 6    1  0.1378058E-005  0.3973299E+03  0.7546771E-02  0.1044708E+00
          2   -1    0    0  501    0  0.00000000000E+00  0.00000000000E+00  0.18853733693E+03  0.18853733693E+03  0.00000000000E+00 0. -1.
         -2   -1    0    0    0  501 -0.00000000000E+00 -0.00000000000E+00 -0.20933661585E+03  0.20933661585E+03  0.00000000000E+00 0.  1.
          5    1    1    2  502    0  0.15079820235E+02 -0.44642963311E+02  0.41830099534E+02  0.63184194056E+02  0.47000000000E+01 0.  1.
         -5    1    1    2    0  502  0.21574158436E+02  0.52781342034E+01 -0.72962664349E+02  0.76412979275E+02  0.47000000000E+01 0.  1.
        -11    1    1    2    0    0  0.88389887450E+02  0.80830279278E+02  0.33821338044E+02  0.12445958846E+03  0.00000000000E+00 0.  1.
         11    1    1    2    0    0 -0.12504386612E+03 -0.41465450170E+02 -0.23488052155E+02  0.13381719100E+03  0.00000000000E+00 0. -1.
<mgrwt>
<rscale>  0 0.39732993E+03</rscale>
<asrwt>0</asrwt>
<pdfrwt beam="1">  1        2 0.29005744E-01 0.39732993E+03</pdfrwt>
<pdfrwt beam="2">  1       -2 0.32205633E-01 0.39732993E+03</pdfrwt>
<totfact> 0.16449902E+03</totfact>
</mgrwt>
</event>
<event>
 7    1  0.1378058E-005  0.3390398E+03  0.7546771E-02  0.1068512E+00
         -2   -1    0    0    0  501 -0.00000000000E+00  0.00000000000E+00  0.51822255292E+03  0.51822255292E+03  0.00000000000E+00 0.  1.
          2   -1    0    0  501    0  0.00000000000E+00 -0.00000000000E+00 -0.27594360771E+03  0.27594360771E+03  0.00000000000E+00 0. -1.
         23    2    1    2    0    0  0.51834139187E+02  0.31086192055E+03 -0.68613773442E+02  0.33416366030E+03  0.87381864973E+02 0.  0.
          5    1    1    2  502    0  0.38415634969E+02 -0.14305476361E+03  0.12730319099E+03  0.19536790636E+03  0.47000000000E+01 0. -1.
         -5    1    1    2    0  502 -0.90249774156E+02 -0.16780715694E+03  0.18358952767E+03  0.26463459397E+03  0.47000000000E+01 0. -1.
        -11    1    3    3    0    0  0.21346417524E+02  0.18421313874E+03 -0.82869120989E+02  0.20311927835E+03  0.00000000000E+00 0.  1.
         11    1    3    3    0    0  0.30487721662E+02  0.12664878181E+03  0.14255347546E+02  0.13104438195E+03  0.00000000000E+00 0. -1.
<mgrwt>
<rscale>  0 0.33600014E+03</rscale>
<asrwt>0</asrwt>
<pdfrwt beam="2">  1        2 0.42452863E-01 0.33903985E+03</pdfrwt>
<pdfrwt beam="1">  1       -2 0.79726547E-01 0.33903985E+03</pdfrwt>
<totfact> 0.17242154E+02</totfact>
</mgrwt>
</event>
<event>
 7    1  0.1378058E-005  0.2566004E+03  0.7546771E-02  0.1121635E+00
          2   -1    0    0  501    0  0.00000000000E+00  0.00000000000E+00  0.86678496452E+03  0.86678496452E+03  0.00000000000E+00 0. -1.
         -2   -1    0    0    0  501 -0.00000000000E+00 -0.00000000000E+00 -0.84268252677E+02  0.84268252677E+02  0.00000000000E+00 0.  1.
         23    2    1    2    0    0  0.16044827144E+03 -0.31283646206E+02  0.61898923030E+03  0.64677537895E+03  0.91915228633E+02 0.  0.
          5    1    1    2  502    0  0.11028116615E+02 -0.16146918555E+02  0.11917170740E+03  0.12085664310E+03  0.47000000000E+01 0. -1.
         -5    1    1    2    0  502 -0.17147638805E+03  0.47430564761E+02  0.44355774137E+02  0.18342119515E+03  0.47000000000E+01 0.  1.
        -11    1    3    3    0    0  0.57777961162E+02 -0.53550042747E+02  0.33030599160E+03  0.33957024009E+03  0.00000000000E+00 0.  1.
         11    1    3    3    0    0  0.10267031027E+03  0.22266396541E+02  0.28868323871E+03  0.30720513885E+03  0.00000000000E+00 0. -1.
<mgrwt>
<rscale>  0 0.23725516E+03</rscale>
<asrwt>0</asrwt>
<pdfrwt beam="1">  1        2 0.13335153E+00 0.25660040E+03</pdfrwt>
<pdfrwt beam="2">  1       -2 0.12964347E-01 0.25660040E+03</pdfrwt>
<totfact> 0.13925131E+03</totfact>
</mgrwt>
</event>
<event>
 7    1  0.1378058E-005  0.1468679E+03  0.7546771E-02  0.1214170E+00
          4   -1    0    0  501    0  0.00000000000E+00  0.00000000000E+00  0.22757552242E+03  0.22757552242E+03  0.00000000000E+00 0. -1.
         -4   -1    0    0    0  501 -0.00000000000E+00 -0.00000000000E+00 -0.13173161221E+03  0.13173161221E+03  0.00000000000E+00 0.  1.
         23    2    1    2    0    0 -0.22799028777E+02 -0.73655953564E+02  0.15963773136E+03  0.19918272509E+03  0.90799545646E+02 0.  0.
          5    1    1    2  502    0 -0.18910196372E+02  0.13589312914E+02  0.31788573762E+02  0.39684611301E+02  0.47000000000E+01 0. -1.
         -5    1    1    2    0  502  0.41709225149E+02  0.60066640650E+02 -0.95582394915E+02  0.12043979824E+03  0.47000000000E+01 0. -1.
        -11    1    3    3    0    0  0.14565723442E+01 -0.89886519164E+02  0.11836566423E+03  0.14863424369E+03  0.00000000000E+00 0.  1.
         11    1    3    3    0    0 -0.24255601122E+02  0.16230565600E+02  0.41272067134E+02  0.50548481392E+02  0.00000000000E+00 0. -1.
<mgrwt>
<rscale>  0 0.13937703E+03</rscale>
<asrwt>0</asrwt>
<pdfrwt beam="1">  1        4 0.35011619E-01 0.14686788E+03</pdfrwt>
<pdfrwt beam="2">  1       -4 0.20266402E-01 0.14686788E+03</pdfrwt>
<totfact> 0.29386582E+02</totfact>
</mgrwt>
</event>
<event>
 7    1  0.1378058E-005  0.1320787E+03  0.7546771E-02  0.1237384E+00
          4   -1    0    0  501    0  0.00000000000E+00  0.00000000000E+00  0.60402626686E+02  0.60402626686E+02  0.00000000000E+00 0. -1.
         -4   -1    0    0    0  501 -0.00000000000E+00 -0.00000000000E+00 -0.22878409507E+03  0.22878409507E+03  0.00000000000E+00 0.  1.
         23    2    1    2    0    0 -0.27586790443E+02 -0.32515920983E+02 -0.54678566063E+02  0.11490783772E+03  0.91628322354E+02 0.  0.
          5    1    1    2  502    0 -0.40448410868E+02  0.45343002648E+02 -0.39186827938E+02  0.72455222826E+02  0.47000000000E+01 0.  1.
         -5    1    1    2    0  502  0.68035201311E+02 -0.12827081665E+02 -0.74516074379E+02  0.10182366121E+03  0.47000000000E+01 0.  1.
        -11    1    3    3    0    0  0.15750132817E+02 -0.12379915890E+02 -0.63260588809E+02  0.66356846652E+02  0.00000000000E+00 0.  1.
         11    1    3    3    0    0 -0.43336923261E+02 -0.20136005093E+02  0.85820227455E+01  0.48550991063E+02  0.00000000000E+00 0. -1.
<mgrwt>
<rscale>  0 0.12353055E+03</rscale>
<asrwt>0</asrwt>
<pdfrwt beam="1">  1        4 0.92927119E-02 0.13207869E+03</pdfrwt>
<pdfrwt beam="2">  1       -4 0.35197553E-01 0.13207869E+03</pdfrwt>
<totfact> 0.11020133E+03</totfact>
</mgrwt>
</event>
<event>
 7    1  0.1378058E-005  0.2095727E+03  0.7546771E-02  0.1146876E+00
         -2   -1    0    0    0  501 -0.00000000000E+00  0.00000000000E+00  0.50441808277E+02  0.50441808277E+02  0.00000000000E+00 0.  1.
          2   -1    0    0  501    0  0.00000000000E+00 -0.00000000000E+00 -0.81283969719E+03  0.81283969719E+03  0.00000000000E+00 0. -1.
         23    2    1    2    0    0 -0.11249592863E+03 -0.12505087756E+03 -0.26758387694E+03  0.32591604785E+03  0.79542963930E+02 0.  0.
          5    1    1    2  502    0  0.11019031008E+02 -0.81227832627E+01  0.51546977838E+00  0.14482898929E+02  0.47000000000E+01 0.  1.
         -5    1    1    2    0  502  0.10147689763E+03  0.13317366082E+03 -0.49532948175E+03  0.52288255868E+03  0.47000000000E+01 0.  1.
        -11    1    3    3    0    0 -0.62726619218E+02 -0.16925585283E+02 -0.72183757162E+02  0.97116419795E+02  0.00000000000E+00 0.  1.
         11    1    3    3    0    0 -0.49769309416E+02 -0.10812529227E+03 -0.19540011978E+03  0.22879962805E+03  0.00000000000E+00 0. -1.
<mgrwt>
<rscale>  0 0.20343102E+03</rscale>
<asrwt>0</asrwt>
<pdfrwt beam="2">  1        2 0.12505226E+00 0.20957273E+03</pdfrwt>
<pdfrwt beam="1">  1       -2 0.77602785E-02 0.20957273E+03</pdfrwt>
<totfact> 0.34173004E+03</totfact>
</mgrwt>
</event>
<event>
 7    1  0.1378058E-005  0.1257574E+03  0.7546771E-02  0.1249443E+00
         -2   -1    0    0    0  501 -0.00000000000E+00  0.00000000000E+00  0.85182964540E+01  0.85182964540E+01  0.00000000000E+00 0.  1.
          2   -1    0    0  501    0  0.00000000000E+00 -0.00000000000E+00 -0.14163525822E+04  0.14163525822E+04  0.00000000000E+00 0. -1.
         23    2    1    2    0    0 -0.11839233173E+02 -0.70629760786E+01 -0.49790204529E+03  0.50628957652E+03  0.90733871933E+02 0.  0.
          5    1    1    2  502    0  0.24924648799E+02 -0.42569942034E+02 -0.72231046904E+03  0.72400824703E+03  0.47000000000E+01 0.  1.
         -5    1    1    2    0  502 -0.13085415626E+02  0.49632918113E+02 -0.18762177137E+03  0.19457305506E+03  0.47000000000E+01 0.  1.
        -11    1    3    3    0    0  0.35740405316E+02  0.15498143806E+02 -0.19700214860E+03  0.20081687077E+03  0.00000000000E+00 0.  1.
         11    1    3    3    0    0 -0.47579638489E+02 -0.22561119885E+02 -0.30089989669E+03  0.30547270575E+03  0.00000000000E+00 0. -1.
<mgrwt>
<rscale>  0 0.11623356E+03</rscale>
<asrwt>0</asrwt>
<pdfrwt beam="2">  1        2 0.21790025E+00 0.12575741E+03</pdfrwt>
<pdfrwt beam="1">  1       -2 0.13105080E-02 0.12575741E+03</pdfrwt>
<totfact> 0.20838507E+04</totfact>
</mgrwt>
</event>
<event>
 7    1  0.1378058E-005  0.1377628E+03  0.7546771E-02  0.1228018E+00
          2   -1    0    0  501    0  0.00000000000E+00  0.00000000000E+00  0.85258384905E+02  0.85258384905E+02  0.00000000000E+00 0. -1.
         -2   -1    0    0    0  501 -0.00000000000E+00 -0.00000000000E+00 -0.17710698918E+03  0.17710698918E+03  0.00000000000E+00 0.  1.
         23    2    1    2    0    0 -0.39633946408E+02 -0.42247507868E+02 -0.38457042951E+02  0.11461813664E+03  0.91118996180E+02 0.  0.
          5    1    1    2  502    0  0.25322455180E+02 -0.13020208603E+02  0.33157921551E+02  0.43957824446E+02  0.47000000000E+01 0. -1.
         -5    1    1    2    0  502  0.14311491228E+02  0.55267716471E+02 -0.86549482876E+02  0.10378941300E+03  0.47000000000E+01 0. -1.
        -11    1    3    3    0    0 -0.56837860339E+02 -0.20652769645E+02 -0.55575248552E+02  0.82132134476E+02  0.00000000000E+00 0.  1.
         11    1    3    3    0    0  0.17203913931E+02 -0.21594738223E+02  0.17118205601E+02  0.32486002162E+02  0.00000000000E+00 0. -1.
<mgrwt>
<rscale>  0 0.12962199E+03</rscale>
<asrwt>0</asrwt>
<pdfrwt beam="1">  1        2 0.13116675E-01 0.13776279E+03</pdfrwt>
<pdfrwt beam="2">  1       -2 0.27247229E-01 0.13776279E+03</pdfrwt>
<totfact> 0.53144338E+03</totfact>
</mgrwt>
</event>
<event>
 7    1  0.1378058E-005  0.1385619E+03  0.7546771E-02  0.1226959E+00
         -1   -1    0    0    0  501 -0.00000000000E+00  0.00000000000E+00  0.25559438906E+02  0.25559438906E+02  0.00000000000E+00 0.  1.
          1   -1    0    0  501    0  0.00000000000E+00 -0.00000000000E+00 -0.61089684152E+03  0.61089684152E+03  0.00000000000E+00 0. -1.
         23    2    1    2    0    0  0.49183226851E+02 -0.33944314080E+02 -0.30565391856E+03  0.32433088592E+03  0.90526235795E+02 0.  0.
          5    1    1    2  502    0 -0.39991026512E+02 -0.37222529494E+02 -0.61498398592E+02  0.82395035850E+02  0.47000000000E+01 0.  1.
         -5    1    1    2    0  502 -0.91922003388E+01  0.71166843574E+02 -0.21818508546E+03  0.22973035866E+03  0.47000000000E+01 0.  1.
        -11    1    3    3    0    0  0.40477045945E+02  0.22979113986E+02 -0.92709065061E+02  0.10373717594E+03  0.00000000000E+00 0.  1.
         11    1    3    3    0    0  0.87061809056E+01 -0.56923428066E+02 -0.21294485350E+03  0.22059370998E+03  0.00000000000E+00 0. -1.
<mgrwt>
<rscale>  0 0.13033544E+03</rscale>
<asrwt>0</asrwt>
<pdfrwt beam="2">  1        1 0.93984125E-01 0.13856194E+03</pdfrwt>
<pdfrwt beam="1">  1       -1 0.39322216E-02 0.13856194E+03</pdfrwt>
<totfact> 0.83042424E+03</totfact>
</mgrwt>
</event>
<event>
 7    1  0.1378058E-005  0.1564734E+03  0.7546771E-02  0.1200181E+00
         -2   -1    0    0    0  501 -0.00000000000E+00  0.00000000000E+00  0.95542708677E+02  0.95542708677E+02  0.00000000000E+00 0. -1.
          2   -1    0    0  501    0  0.00000000000E+00 -0.00000000000E+00 -0.22136721516E+03  0.22136721516E+03  0.00000000000E+00 0.  1.
         23    2    1    2    0    0  0.28631581082E+02  0.89656431201E+02 -0.73357896076E+02  0.15187453832E+03  0.93949195751E+02 0.  0.
          5    1    1    2  502    0 -0.49394819746E+02 -0.97460456665E+02 -0.75359920031E+02  0.13281414224E+03  0.47000000000E+01 0.  1.
         -5    1    1    2    0  502  0.20763238664E+02  0.78040254639E+01  0.22893309621E+02  0.32221243283E+02  0.47000000000E+01 0.  1.
        -11    1    3    3    0    0  0.44430519225E+02  0.48237715632E+02 -0.83721490368E+02  0.10634959425E+03  0.00000000000E+00 0.  1.
         11    1    3    3    0    0 -0.15798938143E+02  0.41418715568E+02  0.10363594292E+02  0.45524944068E+02  0.00000000000E+00 0. -1.
<mgrwt>
<rscale>  0 0.15023791E+03</rscale>
<asrwt>0</asrwt>
<pdfrwt beam="2">  1        2 0.34056494E-01 0.15647343E+03</pdfrwt>
<pdfrwt beam="1">  1       -2 0.14698879E-01 0.15647343E+03</pdfrwt>
<totfact> 0.52040401E+03</totfact>
</mgrwt>
</event>
<event>
 7    1  0.1378058E-005  0.1749914E+03  0.7546771E-02  0.1177470E+00
         -1   -1    0    0    0  501 -0.00000000000E+00  0.00000000000E+00  0.13221313545E+03  0.13221313545E+03  0.00000000000E+00 0.  1.
          1   -1    0    0  501    0  0.00000000000E+00 -0.00000000000E+00 -0.21973452091E+03  0.21973452091E+03  0.00000000000E+00 0. -1.
         23    2    1    2    0    0 -0.43651318623E+02  0.11746153531E+03 -0.80990325934E+02  0.17683442640E+03  0.94912230882E+02 0.  0.
          5    1    1    2  502    0  0.70903643227E+02 -0.10819756567E+03 -0.35273475502E+02  0.13416537524E+03  0.47000000000E+01 0. -1.
         -5    1    1    2    0  502 -0.27252324603E+02 -0.92639696379E+01  0.28742415974E+02  0.40947854715E+02  0.47000000000E+01 0.  1.
        -11    1    3    3    0    0 -0.71851183972E+02  0.72347901190E+02 -0.66360436549E+02  0.12165738360E+03  0.00000000000E+00 0.  1.
         11    1    3    3    0    0  0.28199865349E+02  0.45113634120E+02 -0.14629889385E+02  0.55177042805E+02  0.00000000000E+00 0. -1.
<mgrwt>
<rscale>  0 0.17036241E+03</rscale>
<asrwt>0</asrwt>
<pdfrwt beam="2">  1        1 0.33805310E-01 0.17499140E+03</pdfrwt>
<pdfrwt beam="1">  1       -1 0.20340483E-01 0.17499140E+03</pdfrwt>
<totfact> 0.25046330E+03</totfact>
</mgrwt>
</event>
<event>
 7    1  0.1378058E-005  0.1621412E+03  0.7546771E-02  0.1193772E+00
         -3   -1    0    0    0  501 -0.00000000000E+00  0.00000000000E+00  0.80768876543E+02  0.80768876543E+02  0.00000000000E+00 0.  1.
          3   -1    0    0  501    0  0.00000000000E+00 -0.00000000000E+00 -0.27869126626E+03  0.27869126626E+03  0.00000000000E+00 0. -1.
         23    2    1    2    0    0 -0.99551670425E+02  0.27446095326E+02 -0.10069616301E+03  0.17040270026E+03  0.90738854847E+02 0.  0.
          5    1    1    2  502    0 -0.25205518076E+02 -0.10693128591E+02 -0.44593599548E+02  0.52538940427E+02  0.47000000000E+01 0. -1.
         -5    1    1    2    0  502  0.12475718850E+03 -0.16752966736E+02 -0.52632627158E+02  0.13651850211E+03  0.47000000000E+01 0. -1.
        -11    1    3    3    0    0 -0.65302702122E+02 -0.28746141221E+02 -0.46650591322E+02  0.85247059833E+02  0.00000000000E+00 0. -1.
         11    1    3    3    0    0 -0.34248968304E+02  0.56192236547E+02 -0.54045571687E+02  0.85155640430E+02  0.00000000000E+00 0.  1.
<mgrwt>
<rscale>  0 0.15558590E+03</rscale>
<asrwt>0</asrwt>
<pdfrwt beam="2">  1        3 0.42875579E-01 0.16214123E+03</pdfrwt>
<pdfrwt beam="1">  1       -3 0.12425981E-01 0.16214123E+03</pdfrwt>
<totfact> 0.65972527E+02</totfact>
</mgrwt>
</event>
<event>
 7    1  0.1378058E-005  0.1312476E+03  0.7546771E-02  0.1238458E+00
          1   -1    0    0  501    0  0.00000000000E+00  0.00000000000E+00  0.41095637846E+03  0.41095637846E+03  0.00000000000E+00 0. -1.
         -1   -1    0    0    0  501 -0.00000000000E+00 -0.00000000000E+00 -0.32911953396E+02  0.32911953396E+02  0.00000000000E+00 0.  1.
         23    2    1    2    0    0  0.26472491009E+00 -0.39999337859E+02  0.17989152144E+03  0.20619103017E+03  0.92486562956E+02 0.  0.
          5    1    1    2  502    0  0.21016145903E+02  0.81051195702E+02  0.11374096018E+03  0.14131550069E+03  0.47000000000E+01 0.  1.
         -5    1    1    2    0  502 -0.21280870813E+02 -0.41051857843E+02  0.84411943447E+02  0.96361800997E+02  0.47000000000E+01 0.  1.
        -11    1    3    3    0    0 -0.25015687474E+02  0.29729347675E+01  0.68445108686E+01  0.26104985921E+02  0.00000000000E+00 0.  1.
         11    1    3    3    0    0  0.25280412384E+02 -0.42972272626E+02  0.17304701057E+03  0.18008604424E+03  0.00000000000E+00 0. -1.
<mgrwt>
<rscale>  0 0.12285616E+03</rscale>
<asrwt>0</asrwt>
<pdfrwt beam="1">  1        1 0.63224054E-01 0.13124758E+03</pdfrwt>
<pdfrwt beam="2">  1       -1 0.50633778E-02 0.13124758E+03</pdfrwt>
<totfact> 0.95764005E+03</totfact>
</mgrwt>
</event>
<event>
 7    1  0.1378058E-005  0.1266900E+03  0.7546771E-02  0.1247747E+00
         -1   -1    0    0    0  501 -0.00000000000E+00  0.00000000000E+00  0.30575698235E+03  0.30575698235E+03  0.00000000000E+00 0.  1.
          1   -1    0    0  501    0  0.00000000000E+00 -0.00000000000E+00 -0.56812689037E+02  0.56812689037E+02  0.00000000000E+00 0. -1.
         23    2    1    2    0    0 -0.18849083420E+02  0.83598220247E+01  0.11674273238E+02  0.93594907273E+02  0.90545808527E+02 0.  0.
          5    1    1    2  502    0  0.11782043413E+01 -0.47433394124E+02  0.21538748539E+03  0.22060184474E+03  0.47000000000E+01 0.  1.
         -5    1    1    2    0  502  0.17670879079E+02  0.39073572099E+02  0.21882534689E+02  0.48372919370E+02  0.47000000000E+01 0.  1.
        -11    1    3    3    0    0 -0.34095937006E+02  0.38501253053E+02  0.25124285089E+02  0.57237305214E+02  0.00000000000E+00 0.  1.
         11    1    3    3    0    0  0.15246853586E+02 -0.30141431028E+02 -0.13450011850E+02  0.36357602059E+02  0.00000000000E+00 0. -1.
<mgrwt>
<rscale>  0 0.11722456E+03</rscale>
<asrwt>0</asrwt>
<pdfrwt beam="2">  1        1 0.87404139E-02 0.12669002E+03</pdfrwt>
<pdfrwt beam="1">  1       -1 0.47039535E-01 0.12669002E+03</pdfrwt>
<totfact> 0.33943246E+03</totfact>
</mgrwt>
</event>
<event>
 7    1  0.1378058E-005  0.1282879E+03  0.7546771E-02  0.1241159E+00
         -2   -1    0    0    0  501 -0.00000000000E+00  0.00000000000E+00  0.43116375086E+03  0.43116375086E+03  0.00000000000E+00 0.  1.
          2   -1    0    0  501    0  0.00000000000E+00 -0.00000000000E+00 -0.32297100334E+02  0.32297100334E+02  0.00000000000E+00 0. -1.
         23    2    1    2    0    0  0.25589440097E+02 -0.13373463969E+02  0.12806562733E+03  0.16380942336E+03  0.97974758455E+02 0.  0.
          5    1    1    2  502    0  0.25987495008E+02 -0.69890408155E+01  0.46086985576E+01  0.27704272066E+02  0.47000000000E+01 0. -1.
         -5    1    1    2    0  502 -0.51576935105E+02  0.20362504785E+02  0.26619232463E+03  0.27194715576E+03  0.47000000000E+01 0. -1.
        -11    1    3    3    0    0 -0.20877727178E+02 -0.29320109672E+02  0.10206536322E+03  0.10822609063E+03  0.00000000000E+00 0.  1.
         11    1    3    3    0    0  0.46467167275E+02  0.15946645703E+02  0.26000264114E+02  0.55583332733E+02  0.00000000000E+00 0. -1.
<mgrwt>
<rscale>  0 0.12118224E+03</rscale>
<asrwt>0</asrwt>
<pdfrwt beam="2">  1        2 0.49687850E-02 0.12828790E+03</pdfrwt>
<pdfrwt beam="1">  1       -2 0.66332881E-01 0.12828790E+03</pdfrwt>
<totfact> 0.32259731E+03</totfact>
</mgrwt>
</event>
<event>
 7    1  0.1378058E-005  0.2666478E+03  0.7546771E-02  0.1105291E+00
          1   -1    0    0  501    0  0.00000000000E+00  0.00000000000E+00  0.29207300624E+03  0.29207300624E+03  0.00000000000E+00 0. -1.
         -1   -1    0    0    0  501 -0.00000000000E+00 -0.00000000000E+00 -0.24142835807E+03  0.24142835807E+03  0.00000000000E+00 0.  1.
         23    2    1    2    0    0 -0.14931299317E+03 -0.18216180985E+03  0.80293773665E+02  0.26521023656E+03  0.91717417043E+02 0.  0.
          5    1    1    2  502    0  0.81399841926E+02  0.90717492933E+02  0.47219545514E+02  0.13079515766E+03  0.47000000000E+01 0. -1.
         -5    1    1    2    0  502  0.67913151245E+02  0.91444316919E+02 -0.76868671009E+02  0.13749597009E+03  0.47000000000E+01 0. -1.
        -11    1    3    3    0    0 -0.26608527236E+02 -0.10263463272E+03  0.25435268665E+02  0.10903593191E+03  0.00000000000E+00 0.  1.
         11    1    3    3    0    0 -0.12270446594E+03 -0.79527177136E+02  0.54858505000E+02  0.15617430466E+03  0.00000000000E+00 0. -1.
<mgrwt>
<rscale>  0 0.26310682E+03</rscale>
<asrwt>0</asrwt>
<pdfrwt beam="1">  1        1 0.44934309E-01 0.26664782E+03</pdfrwt>
<pdfrwt beam="2">  1       -1 0.37142824E-01 0.26664782E+03</pdfrwt>
<totfact> 0.64082712E+02</totfact>
</mgrwt>
</event>
<event>
 7    1  0.1378058E-005  0.1468806E+03  0.7546771E-02  0.1214426E+00
         -2   -1    0    0    0  501 -0.00000000000E+00  0.00000000000E+00  0.76739542912E+02  0.76739542912E+02  0.00000000000E+00 0.  1.
          2   -1    0    0  501    0  0.00000000000E+00 -0.00000000000E+00 -0.26235214381E+03  0.26235214381E+03  0.00000000000E+00 0. -1.
         23    2    1    2    0    0  0.75202733572E+02  0.17132339944E+02 -0.14395368503E+03  0.18641761189E+03  0.89888232725E+02 0.  0.
          5    1    1    2  502    0 -0.10980971738E+03 -0.19159570146E+02 -0.27305506410E+02  0.11486054083E+03  0.47000000000E+01 0.  1.
         -5    1    1    2    0  502  0.34606983806E+02  0.20272302017E+01 -0.14353409459E+02  0.37813533999E+02  0.47000000000E+01 0.  1.
        -11    1    3    3    0    0  0.47292189647E+02  0.54199627788E+02 -0.83525600123E+02  0.11023010809E+03  0.00000000000E+00 0.  1.
         11    1    3    3    0    0  0.27910543925E+02 -0.37067287844E+02 -0.60428084903E+02  0.76187503801E+02  0.00000000000E+00 0. -1.
<mgrwt>
<rscale>  0 0.13918778E+03</rscale>
<asrwt>0</asrwt>
<pdfrwt beam="2">  1        2 0.40361868E-01 0.14688059E+03</pdfrwt>
<pdfrwt beam="1">  1       -2 0.11806084E-01 0.14688059E+03</pdfrwt>
<totfact> 0.61581166E+03</totfact>
</mgrwt>
</event>
<event>
 7    1  0.1378058E-005  0.1299850E+03  0.7546771E-02  0.1241234E+00
         -1   -1    0    0    0  501 -0.00000000000E+00  0.00000000000E+00  0.55157792946E+02  0.55157792946E+02  0.00000000000E+00 0.  1.
          1   -1    0    0  501    0  0.00000000000E+00 -0.00000000000E+00 -0.24178989160E+03  0.24178989160E+03  0.00000000000E+00 0. -1.
         23    2    1    2    0    0 -0.13195059990E+02 -0.33051197873E+02 -0.10396492743E+03  0.14290237624E+03  0.91355852081E+02 0.  0.
          5    1    1    2  502    0 -0.55965665598E+02  0.13974479734E+02 -0.41259494390E+02  0.71076562150E+02  0.47000000000E+01 0.  1.
         -5    1    1    2    0  502  0.69160725589E+02  0.19076718138E+02 -0.41407676837E+02  0.82968746163E+02  0.47000000000E+01 0.  1.
        -11    1    3    3    0    0  0.98007367138E+01 -0.52927810602E+02 -0.98170981016E+02  0.11195958686E+03  0.00000000000E+00 0. -1.
         11    1    3    3    0    0 -0.22995796704E+02  0.19876612730E+02 -0.57939464158E+01  0.30942789382E+02  0.00000000000E+00 0.  1.
<mgrwt>
<rscale>  0 0.12113615E+03</rscale>
<asrwt>0</asrwt>
<pdfrwt beam="2">  1        1 0.37198444E-01 0.12998498E+03</pdfrwt>
<pdfrwt beam="1">  1       -1 0.84858145E-02 0.12998498E+03</pdfrwt>
<totfact> 0.85499385E+03</totfact>
</mgrwt>
</event>
<event>
 7    1  0.1378058E-005  0.1490708E+03  0.7546771E-02  0.1211934E+00
         -2   -1    0    0    0  501 -0.00000000000E+00  0.00000000000E+00  0.62057079391E+02  0.62057079391E+02  0.00000000000E+00 0. -1.
          2   -1    0    0  501    0  0.00000000000E+00 -0.00000000000E+00 -0.31746268547E+03  0.31746268547E+03  0.00000000000E+00 0.  1.
         23    2    1    2    0    0 -0.54822516193E+01  0.81036915329E+02 -0.16982090228E+03  0.20762781909E+03  0.87596436460E+02 0.  0.
          5    1    1    2  502    0 -0.12877226967E+02  0.90159851024E+01  0.23823919892E+02  0.28927151964E+02  0.47000000000E+01 0. -1.
         -5    1    1    2    0  502  0.18359478586E+02 -0.90052900431E+02 -0.10940862369E+03  0.14296479380E+03  0.47000000000E+01 0. -1.
        -11    1    3    3    0    0 -0.16475946723E+02  0.53573214973E+02 -0.27811911969E+02  0.62570349450E+02  0.00000000000E+00 0. -1.
         11    1    3    3    0    0  0.10993695104E+02  0.27463700356E+02 -0.14200899031E+03  0.14505746964E+03  0.00000000000E+00 0.  1.
<mgrwt>
<rscale>  0 0.14104187E+03</rscale>
<asrwt>0</asrwt>
<pdfrwt beam="2">  1        2 0.48840413E-01 0.14907079E+03</pdfrwt>
<pdfrwt beam="1">  1       -2 0.95472429E-02 0.14907079E+03</pdfrwt>
<totfact> 0.70436177E+03</totfact>
</mgrwt>
</event>
<event>
 7    1  0.1378058E-005  0.1334930E+03  0.7546771E-02  0.1235510E+00
         -1   -1    0    0    0  501 -0.00000000000E+00  0.00000000000E+00  0.49084249526E+02  0.49084249526E+02  0.00000000000E+00 0. -1.
          1   -1    0    0  501    0  0.00000000000E+00 -0.00000000000E+00 -0.31135875353E+03  0.31135875353E+03  0.00000000000E+00 0.  1.
         23    2    1    2    0    0 -0.22553279231E+02  0.41069478505E+02 -0.17021041714E+03  0.19828200895E+03  0.90270795392E+02 0.  0.
          5    1    1    2  502    0 -0.23089565710E+02 -0.56626712887E+02 -0.37723491272E+01  0.61449436734E+02  0.47000000000E+01 0. -1.
         -5    1    1    2    0  502  0.45642844942E+02  0.15557234381E+02 -0.88291737730E+02  0.10071155737E+03  0.47000000000E+01 0. -1.
        -11    1    3    3    0    0 -0.16268329820E+01  0.50305359853E+02 -0.35373777097E+02  0.61518939536E+02  0.00000000000E+00 0. -1.
         11    1    3    3    0    0 -0.20926446249E+02 -0.92358813474E+01 -0.13483664005E+03  0.13676306941E+03  0.00000000000E+00 0.  1.
<mgrwt>
<rscale>  0 0.12471851E+03</rscale>
<asrwt>0</asrwt>
<pdfrwt beam="2">  1        1 0.47901346E-01 0.13349304E+03</pdfrwt>
<pdfrwt beam="1">  1       -1 0.75514231E-02 0.13349304E+03</pdfrwt>
<totfact> 0.74729284E+03</totfact>
</mgrwt>
</event>
<event>
 7    1  0.1378058E-005  0.1942799E+03  0.7546771E-02  0.1159556E+00
         -2   -1    0    0    0  501 -0.00000000000E+00  0.00000000000E+00  0.60770423484E+03  0.60770423484E+03  0.00000000000E+00 0.  1.
          2   -1    0    0  501    0  0.00000000000E+00 -0.00000000000E+00 -0.55951607609E+02  0.55951607609E+02  0.00000000000E+00 0. -1.
         23    2    1    2    0    0  0.43685964629E+02 -0.14216571947E+03  0.23266236339E+03  0.29007415867E+03  0.88835166992E+02 0.  0.
          5    1    1    2  502    0 -0.32043232227E+02  0.16399941278E+03  0.25707155389E+03  0.30664384869E+03  0.47000000000E+01 0.  1.
         -5    1    1    2    0  502 -0.11642732403E+02 -0.21833693306E+02  0.62018709949E+02  0.66937835078E+02  0.47000000000E+01 0.  1.
        -11    1    3    3    0    0  0.14253866089E+02 -0.84135311031E+02  0.19962646881E+03  0.21710055345E+03  0.00000000000E+00 0.  1.
         11    1    3    3    0    0  0.29432098541E+02 -0.58030408439E+02  0.33035894580E+02  0.72973605220E+02  0.00000000000E+00 0. -1.
<mgrwt>
<rscale>  0 0.18879105E+03</rscale>
<asrwt>0</asrwt>
<pdfrwt beam="2">  1        2 0.86079400E-02 0.19427990E+03</pdfrwt>
<pdfrwt beam="1">  1       -2 0.93492955E-01 0.19427990E+03</pdfrwt>
<totfact> 0.76858360E+02</totfact>
</mgrwt>
</event>
<event>
 7    1  0.1378058E-005  0.1894301E+03  0.7546771E-02  0.1164158E+00
          1   -1    0    0  501    0  0.00000000000E+00  0.00000000000E+00  0.13548596092E+03  0.13548596092E+03  0.00000000000E+00 0. -1.
         -1   -1    0    0    0  501 -0.00000000000E+00 -0.00000000000E+00 -0.23624465782E+03  0.23624465782E+03  0.00000000000E+00 0.  1.
         23    2    1    2    0    0  0.12027541344E+03 -0.76109294129E+02 -0.56391753099E+02  0.17717425888E+03  0.89173361830E+02 0.  0.
          5    1    1    2  502    0  0.14549207090E+02 -0.18951975409E+02 -0.42927120647E+01  0.24725981795E+02  0.47000000000E+01 0.  1.
         -5    1    1    2    0  502 -0.13482462053E+03  0.95061269538E+02 -0.40074231737E+02  0.16983037807E+03  0.47000000000E+01 0.  1.
        -11    1    3    3    0    0  0.11052907200E+03 -0.43820633405E+02 -0.73061030142E+02  0.13955227621E+03  0.00000000000E+00 0.  1.
         11    1    3    3    0    0  0.97463414379E+01 -0.32288660724E+02  0.16669277043E+02  0.37621982668E+02  0.00000000000E+00 0. -1.
<mgrwt>
<rscale>  0 0.18381815E+03</rscale>
<asrwt>0</asrwt>
<pdfrwt beam="1">  1        1 0.20843994E-01 0.18943007E+03</pdfrwt>
<pdfrwt beam="2">  1       -1 0.36345332E-01 0.18943007E+03</pdfrwt>
<totfact> 0.17503286E+03</totfact>
</mgrwt>
</event>
<event>
 7    1  0.1378058E-005  0.1425585E+03  0.7546771E-02  0.1220983E+00
          2   -1    0    0  501    0  0.00000000000E+00  0.00000000000E+00  0.80105099344E+03  0.80105099344E+03  0.00000000000E+00 0. -1.
         -2   -1    0    0    0  501 -0.00000000000E+00 -0.00000000000E+00 -0.20395598897E+02  0.20395598897E+02  0.00000000000E+00 0.  1.
         23    2    1    2    0    0 -0.55574972085E+02 -0.40103965092E+02  0.36326273229E+03  0.38038019746E+03  0.89623526000E+02 0.  0.
          5    1    1    2  502    0 -0.22485039235E+02 -0.22376597615E+02  0.18901370058E+03  0.19171478325E+03  0.47000000000E+01 0.  1.
         -5    1    1    2    0  502  0.78060011320E+02  0.62480562708E+02  0.22837896168E+03  0.24935161162E+03  0.47000000000E+01 0.  1.
        -11    1    3    3    0    0 -0.69377933080E+01 -0.51359085912E+02  0.26656257144E+03  0.27155384949E+03  0.00000000000E+00 0. -1.
         11    1    3    3    0    0 -0.48637178777E+02  0.11255120819E+02  0.96700160847E+02  0.10882634797E+03  0.00000000000E+00 0.  1.
<mgrwt>
<rscale>  0 0.13446070E+03</rscale>
<asrwt>0</asrwt>
<pdfrwt beam="1">  1        2 0.12323859E+00 0.14255851E+03</pdfrwt>
<pdfrwt beam="2">  1       -2 0.31377851E-02 0.14255851E+03</pdfrwt>
<totfact> 0.13440582E+04</totfact>
</mgrwt>
</event>
<event>
 7    1  0.1378058E-005  0.2049117E+03  0.7546771E-02  0.1173825E+00
          1   -1    0    0  501    0  0.00000000000E+00  0.00000000000E+00  0.44173768579E+03  0.44173768579E+03  0.00000000000E+00 0. -1.
         -1   -1    0    0    0  501 -0.00000000000E+00 -0.00000000000E+00 -0.55282525724E+02  0.55282525724E+02  0.00000000000E+00 0.  1.
         23    2    1    2    0    0  0.40003822880E+02 -0.41092801272E+02  0.15402117471E+03  0.18715839838E+03  0.89536694520E+02 0.  0.
          5    1    1    2  502    0  0.53409732684E+02  0.46805629724E+02  0.14497166730E+02  0.72633493393E+02  0.47000000000E+01 0. -1.
         -5    1    1    2    0  502 -0.93413555564E+02 -0.57128284523E+01  0.21793681863E+03  0.23722831974E+03  0.47000000000E+01 0.  1.
        -11    1    3    3    0    0  0.48944523808E+02  0.29244928588E+01  0.12343576311E+03  0.13281756918E+03  0.00000000000E+00 0. -1.
         11    1    3    3    0    0 -0.89407009276E+01 -0.44017294131E+02  0.30585411603E+02  0.54340829204E+02  0.00000000000E+00 0.  1.
<mgrwt>
<rscale>  0 0.17391514E+03</rscale>
<asrwt>0</asrwt>
<pdfrwt beam="1">  1        1 0.67959642E-01 0.20491165E+03</pdfrwt>
<pdfrwt beam="2">  1       -1 0.85050042E-02 0.20491165E+03</pdfrwt>
<totfact> 0.41059294E+03</totfact>
</mgrwt>
</event>
<event>
 7    1  0.1378058E-005  0.1854180E+03  0.7546771E-02  0.1167632E+00
          3   -1    0    0  501    0  0.00000000000E+00  0.00000000000E+00  0.28865304943E+03  0.28865304943E+03  0.00000000000E+00 0. -1.
         -3   -1    0    0    0  501 -0.00000000000E+00 -0.00000000000E+00 -0.10703652993E+03  0.10703652993E+03  0.00000000000E+00 0.  1.
         23    2    1    2    0    0 -0.10645023795E+03  0.86167543122E+02  0.72267234071E+02  0.18042900353E+03  0.92604392698E+02 0.  0.
          5    1    1    2  502    0  0.24786542951E+02 -0.51517089528E+02  0.11259615170E+03  0.12636600256E+03  0.47000000000E+01 0. -1.
         -5    1    1    2    0  502  0.81663695002E+02 -0.34650453594E+02 -0.32468662729E+01  0.88894573266E+02  0.47000000000E+01 0. -1.
        -11    1    3    3    0    0 -0.53693863001E+02  0.71209016680E+02 -0.65906606273E+00  0.89186262107E+02  0.00000000000E+00 0.  1.
         11    1    3    3    0    0 -0.52756374952E+02  0.14958526442E+02  0.72926300133E+02  0.91242741424E+02  0.00000000000E+00 0. -1.
<mgrwt>
<rscale>  0 0.18017646E+03</rscale>
<asrwt>0</asrwt>
<pdfrwt beam="1">  1        3 0.44408161E-01 0.18541804E+03</pdfrwt>
<pdfrwt beam="2">  1       -3 0.16467159E-01 0.18541804E+03</pdfrwt>
<totfact> 0.38688030E+02</totfact>
</mgrwt>
</event>
<event>
 7    1  0.1378058E-005  0.1287061E+03  0.7546771E-02  0.1244556E+00
         -1   -1    0    0    0  501 -0.00000000000E+00  0.00000000000E+00  0.51887264855E+02  0.51887264855E+02  0.00000000000E+00 0.  1.
          1   -1    0    0  501    0  0.00000000000E+00 -0.00000000000E+00 -0.25075400325E+03  0.25075400325E+03  0.00000000000E+00 0. -1.
         23    2    1    2    0    0  0.30022127887E+02 -0.61643439101E+01 -0.11593562964E+03  0.14953074577E+03  0.89325508178E+02 0.  0.
          5    1    1    2  502    0  0.43054146469E+02 -0.11194611260E+02 -0.53946090726E+01  0.45057415111E+02  0.47000000000E+01 0.  1.
         -5    1    1    2    0  502 -0.73076274356E+02  0.17358955170E+02 -0.77536499681E+02  0.10805310723E+03  0.47000000000E+01 0.  1.
        -11    1    3    3    0    0  0.51119980360E+02 -0.23608314176E+02 -0.10668808008E+03  0.12063561382E+03  0.00000000000E+00 0.  1.
         11    1    3    3    0    0 -0.21097852472E+02  0.17443970266E+02 -0.92475495624E+01  0.28895131952E+02  0.00000000000E+00 0. -1.
<mgrwt>
<rscale>  0 0.11912011E+03</rscale>
<asrwt>0</asrwt>
<pdfrwt beam="2">  1        1 0.38577539E-01 0.12870611E+03</pdfrwt>
<pdfrwt beam="1">  1       -1 0.79826561E-02 0.12870611E+03</pdfrwt>
<totfact> 0.89569183E+03</totfact>
</mgrwt>
</event>
<event>
 7    1  0.1378058E-005  0.1490724E+03  0.7546771E-02  0.1219784E+00
         -2   -1    0    0    0  501 -0.00000000000E+00  0.00000000000E+00  0.15621276405E+02  0.15621276405E+02  0.00000000000E+00 0.  1.
          2   -1    0    0  501    0  0.00000000000E+00 -0.00000000000E+00 -0.10057261862E+04  0.10057261862E+04  0.00000000000E+00 0. -1.
         23    2    1    2    0    0  0.24197448109E+02  0.15685573042E+02 -0.42990551630E+03  0.44165276563E+03  0.96988961963E+02 0.  0.
          5    1    1    2  502    0  0.39802229431E+01 -0.42042311541E+02 -0.52661601227E+03  0.52832746712E+03  0.47000000000E+01 0. -1.
         -5    1    1    2    0  502 -0.28177671052E+02  0.26356738499E+02 -0.33583381260E+02  0.51367229895E+02  0.47000000000E+01 0.  1.
        -11    1    3    3    0    0  0.49726123615E+02  0.41576115238E+02 -0.27808760698E+03  0.28554155194E+03  0.00000000000E+00 0.  1.
         11    1    3    3    0    0 -0.25528675505E+02 -0.25890542195E+02 -0.15181790932E+03  0.15611121369E+03  0.00000000000E+00 0. -1.
<mgrwt>
<rscale>  0 0.13530910E+03</rscale>
<asrwt>0</asrwt>
<pdfrwt beam="2">  1        2 0.15472710E+00 0.14907240E+03</pdfrwt>
<pdfrwt beam="1">  1       -2 0.24032734E-02 0.14907240E+03</pdfrwt>
<totfact> 0.14795046E+04</totfact>
</mgrwt>
</event>
<event>
 7    1  0.1378058E-005  0.1299626E+03  0.7546771E-02  0.1243016E+00
         -1   -1    0    0    0  501 -0.00000000000E+00  0.00000000000E+00  0.53991325400E+03  0.53991325400E+03  0.00000000000E+00 0.  1.
          1   -1    0    0  501    0  0.00000000000E+00 -0.00000000000E+00 -0.24192257022E+02  0.24192257022E+02  0.00000000000E+00 0. -1.
         23    2    1    2    0    0 -0.21602450501E+02 -0.28236384716E+02  0.16682383124E+03  0.19178909060E+03  0.87686403260E+02 0.  0.
          5    1    1    2  502    0 -0.92444592748E+00  0.37660112681E+02  0.20819246445E+02  0.43297456160E+02  0.47000000000E+01 0.  1.
         -5    1    1    2    0  502  0.22526896428E+02 -0.94237279650E+01  0.32807791929E+03  0.32901896426E+03  0.47000000000E+01 0.  1.
        -11    1    3    3    0    0 -0.16972217522E+02 -0.48954853142E+02  0.46540385221E+02  0.69646545286E+02  0.00000000000E+00 0. -1.
         11    1    3    3    0    0 -0.46302329794E+01  0.20718468426E+02  0.12028344601E+03  0.12214254532E+03  0.00000000000E+00 0.  1.
<mgrwt>
<rscale>  0 0.12004916E+03</rscale>
<asrwt>0</asrwt>
<pdfrwt beam="2">  1        1 0.37218861E-02 0.12996263E+03</pdfrwt>
<pdfrwt beam="1">  1       -1 0.83063569E-01 0.12996263E+03</pdfrwt>
<totfact> 0.36322148E+03</totfact>
</mgrwt>
</event>
<event>
 7    1  0.1378058E-005  0.1871490E+03  0.7546771E-02  0.1166527E+00
         -1   -1    0    0    0  501 -0.00000000000E+00  0.00000000000E+00  0.89417800076E+02  0.89417800076E+02  0.00000000000E+00 0.  1.
          1   -1    0    0  501    0  0.00000000000E+00 -0.00000000000E+00 -0.44526361641E+03  0.44526361641E+03  0.00000000000E+00 0. -1.
         23    2    1    2    0    0 -0.13687545347E+03  0.25759581593E+02 -0.29485926216E+03  0.33784619888E+03  0.88315478889E+02 0.  0.
          5    1    1    2  502    0  0.33049416650E+02 -0.12163857678E+02  0.38452521158E+02  0.52353698607E+02  0.47000000000E+01 0.  1.
         -5    1    1    2    0  502  0.10382603682E+03 -0.13595723915E+02 -0.99439075336E+02  0.14448151900E+03  0.47000000000E+01 0.  1.
        -11    1    3    3    0    0 -0.37044992245E+02 -0.85271529384E+01 -0.17070393086E+03  0.17488532185E+03  0.00000000000E+00 0. -1.
         11    1    3    3    0    0 -0.99830461221E+02  0.34286734531E+02 -0.12415533130E+03  0.16296087703E+03  0.00000000000E+00 0.  1.
<mgrwt>
<rscale>  0 0.18132508E+03</rscale>
<asrwt>0</asrwt>
<pdfrwt beam="2">  1        1 0.68502095E-01 0.18714899E+03</pdfrwt>
<pdfrwt beam="1">  1       -1 0.13756585E-01 0.18714899E+03</pdfrwt>
<totfact> 0.19251438E+03</totfact>
</mgrwt>
</event>
<event>
 7    1  0.1378058E-005  0.1656017E+03  0.7546771E-02  0.1190956E+00
         -1   -1    0    0    0  501 -0.00000000000E+00  0.00000000000E+00  0.64427485905E+02  0.64427485905E+02  0.00000000000E+00 0.  1.
          1   -1    0    0  501    0  0.00000000000E+00 -0.00000000000E+00 -0.49804834402E+03  0.49804834402E+03  0.00000000000E+00 0. -1.
         23    2    1    2    0    0  0.72767892549E+02  0.80641288906E+02 -0.35206278268E+03  0.37787996472E+03  0.83945703444E+02 0.  0.
          5    1    1    2  502    0  0.23075477131E+02 -0.40863842128E+01  0.15171642838E+02  0.28309802670E+02  0.47000000000E+01 0.  1.
         -5    1    1    2    0  502 -0.95843369680E+02 -0.76554904694E+02 -0.96729718268E+02  0.15628606253E+03  0.47000000000E+01 0.  1.
        -11    1    3    3    0    0  0.45454320877E+02  0.67107281493E+02 -0.33112096039E+03  0.34089671885E+03  0.00000000000E+00 0. -1.
         11    1    3    3    0    0  0.27313571672E+02  0.13534007414E+02 -0.20941822294E+02  0.36983245871E+02  0.00000000000E+00 0.  1.
<mgrwt>
<rscale>  0 0.15801497E+03</rscale>
<asrwt>0</asrwt>
<pdfrwt beam="2">  1        1 0.76622824E-01 0.16560167E+03</pdfrwt>
<pdfrwt beam="1">  1       -1 0.99119207E-02 0.16560167E+03</pdfrwt>
<totfact> 0.27564898E+03</totfact>
</mgrwt>
</event>
<event>
 7    1  0.1378058E-005  0.1402464E+03  0.7546771E-02  0.1223912E+00
         -2   -1    0    0    0  501 -0.00000000000E+00  0.00000000000E+00  0.60851758933E+02  0.60851758933E+02  0.00000000000E+00 0.  1.
          2   -1    0    0  501    0  0.00000000000E+00 -0.00000000000E+00 -0.32138080206E+03  0.32138080206E+03  0.00000000000E+00 0. -1.
         23    2    1    2    0    0 -0.59997787208E+02  0.21099552824E+02 -0.20108465599E+03  0.22990825496E+03  0.91530548042E+02 0.  0.
          5    1    1    2  502    0 -0.23078509812E+02  0.32927512941E+02 -0.11192618109E+02  0.42002421641E+02  0.47000000000E+01 0. -1.
         -5    1    1    2    0  502  0.83076297020E+02 -0.54027065765E+02 -0.48251769032E+02  0.11032188439E+03  0.47000000000E+01 0. -1.
        -11    1    3    3    0    0 -0.52425963712E+00  0.18041911548E+02  0.21045950727E+01  0.18171811712E+02  0.00000000000E+00 0.  1.
         11    1    3    3    0    0 -0.59473527571E+02  0.30576412759E+01 -0.20318925106E+03  0.21173644325E+03  0.00000000000E+00 0. -1.
<mgrwt>
<rscale>  0 0.13241773E+03</rscale>
<asrwt>0</asrwt>
<pdfrwt beam="2">  1        2 0.49443202E-01 0.14024642E+03</pdfrwt>
<pdfrwt beam="1">  1       -2 0.93618088E-02 0.14024642E+03</pdfrwt>
<totfact> 0.71415353E+03</totfact>
</mgrwt>
</event>
<event>
 7    1  0.1378058E-005  0.1340039E+03  0.7546771E-02  0.1233806E+00
         -1   -1    0    0    0  501 -0.00000000000E+00  0.00000000000E+00  0.19923299871E+03  0.19923299871E+03  0.00000000000E+00 0.  1.
          1   -1    0    0  501    0  0.00000000000E+00 -0.00000000000E+00 -0.71663426711E+02  0.71663426711E+02  0.00000000000E+00 0. -1.
         23    2    1    2    0    0  0.28963720235E+01  0.48193879578E+02  0.44471935420E+02  0.11321874877E+03  0.92247997449E+02 0.  0.
          5    1    1    2  502    0 -0.17116045619E+02 -0.90104895271E+01  0.10737937010E+03  0.10920882318E+03  0.47000000000E+01 0.  1.
         -5    1    1    2    0  502  0.14219673595E+02 -0.39183390051E+02 -0.24281733521E+02  0.48468853461E+02  0.47000000000E+01 0.  1.
        -11    1    3    3    0    0  0.20182221217E+02  0.62221409664E+02  0.22074842508E+01  0.65449972197E+02  0.00000000000E+00 0. -1.
         11    1    3    3    0    0 -0.17285849194E+02 -0.14027530086E+02  0.42264451169E+02  0.47768776573E+02  0.00000000000E+00 0.  1.
<mgrwt>
<rscale>  0 0.12581149E+03</rscale>
<asrwt>0</asrwt>
<pdfrwt beam="2">  1        1 0.11025143E-01 0.13400385E+03</pdfrwt>
<pdfrwt beam="1">  1       -1 0.30651230E-01 0.13400385E+03</pdfrwt>
<totfact> 0.52717091E+03</totfact>
</mgrwt>
</event>
<event>
 7    1  0.1378058E-005  0.1364057E+03  0.7546771E-02  0.1228522E+00
          1   -1    0    0  501    0  0.00000000000E+00  0.00000000000E+00  0.69628682849E+02  0.69628682849E+02  0.00000000000E+00 0. -1.
         -1   -1    0    0    0  501 -0.00000000000E+00 -0.00000000000E+00 -0.29679580748E+03  0.29679580748E+03  0.00000000000E+00 0.  1.
         23    2    1    2    0    0  0.44710458202E+02  0.31320525511E+02 -0.10738361900E+02  0.11059659107E+03  0.95583958644E+02 0.  0.
          5    1    1    2  502    0 -0.38211191661E+02 -0.18492156542E+02 -0.40396745344E+01  0.42900629274E+02  0.47000000000E+01 0. -1.
         -5    1    1    2    0  502 -0.64992665402E+01 -0.12828368969E+02 -0.21238908819E+03  0.21292726998E+03  0.47000000000E+01 0. -1.
        -11    1    3    3    0    0  0.52422172600E+02  0.60206028429E+02 -0.11705445529E+02  0.80683749877E+02  0.00000000000E+00 0.  1.
         11    1    3    3    0    0 -0.77117143978E+01 -0.28885502918E+02  0.96708362893E+00  0.29912841197E+02  0.00000000000E+00 0. -1.
<mgrwt>
<rscale>  0 0.12928422E+03</rscale>
<asrwt>0</asrwt>
<pdfrwt beam="1">  1        1 0.10712105E-01 0.13640566E+03</pdfrwt>
<pdfrwt beam="2">  1       -1 0.45660893E-01 0.13640566E+03</pdfrwt>
<totfact> 0.27447796E+03</totfact>
</mgrwt>
</event>
<event>
 7    1  0.1696917E-005  0.3507725E+03  0.7546771E-02  0.1063377E+00
         -2   -1    0    0    0  501 -0.00000000000E+00  0.00000000000E+00  0.22136067547E+03  0.22136067547E+03  0.00000000000E+00 0. -1.
          2   -1    0    0  501    0  0.00000000000E+00 -0.00000000000E+00 -0.59389520780E+03  0.59389520780E+03  0.00000000000E+00 0.  1.
         23    2    1    2    0    0 -0.71716497715E+01 -0.32766418488E+03 -0.30705563921E+03  0.45842426454E+03  0.91947757637E+02 0.  0.
          5    1    1    2  502    0 -0.23691609014E+02  0.15858431451E+03 -0.88747864256E+02  0.18332634987E+03  0.47000000000E+01 0. -1.
         -5    1    1    2    0  502  0.30863258785E+02  0.16907987037E+03  0.23268971141E+02  0.17350526887E+03  0.47000000000E+01 0. -1.
        -11    1    3    3    0    0  0.35703748175E+02 -0.16612218129E+03 -0.18682587127E+03  0.25253760696E+03  0.00000000000E+00 0.  1.
         11    1    3    3    0    0 -0.42875397947E+02 -0.16154200358E+03 -0.12022976794E+03  0.20588665758E+03  0.00000000000E+00 0. -1.
<mgrwt>
<rscale>  0 0.34814914E+03</rscale>
<asrwt>0</asrwt>
<pdfrwt beam="2">  1        2 0.91368493E-01 0.35077246E+03</pdfrwt>
<pdfrwt beam="1">  1       -2 0.34055489E-01 0.35077246E+03</pdfrwt>
<totfact> 0.41385103E+02</totfact>
</mgrwt>
</event>
<event>
 7    1  0.1378058E-005  0.1234678E+03  0.7546771E-02  0.1251457E+00
          1   -1    0    0  501    0  0.00000000000E+00  0.00000000000E+00  0.22339042955E+03  0.22339042955E+03  0.00000000000E+00 0. -1.
         -1   -1    0    0    0  501 -0.00000000000E+00 -0.00000000000E+00 -0.61720049139E+02  0.61720049139E+02  0.00000000000E+00 0.  1.
         23    2    1    2    0    0  0.91800106954E+01  0.17860719881E+02  0.12580338246E+03  0.15653852977E+03  0.90964511498E+02 0.  0.
          5    1    1    2  502    0  0.38973824520E+02 -0.37021319453E+02  0.51134969304E+02  0.74339842463E+02  0.47000000000E+01 0. -1.
         -5    1    1    2    0  502 -0.48153835215E+02  0.19160599572E+02 -0.15267971351E+02  0.54232106460E+02  0.47000000000E+01 0.  1.
        -11    1    3    3    0    0 -0.35907559421E+02 -0.18431563328E+01  0.23321074446E+02  0.42855834633E+02  0.00000000000E+00 0.  1.
         11    1    3    3    0    0  0.45087570116E+02  0.19703876214E+02  0.10248230801E+03  0.11368269513E+03  0.00000000000E+00 0. -1.
<mgrwt>
<rscale>  0 0.11507121E+03</rscale>
<asrwt>0</asrwt>
<pdfrwt beam="1">  1        1 0.34367758E-01 0.12346783E+03</pdfrwt>
<pdfrwt beam="2">  1       -1 0.94953923E-02 0.12346783E+03</pdfrwt>
<totfact> 0.79214892E+03</totfact>
</mgrwt>
</event>
<event>
 7    1  0.1378058E-005  0.1276170E+03  0.7546771E-02  0.1249286E+00
          2   -1    0    0  501    0  0.00000000000E+00  0.00000000000E+00  0.14674535893E+03  0.14674535893E+03  0.00000000000E+00 0. -1.
         -2   -1    0    0    0  501 -0.00000000000E+00 -0.00000000000E+00 -0.85102756375E+02  0.85102756375E+02  0.00000000000E+00 0.  1.
         23    2    1    2    0    0  0.20076646357E+02  0.16132281402E+02  0.55421014352E+02  0.10407952301E+03  0.84248062560E+02 0.  0.
          5    1    1    2  502    0  0.10951088394E+02 -0.65766444722E+02 -0.80949867010E+01  0.67325852376E+02  0.47000000000E+01 0.  1.
         -5    1    1    2    0  502 -0.31027734751E+02  0.49634163320E+02  0.14316574902E+02  0.60442739921E+02  0.47000000000E+01 0.  1.
        -11    1    3    3    0    0 -0.11818414768E+02 -0.28996688217E+02  0.29575944850E+02  0.43072257532E+02  0.00000000000E+00 0. -1.
         11    1    3    3    0    0  0.31895061125E+02  0.45128969618E+02  0.25845069502E+02  0.61007265473E+02  0.00000000000E+00 0.  1.
<mgrwt>
<rscale>  0 0.11632460E+03</rscale>
<asrwt>0</asrwt>
<pdfrwt beam="1">  1        2 0.22576209E-01 0.12761702E+03</pdfrwt>
<pdfrwt beam="2">  1       -2 0.13092732E-01 0.12761702E+03</pdfrwt>
<totfact> 0.97041437E+03</totfact>
</mgrwt>
</event>
<event>
 7    1  0.1378058E-005  0.1403440E+03  0.7546771E-02  0.1223523E+00
          2   -1    0    0  501    0  0.00000000000E+00  0.00000000000E+00  0.14903459144E+03  0.14903459144E+03  0.00000000000E+00 0. -1.
         -2   -1    0    0    0  501 -0.00000000000E+00 -0.00000000000E+00 -0.21974874116E+03  0.21974874116E+03  0.00000000000E+00 0.  1.
         23    2    1    2    0    0 -0.69594849326E+01  0.63421868048E+02  0.98284922942E+02  0.14910827360E+03  0.92209453962E+02 0.  0.
          5    1    1    2  502    0  0.60031330759E+02 -0.39613921791E+02 -0.13252432438E+03  0.15085691905E+03  0.47000000000E+01 0.  1.
         -5    1    1    2    0  502 -0.53071845827E+02 -0.23807946257E+02 -0.36474748290E+02  0.68818139958E+02  0.47000000000E+01 0.  1.
        -11    1    3    3    0    0 -0.97325795283E+00  0.17359843250E+02 -0.17307209513E+02  0.24532649466E+02  0.00000000000E+00 0.  1.
         11    1    3    3    0    0 -0.59862269798E+01  0.46062024798E+02  0.11559213246E+03  0.12457562413E+03  0.00000000000E+00 0. -1.
<mgrwt>
<rscale>  0 0.13268653E+03</rscale>
<asrwt>0</asrwt>
<pdfrwt beam="1">  1        2 0.22928399E-01 0.14034402E+03</pdfrwt>
<pdfrwt beam="2">  1       -2 0.33807498E-01 0.14034402E+03</pdfrwt>
<totfact> 0.18953872E+03</totfact>
</mgrwt>
</event>
<event>
 7    1  0.1378058E-005  0.1769368E+03  0.7546771E-02  0.1172529E+00
          1   -1    0    0  501    0  0.00000000000E+00  0.00000000000E+00  0.57998754958E+03  0.57998754958E+03  0.00000000000E+00 0. -1.
         -1   -1    0    0    0  501 -0.00000000000E+00 -0.00000000000E+00 -0.72481153325E+02  0.72481153325E+02  0.00000000000E+00 0.  1.
         23    2    1    2    0    0  0.23069171976E+02 -0.12309415832E+03  0.42393841143E+03  0.45678980775E+03  0.11510340252E+03 0.  0.
          5    1    1    2  502    0  0.10131692702E+02 -0.95783264577E+01 -0.19452911129E+02  0.24390598314E+02  0.47000000000E+01 0. -1.
         -5    1    1    2    0  502 -0.33200864677E+02  0.13267248477E+03  0.10302089595E+03  0.17128829684E+03  0.47000000000E+01 0. -1.
        -11    1    3    3    0    0  0.51393422292E+02 -0.12544494511E+03  0.29356674450E+03  0.32335607553E+03  0.00000000000E+00 0.  1.
         11    1    3    3    0    0 -0.28324250317E+02  0.23507867948E+01  0.13037166693E+03  0.13343373222E+03  0.00000000000E+00 0. -1.
<mgrwt>
<rscale>  0 0.17520159E+03</rscale>
<asrwt>0</asrwt>
<pdfrwt beam="1">  1        1 0.89228851E-01 0.17693677E+03</pdfrwt>
<pdfrwt beam="2">  1       -1 0.11150947E-01 0.17693677E+03</pdfrwt>
<totfact> 0.18793459E+03</totfact>
</mgrwt>
</event>
<event>
 7    1  0.1378058E-005  0.1518937E+03  0.7546771E-02  0.1210150E+00
          3   -1    0    0  501    0  0.00000000000E+00  0.00000000000E+00  0.20965265903E+03  0.20965265903E+03  0.00000000000E+00 0. -1.
         -3   -1    0    0    0  501 -0.00000000000E+00 -0.00000000000E+00 -0.10921480758E+03  0.10921480758E+03  0.00000000000E+00 0.  1.
         23    2    1    2    0    0  0.58790583000E+02 -0.49702869510E+02  0.11749038711E+03  0.16601954466E+03  0.88497402561E+02 0.  0.
          5    1    1    2  502    0 -0.45320469129E+02  0.87320169063E+02  0.17232542729E+02  0.99989036280E+02  0.47000000000E+01 0. -1.
         -5    1    1    2    0  502 -0.13470113871E+02 -0.37617299553E+02 -0.34285078389E+02  0.52858885662E+02  0.47000000000E+01 0.  1.
        -11    1    3    3    0    0  0.72205966690E+02 -0.59280154938E+02  0.11673971646E+03  0.14951922884E+03  0.00000000000E+00 0.  1.
         11    1    3    3    0    0 -0.13415383690E+02  0.95772854280E+01  0.75067065117E+00  0.16500315820E+02  0.00000000000E+00 0. -1.
<mgrwt>
<rscale>  0 0.14238893E+03</rscale>
<asrwt>0</asrwt>
<pdfrwt beam="1">  1        3 0.32254255E-01 0.15189371E+03</pdfrwt>
<pdfrwt beam="2">  1       -3 0.16802278E-01 0.15189371E+03</pdfrwt>
<totfact> 0.67226584E+02</totfact>
</mgrwt>
</event>
<event>
 7    1  0.1378058E-005  0.1318995E+03  0.7546771E-02  0.1236972E+00
          1   -1    0    0  501    0  0.00000000000E+00  0.00000000000E+00  0.31841923004E+03  0.31841923004E+03  0.00000000000E+00 0. -1.
         -1   -1    0    0    0  501 -0.00000000000E+00 -0.00000000000E+00 -0.70066745037E+02  0.70066745037E+02  0.00000000000E+00 0.  1.
         23    2    1    2    0    0  0.12396900353E+02 -0.40249281564E+02  0.23450613829E+03  0.25586168496E+03  0.93265133503E+02 0.  0.
          5    1    1    2  502    0  0.36344781059E+02 -0.17341890990E+01 -0.35775515830E+02  0.51243809918E+02  0.47000000000E+01 0. -1.
         -5    1    1    2    0  502 -0.48741681411E+02  0.41983470663E+02  0.49621862539E+02  0.81380480200E+02  0.47000000000E+01 0. -1.
        -11    1    3    3    0    0  0.42046565104E+02 -0.37424525206E+02  0.75965694979E+02  0.94547847874E+02  0.00000000000E+00 0. -1.
         11    1    3    3    0    0 -0.29649664751E+02 -0.28247563580E+01  0.15854044331E+03  0.16131383708E+03  0.00000000000E+00 0.  1.
<mgrwt>
<rscale>  0 0.12379026E+03</rscale>
<asrwt>0</asrwt>
<pdfrwt beam="1">  1        1 0.48987573E-01 0.13189951E+03</pdfrwt>
<pdfrwt beam="2">  1       -1 0.10779499E-01 0.13189951E+03</pdfrwt>
<totfact> 0.42326360E+03</totfact>
</mgrwt>
</event>
<event>
 7    1  0.1378058E-005  0.1558813E+03  0.7546771E-02  0.1201692E+00
         -2   -1    0    0    0  501 -0.00000000000E+00  0.00000000000E+00  0.93434809262E+02  0.93434809262E+02  0.00000000000E+00 0. -1.
          2   -1    0    0  501    0  0.00000000000E+00 -0.00000000000E+00 -0.22516230856E+03  0.22516230856E+03  0.00000000000E+00 0.  1.
         23    2    1    2    0    0  0.84674228074E+02  0.38734053260E+02 -0.33719706192E+02  0.13446531615E+03  0.90960710638E+02 0.  0.
          5    1    1    2  502    0 -0.20313893416E+02  0.43728542319E+02 -0.15640861905E+02  0.50907428143E+02  0.47000000000E+01 0.  1.
         -5    1    1    2    0  502 -0.64360334659E+02 -0.82462595578E+02 -0.82366931203E+02  0.13322437353E+03  0.47000000000E+01 0.  1.
        -11    1    3    3    0    0  0.21067166912E+02  0.29734051604E+02 -0.55705968419E+02  0.66566465010E+02  0.00000000000E+00 0.  1.
         11    1    3    3    0    0  0.63607061162E+02  0.90000016558E+01  0.21986262226E+02  0.67898851140E+02  0.00000000000E+00 0. -1.
<mgrwt>
<rscale>  0 0.14901236E+03</rscale>
<asrwt>0</asrwt>
<pdfrwt beam="2">  1        2 0.34640355E-01 0.15588134E+03</pdfrwt>
<pdfrwt beam="1">  1       -2 0.14374586E-01 0.15588134E+03</pdfrwt>
<totfact> 0.52981082E+03</totfact>
</mgrwt>
</event>
<event>
 7    1  0.1378058E-005  0.1974260E+03  0.7546771E-02  0.1154599E+00
          1   -1    0    0  501    0  0.00000000000E+00  0.00000000000E+00  0.26406766704E+03  0.26406766704E+03  0.00000000000E+00 0. -1.
         -1   -1    0    0    0  501 -0.00000000000E+00 -0.00000000000E+00 -0.55685310989E+03  0.55685310989E+03  0.00000000000E+00 0.  1.
         23    2    1    2    0    0  0.70575182602E+02 -0.14527469589E+03  0.21038051200E+03  0.28040899149E+03  0.91014553843E+02 0.  0.
          5    1    1    2  502    0 -0.55299094102E+02  0.73857969696E+01 -0.18732296425E+03  0.19551092742E+03  0.47000000000E+01 0. -1.
         -5    1    1    2    0  502 -0.15276088500E+02  0.13788889892E+03 -0.31584299061E+03  0.34500085803E+03  0.47000000000E+01 0.  1.
        -11    1    3    3    0    0  0.77544477687E+02 -0.87035888102E+02  0.92751149896E+02  0.14896700186E+03  0.00000000000E+00 0.  1.
         11    1    3    3    0    0 -0.69692950841E+01 -0.58238807791E+02  0.11762936211E+03  0.13144198962E+03  0.00000000000E+00 0. -1.
<mgrwt>
<rscale>  0 0.19434548E+03</rscale>
<asrwt>0</asrwt>
<pdfrwt beam="1">  1        1 0.40625795E-01 0.19742597E+03</pdfrwt>
<pdfrwt beam="2">  1       -1 0.85669708E-01 0.19742597E+03</pdfrwt>
<totfact> 0.14830829E+02</totfact>
</mgrwt>
</event>
<event>
 7    1  0.1378058E-005  0.1536155E+03  0.7546771E-02  0.1204671E+00
         -1   -1    0    0    0  501 -0.00000000000E+00  0.00000000000E+00  0.44103502990E+03  0.44103502990E+03  0.00000000000E+00 0. -1.
          1   -1    0    0  501    0  0.00000000000E+00 -0.00000000000E+00 -0.44807248659E+02  0.44807248659E+02  0.00000000000E+00 0.  1.
         23    2    1    2    0    0  0.79793536495E+02 -0.40225994745E+02  0.17978714418E+03  0.22042887446E+03  0.90996331595E+02 0.  0.
          5    1    1    2  502    0 -0.87714169550E+01 -0.35107032432E+02  0.11396828840E+03  0.11966746526E+03  0.47000000000E+01 0. -1.
         -5    1    1    2    0  502 -0.71022119540E+02  0.75333027177E+02  0.10247234866E+03  0.14574593884E+03  0.47000000000E+01 0. -1.
        -11    1    3    3    0    0  0.33697739958E+01 -0.36835385485E+02  0.11292439807E+03  0.11882811402E+03  0.00000000000E+00 0. -1.
         11    1    3    3    0    0  0.76423762499E+02 -0.33906092594E+01  0.66862746106E+02  0.10160076044E+03  0.00000000000E+00 0.  1.
<mgrwt>
<rscale>  0 0.14663399E+03</rscale>
<asrwt>0</asrwt>
<pdfrwt beam="2">  1        1 0.68934232E-02 0.15361551E+03</pdfrwt>
<pdfrwt beam="1">  1       -1 0.67851540E-01 0.15361551E+03</pdfrwt>
<totfact> 0.23716953E+03</totfact>
</mgrwt>
</event>
<event>
 7    1  0.1378058E-005  0.1400482E+03  0.7546771E-02  0.1225038E+00
          1   -1    0    0  501    0  0.00000000000E+00  0.00000000000E+00  0.13303925581E+03  0.13303925581E+03  0.00000000000E+00 0. -1.
         -1   -1    0    0    0  501 -0.00000000000E+00 -0.00000000000E+00 -0.16040633522E+03  0.16040633522E+03  0.00000000000E+00 0.  1.
         23    2    1    2    0    0  0.45693196194E+02 -0.43597151272E+02  0.63561848825E+02  0.12646780147E+03  0.89249181537E+02 0.  0.
          5    1    1    2  502    0 -0.12468342621E+02 -0.11887301867E+02 -0.99930893169E+02  0.10151374746E+03  0.47000000000E+01 0.  1.
         -5    1    1    2    0  502 -0.33224853573E+02  0.55484453138E+02  0.90019649314E+01  0.65464042097E+02  0.47000000000E+01 0.  1.
        -11    1    3    3    0    0 -0.86625289097E+01 -0.24262123061E+02  0.63767898166E+02  0.68775248884E+02  0.00000000000E+00 0. -1.
         11    1    3    3    0    0  0.54355725104E+02 -0.19335028211E+02 -0.20604934140E+00  0.57692552585E+02  0.00000000000E+00 0.  1.
<mgrwt>
<rscale>  0 0.13164289E+03</rscale>
<asrwt>0</asrwt>
<pdfrwt beam="1">  1        1 0.20467578E-01 0.14004825E+03</pdfrwt>
<pdfrwt beam="2">  1       -1 0.24677898E-01 0.14004825E+03</pdfrwt>
<totfact> 0.34019477E+03</totfact>
</mgrwt>
</event>
<event>
 7    1  0.1378058E-005  0.1380857E+03  0.7546771E-02  0.1227624E+00
         -1   -1    0    0    0  501 -0.00000000000E+00  0.00000000000E+00  0.13383826500E+03  0.13383826500E+03  0.00000000000E+00 0.  1.
          1   -1    0    0  501    0  0.00000000000E+00 -0.00000000000E+00 -0.13109964534E+03  0.13109964534E+03  0.00000000000E+00 0. -1.
         23    2    1    2    0    0 -0.18243141578E+02  0.55775095208E+02 -0.47398936759E+02  0.11803166471E+03  0.90780731477E+02 0.  0.
          5    1    1    2  502    0 -0.26282916174E+02 -0.21496640435E+02 -0.32253413039E+02  0.47066653644E+02  0.47000000000E+01 0.  1.
         -5    1    1    2    0  502  0.44526057753E+02 -0.34278454773E+02  0.82390969456E+02  0.99839591989E+02  0.47000000000E+01 0.  1.
        -11    1    3    3    0    0 -0.20350706075E+02  0.77876767158E+02 -0.20324787038E+02  0.83018305625E+02  0.00000000000E+00 0.  1.
         11    1    3    3    0    0  0.21075644967E+01 -0.22101671950E+02 -0.27074149722E+02  0.35013359083E+02  0.00000000000E+00 0. -1.
<mgrwt>
<rscale>  0 0.12988660E+03</rscale>
<asrwt>0</asrwt>
<pdfrwt beam="2">  1        1 0.20169176E-01 0.13808574E+03</pdfrwt>
<pdfrwt beam="1">  1       -1 0.20590502E-01 0.13808574E+03</pdfrwt>
<totfact> 0.46488620E+03</totfact>
</mgrwt>
</event>
<event>
 7    1  0.1378058E-005  0.1360094E+03  0.7546771E-02  0.1226736E+00
         -2   -1    0    0    0  501 -0.00000000000E+00  0.00000000000E+00  0.10696859696E+03  0.10696859696E+03  0.00000000000E+00 0.  1.
          2   -1    0    0  501    0  0.00000000000E+00 -0.00000000000E+00 -0.14941280665E+03  0.14941280665E+03  0.00000000000E+00 0. -1.
         23    2    1    2    0    0  0.60354851086E+02  0.49287691825E+02 -0.33875093877E+02  0.12010236260E+03  0.84882689066E+02 0.  0.
          5    1    1    2  502    0  0.19203296166E+02 -0.99902679096E+01 -0.36878620940E+02  0.43019701521E+02  0.47000000000E+01 0. -1.
         -5    1    1    2    0  502 -0.79558147252E+02 -0.39297423915E+02  0.28309505134E+02  0.93259339487E+02  0.47000000000E+01 0.  1.
        -11    1    3    3    0    0  0.11293505893E+02  0.29929454399E+02 -0.54724653339E+02  0.63388509992E+02  0.00000000000E+00 0.  1.
         11    1    3    3    0    0  0.49061345193E+02  0.19358237426E+02  0.20849559462E+02  0.56713852612E+02  0.00000000000E+00 0. -1.
<mgrwt>
<rscale>  0 0.13048612E+03</rscale>
<asrwt>0</asrwt>
<pdfrwt beam="2">  1        2 0.22986586E-01 0.13600936E+03</pdfrwt>
<pdfrwt beam="1">  1       -2 0.16456707E-01 0.13600936E+03</pdfrwt>
<totfact> 0.65846986E+03</totfact>
</mgrwt>
</event>
<event>
 7    1  0.1378058E-005  0.1495327E+03  0.7546771E-02  0.1210352E+00
         -1   -1    0    0    0  501 -0.00000000000E+00  0.00000000000E+00  0.67087616342E+02  0.67087616342E+02  0.00000000000E+00 0.  1.
          1   -1    0    0  501    0  0.00000000000E+00 -0.00000000000E+00 -0.29422442325E+03  0.29422442325E+03  0.00000000000E+00 0. -1.
         23    2    1    2    0    0 -0.35524765475E+01 -0.81977311534E+02 -0.14821671938E+03  0.19223095404E+03  0.90838560592E+02 0.  0.
          5    1    1    2  502    0  0.35638699521E+01  0.88294209554E+02 -0.10761492703E+03  0.13932562984E+03  0.47000000000E+01 0. -1.
         -5    1    1    2    0  502 -0.11393404668E-01 -0.63168980207E+01  0.28694839506E+02  0.29755455713E+02  0.47000000000E+01 0. -1.
        -11    1    3    3    0    0  0.21473797580E+02 -0.30804601098E+02 -0.12534066979E+03  0.13084468249E+03  0.00000000000E+00 0. -1.
         11    1    3    3    0    0 -0.25026274127E+02 -0.51172710436E+02 -0.22876049587E+02  0.61386271550E+02  0.00000000000E+00 0.  1.
<mgrwt>
<rscale>  0 0.14223537E+03</rscale>
<asrwt>0</asrwt>
<pdfrwt beam="2">  1        1 0.45265295E-01 0.14953272E+03</pdfrwt>
<pdfrwt beam="1">  1       -1 0.10321172E-01 0.14953272E+03</pdfrwt>
<totfact> 0.50236380E+03</totfact>
</mgrwt>
</event>
<event>
 7    1  0.1378058E-005  0.1882375E+03  0.7546771E-02  0.1165071E+00
          2   -1    0    0  501    0  0.00000000000E+00  0.00000000000E+00  0.63528644506E+03  0.63528644506E+03  0.00000000000E+00 0. -1.
         -2   -1    0    0    0  501 -0.00000000000E+00 -0.00000000000E+00 -0.60722297288E+02  0.60722297288E+02  0.00000000000E+00 0.  1.
         23    2    1    2    0    0 -0.67679575001E+02  0.12340669809E+03  0.42080846437E+03  0.45295695523E+03  0.90997261464E+02 0.  0.
          5    1    1    2  502    0 -0.14763468113E+02 -0.27928554072E+01  0.75746207020E+02  0.77364965649E+02  0.47000000000E+01 0.  1.
         -5    1    1    2    0  502  0.82443043114E+02 -0.12061384268E+03  0.78009476376E+02  0.16568682147E+03  0.47000000000E+01 0.  1.
        -11    1    3    3    0    0 -0.54571462229E+02  0.18578467314E+02  0.20058957655E+03  0.20870884543E+03  0.00000000000E+00 0.  1.
         11    1    3    3    0    0 -0.13108112772E+02  0.10482823078E+03  0.22021888782E+03  0.24424810980E+03  0.00000000000E+00 0. -1.
<mgrwt>
<rscale>  0 0.18285172E+03</rscale>
<asrwt>0</asrwt>
<pdfrwt beam="1">  1        2 0.97736371E-01 0.18823751E+03</pdfrwt>
<pdfrwt beam="2">  1       -2 0.93418923E-02 0.18823751E+03</pdfrwt>
<totfact> 0.34400402E+03</totfact>
</mgrwt>
</event>
<event>
 7    1  0.1378058E-005  0.1263779E+03  0.7546771E-02  0.1257722E+00
         -2   -1    0    0    0  501 -0.00000000000E+00  0.00000000000E+00  0.10043490841E+03  0.10043490841E+03  0.00000000000E+00 0.  1.
          2   -1    0    0  501    0  0.00000000000E+00 -0.00000000000E+00 -0.18440412821E+03  0.18440412821E+03  0.00000000000E+00 0. -1.
         23    2    1    2    0    0 -0.11200829142E+02 -0.14792216429E+02 -0.12949230717E+03  0.15051210984E+03  0.74440374480E+02 0.  0.
          5    1    1    2  502    0  0.10683180771E+02 -0.38437691579E+02  0.65863627223E+02  0.77147222090E+02  0.47000000000E+01 0.  1.
         -5    1    1    2    0  502  0.51764837163E+00  0.53229908007E+02 -0.20340539858E+02  0.57179704686E+02  0.47000000000E+01 0.  1.
        -11    1    3    3    0    0  0.31120982052E+02 -0.76922915979E+01 -0.71601698444E+02  0.78450558277E+02  0.00000000000E+00 0.  1.
         11    1    3    3    0    0 -0.42321811194E+02 -0.70999248309E+01 -0.57890608724E+02  0.72061551564E+02  0.00000000000E+00 0. -1.
<mgrwt>
<rscale>  0 0.11155204E+03</rscale>
<asrwt>0</asrwt>
<pdfrwt beam="2">  1        2 0.28369866E-01 0.12637789E+03</pdfrwt>
<pdfrwt beam="1">  1       -2 0.15451524E-01 0.12637789E+03</pdfrwt>
<totfact> 0.57658526E+03</totfact>
</mgrwt>
</event>
<event>
 7    1  0.1378058E-005  0.1288285E+03  0.7546771E-02  0.1244966E+00
          1   -1    0    0  501    0  0.00000000000E+00  0.00000000000E+00  0.24572212697E+02  0.24572212697E+02  0.00000000000E+00 0. -1.
         -1   -1    0    0    0  501 -0.00000000000E+00 -0.00000000000E+00 -0.89086863589E+03  0.89086863589E+03  0.00000000000E+00 0.  1.
         23    2    1    2    0    0 -0.18468459384E+01 -0.44152042667E+02 -0.94123126186E+02  0.13259451608E+03  0.82275932684E+02 0.  0.
          5    1    1    2  502    0  0.13733391193E+01  0.25804725083E+02 -0.27848758944E+02  0.38280716707E+02  0.47000000000E+01 0. -1.
         -5    1    1    2    0  502  0.47350681912E+00  0.18347317584E+02 -0.74432453806E+03  0.74456561580E+03  0.47000000000E+01 0.  1.
        -11    1    3    3    0    0  0.18860344911E+02 -0.61989754010E+02 -0.55718094127E+02  0.85457288896E+02  0.00000000000E+00 0. -1.
         11    1    3    3    0    0 -0.20707190849E+02  0.17837711343E+02 -0.38405032059E+02  0.47137227181E+02  0.00000000000E+00 0.  1.
<mgrwt>
<rscale>  0 0.11887399E+03</rscale>
<asrwt>0</asrwt>
<pdfrwt beam="1">  1        1 0.37803415E-02 0.12882849E+03</pdfrwt>
<pdfrwt beam="2">  1       -1 0.13705668E+00 0.12882849E+03</pdfrwt>
<totfact> 0.11486350E+03</totfact>
</mgrwt>
</event>
<event>
 7    1  0.1378058E-005  0.2387443E+03  0.7546771E-02  0.1120632E+00
          1   -1    0    0  501    0  0.00000000000E+00  0.00000000000E+00  0.31198157534E+03  0.31198157534E+03  0.00000000000E+00 0. -1.
         -1   -1    0    0    0  501 -0.00000000000E+00 -0.00000000000E+00 -0.45674844940E+02  0.45674844940E+02  0.00000000000E+00 0.  1.
         23    2    1    2    0    0 -0.33069911298E+01  0.17908550194E+02  0.18552280833E+03  0.20772322110E+03  0.91643722166E+02 0.  0.
          5    1    1    2  502    0 -0.68615596042E+01  0.33782435771E+02  0.89777566585E+02  0.96283100432E+02  0.47000000000E+01 0. -1.
         -5    1    1    2    0  502  0.10168550734E+02 -0.51690985964E+02 -0.89936445166E+01  0.53650098748E+02  0.47000000000E+01 0. -1.
        -11    1    3    3    0    0 -0.30336526367E+02  0.44442037284E+02  0.88566337070E+02  0.10363105506E+03  0.00000000000E+00 0.  1.
         11    1    3    3    0    0  0.27029535237E+02 -0.26533487090E+02  0.96956471257E+02  0.10409216604E+03  0.00000000000E+00 0. -1.
<mgrwt>
<rscale>  0 0.23874430E+03</rscale>
<asrwt>0</asrwt>
<pdfrwt beam="1">  1        1 0.47997164E-01 0.23874430E+03</pdfrwt>
<pdfrwt beam="2">  1       -1 0.70268994E-02 0.23874430E+03</pdfrwt>
<totfact> 0.86200666E+03</totfact>
</mgrwt>
</event>
<event>
 7    1  0.1378058E-005  0.1307757E+03  0.7546771E-02  0.1239677E+00
         -1   -1    0    0    0  501 -0.00000000000E+00  0.00000000000E+00  0.84250927544E+03  0.84250927544E+03  0.00000000000E+00 0. -1.
          1   -1    0    0  501    0  0.00000000000E+00 -0.00000000000E+00 -0.19609149854E+02  0.19609149854E+02  0.00000000000E+00 0.  1.
         23    2    1    2    0    0  0.30304151982E+02 -0.23681883471E+02  0.17582583953E+03  0.20196131671E+03  0.91621364150E+02 0.  0.
          5    1    1    2  502    0 -0.32453561559E+02 -0.20615377018E+02  0.56842543020E+03  0.56974361526E+03  0.47000000000E+01 0.  1.
         -5    1    1    2    0  502  0.21494095770E+01  0.44297260488E+02  0.78648855853E+02  0.90413493325E+02  0.47000000000E+01 0.  1.
        -11    1    3    3    0    0 -0.15241308574E+02  0.60175951647E+01 -0.15303036676E+01  0.16457544407E+02  0.00000000000E+00 0.  1.
         11    1    3    3    0    0  0.45545460555E+02 -0.29699478635E+02  0.17735614320E+03  0.18550377231E+03  0.00000000000E+00 0. -1.
<mgrwt>
<rscale>  0 0.12209698E+03</rscale>
<asrwt>0</asrwt>
<pdfrwt beam="2">  1        1 0.30167929E-02 0.13077567E+03</pdfrwt>
<pdfrwt beam="1">  1       -1 0.12961678E+00 0.13077567E+03</pdfrwt>
<totfact> 0.17990590E+03</totfact>
</mgrwt>
</event>
<event>
 7    1  0.1378058E-005  0.1448253E+03  0.7546771E-02  0.1217256E+00
          2   -1    0    0  501    0  0.00000000000E+00  0.00000000000E+00  0.82197011512E+02  0.82197011512E+02  0.00000000000E+00 0. -1.
         -2   -1    0    0    0  501 -0.00000000000E+00 -0.00000000000E+00 -0.21173916254E+03  0.21173916254E+03  0.00000000000E+00 0.  1.
         23    2    1    2    0    0  0.72012317377E+02  0.12784294646E+02 -0.37225299603E+02  0.12218992516E+03  0.90528685160E+02 0.  0.
          5    1    1    2  502    0  0.24525659465E+02  0.26026322427E+02 -0.44104819653E+02  0.56975455662E+02  0.47000000000E+01 0.  1.
         -5    1    1    2    0  502 -0.96537976843E+02 -0.38810617073E+02 -0.48212031771E+02  0.11477079323E+03  0.47000000000E+01 0.  1.
        -11    1    3    3    0    0  0.47350760707E+01  0.21035979849E+02 -0.48870079704E+02  0.53415522874E+02  0.00000000000E+00 0.  1.
         11    1    3    3    0    0  0.67277241307E+02 -0.82516852030E+01  0.11644780101E+02  0.68774402288E+02  0.00000000000E+00 0. -1.
<mgrwt>
<rscale>  0 0.13712112E+03</rscale>
<asrwt>0</asrwt>
<pdfrwt beam="1">  1        2 0.12645694E-01 0.14482532E+03</pdfrwt>
<pdfrwt beam="2">  1       -2 0.32575255E-01 0.14482532E+03</pdfrwt>
<totfact> 0.40398166E+03</totfact>
</mgrwt>
</event>
<event>
 7    1  0.1378058E-005  0.1497942E+03  0.7546771E-02  0.1209148E+00
          2   -1    0    0  501    0  0.00000000000E+00  0.00000000000E+00  0.59128468158E+02  0.59128468158E+02  0.00000000000E+00 0. -1.
         -2   -1    0    0    0  501 -0.00000000000E+00 -0.00000000000E+00 -0.35385801074E+03  0.35385801074E+03  0.00000000000E+00 0.  1.
         23    2    1    2    0    0  0.76828802890E+01 -0.82186608291E+02 -0.70904067993E+02  0.14366114195E+03  0.93794837904E+02 0.  0.
          5    1    1    2  502    0 -0.40483162304E+02 -0.11232356747E+02 -0.11295361892E+03  0.12060539911E+03  0.47000000000E+01 0.  1.
         -5    1    1    2    0  502  0.32800282015E+02  0.93418965038E+02 -0.11087185567E+03  0.14871993783E+03  0.47000000000E+01 0.  1.
        -11    1    3    3    0    0 -0.13754297581E+02 -0.53167193438E+02  0.93152757903E+01  0.55701934644E+02  0.00000000000E+00 0. -1.
         11    1    3    3    0    0  0.21437177870E+02 -0.29019414853E+02 -0.80219343783E+02  0.87959207309E+02  0.00000000000E+00 0.  1.
<mgrwt>
<rscale>  0 0.14315302E+03</rscale>
<asrwt>0</asrwt>
<pdfrwt beam="1">  1        2 0.90966875E-02 0.14979417E+03</pdfrwt>
<pdfrwt beam="2">  1       -2 0.54439694E-01 0.14979417E+03</pdfrwt>
<totfact> 0.22611895E+03</totfact>
</mgrwt>
</event>
<event>
 7    1  0.1378058E-005  0.2692202E+03  0.7546771E-02  0.1103941E+00
          1   -1    0    0  501    0  0.00000000000E+00  0.00000000000E+00  0.93669477494E+03  0.93669477494E+03  0.00000000000E+00 0. -1.
         -1   -1    0    0    0  501 -0.00000000000E+00 -0.00000000000E+00 -0.79558584630E+02  0.79558584630E+02  0.00000000000E+00 0.  1.
         23    2    1    2    0    0  0.23627564720E+03 -0.32094465993E+02  0.56159612426E+03  0.61647410723E+03  0.88282964866E+02 0.  0.
          5    1    1    2  502    0 -0.23404583448E+03 -0.22901540313E+01  0.25028827579E+03  0.34270834311E+03  0.47000000000E+01 0.  1.
         -5    1    1    2    0  502 -0.22298127232E+01  0.34384620024E+02  0.45251790257E+02  0.57070909231E+02  0.47000000000E+01 0.  1.
        -11    1    3    3    0    0  0.16265173587E+03 -0.37783342071E+01  0.45951605534E+03  0.48746781237E+03  0.00000000000E+00 0.  1.
         11    1    3    3    0    0  0.73623911331E+02 -0.28316131786E+02  0.10208006893E+03  0.12900629485E+03  0.00000000000E+00 0. -1.
<mgrwt>
<rscale>  0 0.26540060E+03</rscale>
<asrwt>0</asrwt>
<pdfrwt beam="1">  1        1 0.14410688E+00 0.26922021E+03</pdfrwt>
<pdfrwt beam="2">  1       -1 0.12239783E-01 0.26922021E+03</pdfrwt>
<totfact> 0.79581199E+02</totfact>
</mgrwt>
</event>
<event>
 7    1  0.1378058E-005  0.2237389E+03  0.7546771E-02  0.1134395E+00
         -1   -1    0    0    0  501 -0.00000000000E+00  0.00000000000E+00  0.68845572273E+02  0.68845572273E+02  0.00000000000E+00 0.  1.
          1   -1    0    0  501    0  0.00000000000E+00 -0.00000000000E+00 -0.69781429725E+03  0.69781429725E+03  0.00000000000E+00 0. -1.
         23    2    1    2    0    0 -0.47712209830E+02 -0.17932925577E+03 -0.37553420140E+03  0.42859452806E+03  0.90729797298E+02 0.  0.
          5    1    1    2  502    0  0.64170782077E+02  0.18030715547E+03 -0.25708556123E+03  0.32053648057E+03  0.47000000000E+01 0. -1.
         -5    1    1    2    0  502 -0.16458572247E+02 -0.97789970161E+00  0.36510376549E+01  0.17528860892E+02  0.47000000000E+01 0. -1.
        -11    1    3    3    0    0 -0.72608342337E+02 -0.15274959408E+03 -0.29155894814E+03  0.33706235344E+03  0.00000000000E+00 0.  1.
         11    1    3    3    0    0  0.24896132507E+02 -0.26579661689E+02 -0.83975253268E+02  0.91532174620E+02  0.00000000000E+00 0. -1.
<mgrwt>
<rscale>  0 0.21931490E+03</rscale>
<asrwt>0</asrwt>
<pdfrwt beam="2">  1        1 0.10735604E+00 0.22373895E+03</pdfrwt>
<pdfrwt beam="1">  1       -1 0.10591627E-01 0.22373895E+03</pdfrwt>
<totfact> 0.15749757E+03</totfact>
</mgrwt>
</event>
<event>
 7    1  0.1378058E-005  0.1913153E+03  0.7546771E-02  0.1162161E+00
         -3   -1    0    0    0  501 -0.00000000000E+00  0.00000000000E+00  0.48994854817E+03  0.48994854817E+03  0.00000000000E+00 0.  1.
          3   -1    0    0  501    0  0.00000000000E+00 -0.00000000000E+00 -0.74415829774E+02  0.74415829774E+02  0.00000000000E+00 0. -1.
         23    2    1    2    0    0 -0.28828416050E+02  0.14193487377E+03  0.10757674225E+03  0.20181999628E+03  0.90454239605E+02 0.  0.
          5    1    1    2  502    0  0.65252742074E+02 -0.27931372899E+02  0.10348273376E+03  0.12557407426E+03  0.47000000000E+01 0.  1.
         -5    1    1    2    0  502 -0.36424326024E+02 -0.11400350087E+03  0.20447324239E+03  0.23697030740E+03  0.47000000000E+01 0.  1.
        -11    1    3    3    0    0 -0.14127418597E+02  0.14119914356E+03  0.63710449467E+02  0.15555000312E+03  0.00000000000E+00 0. -1.
         11    1    3    3    0    0 -0.14700997453E+02  0.73573020802E+00  0.43866292780E+02  0.46269993163E+02  0.00000000000E+00 0.  1.
<mgrwt>
<rscale>  0 0.18595507E+03</rscale>
<asrwt>0</asrwt>
<pdfrwt beam="2">  1        3 0.11448589E-01 0.19131530E+03</pdfrwt>
<pdfrwt beam="1">  1       -3 0.75376698E-01 0.19131530E+03</pdfrwt>
<totfact> 0.24262006E+02</totfact>
</mgrwt>
</event>
<event>
 7    1  0.1378058E-005  0.1406683E+03  0.7546771E-02  0.1222238E+00
          2   -1    0    0  501    0  0.00000000000E+00  0.00000000000E+00  0.20022248732E+03  0.20022248732E+03  0.00000000000E+00 0. -1.
         -2   -1    0    0    0  501 -0.00000000000E+00 -0.00000000000E+00 -0.81838455746E+02  0.81838455746E+02  0.00000000000E+00 0.  1.
         23    2    1    2    0    0 -0.64360965505E+02 -0.44605055942E+01  0.41006729783E+02  0.12151556216E+03  0.94457662310E+02 0.  0.
          5    1    1    2  502    0  0.91676506854E+02 -0.14048697149E+02  0.85510727733E+02  0.12623835534E+03  0.47000000000E+01 0. -1.
         -5    1    1    2    0  502 -0.27315541349E+02  0.18509202743E+02 -0.81334259472E+01  0.34307025564E+02  0.47000000000E+01 0. -1.
        -11    1    3    3    0    0 -0.60344846268E+02 -0.41108071395E+02  0.42744393890E+02  0.84607666402E+02  0.00000000000E+00 0.  1.
         11    1    3    3    0    0 -0.40161192368E+01  0.36647565801E+02 -0.17376641069E+01  0.36907895760E+02  0.00000000000E+00 0. -1.
<mgrwt>
<rscale>  0 0.13358010E+03</rscale>
<asrwt>0</asrwt>
<pdfrwt beam="1">  1        2 0.30803459E-01 0.14066831E+03</pdfrwt>
<pdfrwt beam="2">  1       -2 0.12590532E-01 0.14066831E+03</pdfrwt>
<totfact> 0.74031453E+03</totfact>
</mgrwt>
</event>
<event>
 7    1  0.1378058E-005  0.1317107E+03  0.7546771E-02  0.1238447E+00
          1   -1    0    0  501    0  0.00000000000E+00  0.00000000000E+00  0.10469053860E+03  0.10469053860E+03  0.00000000000E+00 0. -1.
         -1   -1    0    0    0  501 -0.00000000000E+00 -0.00000000000E+00 -0.22479513145E+03  0.22479513145E+03  0.00000000000E+00 0.  1.
         23    2    1    2    0    0 -0.40166511429E+02 -0.10268397652E+02  0.52232384616E+02  0.11258077179E+03  0.90705124134E+02 0.  0.
          5    1    1    2  502    0  0.13567457954E+02 -0.45834022457E+02 -0.19440159954E+02  0.51815474030E+02  0.47000000000E+01 0. -1.
         -5    1    1    2    0  502  0.26599053474E+02  0.56102420109E+02 -0.15289681751E+03  0.16508942423E+03  0.47000000000E+01 0. -1.
        -11    1    3    3    0    0 -0.69020911491E+02 -0.12749545299E+02  0.42375011715E+02  0.81988284201E+02  0.00000000000E+00 0. -1.
         11    1    3    3    0    0  0.28854400062E+02  0.24811476463E+01  0.98573729010E+01  0.30592487592E+02  0.00000000000E+00 0.  1.
<mgrwt>
<rscale>  0 0.12286351E+03</rscale>
<asrwt>0</asrwt>
<pdfrwt beam="1">  1        1 0.16106237E-01 0.13171067E+03</pdfrwt>
<pdfrwt beam="2">  1       -1 0.34583866E-01 0.13171067E+03</pdfrwt>
<totfact> 0.26184838E+03</totfact>
</mgrwt>
</event>
<event>
 7    1  0.1378058E-005  0.1315256E+03  0.7546771E-02  0.1238004E+00
          2   -1    0    0  501    0  0.00000000000E+00  0.00000000000E+00  0.34101659748E+03  0.34101659748E+03  0.00000000000E+00 0. -1.
         -2   -1    0    0    0  501 -0.00000000000E+00 -0.00000000000E+00 -0.51470936480E+02  0.51470936480E+02  0.00000000000E+00 0.  1.
         23    2    1    2    0    0  0.37094780877E+02  0.17267700524E+02  0.22355294562E+03  0.24533448915E+03  0.92406146015E+02 0.  0.
          5    1    1    2  502    0 -0.62916468122E+02 -0.49050128534E+02  0.69332654456E+02  0.10579935748E+03  0.47000000000E+01 0.  1.
         -5    1    1    2    0  502  0.25821687245E+02  0.31782428010E+02 -0.33399390765E+01  0.41353687326E+02  0.47000000000E+01 0.  1.
        -11    1    3    3    0    0 -0.12027754410E+02 -0.10675870242E+02  0.14423975214E+01  0.16146875617E+02  0.00000000000E+00 0.  1.
         11    1    3    3    0    0  0.49122535287E+02  0.27943570767E+02  0.22211054810E+03  0.22918761353E+03  0.00000000000E+00 0. -1.
<mgrwt>
<rscale>  0 0.12314091E+03</rscale>
<asrwt>0</asrwt>
<pdfrwt beam="1">  1        2 0.52464090E-01 0.13152559E+03</pdfrwt>
<pdfrwt beam="2">  1       -2 0.79186058E-02 0.13152559E+03</pdfrwt>
<totfact> 0.86598962E+03</totfact>
</mgrwt>
</event>
<event>
 7    1  0.1378058E-005  0.1368582E+03  0.7546771E-02  0.1228681E+00
         -2   -1    0    0    0  501 -0.00000000000E+00  0.00000000000E+00  0.48069060034E+02  0.48069060034E+02  0.00000000000E+00 0.  1.
          2   -1    0    0  501    0  0.00000000000E+00 -0.00000000000E+00 -0.48860294570E+03  0.48860294570E+03  0.00000000000E+00 0. -1.
         23    2    1    2    0    0  0.53889669192E+02 -0.14142158407E+02 -0.36401001728E+03  0.37987256028E+03  0.93251124816E+02 0.  0.
          5    1    1    2  502    0  0.35563051886E+02  0.15009079950E+02 -0.50066818880E+02  0.63393844285E+02  0.47000000000E+01 0.  1.
         -5    1    1    2    0  502 -0.89452721078E+02 -0.86692154368E+00 -0.26457049498E+02  0.93405601167E+02  0.47000000000E+01 0.  1.
        -11    1    3    3    0    0 -0.11985742937E+02 -0.15950766689E+02 -0.15714519522E+02  0.25397462777E+02  0.00000000000E+00 0.  1.
         11    1    3    3    0    0  0.65875412129E+02  0.18086082826E+01 -0.34829549776E+03  0.35447509750E+03  0.00000000000E+00 0. -1.
<mgrwt>
<rscale>  0 0.12917776E+03</rscale>
<asrwt>0</asrwt>
<pdfrwt beam="2">  1        2 0.75169681E-01 0.13685819E+03</pdfrwt>
<pdfrwt beam="1">  1       -2 0.73952403E-02 0.13685819E+03</pdfrwt>
<totfact> 0.65580665E+03</totfact>
</mgrwt>
</event>
<event>
 7    1  0.1378058E-005  0.2162230E+03  0.7546771E-02  0.1139635E+00
          2   -1    0    0  501    0  0.00000000000E+00  0.00000000000E+00  0.29477400783E+03  0.29477400783E+03  0.00000000000E+00 0. -1.
         -2   -1    0    0    0  501 -0.00000000000E+00 -0.00000000000E+00 -0.15858230118E+03  0.15858230118E+03  0.00000000000E+00 0.  1.
         23    2    1    2    0    0 -0.37707309678E+02  0.17235683200E+03  0.12432144333E+03  0.23680772107E+03  0.97433858322E+02 0.  0.
          5    1    1    2  502    0 -0.39419530272E+02 -0.70660160281E+02  0.32215903794E+02  0.87216466766E+02  0.47000000000E+01 0. -1.
         -5    1    1    2    0  502  0.77126839950E+02 -0.10169667172E+03 -0.20345640474E+02  0.12933212117E+03  0.47000000000E+01 0. -1.
        -11    1    3    3    0    0  0.11989164623E+02  0.47775127557E+02  0.82900127129E+02  0.96429424760E+02  0.00000000000E+00 0.  1.
         11    1    3    3    0    0 -0.49696474301E+02  0.12458170444E+03  0.41421316203E+02  0.14037829631E+03  0.00000000000E+00 0. -1.
<mgrwt>
<rscale>  0 0.21245731E+03</rscale>
<asrwt>0</asrwt>
<pdfrwt beam="1">  1        2 0.45349847E-01 0.21622300E+03</pdfrwt>
<pdfrwt beam="2">  1       -2 0.24397277E-01 0.21622300E+03</pdfrwt>
<totfact> 0.16436169E+03</totfact>
</mgrwt>
</event>
<event>
 7    1  0.1378058E-005  0.1269036E+03  0.7546771E-02  0.1247138E+00
          2   -1    0    0  501    0  0.00000000000E+00  0.00000000000E+00  0.85117844467E+03  0.85117844467E+03  0.00000000000E+00 0. -1.
         -2   -1    0    0    0  501 -0.00000000000E+00 -0.00000000000E+00 -0.15761091795E+02  0.15761091795E+02  0.00000000000E+00 0.  1.
         23    2    1    2    0    0  0.15064374988E+02 -0.15856939852E+02  0.49229816054E+03  0.50110446201E+03  0.90938578372E+02 0.  0.
          5    1    1    2  502    0 -0.56896430766E+01  0.43077368509E+02  0.34078752095E+02  0.55420962282E+02  0.47000000000E+01 0. -1.
         -5    1    1    2    0  502 -0.93747319115E+01 -0.27220428657E+02  0.30904044024E+03  0.31041411217E+03  0.47000000000E+01 0. -1.
        -11    1    3    3    0    0 -0.19771004655E+01  0.37200154046E+02  0.17116158041E+03  0.17516862446E+03  0.00000000000E+00 0.  1.
         11    1    3    3    0    0  0.17041475454E+02 -0.53057093898E+02  0.32113658014E+03  0.32593583755E+03  0.00000000000E+00 0. -1.
<mgrwt>
<rscale>  0 0.11758320E+03</rscale>
<asrwt>0</asrwt>
<pdfrwt beam="1">  1        2 0.13095049E+00 0.12690359E+03</pdfrwt>
<pdfrwt beam="2">  1       -2 0.24247840E-02 0.12690359E+03</pdfrwt>
<totfact> 0.18016554E+04</totfact>
</mgrwt>
</event>
<event>
 7    1  0.1378058E-005  0.1454424E+03  0.7546771E-02  0.1216139E+00
         -2   -1    0    0    0  501 -0.00000000000E+00  0.00000000000E+00  0.48478104260E+02  0.48478104260E+02  0.00000000000E+00 0.  1.
          2   -1    0    0  501    0  0.00000000000E+00 -0.00000000000E+00 -0.35799765962E+03  0.35799765962E+03  0.00000000000E+00 0. -1.
         23    2    1    2    0    0 -0.17884818408E+02 -0.72182163647E+02 -0.14940125306E+03  0.19016262546E+03  0.91164457035E+02 0.  0.
          5    1    1    2  502    0  0.47412079942E+01  0.10701348244E+03 -0.12752107829E+03  0.16660756251E+03  0.47000000000E+01 0.  1.
         -5    1    1    2    0  502  0.13143610414E+02 -0.34831318795E+02 -0.32597224010E+02  0.49705575913E+02  0.47000000000E+01 0.  1.
        -11    1    3    3    0    0  0.17561169856E+02  0.56483650965E+01 -0.73620764991E+02  0.75896744021E+02  0.00000000000E+00 0. -1.
         11    1    3    3    0    0 -0.35445988264E+02 -0.77830528743E+02 -0.75780488069E+02  0.11426588144E+03  0.00000000000E+00 0.  1.
<mgrwt>
<rscale>  0 0.13793188E+03</rscale>
<asrwt>0</asrwt>
<pdfrwt beam="2">  1        2 0.55076561E-01 0.14544244E+03</pdfrwt>
<pdfrwt beam="1">  1       -2 0.74581701E-02 0.14544244E+03</pdfrwt>
<totfact> 0.90817949E+03</totfact>
</mgrwt>
</event>
<event>
 7    1  0.1378058E-005  0.1561715E+03  0.7546771E-02  0.1201193E+00
         -2   -1    0    0    0  501 -0.00000000000E+00  0.00000000000E+00  0.14603820701E+03  0.14603820701E+03  0.00000000000E+00 0. -1.
          2   -1    0    0  501    0  0.00000000000E+00 -0.00000000000E+00 -0.14792705286E+03  0.14792705286E+03  0.00000000000E+00 0.  1.
         23    2    1    2    0    0 -0.36680784380E+02 -0.86143458808E+02 -0.32485994619E+02  0.13482471316E+03  0.91412187342E+02 0.  0.
          5    1    1    2  502    0  0.60934349639E+02  0.10690999568E+03  0.17812645386E+02  0.12442717741E+03  0.47000000000E+01 0. -1.
         -5    1    1    2    0  502 -0.24253565259E+02 -0.20766536870E+02  0.12784503387E+02  0.34713369300E+02  0.47000000000E+01 0. -1.
        -11    1    3    3    0    0  0.41974926240E+01 -0.89048873274E+02 -0.15607713660E+02  0.90503709877E+02  0.00000000000E+00 0.  1.
         11    1    3    3    0    0 -0.40878277004E+02  0.29054144669E+01 -0.16878280959E+02  0.44321003285E+02  0.00000000000E+00 0. -1.
<mgrwt>
<rscale>  0 0.14941587E+03</rscale>
<asrwt>0</asrwt>
<pdfrwt beam="2">  1        2 0.22758008E-01 0.15617147E+03</pdfrwt>
<pdfrwt beam="1">  1       -2 0.22467416E-01 0.15617147E+03</pdfrwt>
<totfact> 0.39724651E+03</totfact>
</mgrwt>
</event>
<event>
 7    1  0.1378058E-005  0.1290589E+03  0.7546771E-02  0.1237966E+00
          2   -1    0    0  501    0  0.00000000000E+00  0.00000000000E+00  0.53643443220E+03  0.53643443220E+03  0.00000000000E+00 0. -1.
         -2   -1    0    0    0  501 -0.00000000000E+00 -0.00000000000E+00 -0.26429686711E+02  0.26429686711E+02  0.00000000000E+00 0.  1.
         23    2    1    2    0    0  0.12794311492E+02 -0.55563623027E+02  0.26818763487E+03  0.28876244969E+03  0.90598754108E+02 0.  0.
          5    1    1    2  502    0 -0.53137399738E+02  0.54257328628E+02  0.20716502486E+03  0.22069634906E+03  0.47000000000E+01 0. -1.
         -5    1    1    2    0  502  0.40343088246E+02  0.13062943981E+01  0.34652085764E+02  0.53405320167E+02  0.47000000000E+01 0.  1.
        -11    1    3    3    0    0  0.45417878049E+02 -0.57851933621E+02  0.20110051658E+03  0.21412857735E+03  0.00000000000E+00 0.  1.
         11    1    3    3    0    0 -0.32623566557E+02  0.22883105949E+01  0.67087118286E+02  0.74633872338E+02  0.00000000000E+00 0. -1.
<mgrwt>
<rscale>  0 0.12316437E+03</rscale>
<asrwt>0</asrwt>
<pdfrwt beam="1">  1        2 0.82528366E-01 0.12905894E+03</pdfrwt>
<pdfrwt beam="2">  1       -2 0.40661061E-02 0.12905894E+03</pdfrwt>
<totfact> 0.14531318E+04</totfact>
</mgrwt>
</event>
<event>
 7    1  0.1378058E-005  0.1498850E+03  0.7546771E-02  0.1209842E+00
          2   -1    0    0  501    0  0.00000000000E+00  0.00000000000E+00  0.70110791004E+03  0.70110791004E+03  0.00000000000E+00 0. -1.
         -2   -1    0    0    0  501 -0.00000000000E+00 -0.00000000000E+00 -0.32025898902E+02  0.32025898902E+02  0.00000000000E+00 0.  1.
         23    2    1    2    0    0 -0.78277262850E+02  0.26702415919E+02  0.45833866803E+03  0.47452550472E+03  0.90883282986E+02 0.  0.
          5    1    1    2  502    0  0.39377596067E+02 -0.74829697733E+02  0.94937429007E+02  0.12722139821E+03  0.47000000000E+01 0.  1.
         -5    1    1    2    0  502  0.38899666783E+02  0.48127281815E+02  0.11580591410E+03  0.13138690601E+03  0.47000000000E+01 0.  1.
        -11    1    3    3    0    0 -0.86195995808E+02  0.19285806010E+02  0.45452115957E+03  0.46302394809E+03  0.00000000000E+00 0. -1.
         11    1    3    3    0    0  0.79187329580E+01  0.74166099085E+01  0.38175084612E+01  0.11501556636E+02  0.00000000000E+00 0.  1.
<mgrwt>
<rscale>  0 0.14262349E+03</rscale>
<asrwt>0</asrwt>
<pdfrwt beam="1">  1        2 0.10786274E+00 0.14988495E+03</pdfrwt>
<pdfrwt beam="2">  1       -2 0.49270619E-02 0.14988495E+03</pdfrwt>
<totfact> 0.81029902E+03</totfact>
</mgrwt>
</event>
<event>
 7    1  0.1378058E-005  0.1463670E+03  0.7546771E-02  0.1214868E+00
          1   -1    0    0  501    0  0.00000000000E+00  0.00000000000E+00  0.22473033285E+03  0.22473033285E+03  0.00000000000E+00 0. -1.
         -1   -1    0    0    0  501 -0.00000000000E+00 -0.00000000000E+00 -0.80709334687E+02  0.80709334687E+02  0.00000000000E+00 0.  1.
         23    2    1    2    0    0 -0.57640051164E+02 -0.49764267994E+02  0.92069726108E+02  0.15012631890E+03  0.90896750738E+02 0.  0.
          5    1    1    2  502    0  0.93035671828E+02  0.30814150226E+02  0.58690579780E+02  0.11433207005E+03  0.47000000000E+01 0. -1.
         -5    1    1    2    0  502 -0.35395620664E+02  0.18950117768E+02 -0.67393077287E+01  0.40981278582E+02  0.47000000000E+01 0. -1.
        -11    1    3    3    0    0 -0.16392123135E+02  0.24916182069E+02  0.40980565160E+02  0.50684559292E+02  0.00000000000E+00 0.  1.
         11    1    3    3    0    0 -0.41247928029E+02 -0.74680450063E+02  0.51089160949E+02  0.99441759612E+02  0.00000000000E+00 0. -1.
<mgrwt>
<rscale>  0 0.13886242E+03</rscale>
<asrwt>0</asrwt>
<pdfrwt beam="1">  1        1 0.34573897E-01 0.14636701E+03</pdfrwt>
<pdfrwt beam="2">  1       -1 0.12416821E-01 0.14636701E+03</pdfrwt>
<totfact> 0.52708337E+03</totfact>
</mgrwt>
</event>
<event>
 7    1  0.1378058E-005  0.1374845E+03  0.7546771E-02  0.1228217E+00
         -2   -1    0    0    0  501 -0.00000000000E+00  0.00000000000E+00  0.23021923608E+03  0.23021923608E+03  0.00000000000E+00 0.  1.
          2   -1    0    0  501    0  0.00000000000E+00 -0.00000000000E+00 -0.84596775787E+02  0.84596775787E+02  0.00000000000E+00 0. -1.
         23    2    1    2    0    0  0.56528500819E+02 -0.90059986905E+01 -0.82170468856E+01  0.10849444168E+03  0.91798391042E+02 0.  0.
          5    1    1    2  502    0  0.31357197664E+02  0.19102505472E+02  0.89443658356E+02  0.96801020557E+02  0.47000000000E+01 0. -1.
         -5    1    1    2    0  502 -0.87885698482E+02 -0.10096506782E+02  0.64395848825E+02  0.10952054964E+03  0.47000000000E+01 0. -1.
        -11    1    3    3    0    0  0.10967879831E+01 -0.42103827773E+02  0.55487205908E+01  0.42482038054E+02  0.00000000000E+00 0.  1.
         11    1    3    3    0    0  0.55431712836E+02  0.33097829082E+02 -0.13765767476E+02  0.66012403623E+02  0.00000000000E+00 0. -1.
<mgrwt>
<rscale>  0 0.12948813E+03</rscale>
<asrwt>0</asrwt>
<pdfrwt beam="2">  1        2 0.13014889E-01 0.13748453E+03</pdfrwt>
<pdfrwt beam="1">  1       -2 0.35418344E-01 0.13748453E+03</pdfrwt>
<totfact> 0.33364700E+03</totfact>
</mgrwt>
</event>
<event>
 7    1  0.1378058E-005  0.1438174E+03  0.7546771E-02  0.1223369E+00
         -1   -1    0    0    0  501 -0.00000000000E+00  0.00000000000E+00  0.24768602704E+03  0.24768602704E+03  0.00000000000E+00 0.  1.
          1   -1    0    0  501    0  0.00000000000E+00 -0.00000000000E+00 -0.14021904198E+03  0.14021904198E+03  0.00000000000E+00 0. -1.
         23    2    1    2    0    0 -0.10161308107E+02  0.51722127635E+02 -0.93857598443E+02  0.14048837335E+03  0.90273493289E+02 0.  0.
          5    1    1    2  502    0 -0.13804502013E+02 -0.42853575160E+02  0.85967625458E+00  0.45274962431E+02  0.47000000000E+01 0. -1.
         -5    1    1    2    0  502  0.23965810120E+02 -0.88685524746E+01  0.20046490726E+03  0.20214173324E+03  0.47000000000E+01 0.  1.
        -11    1    3    3    0    0 -0.30624546184E+02  0.93601195042E+01  0.36444344149E+01  0.32229746638E+02  0.00000000000E+00 0.  1.
         11    1    3    3    0    0  0.20463238077E+02  0.42362008131E+02 -0.97502032858E+02  0.10825862671E+03  0.00000000000E+00 0. -1.
<mgrwt>
<rscale>  0 0.13279287E+03</rscale>
<asrwt>0</asrwt>
<pdfrwt beam="2">  1        1 0.21572160E-01 0.14381736E+03</pdfrwt>
<pdfrwt beam="1">  1       -1 0.38105543E-01 0.14381736E+03</pdfrwt>
<totfact> 0.15301524E+03</totfact>
</mgrwt>
</event>
<event>
 7    1  0.1378058E-005  0.1346233E+03  0.7546771E-02  0.1233556E+00
         -2   -1    0    0    0  501 -0.00000000000E+00  0.00000000000E+00  0.27578464008E+03  0.27578464008E+03  0.00000000000E+00 0.  1.
          2   -1    0    0  501    0  0.00000000000E+00 -0.00000000000E+00 -0.55115609656E+02  0.55115609656E+02  0.00000000000E+00 0. -1.
         23    2    1    2    0    0  0.11501002013E+02 -0.48662165300E+02  0.53482931901E+02  0.11625025897E+03  0.90296286342E+02 0.  0.
          5    1    1    2  502    0 -0.50402821379E+02  0.54066245398E+02  0.15731939226E+03  0.17388238691E+03  0.47000000000E+01 0. -1.
         -5    1    1    2    0  502  0.38901819365E+02 -0.54040800984E+01  0.98667062557E+01  0.40767603854E+02  0.47000000000E+01 0. -1.
        -11    1    3    3    0    0  0.36397660310E+02 -0.13557925800E+01 -0.52867706319E+01  0.36804589296E+02  0.00000000000E+00 0. -1.
         11    1    3    3    0    0 -0.24896658296E+02 -0.47306372720E+02  0.58769702533E+02  0.79445669674E+02  0.00000000000E+00 0.  1.
<mgrwt>
<rscale>  0 0.12597306E+03</rscale>
<asrwt>0</asrwt>
<pdfrwt beam="2">  1        2 0.84793247E-02 0.13462328E+03</pdfrwt>
<pdfrwt beam="1">  1       -2 0.42428405E-01 0.13462328E+03</pdfrwt>
<totfact> 0.40010998E+03</totfact>
</mgrwt>
</event>
<event>
 7    1  0.1378058E-005  0.2167107E+03  0.7546771E-02  0.1136359E+00
          2   -1    0    0  501    0  0.00000000000E+00  0.00000000000E+00  0.13202185760E+03  0.13202185760E+03  0.00000000000E+00 0. -1.
         -2   -1    0    0    0  501 -0.00000000000E+00 -0.00000000000E+00 -0.88931310391E+02  0.88931310391E+02  0.00000000000E+00 0.  1.
         23    2    1    2    0    0  0.18931072542E+02 -0.24091906990E+01  0.83401546724E+01  0.89824807135E+02  0.87377045552E+02 0.  0.
          5    1    1    2  502    0 -0.68630088975E+02 -0.17474916502E+02  0.30417019743E+02  0.77218824839E+02  0.47000000000E+01 0.  1.
         -5    1    1    2    0  502  0.49699016433E+02  0.19884107201E+02  0.43333727905E+01  0.53909536015E+02  0.47000000000E+01 0.  1.
        -11    1    3    3    0    0  0.57632313514E+01  0.41529906437E+02  0.12540451562E+02  0.43763122485E+02  0.00000000000E+00 0.  1.
         11    1    3    3    0    0  0.13167841190E+02 -0.43939097136E+02 -0.42002968898E+01  0.46061684649E+02  0.00000000000E+00 0. -1.
<mgrwt>
<rscale>  0 0.21671065E+03</rscale>
<asrwt>0</asrwt>
<pdfrwt beam="1">  1        2 0.20311055E-01 0.21671065E+03</pdfrwt>
<pdfrwt beam="2">  1       -2 0.13681740E-01 0.21671065E+03</pdfrwt>
<totfact> 0.10593075E+04</totfact>
</mgrwt>
</event>
<event>
 7    1  0.1378058E-005  0.1386423E+03  0.7546771E-02  0.1227322E+00
         -2   -1    0    0    0  501 -0.00000000000E+00  0.00000000000E+00  0.37557215566E+03  0.37557215566E+03  0.00000000000E+00 0.  1.
          2   -1    0    0  501    0  0.00000000000E+00 -0.00000000000E+00 -0.53969561793E+02  0.53969561793E+02  0.00000000000E+00 0. -1.
         23    2    1    2    0    0  0.23892978335E+02 -0.55008911546E+02  0.38225679536E+02  0.11406721118E+03  0.89181115308E+02 0.  0.
          5    1    1    2  502    0  0.49931559041E+02  0.18594427943E+02  0.82355209361E+02  0.98200732420E+02  0.47000000000E+01 0. -1.
         -5    1    1    2    0  502 -0.73824537377E+02  0.36414483603E+02  0.20102170497E+03  0.21727377386E+03  0.47000000000E+01 0. -1.
        -11    1    3    3    0    0 -0.27818545961E+02 -0.43178963390E+02  0.53113957138E+01  0.51638215531E+02  0.00000000000E+00 0.  1.
         11    1    3    3    0    0  0.51711524296E+02 -0.11829948156E+02  0.32914283822E+02  0.62428995650E+02  0.00000000000E+00 0. -1.
<mgrwt>
<rscale>  0 0.13009038E+03</rscale>
<asrwt>0</asrwt>
<pdfrwt beam="2">  1        2 0.83030097E-02 0.13864230E+03</pdfrwt>
<pdfrwt beam="1">  1       -2 0.57780330E-01 0.13864230E+03</pdfrwt>
<totfact> 0.22362069E+03</totfact>
</mgrwt>
</event>
<event>
 7    1  0.1378058E-005  0.1942960E+03  0.7546771E-02  0.1159281E+00
         -1   -1    0    0    0  501 -0.00000000000E+00  0.00000000000E+00  0.30889413028E+02  0.30889413028E+02  0.00000000000E+00 0.  1.
          1   -1    0    0  501    0  0.00000000000E+00 -0.00000000000E+00 -0.11000281382E+04  0.11000281382E+04  0.00000000000E+00 0. -1.
         23    2    1    2    0    0  0.86145843235E+01 -0.14848897411E+03 -0.51616363322E+03  0.54480117825E+03  0.90885868376E+02 0.  0.
          5    1    1    2  502    0 -0.23081426046E+02  0.13944867802E+03 -0.55034683504E+03  0.56822743235E+03  0.47000000000E+01 0. -1.
         -5    1    1    2    0  502  0.14466841722E+02  0.90402960835E+01 -0.26282569181E+01  0.17888940637E+02  0.47000000000E+01 0. -1.
        -11    1    3    3    0    0 -0.17650648428E+02 -0.13721572808E+03 -0.35279746508E+03  0.37895349686E+03  0.00000000000E+00 0.  1.
         11    1    3    3    0    0  0.26265232751E+02 -0.11273246032E+02 -0.16336616814E+03  0.16584768139E+03  0.00000000000E+00 0. -1.
<mgrwt>
<rscale>  0 0.18909392E+03</rscale>
<asrwt>0</asrwt>
<pdfrwt beam="2">  1        1 0.16923506E+00 0.19429604E+03</pdfrwt>
<pdfrwt beam="1">  1       -1 0.47522183E-02 0.19429604E+03</pdfrwt>
<totfact> 0.25514835E+03</totfact>
</mgrwt>
</event>
<event>
 7    1  0.1378058E-005  0.1601151E+03  0.7546771E-02  0.1196352E+00
         -1   -1    0    0    0  501 -0.00000000000E+00  0.00000000000E+00  0.18366922379E+02  0.18366922379E+02  0.00000000000E+00 0.  1.
          1   -1    0    0  501    0  0.00000000000E+00 -0.00000000000E+00 -0.11978965956E+04  0.11978965956E+04  0.00000000000E+00 0. -1.
         23    2    1    2    0    0 -0.11547449093E+02 -0.99418961764E+02 -0.60342456963E+03  0.61832211629E+03  0.90463001975E+02 0.  0.
          5    1    1    2  502    0 -0.46107687104E+02  0.62356311342E+02 -0.18194812732E+03  0.19784195563E+03  0.47000000000E+01 0.  1.
         -5    1    1    2    0  502  0.57655136197E+02  0.37062650422E+02 -0.39415697623E+03  0.40009944601E+03  0.47000000000E+01 0.  1.
        -11    1    3    3    0    0 -0.82334111090E+01  0.84632326787E+01 -0.10972499575E+02  0.16118657288E+02  0.00000000000E+00 0.  1.
         11    1    3    3    0    0 -0.33140379842E+01 -0.10788219444E+03 -0.59245207005E+03  0.60220345900E+03  0.00000000000E+00 0. -1.
<mgrwt>
<rscale>  0 0.15340380E+03</rscale>
<asrwt>0</asrwt>
<pdfrwt beam="2">  1        1 0.18429180E+00 0.16011505E+03</pdfrwt>
<pdfrwt beam="1">  1       -1 0.28256802E-02 0.16011505E+03</pdfrwt>
<totfact> 0.46686009E+03</totfact>
</mgrwt>
</event>
<event>
 7    1  0.1378058E-005  0.1717783E+03  0.7546771E-02  0.1180841E+00
         -1   -1    0    0    0  501 -0.00000000000E+00  0.00000000000E+00  0.27307175916E+03  0.27307175916E+03  0.00000000000E+00 0.  1.
          1   -1    0    0  501    0  0.00000000000E+00 -0.00000000000E+00 -0.11602393824E+03  0.11602393824E+03  0.00000000000E+00 0. -1.
         23    2    1    2    0    0  0.10560816753E+03 -0.52238154610E+02 -0.33457206725E+01  0.15407681380E+03  0.99229838554E+02 0.  0.
          5    1    1    2  502    0 -0.56847982052E+02 -0.27184935124E+01  0.15020864353E+03  0.16069788381E+03  0.47000000000E+01 0. -1.
         -5    1    1    2    0  502 -0.48760185474E+02  0.54956648123E+02  0.10184898054E+02  0.74320999783E+02  0.47000000000E+01 0. -1.
        -11    1    3    3    0    0  0.89930817932E+02 -0.80736709494E+02  0.32048959535E+01  0.12089764113E+03  0.00000000000E+00 0.  1.
         11    1    3    3    0    0  0.15677349595E+02  0.28498554884E+02 -0.65506166260E+01  0.33179172669E+02  0.00000000000E+00 0. -1.
<mgrwt>
<rscale>  0 0.16716100E+03</rscale>
<asrwt>0</asrwt>
<pdfrwt beam="2">  1        1 0.17849837E-01 0.17177831E+03</pdfrwt>
<pdfrwt beam="1">  1       -1 0.42011040E-01 0.17177831E+03</pdfrwt>
<totfact> 0.16507858E+03</totfact>
</mgrwt>
</event>
<event>
 7    1  0.1378058E-005  0.1704577E+03  0.7546771E-02  0.1183808E+00
          3   -1    0    0  501    0  0.00000000000E+00  0.00000000000E+00  0.50075059246E+03  0.50075059246E+03  0.00000000000E+00 0. -1.
         -3   -1    0    0    0  501 -0.00000000000E+00 -0.00000000000E+00 -0.62547056562E+02  0.62547056562E+02  0.00000000000E+00 0.  1.
         23    2    1    2    0    0  0.14483538062E+02 -0.11499009303E+03  0.32980290518E+03  0.36129136940E+03  0.91263371455E+02 0.  0.
          5    1    1    2  502    0 -0.14091071386E+02  0.14057801571E+03  0.10428237044E+03  0.17566342698E+03  0.47000000000E+01 0.  1.
         -5    1    1    2    0  502 -0.39246667549E+00 -0.25587922686E+02  0.41182602768E+01  0.26342852639E+02  0.47000000000E+01 0.  1.
        -11    1    3    3    0    0  0.22557777078E+02 -0.99594992760E+02  0.32833143035E+03  0.34384523269E+03  0.00000000000E+00 0. -1.
         11    1    3    3    0    0 -0.80742390161E+01 -0.15395100266E+02  0.14714748305E+01  0.17446136709E+02  0.00000000000E+00 0.  1.
<mgrwt>
<rscale>  0 0.16440826E+03</rscale>
<asrwt>0</asrwt>
<pdfrwt beam="1">  1        3 0.77038550E-01 0.17045774E+03</pdfrwt>
<pdfrwt beam="2">  1       -3 0.96226244E-02 0.17045774E+03</pdfrwt>
<totfact> 0.30559172E+02</totfact>
</mgrwt>
</event>
<event>
 7    1  0.1378058E-005  0.1389603E+03  0.7546771E-02  0.1226084E+00
          2   -1    0    0  501    0  0.00000000000E+00  0.00000000000E+00  0.74288695817E+02  0.74288695817E+02  0.00000000000E+00 0. -1.
         -2   -1    0    0    0  501 -0.00000000000E+00 -0.00000000000E+00 -0.21183509370E+03  0.21183509370E+03  0.00000000000E+00 0.  1.
         23    2    1    2    0    0 -0.46387828734E+02  0.39127421348E+02 -0.41097339589E+02  0.11697182254E+03  0.91162657882E+02 0.  0.
          5    1    1    2  502    0  0.46669381959E+02 -0.69883508481E+02 -0.10714602392E+03  0.13625012444E+03  0.47000000000E+01 0.  1.
         -5    1    1    2    0  502 -0.28155322511E+00  0.30756087132E+02  0.10696965625E+02  0.32901842524E+02  0.47000000000E+01 0.  1.
        -11    1    3    3    0    0 -0.24318629070E+02 -0.98595106556E+01 -0.55461491853E+02  0.61356195683E+02  0.00000000000E+00 0.  1.
         11    1    3    3    0    0 -0.22069199664E+02  0.48986932004E+02  0.14364152264E+02  0.55615626861E+02  0.00000000000E+00 0. -1.
<mgrwt>
<rscale>  0 0.13092903E+03</rscale>
<asrwt>0</asrwt>
<pdfrwt beam="1">  1        2 0.11429030E-01 0.13896031E+03</pdfrwt>
<pdfrwt beam="2">  1       -2 0.32590014E-01 0.13896031E+03</pdfrwt>
<totfact> 0.45470586E+03</totfact>
</mgrwt>
</event>
<event>
 7    1  0.1378058E-005  0.1352813E+03  0.7546771E-02  0.1232688E+00
         -2   -1    0    0    0  501 -0.00000000000E+00  0.00000000000E+00  0.95960649324E+02  0.95960649324E+02  0.00000000000E+00 0.  1.
          2   -1    0    0  501    0  0.00000000000E+00 -0.00000000000E+00 -0.19266693553E+03  0.19266693553E+03  0.00000000000E+00 0. -1.
         23    2    1    2    0    0 -0.42192002749E+02 -0.29975528483E+02 -0.11194218260E+03  0.15249106848E+03  0.89687102284E+02 0.  0.
          5    1    1    2  502    0  0.75968085457E+02  0.52734148916E+02  0.58339997471E+00  0.92598438569E+02  0.47000000000E+01 0.  1.
         -5    1    1    2    0  502 -0.33776082708E+02 -0.22758620433E+02  0.14652496427E+02  0.43538077801E+02  0.47000000000E+01 0.  1.
        -11    1    3    3    0    0 -0.45223707377E+02 -0.90688371860E+01 -0.84836619384E+01  0.46897761532E+02  0.00000000000E+00 0.  1.
         11    1    3    3    0    0  0.30317046279E+01 -0.20906691297E+02 -0.10345852066E+03  0.10559330695E+03  0.00000000000E+00 0. -1.
<mgrwt>
<rscale>  0 0.12653629E+03</rscale>
<asrwt>0</asrwt>
<pdfrwt beam="2">  1        2 0.29641067E-01 0.13528126E+03</pdfrwt>
<pdfrwt beam="1">  1       -2 0.14763177E-01 0.13528126E+03</pdfrwt>
<totfact> 0.59499517E+03</totfact>
</mgrwt>
</event>
<event>
 7    1  0.1378058E-005  0.1329976E+03  0.7546771E-02  0.1235301E+00
          2   -1    0    0  501    0  0.00000000000E+00  0.00000000000E+00  0.93879668517E+02  0.93879668517E+02  0.00000000000E+00 0. -1.
         -2   -1    0    0    0  501 -0.00000000000E+00 -0.00000000000E+00 -0.16224884309E+03  0.16224884309E+03  0.00000000000E+00 0.  1.
         23    2    1    2    0    0 -0.15037743108E+02  0.42848378687E+02  0.65236498607E+01  0.10349400458E+03  0.92770327708E+02 0.  0.
          5    1    1    2  502    0  0.13197014854E+02 -0.18053962079E+02  0.33930561296E+02  0.40908186683E+02  0.47000000000E+01 0.  1.
         -5    1    1    2    0  502  0.18407282540E+01 -0.24794416607E+02 -0.10882338573E+03  0.11172632034E+03  0.47000000000E+01 0.  1.
        -11    1    3    3    0    0 -0.73812072261E+01 -0.87215901326E+01  0.39957708152E+02  0.41559196279E+02  0.00000000000E+00 0. -1.
         11    1    3    3    0    0 -0.76565358822E+01  0.51569968819E+02 -0.33434058291E+02  0.61934808303E+02  0.00000000000E+00 0.  1.
<mgrwt>
<rscale>  0 0.12485200E+03</rscale>
<asrwt>0</asrwt>
<pdfrwt beam="1">  1        2 0.14443026E-01 0.13299758E+03</pdfrwt>
<pdfrwt beam="2">  1       -2 0.24961360E-01 0.13299758E+03</pdfrwt>
<totfact> 0.55186014E+03</totfact>
</mgrwt>
</event>
<event>
 7    1  0.1378058E-005  0.1996553E+03  0.7546771E-02  0.1154040E+00
          2   -1    0    0  501    0  0.00000000000E+00  0.00000000000E+00  0.55968450832E+03  0.55968450832E+03  0.00000000000E+00 0.  1.
         -2   -1    0    0    0  501 -0.00000000000E+00 -0.00000000000E+00 -0.73468115360E+02  0.73468115360E+02  0.00000000000E+00 0. -1.
         23    2    1    2    0    0 -0.12305305239E+03 -0.95368103943E+02  0.12516402335E+03  0.22057406844E+03  0.93540140985E+02 0.  0.
          5    1    1    2  502    0  0.19625468729E+02 -0.27522688972E+02  0.10376543333E+03  0.10923375204E+03  0.47000000000E+01 0. -1.
         -5    1    1    2    0  502  0.10342758366E+03  0.12289079292E+03  0.25728693628E+03  0.30334480320E+03  0.47000000000E+01 0. -1.
        -11    1    3    3    0    0 -0.13117648184E+03 -0.58136145153E+02  0.97169939062E+02  0.17328900086E+03  0.00000000000E+00 0. -1.
         11    1    3    3    0    0  0.81234294480E+01 -0.37231958790E+02  0.27994084285E+02  0.47285067582E+02  0.00000000000E+00 0.  1.
<mgrwt>
<rscale>  0 0.19498596E+03</rscale>
<asrwt>0</asrwt>
<pdfrwt beam="1">  1        2 0.86105306E-01 0.19965533E+03</pdfrwt>
<pdfrwt beam="2">  1       -2 0.11302787E-01 0.19965533E+03</pdfrwt>
<totfact> 0.29467115E+03</totfact>
</mgrwt>
</event>
<event>
 7    1  0.1378058E-005  0.2622024E+03  0.7546771E-02  0.1108392E+00
         -2   -1    0    0    0  501 -0.00000000000E+00  0.00000000000E+00  0.43593613092E+02  0.43593613092E+02  0.00000000000E+00 0. -1.
          2   -1    0    0  501    0  0.00000000000E+00 -0.00000000000E+00 -0.16609527834E+04  0.16609527834E+04  0.00000000000E+00 0.  1.
         23    2    1    2    0    0  0.11035342996E+03  0.20235629352E+03 -0.10674536366E+04  0.10953286889E+04  0.84626955023E+02 0.  0.
          5    1    1    2  502    0  0.77686086177E+01 -0.83634433766E+02 -0.27203756341E+03  0.28474830236E+03  0.47000000000E+01 0.  1.
         -5    1    1    2    0  502 -0.11812203857E+03 -0.11872185975E+03 -0.27786797028E+03  0.32446940517E+03  0.47000000000E+01 0.  1.
        -11    1    3    3    0    0 -0.49047077358E+01  0.35133639963E+02 -0.85055653906E+02  0.92156893808E+02  0.00000000000E+00 0. -1.
         11    1    3    3    0    0  0.11525813769E+03  0.16722265355E+03 -0.98239798268E+03  0.10031717951E+04  0.00000000000E+00 0.  1.
<mgrwt>
<rscale>  0 0.25793252E+03</rscale>
<asrwt>0</asrwt>
<pdfrwt beam="2">  1        2 0.25553111E+00 0.26220244E+03</pdfrwt>
<pdfrwt beam="1">  1       -2 0.67067120E-02 0.26220244E+03</pdfrwt>
<totfact> 0.13968877E+03</totfact>
</mgrwt>
</event>
<event>
 7    1  0.1378058E-005  0.1473603E+03  0.7546771E-02  0.1208617E+00
          2   -1    0    0  501    0  0.00000000000E+00  0.00000000000E+00  0.21957964256E+03  0.21957964256E+03  0.00000000000E+00 0.  1.
         -2   -1    0    0    0  501 -0.00000000000E+00 -0.00000000000E+00 -0.13022513999E+03  0.13022513999E+03  0.00000000000E+00 0. -1.
         23    2    1    2    0    0 -0.62032869061E+02 -0.47348837258E+02  0.14100510211E+03  0.19365472097E+03  0.10737654725E+03 0.  0.
          5    1    1    2  502    0  0.17169797239E+02 -0.20389341331E+02  0.30317823484E+02  0.40642189876E+02  0.47000000000E+01 0.  1.
         -5    1    1    2    0  502  0.44863071822E+02  0.67738178589E+02 -0.81968423023E+02  0.11550787170E+03  0.47000000000E+01 0.  1.
        -11    1    3    3    0    0 -0.32174433624E+01 -0.45432768733E+02  0.12445141332E+03  0.13252412118E+03  0.00000000000E+00 0.  1.
         11    1    3    3    0    0 -0.58815425698E+02 -0.19160685245E+01  0.16553688795E+02  0.61130599796E+02  0.00000000000E+00 0. -1.
<mgrwt>
<rscale>  0 0.14356058E+03</rscale>
<asrwt>0</asrwt>
<pdfrwt beam="1">  1        2 0.33781483E-01 0.14736030E+03</pdfrwt>
<pdfrwt beam="2">  1       -2 0.20034637E-01 0.14736030E+03</pdfrwt>
<totfact> 0.31253337E+03</totfact>
</mgrwt>
</event>
<event>
 7    1  0.1378058E-005  0.1281327E+03  0.7546771E-02  0.1246670E+00
         -1   -1    0    0    0  501 -0.00000000000E+00  0.00000000000E+00  0.36333983757E+03  0.36333983757E+03  0.00000000000E+00 0.  1.
          1   -1    0    0  501    0  0.00000000000E+00 -0.00000000000E+00 -0.39350951234E+02  0.39350951234E+02  0.00000000000E+00 0. -1.
         23    2    1    2    0    0 -0.16990095234E+01  0.50668337991E+01  0.61023943405E+02  0.11016976171E+03  0.91569073861E+02 0.  0.
          5    1    1    2  502    0  0.26960407813E+02 -0.21782445001E+02  0.82095432006E+01  0.35928054487E+02  0.47000000000E+01 0. -1.
         -5    1    1    2    0  502 -0.25261398290E+02  0.16715611202E+02  0.25475539974E+03  0.25659297262E+03  0.47000000000E+01 0.  1.
        -11    1    3    3    0    0 -0.42322880889E+02  0.88433543636E+01  0.53324113878E+02  0.68650508257E+02  0.00000000000E+00 0.  1.
         11    1    3    3    0    0  0.40623871365E+02 -0.37765205646E+01  0.76998295267E+01  0.41519253450E+02  0.00000000000E+00 0. -1.
<mgrwt>
<rscale>  0 0.11786010E+03</rscale>
<asrwt>0</asrwt>
<pdfrwt beam="2">  1        1 0.60539927E-02 0.12813270E+03</pdfrwt>
<pdfrwt beam="1">  1       -1 0.55898434E-01 0.12813270E+03</pdfrwt>
<totfact> 0.40566082E+03</totfact>
</mgrwt>
</event>
<event>
 7    1  0.1378058E-005  0.1630364E+03  0.7546771E-02  0.1192731E+00
          2   -1    0    0  501    0  0.00000000000E+00  0.00000000000E+00  0.29886463436E+02  0.29886463436E+02  0.00000000000E+00 0. -1.
         -2   -1    0    0    0  501 -0.00000000000E+00 -0.00000000000E+00 -0.89075882429E+03  0.89075882429E+03  0.00000000000E+00 0.  1.
         23    2    1    2    0    0  0.57481947500E+02  0.87452097066E+02 -0.22435866595E+03  0.26358323352E+03  0.90483514708E+02 0.  0.
          5    1    1    2  502    0 -0.18770226759E+02 -0.42317535307E+02 -0.55008206935E+03  0.55204661780E+03  0.47000000000E+01 0. -1.
         -5    1    1    2    0  502 -0.38711720741E+02 -0.45134561760E+02 -0.86431625555E+02  0.10501543641E+03  0.47000000000E+01 0. -1.
        -11    1    3    3    0    0  0.68409532664E+02  0.35234239728E+02 -0.17384365773E+03  0.19011294838E+03  0.00000000000E+00 0.  1.
         11    1    3    3    0    0 -0.10927585164E+02  0.52217857338E+02 -0.50515008218E+02  0.73470285134E+02  0.00000000000E+00 0. -1.
<mgrwt>
<rscale>  0 0.15647832E+03</rscale>
<asrwt>0</asrwt>
<pdfrwt beam="1">  1        2 0.45979176E-02 0.16303637E+03</pdfrwt>
<pdfrwt beam="2">  1       -2 0.13703981E+00 0.16303637E+03</pdfrwt>
<totfact> 0.69018440E+02</totfact>
</mgrwt>
</event>
<event>
 7    1  0.1378058E-005  0.1648198E+03  0.7546771E-02  0.1190728E+00
         -2   -1    0    0    0  501 -0.00000000000E+00  0.00000000000E+00  0.10055911015E+03  0.10055911015E+03  0.00000000000E+00 0.  1.
          2   -1    0    0  501    0  0.00000000000E+00 -0.00000000000E+00 -0.29597581629E+03  0.29597581629E+03  0.00000000000E+00 0. -1.
         23    2    1    2    0    0 -0.40359138656E+02  0.99564101560E+02 -0.18420505451E+03  0.23133419986E+03  0.89677976829E+02 0.  0.
          5    1    1    2  502    0  0.71122538202E+02 -0.14513034584E+02  0.60989812777E+01  0.72995418937E+02  0.47000000000E+01 0.  1.
         -5    1    1    2    0  502 -0.30763399546E+02 -0.85051066976E+02 -0.17310632902E+02  0.92205307639E+02  0.47000000000E+01 0.  1.
        -11    1    3    3    0    0  0.25447133087E+02  0.72117319028E+01 -0.38239675581E+02  0.46495574498E+02  0.00000000000E+00 0.  1.
         11    1    3    3    0    0 -0.65806271743E+02  0.92352369657E+02 -0.14596537893E+03  0.18483862537E+03  0.00000000000E+00 0. -1.
<mgrwt>
<rscale>  0 0.15821396E+03</rscale>
<asrwt>0</asrwt>
<pdfrwt beam="2">  1        2 0.45534741E-01 0.16481984E+03</pdfrwt>
<pdfrwt beam="1">  1       -2 0.15470632E-01 0.16481984E+03</pdfrwt>
<totfact> 0.35157353E+03</totfact>
</mgrwt>
</event>
<event>
 7    1  0.1378058E-005  0.1466818E+03  0.7546771E-02  0.1214673E+00
         -2   -1    0    0    0  501 -0.00000000000E+00  0.00000000000E+00  0.71846773431E+02  0.71846773431E+02  0.00000000000E+00 0.  1.
          2   -1    0    0  501    0  0.00000000000E+00 -0.00000000000E+00 -0.24520422842E+03  0.24520422842E+03  0.00000000000E+00 0. -1.
         23    2    1    2    0    0 -0.45736065445E+02  0.61630795269E+02 -0.86835273340E+02  0.14675236700E+03  0.90031938315E+02 0.  0.
          5    1    1    2  502    0  0.31174073740E+02  0.18878779299E+02  0.15118617854E+02  0.39735296490E+02  0.47000000000E+01 0. -1.
         -5    1    1    2    0  502  0.14561991706E+02 -0.80509574569E+02 -0.10164079951E+03  0.13056333836E+03  0.47000000000E+01 0. -1.
        -11    1    3    3    0    0 -0.18871716294E+02  0.81231739606E+02 -0.50486549694E+02  0.97486557511E+02  0.00000000000E+00 0.  1.
         11    1    3    3    0    0 -0.26864349151E+02 -0.19600944336E+02 -0.36348723646E+02  0.49265809492E+02  0.00000000000E+00 0. -1.
<mgrwt>
<rscale>  0 0.13900555E+03</rscale>
<asrwt>0</asrwt>
<pdfrwt beam="2">  1        2 0.37723728E-01 0.14668175E+03</pdfrwt>
<pdfrwt beam="1">  1       -2 0.11053350E-01 0.14668175E+03</pdfrwt>
<totfact> 0.73502537E+03</totfact>
</mgrwt>
</event>
<event>
 7    1  0.1378058E-005  0.1272005E+03  0.7546771E-02  0.1247479E+00
          1   -1    0    0  501    0  0.00000000000E+00  0.00000000000E+00  0.38937105307E+03  0.38937105307E+03  0.00000000000E+00 0. -1.
         -1   -1    0    0    0  501 -0.00000000000E+00 -0.00000000000E+00 -0.55663488266E+02  0.55663488266E+02  0.00000000000E+00 0.  1.
         23    2    1    2    0    0 -0.52376139625E+01 -0.22966099562E+02  0.29940089652E+03  0.31328891195E+03  0.89186160279E+02 0.  0.
          5    1    1    2  502    0 -0.34136675997E+00  0.73666557718E+02  0.82506508399E+01  0.74276789757E+02  0.47000000000E+01 0.  1.
         -5    1    1    2    0  502  0.55789807224E+01 -0.50700458156E+02  0.26056017442E+02  0.57468839627E+02  0.47000000000E+01 0.  1.
        -11    1    3    3    0    0  0.77182955922E+01  0.28297487824E+02  0.46941738735E+02  0.55352025613E+02  0.00000000000E+00 0. -1.
         11    1    3    3    0    0 -0.12955909555E+02 -0.51263587386E+02  0.25245915779E+03  0.25793688634E+03  0.00000000000E+00 0.  1.
<mgrwt>
<rscale>  0 0.11738205E+03</rscale>
<asrwt>0</asrwt>
<pdfrwt beam="1">  1        1 0.59903237E-01 0.12720048E+03</pdfrwt>
<pdfrwt beam="2">  1       -1 0.85636138E-02 0.12720048E+03</pdfrwt>
<totfact> 0.46654093E+03</totfact>
</mgrwt>
</event>
<event>
 7    1  0.1378058E-005  0.1325630E+03  0.7546771E-02  0.1238567E+00
          2   -1    0    0  501    0  0.00000000000E+00  0.00000000000E+00  0.50189278115E+03  0.50189278115E+03  0.00000000000E+00 0. -1.
         -2   -1    0    0    0  501 -0.00000000000E+00 -0.00000000000E+00 -0.33762966384E+02  0.33762966384E+02  0.00000000000E+00 0.  1.
         23    2    1    2    0    0 -0.13562322502E+02 -0.41970344952E+02  0.33034464152E+03  0.34445509425E+03  0.87041848148E+02 0.  0.
          5    1    1    2  502    0  0.56994420299E+01  0.33788714154E+02 -0.15159772344E+02  0.37763335938E+02  0.47000000000E+01 0.  1.
         -5    1    1    2    0  502  0.78628804717E+01  0.81816307980E+01  0.15294494559E+03  0.15343731734E+03  0.47000000000E+01 0.  1.
        -11    1    3    3    0    0 -0.85637968439E+01 -0.64109190144E+02  0.29802332299E+03  0.30496102689E+03  0.00000000000E+00 0. -1.
         11    1    3    3    0    0 -0.49985256576E+01  0.22138845193E+02  0.32321318534E+02  0.39494067365E+02  0.00000000000E+00 0.  1.
<mgrwt>
<rscale>  0 0.12278805E+03</rscale>
<asrwt>0</asrwt>
<pdfrwt beam="1">  1        2 0.77214269E-01 0.13256295E+03</pdfrwt>
<pdfrwt beam="2">  1       -2 0.51943029E-02 0.13256295E+03</pdfrwt>
<totfact> 0.10869196E+04</totfact>
</mgrwt>
</event>
<event>
 7    1  0.1378058E-005  0.1371592E+03  0.7546771E-02  0.1228927E+00
          2   -1    0    0  501    0  0.00000000000E+00  0.00000000000E+00  0.14423816458E+03  0.14423816458E+03  0.00000000000E+00 0. -1.
         -2   -1    0    0    0  501 -0.00000000000E+00 -0.00000000000E+00 -0.10364157670E+03  0.10364157670E+03  0.00000000000E+00 0.  1.
         23    2    1    2    0    0 -0.47656518416E+02 -0.30267190294E+02  0.18759750942E+02  0.10899312266E+03  0.91325385167E+02 0.  0.
          5    1    1    2  502    0  0.17991299090E+02 -0.11723541570E+02  0.66862746852E+02  0.70383557643E+02  0.47000000000E+01 0. -1.
         -5    1    1    2    0  502  0.29665219326E+02  0.41990731864E+02 -0.45025909914E+02  0.68503060981E+02  0.47000000000E+01 0. -1.
        -11    1    3    3    0    0 -0.10186229336E+02  0.22203787198E+02 -0.21865580030E+02  0.32785225698E+02  0.00000000000E+00 0.  1.
         11    1    3    3    0    0 -0.37470289080E+02 -0.52470977492E+02  0.40625330972E+02  0.76207896962E+02  0.00000000000E+00 0. -1.
<mgrwt>
<rscale>  0 0.12901373E+03</rscale>
<asrwt>0</asrwt>
<pdfrwt beam="1">  1        2 0.22190487E-01 0.13715920E+03</pdfrwt>
<pdfrwt beam="2">  1       -2 0.15944858E-01 0.13715920E+03</pdfrwt>
<totfact> 0.72190475E+03</totfact>
</mgrwt>
</event>
<event>
 7    1  0.1378058E-005  0.1473809E+03  0.7546771E-02  0.1213251E+00
         -2   -1    0    0    0  501 -0.00000000000E+00  0.00000000000E+00  0.38599389866E+03  0.38599389866E+03  0.00000000000E+00 0.  1.
          2   -1    0    0  501    0  0.00000000000E+00 -0.00000000000E+00 -0.47550128438E+02  0.47550128438E+02  0.00000000000E+00 0. -1.
         23    2    1    2    0    0  0.42714545051E+02 -0.65351891678E+02  0.18638021492E+03  0.22177896068E+03  0.91394314822E+02 0.  0.
          5    1    1    2  502    0  0.27932486959E+02 -0.18987071165E+02  0.18967309484E+02  0.39020270735E+02  0.47000000000E+01 0. -1.
         -5    1    1    2    0  502 -0.70647032010E+02  0.84338962844E+02  0.13309624583E+03  0.17274479569E+03  0.47000000000E+01 0. -1.
        -11    1    3    3    0    0  0.58315502482E+02 -0.60483296453E+01  0.83938163523E+02  0.10238601182E+03  0.00000000000E+00 0. -1.
         11    1    3    3    0    0 -0.15600957431E+02 -0.59303562033E+02  0.10244205139E+03  0.11939294885E+03  0.00000000000E+00 0.  1.
<mgrwt>
<rscale>  0 0.14005803E+03</rscale>
<asrwt>0</asrwt>
<pdfrwt beam="2">  1        2 0.73154046E-02 0.14738086E+03</pdfrwt>
<pdfrwt beam="1">  1       -2 0.59383675E-01 0.14738086E+03</pdfrwt>
<totfact> 0.24889629E+03</totfact>
</mgrwt>
</event>
<event>
 7    1  0.1378058E-005  0.1352927E+03  0.7546771E-02  0.1232170E+00
         -1   -1    0    0    0  501 -0.00000000000E+00  0.00000000000E+00  0.14715604680E+03  0.14715604680E+03  0.00000000000E+00 0.  1.
          1   -1    0    0  501    0  0.00000000000E+00 -0.00000000000E+00 -0.10361835408E+03  0.10361835408E+03  0.00000000000E+00 0. -1.
         23    2    1    2    0    0 -0.17142641236E+02  0.48839730918E+02 -0.10356052975E+02  0.10514248376E+03  0.90931318003E+02 0.  0.
          5    1    1    2  502    0  0.10165643224E+02 -0.17803631154E+01  0.86837397537E+02  0.87574731550E+02  0.47000000000E+01 0.  1.
         -5    1    1    2    0  502  0.69769980113E+01 -0.47059367802E+02 -0.32943651842E+02  0.58057185567E+02  0.47000000000E+01 0.  1.
        -11    1    3    3    0    0 -0.44744510908E+02  0.17693334953E+02  0.21531532271E+02  0.52713681717E+02  0.00000000000E+00 0.  1.
         11    1    3    3    0    0  0.27601869673E+02  0.31146395965E+02 -0.31887585247E+02  0.52428802045E+02  0.00000000000E+00 0. -1.
<mgrwt>
<rscale>  0 0.12687357E+03</rscale>
<asrwt>0</asrwt>
<pdfrwt beam="2">  1        1 0.15941285E-01 0.13529272E+03</pdfrwt>
<pdfrwt beam="1">  1       -1 0.22639392E-01 0.13529272E+03</pdfrwt>
<totfact> 0.53819600E+03</totfact>
</mgrwt>
</event>
<event>
 7    1  0.1378058E-005  0.1306921E+03  0.7546771E-02  0.1240028E+00
          1   -1    0    0  501    0  0.00000000000E+00  0.00000000000E+00  0.22930111314E+03  0.22930111314E+03  0.00000000000E+00 0. -1.
         -1   -1    0    0    0  501 -0.00000000000E+00 -0.00000000000E+00 -0.12402327887E+03  0.12402327887E+03  0.00000000000E+00 0.  1.
         23    2    1    2    0    0  0.14191360018E+02 -0.35413971591E+02  0.17811484423E+03  0.20370603811E+03  0.91190504689E+02 0.  0.
          5    1    1    2  502    0  0.37325444404E+02  0.15868839561E+02  0.16917051551E+02  0.44195989662E+02  0.47000000000E+01 0.  1.
         -5    1    1    2    0  502 -0.51516804422E+02  0.19545132030E+02 -0.89754061508E+02  0.10542236424E+03  0.47000000000E+01 0.  1.
        -11    1    3    3    0    0 -0.12294785411E+02 -0.54905361127E+02  0.65303079505E+02  0.86198913111E+02  0.00000000000E+00 0.  1.
         11    1    3    3    0    0  0.26486145428E+02  0.19491389536E+02  0.11281176472E+03  0.11750712500E+03  0.00000000000E+00 0. -1.
<mgrwt>
<rscale>  0 0.12187952E+03</rscale>
<asrwt>0</asrwt>
<pdfrwt beam="1">  1        1 0.35277094E-01 0.13069209E+03</pdfrwt>
<pdfrwt beam="2">  1       -1 0.19080505E-01 0.13069209E+03</pdfrwt>
<totfact> 0.26020726E+03</totfact>
</mgrwt>
</event>
<event>
 7    1  0.1378058E-005  0.2237766E+03  0.7546771E-02  0.1133855E+00
          1   -1    0    0  501    0  0.00000000000E+00  0.00000000000E+00  0.26980438041E+03  0.26980438041E+03  0.00000000000E+00 0. -1.
         -1   -1    0    0    0  501 -0.00000000000E+00 -0.00000000000E+00 -0.33123286991E+03  0.33123286991E+03  0.00000000000E+00 0.  1.
         23    2    1    2    0    0 -0.14768362846E+03  0.11242925991E+03  0.17701253707E+03  0.27403557260E+03  0.96494891960E+02 0.  0.
          5    1    1    2  502    0 -0.50150442396E+01 -0.16648091520E+02 -0.94722761225E+02  0.96419920733E+02  0.47000000000E+01 0.  1.
         -5    1    1    2    0  502  0.15269867270E+03 -0.95781168389E+02 -0.14371826534E+03  0.23058175698E+03  0.47000000000E+01 0.  1.
        -11    1    3    3    0    0  0.36036286435E+01  0.42262059157E+02  0.34753217045E+02  0.54834787120E+02  0.00000000000E+00 0.  1.
         11    1    3    3    0    0 -0.15128725710E+03  0.70167200753E+02  0.14225932003E+03  0.21920078548E+03  0.00000000000E+00 0. -1.
<mgrwt>
<rscale>  0 0.22003828E+03</rscale>
<asrwt>0</asrwt>
<pdfrwt beam="1">  1        1 0.41508367E-01 0.22377662E+03</pdfrwt>
<pdfrwt beam="2">  1       -1 0.50958903E-01 0.22377662E+03</pdfrwt>
<totfact> 0.40059548E+02</totfact>
</mgrwt>
</event>
<event>
 7    1  0.1378058E-005  0.1922898E+03  0.7546771E-02  0.1164377E+00
         -2   -1    0    0    0  501 -0.00000000000E+00  0.00000000000E+00  0.12688116857E+03  0.12688116857E+03  0.00000000000E+00 0.  1.
          2   -1    0    0  501    0  0.00000000000E+00 -0.00000000000E+00 -0.25201020545E+03  0.25201020545E+03  0.00000000000E+00 0. -1.
         23    2    1    2    0    0  0.30326291823E+01 -0.12898592920E+03 -0.90147847625E+02  0.18344564303E+03  0.94228990989E+02 0.  0.
          5    1    1    2  502    0  0.42125165894E+02  0.12333889512E+03 -0.59711197250E+02  0.14343824360E+03  0.47000000000E+01 0. -1.
         -5    1    1    2    0  502 -0.45157795076E+02  0.56470340822E+01  0.24730007986E+02  0.52007487394E+02  0.47000000000E+01 0.  1.
        -11    1    3    3    0    0  0.13472000673E+02 -0.29015230170E+01 -0.48239526279E+02  0.50169368478E+02  0.00000000000E+00 0. -1.
         11    1    3    3    0    0 -0.10439371490E+02 -0.12608440618E+03 -0.41908321347E+02  0.13327627455E+03  0.00000000000E+00 0.  1.
<mgrwt>
<rscale>  0 0.18358587E+03</rscale>
<asrwt>0</asrwt>
<pdfrwt beam="2">  1        2 0.38770800E-01 0.19228976E+03</pdfrwt>
<pdfrwt beam="1">  1       -2 0.19520180E-01 0.19228976E+03</pdfrwt>
<totfact> 0.28492679E+03</totfact>
</mgrwt>
</event>
<event>
 7    1  0.1378058E-005  0.1358008E+03  0.7546771E-02  0.1231369E+00
         -1   -1    0    0    0  501 -0.00000000000E+00  0.00000000000E+00  0.45095105393E+02  0.45095105393E+02  0.00000000000E+00 0.  1.
          1   -1    0    0  501    0  0.00000000000E+00 -0.00000000000E+00 -0.34817507420E+03  0.34817507420E+03  0.00000000000E+00 0. -1.
         23    2    1    2    0    0 -0.72480089154E+01 -0.52611792994E+02 -0.18730140855E+03  0.21481423199E+03  0.90789879532E+02 0.  0.
          5    1    1    2  502    0  0.51523013971E+02  0.70590614258E+02 -0.69374520271E+02  0.11168066016E+03  0.47000000000E+01 0.  1.
         -5    1    1    2    0  502 -0.44275005055E+02 -0.17978821263E+02 -0.46404039983E+02  0.66775287446E+02  0.47000000000E+01 0.  1.
        -11    1    3    3    0    0 -0.48530750483E+02 -0.36532020021E+02 -0.10290200439E+03  0.11949328323E+03  0.00000000000E+00 0.  1.
         11    1    3    3    0    0  0.41282741568E+02 -0.16079772973E+02 -0.84399404163E+02  0.95320948764E+02  0.00000000000E+00 0. -1.
<mgrwt>
<rscale>  0 0.12739795E+03</rscale>
<asrwt>0</asrwt>
<pdfrwt beam="2">  1        1 0.53565396E-01 0.13580077E+03</pdfrwt>
<pdfrwt beam="1">  1       -1 0.69377085E-02 0.13580077E+03</pdfrwt>
<totfact> 0.73949296E+03</totfact>
</mgrwt>
</event>
<event>
 7    1  0.1378058E-005  0.2113740E+03  0.7546771E-02  0.1144210E+00
         -4   -1    0    0    0  501 -0.00000000000E+00  0.00000000000E+00  0.48522024163E+02  0.48522024163E+02  0.00000000000E+00 0. -1.
          4   -1    0    0  501    0  0.00000000000E+00 -0.00000000000E+00 -0.84736244982E+03  0.84736244982E+03  0.00000000000E+00 0.  1.
         23    2    1    2    0    0  0.16887572613E+03 -0.23105320082E+02 -0.41136746548E+03  0.45450677188E+03  0.91106242058E+02 0.  0.
          5    1    1    2  502    0 -0.11128806530E+03  0.21377567514E+02 -0.11018711574E+03  0.15813071917E+03  0.47000000000E+01 0.  1.
         -5    1    1    2    0  502 -0.57587660832E+02  0.17277525687E+01 -0.27728584444E+03  0.28324698293E+03  0.47000000000E+01 0.  1.
        -11    1    3    3    0    0  0.74130801708E+02  0.33504562280E+02 -0.14664889229E+03  0.16770160722E+03  0.00000000000E+00 0. -1.
         11    1    3    3    0    0  0.94744924425E+02 -0.56609882363E+02 -0.26471857319E+03  0.28680516466E+03  0.00000000000E+00 0.  1.
<mgrwt>
<rscale>  0 0.20669488E+03</rscale>
<asrwt>0</asrwt>
<pdfrwt beam="2">  1        4 0.13036345E+00 0.21137403E+03</pdfrwt>
<pdfrwt beam="1">  1       -4 0.74649270E-02 0.21137403E+03</pdfrwt>
<totfact> 0.10039459E+02</totfact>
</mgrwt>
</event>
<event>
 7    1  0.1378058E-005  0.1846318E+03  0.7546771E-02  0.1167704E+00
          1   -1    0    0  501    0  0.00000000000E+00  0.00000000000E+00  0.41384930615E+03  0.41384930615E+03  0.00000000000E+00 0. -1.
         -1   -1    0    0    0  501 -0.00000000000E+00 -0.00000000000E+00 -0.97885079880E+02  0.97885079880E+02  0.00000000000E+00 0.  1.
         23    2    1    2    0    0 -0.11905821980E+03  0.65492828751E+02  0.27622816247E+03  0.32287506914E+03  0.97376291835E+02 0.  0.
          5    1    1    2  502    0  0.83641675838E+02 -0.10162137069E+03  0.41302822707E+02  0.13802480241E+03  0.47000000000E+01 0.  1.
         -5    1    1    2    0  502  0.35416543966E+02  0.36128541935E+02 -0.15667589032E+01  0.50834514479E+02  0.47000000000E+01 0.  1.
        -11    1    3    3    0    0 -0.60555482336E+02 -0.14458418172E+02  0.67489327417E+02  0.91819505620E+02  0.00000000000E+00 0.  1.
         11    1    3    3    0    0 -0.58502737468E+02  0.79951246923E+02  0.20873883505E+03  0.23105556352E+03  0.00000000000E+00 0. -1.
<mgrwt>
<rscale>  0 0.18010276E+03</rscale>
<asrwt>0</asrwt>
<pdfrwt beam="1">  1        1 0.63669123E-01 0.18463176E+03</pdfrwt>
<pdfrwt beam="2">  1       -1 0.15059243E-01 0.18463176E+03</pdfrwt>
<totfact> 0.18335574E+03</totfact>
</mgrwt>
</event>
<event>
 7    1  0.1378058E-005  0.2185059E+03  0.7546771E-02  0.1135002E+00
          1   -1    0    0  501    0  0.00000000000E+00  0.00000000000E+00  0.33178504600E+03  0.33178504600E+03  0.00000000000E+00 0. -1.
         -1   -1    0    0    0  501 -0.00000000000E+00 -0.00000000000E+00 -0.35975725699E+02  0.35975725699E+02  0.00000000000E+00 0.  1.
         23    2    1    2    0    0  0.19061552705E+02  0.11522109403E+02  0.14869102919E+03  0.17343037769E+03  0.86446352996E+02 0.  0.
          5    1    1    2  502    0 -0.63348484895E+02 -0.37290959353E+02  0.69949502973E+02  0.10158085033E+03  0.47000000000E+01 0. -1.
         -5    1    1    2    0  502  0.44286932190E+02  0.25768849950E+02  0.77168788140E+02  0.92749543684E+02  0.47000000000E+01 0. -1.
        -11    1    3    3    0    0  0.15239815506E+02  0.23572533402E+02  0.15621634035E+03  0.15871818201E+03  0.00000000000E+00 0. -1.
         11    1    3    3    0    0  0.38217371991E+01 -0.12050423999E+02 -0.75253111567E+01  0.14712195682E+02  0.00000000000E+00 0.  1.
<mgrwt>
<rscale>  0 0.21850591E+03</rscale>
<asrwt>0</asrwt>
<pdfrwt beam="1">  1        1 0.51043851E-01 0.21850591E+03</pdfrwt>
<pdfrwt beam="2">  1       -1 0.55347272E-02 0.21850591E+03</pdfrwt>
<totfact> 0.11377883E+04</totfact>
</mgrwt>
</event>
<event>
 7    1  0.1378058E-005  0.1760085E+03  0.7546771E-02  0.1178535E+00
          2   -1    0    0  501    0  0.00000000000E+00  0.00000000000E+00  0.43127121519E+03  0.43127121519E+03  0.00000000000E+00 0.  1.
         -2   -1    0    0    0  501 -0.00000000000E+00 -0.00000000000E+00 -0.61921142145E+02  0.61921142145E+02  0.00000000000E+00 0. -1.
         23    2    1    2    0    0  0.58131939277E+02 -0.10942950845E+03  0.17002415134E+03  0.22727919285E+03  0.85985346307E+02 0.  0.
          5    1    1    2  502    0  0.39570244187E+02  0.35666161835E+02  0.62387210186E+02  0.82171365571E+02  0.47000000000E+01 0. -1.
         -5    1    1    2    0  502 -0.97702183464E+02  0.73763346610E+02  0.13693871152E+03  0.18374179891E+03  0.47000000000E+01 0. -1.
        -11    1    3    3    0    0 -0.86676352070E+00 -0.55438954057E+02  0.12196353872E+03  0.13397512337E+03  0.00000000000E+00 0.  1.
         11    1    3    3    0    0  0.58998702797E+02 -0.53990554388E+02  0.48060612624E+02  0.93304069475E+02  0.00000000000E+00 0. -1.
<mgrwt>
<rscale>  0 0.16934298E+03</rscale>
<asrwt>0</asrwt>
<pdfrwt beam="1">  1        2 0.66349416E-01 0.17600849E+03</pdfrwt>
<pdfrwt beam="2">  1       -2 0.95263298E-02 0.17600849E+03</pdfrwt>
<totfact> 0.51366543E+03</totfact>
</mgrwt>
</event>
<event>
 7    1  0.1378058E-005  0.1283028E+03  0.7546771E-02  0.1246570E+00
         -1   -1    0    0    0  501 -0.00000000000E+00  0.00000000000E+00  0.35075964006E+02  0.35075964006E+02  0.00000000000E+00 0.  1.
          1   -1    0    0  501    0  0.00000000000E+00 -0.00000000000E+00 -0.35164163164E+03  0.35164163164E+03  0.00000000000E+00 0. -1.
         23    2    1    2    0    0 -0.27571512791E+02  0.87172421428E+01 -0.15956438061E+03  0.18395910496E+03  0.86856100030E+02 0.  0.
          5    1    1    2  502    0  0.34496308728E+02 -0.60508076182E+02 -0.11904970026E+03  0.13800776692E+03  0.47000000000E+01 0. -1.
         -5    1    1    2    0  502 -0.69247959376E+01  0.51790834039E+02 -0.37951586769E+02  0.64750723761E+02  0.47000000000E+01 0. -1.
        -11    1    3    3    0    0 -0.76402998756E+01  0.36588662188E+02 -0.13913095596E+03  0.14406431650E+03  0.00000000000E+00 0. -1.
         11    1    3    3    0    0 -0.19931212915E+02 -0.27871420045E+02 -0.20433424647E+02  0.39894788461E+02  0.00000000000E+00 0.  1.
<mgrwt>
<rscale>  0 0.11791894E+03</rscale>
<asrwt>0</asrwt>
<pdfrwt beam="2">  1        1 0.54098712E-01 0.12830277E+03</pdfrwt>
<pdfrwt beam="1">  1       -1 0.53963022E-02 0.12830277E+03</pdfrwt>
<totfact> 0.10577079E+04</totfact>
</mgrwt>
</event>
<event>
 7    1  0.1378058E-005  0.2232856E+03  0.7546771E-02  0.1131457E+00
          1   -1    0    0  501    0  0.00000000000E+00  0.00000000000E+00  0.15491401565E+03  0.15491401565E+03  0.00000000000E+00 0. -1.
         -1   -1    0    0    0  501 -0.00000000000E+00 -0.00000000000E+00 -0.80458301148E+02  0.80458301148E+02  0.00000000000E+00 0.  1.
         23    2    1    2    0    0  0.28890892743E+02  0.10995804475E+02  0.32536553518E+02  0.99967483187E+02  0.89326809975E+02 0.  0.
          5    1    1    2  502    0  0.26497065052E+02  0.41458577628E+02  0.30626400464E+02  0.58146147944E+02  0.47000000000E+01 0. -1.
         -5    1    1    2    0  502 -0.55387957795E+02 -0.52454382104E+02  0.11292760519E+02  0.77258685665E+02  0.47000000000E+01 0. -1.
        -11    1    3    3    0    0 -0.84909936600E+01  0.26270134234E+02  0.49092711553E+02  0.56323274528E+02  0.00000000000E+00 0. -1.
         11    1    3    3    0    0  0.37381886403E+02 -0.15274329758E+02 -0.16556158034E+02  0.43644208659E+02  0.00000000000E+00 0.  1.
<mgrwt>
<rscale>  0 0.22328563E+03</rscale>
<asrwt>0</asrwt>
<pdfrwt beam="1">  1        1 0.23832925E-01 0.22328563E+03</pdfrwt>
<pdfrwt beam="2">  1       -1 0.12378200E-01 0.22328563E+03</pdfrwt>
<totfact> 0.86781844E+03</totfact>
</mgrwt>
</event>
<event>
 7    1  0.1378058E-005  0.1359523E+03  0.7546771E-02  0.1227054E+00
          2   -1    0    0  501    0  0.00000000000E+00  0.00000000000E+00  0.87650159046E+03  0.87650159046E+03  0.00000000000E+00 0. -1.
         -2   -1    0    0    0  501 -0.00000000000E+00 -0.00000000000E+00 -0.17919285471E+02  0.17919285471E+02  0.00000000000E+00 0.  1.
         23    2    1    2    0    0  0.25034344705E+02 -0.64651993283E+02  0.38123896094E+03  0.39809468592E+03  0.91266833881E+02 0.  0.
          5    1    1    2  502    0  0.16242960100E+02 -0.27387474419E+02  0.16347094442E+03  0.16660956509E+03  0.47000000000E+01 0. -1.
         -5    1    1    2    0  502 -0.41277304804E+02  0.92039467702E+02  0.31387239962E+03  0.32971662493E+03  0.47000000000E+01 0.  1.
        -11    1    3    3    0    0  0.10575201544E+02 -0.69805384500E+02  0.37489539968E+03  0.38148550077E+03  0.00000000000E+00 0.  1.
         11    1    3    3    0    0  0.14459143161E+02  0.51533912170E+01  0.63435612611E+01  0.16609185153E+02  0.00000000000E+00 0. -1.
<mgrwt>
<rscale>  0 0.13027129E+03</rscale>
<asrwt>0</asrwt>
<pdfrwt beam="1">  1        2 0.13484637E+00 0.13595227E+03</pdfrwt>
<pdfrwt beam="2">  1       -2 0.27568138E-02 0.13595227E+03</pdfrwt>
<totfact> 0.14456755E+04</totfact>
</mgrwt>
</event>
<event>
 7    1  0.1378058E-005  0.1526333E+03  0.7546771E-02  0.1204077E+00
         -3   -1    0    0    0  501 -0.00000000000E+00  0.00000000000E+00  0.11794819401E+03  0.11794819401E+03  0.00000000000E+00 0.  1.
          3   -1    0    0  501    0  0.00000000000E+00 -0.00000000000E+00 -0.18478040184E+03  0.18478040184E+03  0.00000000000E+00 0. -1.
         23    2    1    2    0    0  0.31129498138E+02 -0.81869943947E+02 -0.71845074342E+02  0.15001302190E+03  0.98338490200E+02 0.  0.
          5    1    1    2  502    0  0.36229285785E+02  0.27741760350E+02 -0.34680783623E+02  0.57506635865E+02  0.47000000000E+01 0. -1.
         -5    1    1    2    0  502 -0.67358783923E+02  0.54128183597E+02  0.39693650133E+02  0.95208938089E+02  0.47000000000E+01 0. -1.
        -11    1    3    3    0    0 -0.38214345844E+01 -0.79807054974E+02 -0.81050791360E+02  0.11381124798E+03  0.00000000000E+00 0. -1.
         11    1    3    3    0    0  0.34950932723E+02 -0.20628889736E+01  0.92057170178E+01  0.36201773919E+02  0.00000000000E+00 0.  1.
<mgrwt>
<rscale>  0 0.14710415E+03</rscale>
<asrwt>0</asrwt>
<pdfrwt beam="2">  1        3 0.28427754E-01 0.15263328E+03</pdfrwt>
<pdfrwt beam="1">  1       -3 0.18145876E-01 0.15263328E+03</pdfrwt>
<totfact> 0.74388283E+02</totfact>
</mgrwt>
</event>
<event>
 7    1  0.1378058E-005  0.1850009E+03  0.7546771E-02  0.1168473E+00
          1   -1    0    0  501    0  0.00000000000E+00  0.00000000000E+00  0.10742756922E+04  0.10742756922E+04  0.00000000000E+00 0. -1.
         -1   -1    0    0    0  501 -0.00000000000E+00 -0.00000000000E+00 -0.29755358071E+02  0.29755358071E+02  0.00000000000E+00 0.  1.
         23    2    1    2    0    0 -0.11741304527E+03 -0.69325929119E+02  0.61627792749E+03  0.63753680852E+03  0.89793043485E+02 0.  0.
          5    1    1    2  502    0  0.51376018844E+02  0.61253803947E+02  0.84811939415E+02  0.11664766983E+03  0.47000000000E+01 0.  1.
         -5    1    1    2    0  502  0.66037026430E+02  0.80721251716E+01  0.34343046720E+03  0.34984657190E+03  0.47000000000E+01 0.  1.
        -11    1    3    3    0    0 -0.12822034685E+02  0.47360822846E+01  0.78596412963E+01  0.15767339984E+02  0.00000000000E+00 0.  1.
         11    1    3    3    0    0 -0.10459101059E+03 -0.74062011403E+02  0.60841828620E+03  0.62176946854E+03  0.00000000000E+00 0. -1.
<mgrwt>
<rscale>  0 0.17930898E+03</rscale>
<asrwt>0</asrwt>
<pdfrwt beam="1">  1        1 0.16527315E+00 0.18500086E+03</pdfrwt>
<pdfrwt beam="2">  1       -1 0.45777482E-02 0.18500086E+03</pdfrwt>
<totfact> 0.28123752E+03</totfact>
</mgrwt>
</event>
<event>
 7    1  0.1378058E-005  0.1774356E+03  0.7546771E-02  0.1173685E+00
         -1   -1    0    0    0  501 -0.00000000000E+00  0.00000000000E+00  0.64955752110E+02  0.64955752110E+02  0.00000000000E+00 0.  1.
          1   -1    0    0  501    0  0.00000000000E+00 -0.00000000000E+00 -0.45729476538E+03  0.45729476538E+03  0.00000000000E+00 0. -1.
         23    2    1    2    0    0 -0.43947077916E+02 -0.11823972564E+03 -0.22294131016E+03  0.27693646211E+03  0.10525681875E+03 0.  0.
          5    1    1    2  502    0  0.26016764836E+02 -0.21419330094E+02 -0.50880582362E+02  0.61209340919E+02  0.47000000000E+01 0.  1.
         -5    1    1    2    0  502  0.17930313081E+02  0.13965905574E+03 -0.11851712075E+03  0.18410471446E+03  0.47000000000E+01 0.  1.
        -11    1    3    3    0    0  0.29460561964E+02 -0.14053920749E+02 -0.23383917458E+02  0.40152770706E+02  0.00000000000E+00 0. -1.
         11    1    3    3    0    0 -0.73407639881E+02 -0.10418580489E+03 -0.19955739270E+03  0.23678369141E+03  0.00000000000E+00 0.  1.
<mgrwt>
<rscale>  0 0.17405358E+03</rscale>
<asrwt>0</asrwt>
<pdfrwt beam="2">  1        1 0.70353040E-01 0.17743563E+03</pdfrwt>
<pdfrwt beam="1">  1       -1 0.99931928E-02 0.17743563E+03</pdfrwt>
<totfact> 0.30497107E+03</totfact>
</mgrwt>
</event>
<event>
 7    1  0.1378058E-005  0.1393232E+03  0.7546771E-02  0.1224778E+00
          1   -1    0    0  501    0  0.00000000000E+00  0.00000000000E+00  0.18122000595E+03  0.18122000595E+03  0.00000000000E+00 0. -1.
         -1   -1    0    0    0  501 -0.00000000000E+00 -0.00000000000E+00 -0.87672479710E+02  0.87672479710E+02  0.00000000000E+00 0.  1.
         23    2    1    2    0    0  0.53339102603E+02 -0.29068931783E+02  0.54239014208E+02  0.12413026169E+03  0.93682381174E+02 0.  0.
          5    1    1    2  502    0 -0.83894252857E+02  0.31257242723E+01  0.56067829794E+02  0.10106288811E+03  0.47000000000E+01 0. -1.
         -5    1    1    2    0  502  0.30555150254E+02  0.25943207511E+02 -0.16759317766E+02  0.43699335864E+02  0.47000000000E+01 0.  1.
        -11    1    3    3    0    0  0.51549967768E+02 -0.57922806372E+02  0.21523292985E+02  0.80471751663E+02  0.00000000000E+00 0.  1.
         11    1    3    3    0    0  0.17891348349E+01  0.28853874589E+02  0.32715721223E+02  0.43658510022E+02  0.00000000000E+00 0. -1.
<mgrwt>
<rscale>  0 0.13182122E+03</rscale>
<asrwt>0</asrwt>
<pdfrwt beam="1">  1        1 0.27880001E-01 0.13932316E+03</pdfrwt>
<pdfrwt beam="2">  1       -1 0.13488074E-01 0.13932316E+03</pdfrwt>
<totfact> 0.60402948E+03</totfact>
</mgrwt>
</event>
<event>
 7    1  0.1378058E-005  0.1496595E+03  0.7546771E-02  0.1210165E+00
          1   -1    0    0  501    0  0.00000000000E+00  0.00000000000E+00  0.24890023403E+03  0.24890023403E+03  0.00000000000E+00 0. -1.
         -1   -1    0    0    0  501 -0.00000000000E+00 -0.00000000000E+00 -0.76688047765E+02  0.76688047765E+02  0.00000000000E+00 0.  1.
         23    2    1    2    0    0 -0.11633368793E+02 -0.81437555374E+02  0.10549089776E+03  0.16172954781E+03  0.90888428473E+02 0.  0.
          5    1    1    2  502    0 -0.64695031283E+01 -0.29954960399E+02  0.34535861255E+02  0.46410880576E+02  0.47000000000E+01 0.  1.
         -5    1    1    2    0  502  0.18102871921E+02  0.11139251577E+03  0.32185427245E+02  0.11744785340E+03  0.47000000000E+01 0.  1.
        -11    1    3    3    0    0 -0.11130856123E+02 -0.14178794517E+02 -0.15188696494E+02  0.23571819470E+02  0.00000000000E+00 0.  1.
         11    1    3    3    0    0 -0.50251267023E+00 -0.67258760857E+02  0.12067959426E+03  0.13815772834E+03  0.00000000000E+00 0. -1.
<mgrwt>
<rscale>  0 0.14237745E+03</rscale>
<asrwt>0</asrwt>
<pdfrwt beam="1">  1        1 0.38292343E-01 0.14965946E+03</pdfrwt>
<pdfrwt beam="2">  1       -1 0.11798161E-01 0.14965946E+03</pdfrwt>
<totfact> 0.50318669E+03</totfact>
</mgrwt>
</event>
<event>
 7    1  0.1378058E-005  0.1330299E+03  0.7546771E-02  0.1238596E+00
         -2   -1    0    0    0  501 -0.00000000000E+00  0.00000000000E+00  0.14495466826E+03  0.14495466826E+03  0.00000000000E+00 0.  1.
          2   -1    0    0  501    0  0.00000000000E+00 -0.00000000000E+00 -0.92436266773E+02  0.92436266773E+02  0.00000000000E+00 0. -1.
         23    2    1    2    0    0 -0.23093336684E+02 -0.39214383848E+02  0.68524076860E+01  0.96741202460E+02  0.85093094094E+02 0.  0.
          5    1    1    2  502    0  0.45004679154E+02 -0.28383542614E+02 -0.44011202970E+01  0.53595769394E+02  0.47000000000E+01 0.  1.
         -5    1    1    2    0  502 -0.21911342470E+02  0.67597926462E+02  0.50067114093E+02  0.87053963175E+02  0.47000000000E+01 0.  1.
        -11    1    3    3    0    0  0.12240693511E+01 -0.19993962283E+02  0.44009052784E+02  0.48353423875E+02  0.00000000000E+00 0.  1.
         11    1    3    3    0    0 -0.24317406035E+02 -0.19220421565E+02 -0.37156645098E+02  0.48387778584E+02  0.00000000000E+00 0. -1.
<mgrwt>
<rscale>  0 0.12276989E+03</rscale>
<asrwt>0</asrwt>
<pdfrwt beam="2">  1        2 0.14220964E-01 0.13302994E+03</pdfrwt>
<pdfrwt beam="1">  1       -2 0.22300718E-01 0.13302994E+03</pdfrwt>
<totfact> 0.68307465E+03</totfact>
</mgrwt>
</event>
<event>
 7    1  0.1378058E-005  0.1357635E+03  0.7546771E-02  0.1231591E+00
          2   -1    0    0  501    0  0.00000000000E+00  0.00000000000E+00  0.58043055495E+03  0.58043055495E+03  0.00000000000E+00 0. -1.
         -2   -1    0    0    0  501 -0.00000000000E+00 -0.00000000000E+00 -0.26999372203E+02  0.26999372203E+02  0.00000000000E+00 0.  1.
         23    2    1    2    0    0 -0.92540731315E+01  0.52170974666E+02  0.32739567835E+03  0.34375632923E+03  0.90404840651E+02 0.  0.
          5    1    1    2  502    0  0.32890539808E+02 -0.51882619416E+02  0.23099315714E+03  0.23906802892E+03  0.47000000000E+01 0. -1.
         -5    1    1    2    0  502 -0.23636466677E+02 -0.28835524987E+00 -0.49576527394E+01  0.24605569012E+02  0.47000000000E+01 0. -1.
        -11    1    3    3    0    0  0.22087107717E+02  0.65741560646E+02  0.19276644963E+03  0.20486263014E+03  0.00000000000E+00 0.  1.
         11    1    3    3    0    0 -0.31341180849E+02 -0.13570585980E+02  0.13462922872E+03  0.13889369909E+03  0.00000000000E+00 0. -1.
<mgrwt>
<rscale>  0 0.12725207E+03</rscale>
<asrwt>0</asrwt>
<pdfrwt beam="1">  1        2 0.89296999E-01 0.13576346E+03</pdfrwt>
<pdfrwt beam="2">  1       -2 0.41537500E-02 0.13576346E+03</pdfrwt>
<totfact> 0.12939359E+04</totfact>
</mgrwt>
</event>
<event>
 7    1  0.1378058E-005  0.1346823E+03  0.7546771E-02  0.1232968E+00
          2   -1    0    0  501    0  0.00000000000E+00  0.00000000000E+00  0.52007563734E+02  0.52007563734E+02  0.00000000000E+00 0.  1.
         -2   -1    0    0    0  501 -0.00000000000E+00 -0.00000000000E+00 -0.27694430390E+03  0.27694430390E+03  0.00000000000E+00 0. -1.
         23    2    1    2    0    0 -0.50131237644E+02  0.76445545929E+00 -0.83346578653E+02  0.13353665037E+03  0.91496772839E+02 0.  0.
          5    1    1    2  502    0  0.35609637397E+02 -0.22640008359E+02 -0.15832962407E+03  0.16392368991E+03  0.47000000000E+01 0.  1.
         -5    1    1    2    0  502  0.14521600247E+02  0.21875552900E+02  0.16739462558E+02  0.31491527355E+02  0.47000000000E+01 0.  1.
        -11    1    3    3    0    0 -0.31479847799E+02 -0.28658014395E+02  0.67881957468E+00  0.42576089564E+02  0.00000000000E+00 0.  1.
         11    1    3    3    0    0 -0.18651389845E+02  0.29422469855E+02 -0.84025398228E+02  0.90960560810E+02  0.00000000000E+00 0. -1.
<mgrwt>
<rscale>  0 0.12635385E+03</rscale>
<asrwt>0</asrwt>
<pdfrwt beam="1">  1        2 0.80011638E-02 0.13468234E+03</pdfrwt>
<pdfrwt beam="2">  1       -2 0.42606815E-01 0.13468234E+03</pdfrwt>
<totfact> 0.42682374E+03</totfact>
</mgrwt>
</event>
<event>
 7    1  0.1394474E-005  0.3063156E+03  0.7546771E-02  0.1083624E+00
          1   -1    0    0  501    0  0.00000000000E+00  0.00000000000E+00  0.81850534031E+03  0.81850534031E+03  0.00000000000E+00 0. -1.
         -1   -1    0    0    0  501 -0.00000000000E+00 -0.00000000000E+00 -0.11527756820E+03  0.11527756820E+03  0.00000000000E+00 0.  1.
         23    2    1    2    0    0 -0.10405415627E+03  0.25957117995E+03  0.44314287869E+03  0.53194541212E+03  0.91574262983E+02 0.  0.
          5    1    1    2  502    0  0.26371214647E+02 -0.20968685821E+03  0.15659779736E+03  0.26307599588E+03  0.47000000000E+01 0.  1.
         -5    1    1    2    0  502  0.77682941627E+02 -0.49884321743E+02  0.10348709606E+03  0.13876150052E+03  0.47000000000E+01 0.  1.
        -11    1    3    3    0    0 -0.58868410256E+02  0.43510885292E+02  0.12141253930E+03  0.14177338102E+03  0.00000000000E+00 0. -1.
         11    1    3    3    0    0 -0.45185746018E+02  0.21606029466E+03  0.32173033938E+03  0.39017203110E+03  0.00000000000E+00 0.  1.
<mgrwt>
<rscale>  0 0.30325674E+03</rscale>
<asrwt>0</asrwt>
<pdfrwt beam="1">  1        1 0.12592390E+00 0.30631556E+03</pdfrwt>
<pdfrwt beam="2">  1       -1 0.17735011E-01 0.30631556E+03</pdfrwt>
<totfact> 0.54679925E+02</totfact>
</mgrwt>
</event>
<event>
 7    1  0.1378058E-005  0.1515746E+03  0.7546771E-02  0.1211205E+00
          1   -1    0    0  501    0  0.00000000000E+00  0.00000000000E+00  0.79683975510E+02  0.79683975510E+02  0.00000000000E+00 0. -1.
         -1   -1    0    0    0  501 -0.00000000000E+00 -0.00000000000E+00 -0.44215082290E+03  0.44215082290E+03  0.00000000000E+00 0.  1.
         23    2    1    2    0    0  0.76294570528E+02  0.39103749342E+02  0.13751716422E+02  0.11622997127E+03  0.77267922267E+02 0.  0.
          5    1    1    2  502    0  0.12095606017E+02 -0.19494512444E+02 -0.24497669215E+03  0.24609349727E+03  0.47000000000E+01 0.  1.
         -5    1    1    2    0  502 -0.88390176545E+02 -0.19609236898E+02 -0.13124187166E+03  0.15951132987E+03  0.47000000000E+01 0.  1.
        -11    1    3    3    0    0  0.72762841175E+02 -0.23883998277E+01  0.15953861721E+02  0.74529599579E+02  0.00000000000E+00 0.  1.
         11    1    3    3    0    0  0.35317293525E+01  0.41492149169E+02 -0.22021452985E+01  0.41700371687E+02  0.00000000000E+00 0. -1.
<mgrwt>
<rscale>  0 0.14159050E+03</rscale>
<asrwt>0</asrwt>
<pdfrwt beam="1">  1        1 0.12259073E-01 0.15157463E+03</pdfrwt>
<pdfrwt beam="2">  1       -1 0.68023204E-01 0.15157463E+03</pdfrwt>
<totfact> 0.10933026E+03</totfact>
</mgrwt>
</event>
<event>
 7    1  0.1378058E-005  0.1367400E+03  0.7546771E-02  0.1229453E+00
          1   -1    0    0  501    0  0.00000000000E+00  0.00000000000E+00  0.65843357479E+03  0.65843357479E+03  0.00000000000E+00 0. -1.
         -1   -1    0    0    0  501 -0.00000000000E+00 -0.00000000000E+00 -0.26508085644E+02  0.26508085644E+02  0.00000000000E+00 0.  1.
         23    2    1    2    0    0 -0.34633279433E+02  0.43281836951E+02  0.41415781502E+03  0.42780244362E+03  0.91735781292E+02 0.  0.
          5    1    1    2  502    0  0.20106572325E+02 -0.55300181937E+01 -0.11506672316E+02  0.24276508391E+02  0.47000000000E+01 0.  1.
         -5    1    1    2    0  502  0.14526707109E+02 -0.37751818757E+02  0.22927434644E+03  0.23286270843E+03  0.47000000000E+01 0.  1.
        -11    1    3    3    0    0 -0.38177881039E+02  0.62551341603E+02  0.38937156460E+03  0.39620756713E+03  0.00000000000E+00 0. -1.
         11    1    3    3    0    0  0.35446016054E+01 -0.19269504652E+02  0.24786250425E+02  0.31594876486E+02  0.00000000000E+00 0.  1.
<mgrwt>
<rscale>  0 0.12866288E+03</rscale>
<asrwt>0</asrwt>
<pdfrwt beam="1">  1        1 0.10129746E+00 0.13673996E+03</pdfrwt>
<pdfrwt beam="2">  1       -1 0.40781675E-02 0.13673996E+03</pdfrwt>
<totfact> 0.70903371E+03</totfact>
</mgrwt>
</event>
<event>
 7    1  0.1378058E-005  0.1403825E+03  0.7546771E-02  0.1224980E+00
         -3   -1    0    0    0  501 -0.00000000000E+00  0.00000000000E+00  0.15616153035E+03  0.15616153035E+03  0.00000000000E+00 0.  1.
          3   -1    0    0  501    0  0.00000000000E+00 -0.00000000000E+00 -0.12467959999E+03  0.12467959999E+03  0.00000000000E+00 0. -1.
         23    2    1    2    0    0  0.19265594018E+02  0.73823703211E+02 -0.48782514529E+02  0.11913270220E+03  0.77406490305E+02 0.  0.
          5    1    1    2  502    0 -0.61116218161E+02 -0.74911285211E+02  0.66314295184E+02  0.11733102113E+03  0.47000000000E+01 0. -1.
         -5    1    1    2    0  502  0.41850624143E+02  0.10875820003E+01  0.13950149711E+02  0.44377407008E+02  0.47000000000E+01 0.  1.
        -11    1    3    3    0    0  0.44805286083E+02  0.67535541875E+02 -0.28476257281E+02  0.85903785168E+02  0.00000000000E+00 0.  1.
         11    1    3    3    0    0 -0.25539692066E+02  0.62881613355E+01 -0.20306257248E+02  0.33228917034E+02  0.00000000000E+00 0. -1.
<mgrwt>
<rscale>  0 0.13168280E+03</rscale>
<asrwt>0</asrwt>
<pdfrwt beam="2">  1        3 0.19181477E-01 0.14038246E+03</pdfrwt>
<pdfrwt beam="1">  1       -3 0.24024851E-01 0.14038246E+03</pdfrwt>
<totfact> 0.90539187E+02</totfact>
</mgrwt>
</event>
<event>
 7    1  0.1378058E-005  0.2451214E+03  0.7546771E-02  0.1118387E+00
          2   -1    0    0  501    0  0.00000000000E+00  0.00000000000E+00  0.76902961689E+03  0.76902961689E+03  0.00000000000E+00 0. -1.
         -2   -1    0    0    0  501 -0.00000000000E+00 -0.00000000000E+00 -0.90597538048E+02  0.90597538048E+02  0.00000000000E+00 0.  1.
         23    2    1    2    0    0 -0.70043784334E+02  0.19887997521E+03  0.51392707212E+03  0.56442143565E+03  0.99955716679E+02 0.  0.
          5    1    1    2  502    0  0.61624413210E+02 -0.19792246656E+03  0.10040638187E+03  0.23037882410E+03  0.47000000000E+01 0.  1.
         -5    1    1    2    0  502  0.84193711238E+01 -0.95750865939E+00  0.64098624848E+02  0.64826895193E+02  0.47000000000E+01 0.  1.
        -11    1    3    3    0    0  0.10437642513E+02  0.84898422661E+02  0.12713798566E+03  0.15323431061E+03  0.00000000000E+00 0.  1.
         11    1    3    3    0    0 -0.80481426847E+02  0.11398155255E+03  0.38678908646E+03  0.41118712504E+03  0.00000000000E+00 0. -1.
<mgrwt>
<rscale>  0 0.24212310E+03</rscale>
<asrwt>0</asrwt>
<pdfrwt beam="1">  1        2 0.11831224E+00 0.24512144E+03</pdfrwt>
<pdfrwt beam="2">  1       -2 0.13938083E-01 0.24512144E+03</pdfrwt>
<totfact> 0.14422996E+03</totfact>
</mgrwt>
</event>
<event>
 7    1  0.1378058E-005  0.1552737E+03  0.7546771E-02  0.1203594E+00
          2   -1    0    0  501    0  0.00000000000E+00  0.00000000000E+00  0.47277335533E+03  0.47277335533E+03  0.00000000000E+00 0. -1.
         -2   -1    0    0    0  501 -0.00000000000E+00 -0.00000000000E+00 -0.53710497434E+02  0.53710497434E+02  0.00000000000E+00 0.  1.
         23    2    1    2    0    0  0.28356796269E+02 -0.87642921044E+02  0.31540721530E+03  0.33979051624E+03  0.86547639829E+02 0.  0.
          5    1    1    2  502    0 -0.50315454709E+01  0.86171660567E+02  0.65387065409E+01  0.86693230519E+02  0.47000000000E+01 0.  1.
         -5    1    1    2    0  502 -0.23325250798E+02  0.14712604778E+01  0.97116936052E+02  0.10000010600E+03  0.47000000000E+01 0.  1.
        -11    1    3    3    0    0 -0.19321398774E+02  0.22090551977E+01  0.96020895690E+02  0.97970448527E+02  0.00000000000E+00 0. -1.
         11    1    3    3    0    0  0.47678195043E+02 -0.89851976242E+02  0.21938631961E+03  0.24182006772E+03  0.00000000000E+00 0.  1.
<mgrwt>
<rscale>  0 0.14748792E+03</rscale>
<asrwt>0</asrwt>
<pdfrwt beam="1">  1        2 0.72734360E-01 0.15527366E+03</pdfrwt>
<pdfrwt beam="2">  1       -2 0.82631538E-02 0.15527366E+03</pdfrwt>
<totfact> 0.57681808E+03</totfact>
</mgrwt>
</event>
<event>
 7    1  0.1378058E-005  0.1309535E+03  0.7546771E-02  0.1238853E+00
          2   -1    0    0  501    0  0.00000000000E+00  0.00000000000E+00  0.11659740151E+03  0.11659740151E+03  0.00000000000E+00 0. -1.
         -2   -1    0    0    0  501 -0.00000000000E+00 -0.00000000000E+00 -0.11525949585E+03  0.11525949585E+03  0.00000000000E+00 0.  1.
         23    2    1    2    0    0 -0.72240783211E+01  0.38341762718E+02 -0.49075458243E+01  0.10075452718E+03  0.92763746501E+02 0.  0.
          5    1    1    2  502    0  0.50081003870E+02 -0.57656051433E+02 -0.17107207194E+02  0.78403276421E+02  0.47000000000E+01 0.  1.
         -5    1    1    2    0  502 -0.42856925549E+02  0.19314288715E+02  0.23352658683E+02  0.52699093765E+02  0.47000000000E+01 0.  1.
        -11    1    3    3    0    0 -0.16408578860E+02  0.24050664328E+02 -0.47042792372E+02  0.55323595590E+02  0.00000000000E+00 0.  1.
         11    1    3    3    0    0  0.91845005390E+01  0.14291098390E+02  0.42135246548E+02  0.45430931588E+02  0.00000000000E+00 0. -1.
<mgrwt>
<rscale>  0 0.12260977E+03</rscale>
<asrwt>0</asrwt>
<pdfrwt beam="1">  1        2 0.17938062E-01 0.13095353E+03</pdfrwt>
<pdfrwt beam="2">  1       -2 0.17732230E-01 0.13095353E+03</pdfrwt>
<totfact> 0.76757576E+03</totfact>
</mgrwt>
</event>
<event>
 7    1  0.1378058E-005  0.1432008E+03  0.7546771E-02  0.1219616E+00
          1   -1    0    0  501    0  0.00000000000E+00  0.00000000000E+00  0.15863235815E+03  0.15863235815E+03  0.00000000000E+00 0.  1.
         -1   -1    0    0    0  501 -0.00000000000E+00 -0.00000000000E+00 -0.13486228918E+03  0.13486228918E+03  0.00000000000E+00 0. -1.
         23    2    1    2    0    0 -0.65053479507E+02 -0.25508269551E+02  0.79922211108E+02  0.13967806547E+03  0.90773207129E+02 0.  0.
          5    1    1    2  502    0 -0.28871779113E+02  0.25039068405E+01  0.15660888738E+02  0.33274654238E+02  0.47000000000E+01 0.  1.
         -5    1    1    2    0  502  0.93925258620E+02  0.23004362710E+02 -0.71813030879E+02  0.12054192762E+03  0.47000000000E+01 0.  1.
        -11    1    3    3    0    0 -0.73946539596E+01 -0.50242023032E+02  0.26534982108E+02  0.57297880074E+02  0.00000000000E+00 0.  1.
         11    1    3    3    0    0 -0.57658825547E+02  0.24733753482E+02  0.53387229001E+02  0.82380185392E+02  0.00000000000E+00 0. -1.
<mgrwt>
<rscale>  0 0.13542873E+03</rscale>
<asrwt>0</asrwt>
<pdfrwt beam="1">  1        1 0.24404978E-01 0.14320083E+03</pdfrwt>
<pdfrwt beam="2">  1       -1 0.20748045E-01 0.14320083E+03</pdfrwt>
<totfact> 0.36156102E+03</totfact>
</mgrwt>
</event>
<event>
 7    1  0.1378058E-005  0.1326838E+03  0.7546771E-02  0.1236844E+00
          3   -1    0    0  501    0  0.00000000000E+00  0.00000000000E+00  0.13446897152E+03  0.13446897152E+03  0.00000000000E+00 0. -1.
         -3   -1    0    0    0  501 -0.00000000000E+00 -0.00000000000E+00 -0.10812151062E+03  0.10812151062E+03  0.00000000000E+00 0.  1.
         23    2    1    2    0    0 -0.10371947841E+01 -0.44463756885E+02  0.41584781456E+02  0.10903466819E+03  0.90449783688E+02 0.  0.
          5    1    1    2  502    0  0.10376043032E+02  0.59092074664E+02 -0.60206001404E+02  0.85125719745E+02  0.47000000000E+01 0. -1.
         -5    1    1    2    0  502 -0.93388482475E+01 -0.14628317778E+02  0.44968680852E+02  0.48430094210E+02  0.47000000000E+01 0. -1.
        -11    1    3    3    0    0 -0.12003609289E+02 -0.19604978118E+02  0.67609960830E+02  0.71411123828E+02  0.00000000000E+00 0. -1.
         11    1    3    3    0    0  0.10966414505E+02 -0.24858778768E+02 -0.26025179374E+02  0.37623544362E+02  0.00000000000E+00 0.  1.
<mgrwt>
<rscale>  0 0.12387142E+03</rscale>
<asrwt>0</asrwt>
<pdfrwt beam="1">  1        3 0.20687534E-01 0.13268376E+03</pdfrwt>
<pdfrwt beam="2">  1       -3 0.16634079E-01 0.13268376E+03</pdfrwt>
<totfact> 0.15011938E+03</totfact>
</mgrwt>
</event>
<event>
 7    1  0.1378058E-005  0.1257338E+03  0.7546771E-02  0.1254732E+00
         -1   -1    0    0    0  501 -0.00000000000E+00  0.00000000000E+00  0.15596500996E+03  0.15596500996E+03  0.00000000000E+00 0.  1.
          1   -1    0    0  501    0  0.00000000000E+00 -0.00000000000E+00 -0.72693558270E+02  0.72693558270E+02  0.00000000000E+00 0. -1.
         23    2    1    2    0    0 -0.13180282179E+02 -0.31935609462E+01  0.10309914148E+02  0.83288797006E+02  0.81527974997E+02 0.  0.
          5    1    1    2  502    0 -0.29542874855E+02 -0.32117432243E+02  0.78016067358E+02  0.89514846113E+02  0.47000000000E+01 0.  1.
         -5    1    1    2    0  502  0.42723157034E+02  0.35310993189E+02 -0.50545298199E+01  0.55854925106E+02  0.47000000000E+01 0.  1.
        -11    1    3    3    0    0  0.28439295699E+01  0.36597656995E+02  0.15949141651E+02  0.40023137712E+02  0.00000000000E+00 0.  1.
         11    1    3    3    0    0 -0.16024211749E+02 -0.39791217941E+02 -0.56392275027E+01  0.43265659295E+02  0.00000000000E+00 0. -1.
<mgrwt>
<rscale>  0 0.11321328E+03</rscale>
<asrwt>0</asrwt>
<pdfrwt beam="2">  1        1 0.11183624E-01 0.12573378E+03</pdfrwt>
<pdfrwt beam="1">  1       -1 0.23994617E-01 0.12573378E+03</pdfrwt>
<totfact> 0.77260423E+03</totfact>
</mgrwt>
</event>
<event>
 7    1  0.1378058E-005  0.1354623E+03  0.7546771E-02  0.1230778E+00
          1   -1    0    0  501    0  0.00000000000E+00  0.00000000000E+00  0.13694742390E+03  0.13694742390E+03  0.00000000000E+00 0. -1.
         -1   -1    0    0    0  501 -0.00000000000E+00 -0.00000000000E+00 -0.21445716001E+03  0.21445716001E+03  0.00000000000E+00 0.  1.
         23    2    1    2    0    0  0.38373718375E+02  0.35413532901E+02  0.87131962984E+02  0.13819826547E+03  0.93702300025E+02 0.  0.
          5    1    1    2  502    0  0.44257712919E+02 -0.25780630452E+02 -0.52489700954E+02  0.73489079226E+02  0.47000000000E+01 0. -1.
         -5    1    1    2    0  502 -0.82631431294E+02 -0.96329024490E+01 -0.11215199814E+03  0.13971723922E+03  0.47000000000E+01 0. -1.
        -11    1    3    3    0    0  0.58147377458E+02  0.12008834239E+02  0.17148154010E+02  0.61801203798E+02  0.00000000000E+00 0.  1.
         11    1    3    3    0    0 -0.19773659082E+02  0.23404698661E+02  0.69983808974E+02  0.76397061668E+02  0.00000000000E+00 0. -1.
<mgrwt>
<rscale>  0 0.12778597E+03</rscale>
<asrwt>0</asrwt>
<pdfrwt beam="1">  1        1 0.21068834E-01 0.13546234E+03</pdfrwt>
<pdfrwt beam="2">  1       -1 0.32993409E-01 0.13546234E+03</pdfrwt>
<totfact> 0.20159682E+03</totfact>
</mgrwt>
</event>
<event>
 7    1  0.1378058E-005  0.1633319E+03  0.7546771E-02  0.1192260E+00
         -2   -1    0    0    0  501 -0.00000000000E+00  0.00000000000E+00  0.22103855086E+03  0.22103855086E+03  0.00000000000E+00 0. -1.
          2   -1    0    0  501    0  0.00000000000E+00 -0.00000000000E+00 -0.17763173140E+03  0.17763173140E+03  0.00000000000E+00 0.  1.
         23    2    1    2    0    0 -0.52686334502E+02  0.90967339695E+02 -0.10792842053E+03  0.17600536024E+03  0.90985911756E+02 0.  0.
          5    1    1    2  502    0 -0.14276753710E+02 -0.39543671694E+02 -0.72716788117E+01  0.42924293591E+02  0.47000000000E+01 0. -1.
         -5    1    1    2    0  502  0.66963088212E+02 -0.51423668001E+02  0.15860691881E+03  0.17974062843E+03  0.47000000000E+01 0. -1.
        -11    1    3    3    0    0 -0.17989715761E+02  0.83879059011E+02 -0.30821974301E+02  0.91155474402E+02  0.00000000000E+00 0. -1.
         11    1    3    3    0    0 -0.34696618741E+02  0.70882806842E+01 -0.77106446233E+02  0.84849885833E+02  0.00000000000E+00 0.  1.
<mgrwt>
<rscale>  0 0.15688464E+03</rscale>
<asrwt>0</asrwt>
<pdfrwt beam="2">  1        2 0.27327959E-01 0.16333191E+03</pdfrwt>
<pdfrwt beam="1">  1       -2 0.34005931E-01 0.16333191E+03</pdfrwt>
<totfact> 0.15527565E+03</totfact>
</mgrwt>
</event>
<event>
 7    1  0.1378058E-005  0.2178926E+03  0.7546771E-02  0.1138948E+00
         -2   -1    0    0    0  501 -0.00000000000E+00  0.00000000000E+00  0.48336803062E+03  0.48336803062E+03  0.00000000000E+00 0.  1.
          2   -1    0    0  501    0  0.00000000000E+00 -0.00000000000E+00 -0.90454470898E+02  0.90454470898E+02  0.00000000000E+00 0. -1.
         23    2    1    2    0    0  0.23957977805E+02 -0.17685559266E+03  0.19315325812E+03  0.27821914227E+03  0.90806523154E+02 0.  0.
          5    1    1    2  502    0 -0.11072602682E+02  0.16480202675E+03  0.97784615102E+02  0.19200581111E+03  0.47000000000E+01 0.  1.
         -5    1    1    2    0  502 -0.12885375123E+02  0.12053565912E+02  0.10197568650E+03  0.10359754814E+03  0.47000000000E+01 0.  1.
        -11    1    3    3    0    0  0.19625510431E+02 -0.63793102269E+02  0.13591720451E+03  0.15142062950E+03  0.00000000000E+00 0.  1.
         11    1    3    3    0    0  0.43324673736E+01 -0.11306249039E+03  0.57236053604E+02  0.12679851276E+03  0.00000000000E+00 0. -1.
<mgrwt>
<rscale>  0 0.21333973E+03</rscale>
<asrwt>0</asrwt>
<pdfrwt beam="2">  1        2 0.13916073E-01 0.21789256E+03</pdfrwt>
<pdfrwt beam="1">  1       -2 0.74364311E-01 0.21789256E+03</pdfrwt>
<totfact> 0.71072928E+02</totfact>
</mgrwt>
</event>
<event>
 6    1  0.1378058E-005  0.1190010E+03  0.7546771E-02  0.1278145E+00
          2   -1    0    0  501    0  0.00000000000E+00  0.00000000000E+00  0.19254384552E+03  0.19254384552E+03  0.00000000000E+00 0. -1.
         -2   -1    0    0    0  501 -0.00000000000E+00 -0.00000000000E+00 -0.53014312441E+02  0.53014312441E+02  0.00000000000E+00 0.  1.
          5    1    1    2  502    0  0.11635758806E+02 -0.72781616869E+02  0.51383560063E+02  0.89971744908E+02  0.47000000000E+01 0. -1.
         -5    1    1    2    0  502 -0.35628286426E+01  0.29170650693E+02 -0.16510322803E+02  0.34033826832E+02  0.47000000000E+01 0.  1.
        -11    1    1    2    0    0 -0.37741868452E+01  0.29039524550E+02  0.10201192714E+03  0.10613186021E+03  0.00000000000E+00 0. -1.
         11    1    1    2    0    0 -0.42987433178E+01  0.14571441626E+02  0.26443686844E+01  0.15420726018E+02  0.00000000000E+00 0.  1.
<mgrwt>
<rscale>  0 0.10103006E+03</rscale>
<asrwt>0</asrwt>
<pdfrwt beam="1">  1        2 0.29622130E-01 0.11900100E+03</pdfrwt>
<pdfrwt beam="2">  1       -2 0.81560482E-02 0.11900100E+03</pdfrwt>
<totfact> 0.15076372E+04</totfact>
</mgrwt>
</event>
<event>
 7    1  0.1378058E-005  0.3012978E+03  0.7546771E-02  0.1105372E+00
          2   -1    0    0  501    0  0.00000000000E+00  0.00000000000E+00  0.10092347414E+03  0.10092347414E+03  0.00000000000E+00 0. -1.
         -2   -1    0    0    0  501 -0.00000000000E+00 -0.00000000000E+00 -0.57352154758E+03  0.57352154758E+03  0.00000000000E+00 0.  1.
         23    2    1    2    0    0  0.10807298463E+03  0.10242952703E+03 -0.12789565527E+03  0.21662397045E+03  0.91635516721E+02 0.  0.
          5    1    1    2  502    0 -0.93622998542E+02  0.67530969386E+02 -0.71999559159E+02  0.13613127562E+03  0.47000000000E+01 0. -1.
         -5    1    1    2    0  502 -0.14449986086E+02 -0.16996049642E+03 -0.27270285901E+03  0.32168977565E+03  0.47000000000E+01 0.  1.
        -11    1    3    3    0    0  0.13408207154E+02  0.62354815513E+02 -0.18281004204E+02  0.66348309334E+02  0.00000000000E+00 0. -1.
         11    1    3    3    0    0  0.94664777475E+02  0.40074711519E+02 -0.10961465106E+03  0.15027566112E+03  0.00000000000E+00 0.  1.
<mgrwt>
<rscale>  0 0.26297017E+03</rscale>
<asrwt>0</asrwt>
<pdfrwt beam="1">  1        2 0.15526688E-01 0.30129779E+03</pdfrwt>
<pdfrwt beam="2">  1       -2 0.88234084E-01 0.30129779E+03</pdfrwt>
<totfact> 0.42870497E+02</totfact>
</mgrwt>
</event>
<event>
 7    1  0.1378058E-005  0.1328197E+03  0.7546771E-02  0.1241061E+00
         -2   -1    0    0    0  501 -0.00000000000E+00  0.00000000000E+00  0.15487824082E+03  0.15487824082E+03  0.00000000000E+00 0.  1.
          2   -1    0    0  501    0  0.00000000000E+00 -0.00000000000E+00 -0.82115423452E+02  0.82115423452E+02  0.00000000000E+00 0. -1.
         23    2    1    2    0    0 -0.15829936144E+02 -0.42020236440E+02  0.37653157540E+02  0.99611855992E+02  0.80551067235E+02 0.  0.
          5    1    1    2  502    0  0.68534250933E+02  0.38490210588E+02  0.12488745678E+02  0.79727652861E+02  0.47000000000E+01 0.  1.
         -5    1    1    2    0  502 -0.52704314790E+02  0.35300258519E+01  0.22620914147E+02  0.57654155417E+02  0.47000000000E+01 0.  1.
        -11    1    3    3    0    0 -0.42502228924E+02 -0.15526801182E+01  0.25701229969E+02  0.49693093092E+02  0.00000000000E+00 0. -1.
         11    1    3    3    0    0  0.26672292781E+02 -0.40467556322E+02  0.11951927571E+02  0.49918762900E+02  0.00000000000E+00 0.  1.
<mgrwt>
<rscale>  0 0.12124243E+03</rscale>
<asrwt>0</asrwt>
<pdfrwt beam="2">  1        2 0.12633142E-01 0.13281970E+03</pdfrwt>
<pdfrwt beam="1">  1       -2 0.23827422E-01 0.13281970E+03</pdfrwt>
<totfact> 0.70110258E+03</totfact>
</mgrwt>
</event>
<event>
 7    1  0.1378058E-005  0.2090443E+03  0.7546771E-02  0.1165702E+00
         -2   -1    0    0    0  501 -0.00000000000E+00  0.00000000000E+00  0.47521079906E+02  0.47521079906E+02  0.00000000000E+00 0.  1.
          2   -1    0    0  501    0  0.00000000000E+00 -0.00000000000E+00 -0.59661695047E+03  0.59661695047E+03  0.00000000000E+00 0. -1.
         23    2    1    2    0    0  0.33187378546E+02  0.63834405809E+02 -0.26749180697E+03  0.29342391950E+03  0.96796158379E+02 0.  0.
          5    1    1    2  502    0 -0.10256170003E+03 -0.67591110723E+02 -0.23986842068E+03  0.26952997941E+03  0.47000000000E+01 0. -1.
         -5    1    1    2    0  502  0.69374321484E+02  0.37567049145E+01 -0.41735642917E+02  0.81184131472E+02  0.47000000000E+01 0.  1.
        -11    1    3    3    0    0 -0.80376299822E+01 -0.19845461541E+02 -0.94379971614E+02  0.96778225244E+02  0.00000000000E+00 0.  1.
         11    1    3    3    0    0  0.41225008528E+02  0.83679867349E+02 -0.17311183536E+03  0.19664569425E+03  0.00000000000E+00 0. -1.
<mgrwt>
<rscale>  0 0.18218842E+03</rscale>
<asrwt>0</asrwt>
<pdfrwt beam="2">  1        2 0.91787223E-01 0.20904435E+03</pdfrwt>
<pdfrwt beam="1">  1       -2 0.73109354E-02 0.20904435E+03</pdfrwt>
<totfact> 0.54483364E+03</totfact>
</mgrwt>
</event>
<event>
 7    1  0.1378058E-005  0.1517785E+03  0.7546771E-02  0.1207350E+00
         -1   -1    0    0    0  501 -0.00000000000E+00  0.00000000000E+00  0.72696622019E+03  0.72696622019E+03  0.00000000000E+00 0.  1.
          1   -1    0    0  501    0  0.00000000000E+00 -0.00000000000E+00 -0.27558479647E+02  0.27558479647E+02  0.00000000000E+00 0. -1.
         23    2    1    2    0    0  0.33933892685E+02  0.79135520433E+02  0.23725771904E+03  0.26808935031E+03  0.90369988606E+02 0.  0.
          5    1    1    2  502    0 -0.45406317927E+02 -0.70197343910E+02  0.13454162351E+03  0.15847062584E+03  0.47000000000E+01 0. -1.
         -5    1    1    2    0  502  0.11472425242E+02 -0.89381765237E+01  0.32760839800E+03  0.32796472369E+03  0.47000000000E+01 0. -1.
        -11    1    3    3    0    0 -0.26747943719E+02  0.46556658212E+02  0.12963741459E+03  0.14031690624E+03  0.00000000000E+00 0.  1.
         11    1    3    3    0    0  0.60681836404E+02  0.32578862221E+02  0.10762030445E+03  0.12777244407E+03  0.00000000000E+00 0. -1.
<mgrwt>
<rscale>  0 0.14453763E+03</rscale>
<asrwt>0</asrwt>
<pdfrwt beam="2">  1        1 0.42397667E-02 0.15177848E+03</pdfrwt>
<pdfrwt beam="1">  1       -1 0.11184094E+00 0.15177848E+03</pdfrwt>
<totfact> 0.16020196E+03</totfact>
</mgrwt>
</event>
<event>
 7    1  0.1378058E-005  0.1280276E+03  0.7546771E-02  0.1245661E+00
         -2   -1    0    0    0  501 -0.00000000000E+00  0.00000000000E+00  0.27198061092E+03  0.27198061092E+03  0.00000000000E+00 0.  1.
          2   -1    0    0  501    0  0.00000000000E+00 -0.00000000000E+00 -0.45250875087E+02  0.45250875087E+02  0.00000000000E+00 0. -1.
         23    2    1    2    0    0  0.27195530267E+02  0.45005925747E+01  0.94064013509E+02  0.13286430225E+03  0.89694102230E+02 0.  0.
          5    1    1    2  502    0  0.13901633787E+02  0.54010092724E+02  0.65488651568E+02  0.86146381365E+02  0.47000000000E+01 0.  1.
         -5    1    1    2    0  502 -0.41097164054E+02 -0.58510685299E+02  0.67177070758E+02  0.98220802395E+02  0.47000000000E+01 0.  1.
        -11    1    3    3    0    0  0.17731776817E+02  0.42080134425E+02  0.21219322803E+02  0.50352887530E+02  0.00000000000E+00 0. -1.
         11    1    3    3    0    0  0.94637534497E+01 -0.37579541851E+02  0.72844690705E+02  0.82511414720E+02  0.00000000000E+00 0.  1.
<mgrwt>
<rscale>  0 0.11845902E+03</rscale>
<asrwt>0</asrwt>
<pdfrwt beam="2">  1        2 0.69616732E-02 0.12802759E+03</pdfrwt>
<pdfrwt beam="1">  1       -2 0.41843170E-01 0.12802759E+03</pdfrwt>
<totfact> 0.52471490E+03</totfact>
</mgrwt>
</event>
<event>
 7    1  0.1378058E-005  0.1978359E+03  0.7546771E-02  0.1156041E+00
         -1   -1    0    0    0  501 -0.00000000000E+00  0.00000000000E+00  0.56352724405E+02  0.56352724405E+02  0.00000000000E+00 0.  1.
          1   -1    0    0  501    0  0.00000000000E+00 -0.00000000000E+00 -0.64150118633E+03  0.64150118633E+03  0.00000000000E+00 0. -1.
         23    2    1    2    0    0 -0.11735850351E+03 -0.98700333384E+02 -0.32993233666E+03  0.37493857253E+03  0.90602495781E+02 0.  0.
          5    1    1    2  502    0  0.52110935743E+02  0.54088766510E+02 -0.24739336921E+02  0.79216595975E+02  0.47000000000E+01 0.  1.
         -5    1    1    2    0  502  0.65247567765E+02  0.44611566874E+02 -0.23047678834E+03  0.24369874223E+03  0.47000000000E+01 0.  1.
        -11    1    3    3    0    0 -0.17517703292E+02 -0.62740161235E+02 -0.78354823948E+02  0.10189541794E+03  0.00000000000E+00 0.  1.
         11    1    3    3    0    0 -0.99840800215E+02 -0.35960172149E+02 -0.25157751271E+03  0.27304315460E+03  0.00000000000E+00 0. -1.
<mgrwt>
<rscale>  0 0.19270883E+03</rscale>
<asrwt>0</asrwt>
<pdfrwt beam="2">  1        1 0.98692492E-01 0.19783590E+03</pdfrwt>
<pdfrwt beam="1">  1       -1 0.86696498E-02 0.19783590E+03</pdfrwt>
<totfact> 0.24127912E+03</totfact>
</mgrwt>
</event>
<event>
 7    1  0.1378058E-005  0.1483729E+03  0.7546771E-02  0.1214763E+00
         -3   -1    0    0    0  501 -0.00000000000E+00  0.00000000000E+00  0.32623560736E+03  0.32623560736E+03  0.00000000000E+00 0.  1.
          3   -1    0    0  501    0  0.00000000000E+00 -0.00000000000E+00 -0.83535184086E+02  0.83535184086E+02  0.00000000000E+00 0. -1.
         23    2    1    2    0    0 -0.46725948546E+02 -0.14332453531E+02 -0.12297113642E+02  0.11474829964E+03  0.10308840756E+03 0.  0.
          5    1    1    2  502    0 -0.34164274016E+02  0.58642466499E+01  0.93370668886E+01  0.36205770616E+02  0.47000000000E+01 0. -1.
         -5    1    1    2    0  502  0.80890222563E+02  0.84682068812E+01  0.24566047003E+03  0.25881672119E+03  0.47000000000E+01 0.  1.
        -11    1    3    3    0    0  0.92815849056E-01 -0.27203640752E+02  0.36755661759E+02  0.45727730715E+02  0.00000000000E+00 0.  1.
         11    1    3    3    0    0 -0.46818764396E+02  0.12871187221E+02 -0.49052775401E+02  0.69020568924E+02  0.00000000000E+00 0. -1.
<mgrwt>
<rscale>  0 0.13893943E+03</rscale>
<asrwt>0</asrwt>
<pdfrwt beam="2">  1        3 0.12851567E-01 0.14837293E+03</pdfrwt>
<pdfrwt beam="1">  1       -3 0.50190093E-01 0.14837293E+03</pdfrwt>
<totfact> 0.45070733E+02</totfact>
</mgrwt>
</event>
<event>
 7    1  0.1378058E-005  0.1343894E+03  0.7546771E-02  0.1233537E+00
         -2   -1    0    0    0  501 -0.00000000000E+00  0.00000000000E+00  0.19816540385E+02  0.19816540385E+02  0.00000000000E+00 0.  1.
          2   -1    0    0  501    0  0.00000000000E+00 -0.00000000000E+00 -0.72032132731E+03  0.72032132731E+03  0.00000000000E+00 0. -1.
         23    2    1    2    0    0  0.27668543172E+02 -0.40904340014E+02 -0.33485297454E+03  0.35057174647E+03  0.91297982173E+02 0.  0.
          5    1    1    2  502    0 -0.35081906842E+02  0.75664986293E+02 -0.15683754800E+03  0.17769647380E+03  0.47000000000E+01 0. -1.
         -5    1    1    2    0  502  0.74133636700E+01 -0.34760646279E+02 -0.20881426439E+03  0.21186964743E+03  0.47000000000E+01 0. -1.
        -11    1    3    3    0    0  0.29431254997E+02 -0.69259618846E+02 -0.25084779498E+03  0.26189255396E+03  0.00000000000E+00 0.  1.
         11    1    3    3    0    0 -0.17627118249E+01  0.28355278832E+02 -0.84005179554E+02  0.88679192501E+02  0.00000000000E+00 0. -1.
<mgrwt>
<rscale>  0 0.12598565E+03</rscale>
<asrwt>0</asrwt>
<pdfrwt beam="2">  1        2 0.11081866E+00 0.13438942E+03</pdfrwt>
<pdfrwt beam="1">  1       -2 0.30486986E-02 0.13438942E+03</pdfrwt>
<totfact> 0.15899478E+04</totfact>
</mgrwt>
</event>
<event>
 7    1  0.1378058E-005  0.1329684E+03  0.7546771E-02  0.1233384E+00
          4   -1    0    0  501    0  0.00000000000E+00  0.00000000000E+00  0.17336945244E+03  0.17336945244E+03  0.00000000000E+00 0. -1.
         -4   -1    0    0    0  501 -0.00000000000E+00 -0.00000000000E+00 -0.10437643350E+03  0.10437643350E+03  0.00000000000E+00 0.  1.
         23    2    1    2    0    0  0.45153540475E+02 -0.37368578654E+01  0.93578174359E+02  0.14252378317E+03  0.97485115415E+02 0.  0.
          5    1    1    2  502    0  0.13118257043E+02 -0.39610196369E+02 -0.43051212283E+02  0.60137785155E+02  0.47000000000E+01 0.  1.
         -5    1    1    2    0  502 -0.58271797518E+02  0.43347054235E+02  0.18466056862E+02  0.75084317623E+02  0.47000000000E+01 0.  1.
        -11    1    3    3    0    0 -0.66347042916E+01 -0.38033384169E+02  0.12903654420E+02  0.40707025312E+02  0.00000000000E+00 0.  1.
         11    1    3    3    0    0  0.51788244766E+02  0.34296526304E+02  0.80674519939E+02  0.10181675785E+03  0.00000000000E+00 0. -1.
<mgrwt>
<rscale>  0 0.12608485E+03</rscale>
<asrwt>0</asrwt>
<pdfrwt beam="1">  1        4 0.26672223E-01 0.13296837E+03</pdfrwt>
<pdfrwt beam="2">  1       -4 0.16057913E-01 0.13296837E+03</pdfrwt>
<totfact> 0.73111113E+02</totfact>
</mgrwt>
</event>
<event>
 7    1  0.1378058E-005  0.1335873E+03  0.7546771E-02  0.1234592E+00
         -2   -1    0    0    0  501 -0.00000000000E+00  0.00000000000E+00  0.46675875052E+02  0.46675875052E+02  0.00000000000E+00 0.  1.
          2   -1    0    0  501    0  0.00000000000E+00 -0.00000000000E+00 -0.32882199580E+03  0.32882199580E+03  0.00000000000E+00 0. -1.
         23    2    1    2    0    0 -0.15264116685E+02 -0.44571664944E+02 -0.17898684959E+03  0.20671574786E+03  0.92062378391E+02 0.  0.
          5    1    1    2  502    0 -0.51108912407E+02  0.41722488433E+02 -0.60872984920E+02  0.89891586155E+02  0.47000000000E+01 0. -1.
         -5    1    1    2    0  502  0.66373029092E+02  0.28491765108E+01 -0.42286286238E+02  0.78890536831E+02  0.47000000000E+01 0. -1.
        -11    1    3    3    0    0 -0.41113599447E+02  0.21736453233E+01 -0.38306504903E+02  0.56235585810E+02  0.00000000000E+00 0.  1.
         11    1    3    3    0    0  0.25849482762E+02 -0.46745310267E+02 -0.14068034468E+03  0.15048016205E+03  0.00000000000E+00 0. -1.
<mgrwt>
<rscale>  0 0.12530605E+03</rscale>
<asrwt>0</asrwt>
<pdfrwt beam="2">  1        2 0.50587999E-01 0.13358731E+03</pdfrwt>
<pdfrwt beam="1">  1       -2 0.71809039E-02 0.13358731E+03</pdfrwt>
<totfact> 0.10472525E+04</totfact>
</mgrwt>
</event>
<event>
 7    1  0.1378058E-005  0.1265756E+03  0.7546771E-02  0.1247956E+00
         -2   -1    0    0    0  501 -0.00000000000E+00  0.00000000000E+00  0.86377721492E+02  0.86377721492E+02  0.00000000000E+00 0.  1.
          2   -1    0    0  501    0  0.00000000000E+00 -0.00000000000E+00 -0.15684573935E+03  0.15684573935E+03  0.00000000000E+00 0. -1.
         23    2    1    2    0    0 -0.20189886414E+01 -0.19787478320E+02 -0.70768603202E+02  0.11664749149E+03  0.90569428935E+02 0.  0.
          5    1    1    2  502    0 -0.10888483403E+02  0.61285285485E+02 -0.33937335838E+02  0.71051235398E+02  0.47000000000E+01 0. -1.
         -5    1    1    2    0  502  0.12907472044E+02 -0.41497807165E+02  0.34237921182E+02  0.55524733956E+02  0.47000000000E+01 0. -1.
        -11    1    3    3    0    0  0.36924189631E+02 -0.31611729725E+02 -0.53930851983E+02  0.72603264607E+02  0.00000000000E+00 0. -1.
         11    1    3    3    0    0 -0.38943178273E+02  0.11824251404E+02 -0.16837751219E+02  0.44044226879E+02  0.00000000000E+00 0.  1.
<mgrwt>
<rscale>  0 0.11710219E+03</rscale>
<asrwt>0</asrwt>
<pdfrwt beam="2">  1        2 0.24130114E-01 0.12657561E+03</pdfrwt>
<pdfrwt beam="1">  1       -2 0.13288880E-01 0.12657561E+03</pdfrwt>
<totfact> 0.87946480E+03</totfact>
</mgrwt>
</event>
<event>
 7    1  0.1378058E-005  0.2712502E+03  0.7546771E-02  0.1102645E+00
         -1   -1    0    0    0  501 -0.00000000000E+00  0.00000000000E+00  0.15259253791E+03  0.15259253791E+03  0.00000000000E+00 0.  1.
          1   -1    0    0  501    0  0.00000000000E+00 -0.00000000000E+00 -0.80432705763E+03  0.80432705763E+03  0.00000000000E+00 0. -1.
         23    2    1    2    0    0  0.69143429119E+02 -0.23057739837E+03 -0.63511476926E+03  0.68516067466E+03  0.90153366752E+02 0.  0.
          5    1    1    2  502    0 -0.62680857325E+01  0.88082369329E+02 -0.63695790254E+02  0.10898181675E+03  0.47000000000E+01 0.  1.
         -5    1    1    2    0  502 -0.62875343387E+02  0.14249502905E+03  0.47076039788E+02  0.16277710414E+03  0.47000000000E+01 0.  1.
        -11    1    3    3    0    0  0.24850835251E+02 -0.11135742863E+03 -0.42037978895E+03  0.43558834681E+03  0.00000000000E+00 0.  1.
         11    1    3    3    0    0  0.44292593868E+02 -0.11921996974E+03 -0.21473498031E+03  0.24957232784E+03  0.00000000000E+00 0. -1.
<mgrwt>
<rscale>  0 0.26762812E+03</rscale>
<asrwt>0</asrwt>
<pdfrwt beam="2">  1        1 0.12374262E+00 0.27125024E+03</pdfrwt>
<pdfrwt beam="1">  1       -1 0.23475775E-01 0.27125024E+03</pdfrwt>
<totfact> 0.35597868E+02</totfact>
</mgrwt>
</event>
<event>
 7    1  0.1389665E-005  0.2281331E+03  0.7546771E-02  0.1131641E+00
         -1   -1    0    0    0  501 -0.00000000000E+00  0.00000000000E+00  0.62976520275E+03  0.62976520275E+03  0.00000000000E+00 0.  1.
          1   -1    0    0  501    0  0.00000000000E+00 -0.00000000000E+00 -0.76398445546E+02  0.76398445546E+02  0.00000000000E+00 0. -1.
         23    2    1    2    0    0 -0.18202673251E+03 -0.57319344790E+02  0.22943235966E+03  0.30995889851E+03  0.83761998990E+02 0.  0.
          5    1    1    2  502    0  0.13878100176E+03  0.11679009424E+01  0.28038079312E+03  0.31288497822E+03  0.47000000000E+01 0. -1.
         -5    1    1    2    0  502  0.43245730755E+02  0.56151443848E+02  0.43553604422E+02  0.83319771561E+02  0.47000000000E+01 0. -1.
        -11    1    3    3    0    0 -0.58718047825E+02  0.46663048108E+01  0.12053702324E+03  0.13415944809E+03  0.00000000000E+00 0.  1.
         11    1    3    3    0    0 -0.12330868469E+03 -0.61985649601E+02  0.10889533642E+03  0.17579945043E+03  0.00000000000E+00 0. -1.
<mgrwt>
<rscale>  0 0.22303426E+03</rscale>
<asrwt>0</asrwt>
<pdfrwt beam="2">  1        1 0.11753607E-01 0.22813310E+03</pdfrwt>
<pdfrwt beam="1">  1       -1 0.96886951E-01 0.22813310E+03</pdfrwt>
<totfact> 0.55819095E+02</totfact>
</mgrwt>
</event>
<event>
 7    1  0.1378058E-005  0.2345253E+03  0.7546771E-02  0.1126416E+00
          2   -1    0    0  501    0  0.00000000000E+00  0.00000000000E+00  0.34572618920E+03  0.34572618920E+03  0.00000000000E+00 0. -1.
         -2   -1    0    0    0  501 -0.00000000000E+00 -0.00000000000E+00 -0.14934821803E+03  0.14934821803E+03  0.00000000000E+00 0.  1.
         23    2    1    2    0    0 -0.19803552630E+03 -0.12681657607E+02  0.11659397367E+03  0.24734955289E+03  0.90602166087E+02 0.  0.
          5    1    1    2  502    0  0.48544663199E+02 -0.39665478776E+02  0.61956155691E+02  0.88264317590E+02  0.47000000000E+01 0.  1.
         -5    1    1    2    0  502  0.14949086310E+03  0.52347136384E+02  0.17827841815E+02  0.15946053676E+03  0.47000000000E+01 0.  1.
        -11    1    3    3    0    0 -0.16778222299E+03 -0.72014345330E+00  0.53064749859E+02  0.17597517051E+03  0.00000000000E+00 0.  1.
         11    1    3    3    0    0 -0.30253303314E+02 -0.11961514154E+02  0.63529223807E+02  0.71374382377E+02  0.00000000000E+00 0. -1.
<mgrwt>
<rscale>  0 0.23031862E+03</rscale>
<asrwt>0</asrwt>
<pdfrwt beam="1">  1        2 0.53188644E-01 0.23452530E+03</pdfrwt>
<pdfrwt beam="2">  1       -2 0.22976649E-01 0.23452530E+03</pdfrwt>
<totfact> 0.15403551E+03</totfact>
</mgrwt>
</event>
<event>
 7    1  0.1378058E-005  0.1603167E+03  0.7546771E-02  0.1194698E+00
          2   -1    0    0  501    0  0.00000000000E+00  0.00000000000E+00  0.39619668925E+03  0.39619668925E+03  0.00000000000E+00 0. -1.
         -2   -1    0    0    0  501 -0.00000000000E+00 -0.00000000000E+00 -0.84255919933E+02  0.84255919933E+02  0.00000000000E+00 0.  1.
         23    2    1    2    0    0 -0.78786375876E+02  0.72271511107E+02  0.28587283441E+03  0.31803037382E+03  0.89384433052E+02 0.  0.
          5    1    1    2  502    0 -0.22319195958E+02  0.76717762508E+00 -0.19023765259E+02  0.29710750821E+02  0.47000000000E+01 0. -1.
         -5    1    1    2    0  502  0.10110557183E+03 -0.73038688732E+02  0.45091700164E+02  0.13271148455E+03  0.47000000000E+01 0.  1.
        -11    1    3    3    0    0  0.14663529244E+00  0.41317402634E+02  0.38287856686E+02  0.56330357996E+02  0.00000000000E+00 0.  1.
         11    1    3    3    0    0 -0.78933011169E+02  0.30954108473E+02  0.24758497773E+03  0.26170001582E+03  0.00000000000E+00 0. -1.
<mgrwt>
<rscale>  0 0.15479800E+03</rscale>
<asrwt>0</asrwt>
<pdfrwt beam="1">  1        2 0.60953336E-01 0.16031670E+03</pdfrwt>
<pdfrwt beam="2">  1       -2 0.12962449E-01 0.16031670E+03</pdfrwt>
<totfact> 0.34311479E+03</totfact>
</mgrwt>
</event>
<event>
 7    1  0.1378058E-005  0.1170163E+03  0.7546771E-02  0.1258828E+00
          1   -1    0    0  501    0  0.00000000000E+00  0.00000000000E+00  0.25139146667E+02  0.25139146667E+02  0.00000000000E+00 0. -1.
         -1   -1    0    0    0  501 -0.00000000000E+00 -0.00000000000E+00 -0.67003114859E+03  0.67003114859E+03  0.00000000000E+00 0.  1.
         23    2    1    2    0    0  0.14302340236E+02 -0.19613612065E+02 -0.99100846650E+02  0.13697607453E+03  0.91390461598E+02 0.  0.
          5    1    1    2  502    0  0.29300220414E+02  0.15671326761E+01 -0.38222469555E+02  0.48414935713E+02  0.47000000000E+01 0. -1.
         -5    1    1    2    0  502 -0.43602560650E+02  0.18046479389E+02 -0.50756868572E+03  0.50977928502E+03  0.47000000000E+01 0.  1.
        -11    1    3    3    0    0 -0.34909062091E+02 -0.20874334331E+02 -0.66431960151E+02  0.77894709572E+02  0.00000000000E+00 0.  1.
         11    1    3    3    0    0  0.49211402327E+02  0.12607222660E+01 -0.32668886498E+02  0.59081364953E+02  0.00000000000E+00 0. -1.
<mgrwt>
<rscale>  0 0.11094577E+03</rscale>
<asrwt>0</asrwt>
<pdfrwt beam="1">  1        1 0.38675610E-02 0.11701625E+03</pdfrwt>
<pdfrwt beam="2">  1       -1 0.10308171E+00 0.11701625E+03</pdfrwt>
<totfact> 0.21583092E+03</totfact>
</mgrwt>
</event>
<event>
 7    1  0.1378058E-005  0.1327722E+03  0.7546771E-02  0.1236524E+00
          1   -1    0    0  501    0  0.00000000000E+00  0.00000000000E+00  0.22554149504E+03  0.22554149504E+03  0.00000000000E+00 0. -1.
         -1   -1    0    0    0  501 -0.00000000000E+00 -0.00000000000E+00 -0.61656299842E+02  0.61656299842E+02  0.00000000000E+00 0.  1.
         23    2    1    2    0    0  0.43805825394E+02  0.90743242681E+01  0.88749402369E+02  0.13464012486E+03  0.90830683709E+02 0.  0.
          5    1    1    2  502    0 -0.13073351740E+02 -0.27998291218E+02  0.10241172479E+03  0.10707505877E+03  0.47000000000E+01 0. -1.
         -5    1    1    2    0  502 -0.30732473654E+02  0.18923966950E+02 -0.27275931956E+02  0.45482611250E+02  0.47000000000E+01 0. -1.
        -11    1    3    3    0    0  0.19936436401E+02 -0.77639052313E+01 -0.15471654014E+02  0.26402874820E+02  0.00000000000E+00 0.  1.
         11    1    3    3    0    0  0.23869388993E+02  0.16838229499E+02  0.10422105638E+03  0.10823725004E+03  0.00000000000E+00 0. -1.
<mgrwt>
<rscale>  0 0.12407344E+03</rscale>
<asrwt>0</asrwt>
<pdfrwt beam="1">  1        1 0.34698691E-01 0.13277219E+03</pdfrwt>
<pdfrwt beam="2">  1       -1 0.94855847E-02 0.13277219E+03</pdfrwt>
<totfact> 0.78827465E+03</totfact>
</mgrwt>
</event>
<event>
 7    1  0.1378058E-005  0.1504202E+03  0.7546771E-02  0.1209242E+00
         -1   -1    0    0    0  501 -0.00000000000E+00  0.00000000000E+00  0.50272333535E+03  0.50272333535E+03  0.00000000000E+00 0.  1.
          1   -1    0    0  501    0  0.00000000000E+00 -0.00000000000E+00 -0.38044541883E+02  0.38044541883E+02  0.00000000000E+00 0. -1.
         23    2    1    2    0    0 -0.29125545057E+02 -0.78422417054E+02  0.16997189982E+03  0.20989269249E+03  0.90366602036E+02 0.  0.
          5    1    1    2  502    0 -0.29425824994E+02 -0.23092778652E+01  0.16238779942E+03  0.16511541218E+03  0.47000000000E+01 0. -1.
         -5    1    1    2    0  502  0.58551370051E+02  0.80731694920E+02  0.13231909424E+03  0.16575977256E+03  0.47000000000E+01 0. -1.
        -11    1    3    3    0    0 -0.45557693336E+02 -0.18127090383E+02  0.32338821681E+02  0.58735800118E+02  0.00000000000E+00 0. -1.
         11    1    3    3    0    0  0.16432148279E+02 -0.60295326671E+02  0.13763307814E+03  0.15115689238E+03  0.00000000000E+00 0.  1.
<mgrwt>
<rscale>  0 0.14308137E+03</rscale>
<asrwt>0</asrwt>
<pdfrwt beam="2">  1        1 0.58530068E-02 0.15042019E+03</pdfrwt>
<pdfrwt beam="1">  1       -1 0.77342047E-01 0.15042019E+03</pdfrwt>
<totfact> 0.22786468E+03</totfact>
</mgrwt>
</event>
<event>
 6    1  0.1378058E-005  0.1407778E+03  0.7546771E-02  0.1276506E+00
          4   -1    0    0  501    0  0.00000000000E+00  0.00000000000E+00  0.10532722002E+03  0.10532722002E+03  0.00000000000E+00 0. -1.
         -4   -1    0    0    0  501 -0.00000000000E+00 -0.00000000000E+00 -0.13695817936E+03  0.13695817936E+03  0.00000000000E+00 0.  1.
          5    1    1    2  502    0 -0.97969464978E+01  0.15742419583E+02  0.33902289522E+02  0.38926330033E+02  0.47000000000E+01 0. -1.
         -5    1    1    2    0  502  0.16159069731E+02 -0.19304415065E+02 -0.12768781095E+03  0.13023073002E+03  0.47000000000E+01 0.  1.
        -11    1    1    2    0    0 -0.87697833053E+01  0.18628609584E+02  0.48354100194E+02  0.52555239509E+02  0.00000000000E+00 0. -1.
         11    1    1    2    0    0  0.24076600722E+01 -0.15066614102E+02  0.13800461897E+02  0.20573099817E+02  0.00000000000E+00 0.  1.
<mgrwt>
<rscale>  0 0.10182408E+03</rscale>
<asrwt>0</asrwt>
<pdfrwt beam="1">  1        4 0.16204188E-01 0.14077779E+03</pdfrwt>
<pdfrwt beam="2">  1       -4 0.21070489E-01 0.14077779E+03</pdfrwt>
<totfact> 0.11219272E+03</totfact>
</mgrwt>
</event>
<event>
 7    1  0.1378058E-005  0.1537133E+03  0.7546771E-02  0.1204980E+00
         -2   -1    0    0    0  501 -0.00000000000E+00  0.00000000000E+00  0.65003605488E+02  0.65003605488E+02  0.00000000000E+00 0.  1.
          2   -1    0    0  501    0  0.00000000000E+00 -0.00000000000E+00 -0.50006086216E+03  0.50006086216E+03  0.00000000000E+00 0. -1.
         23    2    1    2    0    0  0.87593615828E+02 -0.19067172427E+02 -0.38210755854E+03  0.40248692079E+03  0.89181480765E+02 0.  0.
          5    1    1    2  502    0 -0.87912307686E+02  0.43722124592E+02  0.60269171220E+01  0.98481530002E+02  0.47000000000E+01 0. -1.
         -5    1    1    2    0  502  0.31869185838E+00 -0.24654952164E+02 -0.58976615255E+02  0.64096016863E+02  0.47000000000E+01 0. -1.
        -11    1    3    3    0    0 -0.12237898989E+02  0.14169707104E+02 -0.33866843192E+02  0.38697672266E+02  0.00000000000E+00 0.  1.
         11    1    3    3    0    0  0.99831514817E+02 -0.33236879531E+02 -0.34824071535E+03  0.36378924852E+03  0.00000000000E+00 0. -1.
<mgrwt>
<rscale>  0 0.14639058E+03</rscale>
<asrwt>0</asrwt>
<pdfrwt beam="2">  1        2 0.76932437E-01 0.15371333E+03</pdfrwt>
<pdfrwt beam="1">  1       -2 0.10000555E-01 0.15371333E+03</pdfrwt>
<totfact> 0.40217093E+03</totfact>
</mgrwt>
</event>
<event>
 7    1  0.1378058E-005  0.1607981E+03  0.7546771E-02  0.1191611E+00
         -1   -1    0    0    0  501 -0.00000000000E+00  0.00000000000E+00  0.80548860820E+02  0.80548860820E+02  0.00000000000E+00 0.  1.
          1   -1    0    0  501    0  0.00000000000E+00 -0.00000000000E+00 -0.31533138824E+03  0.31533138824E+03  0.00000000000E+00 0. -1.
         23    2    1    2    0    0  0.61238704047E+02  0.80515290008E+02 -0.16225482861E+03  0.21948208825E+03  0.10776301247E+03 0.  0.
          5    1    1    2  502    0 -0.16139976281E+02  0.31155612783E+02  0.63048650143E+00  0.35407041043E+02  0.47000000000E+01 0.  1.
         -5    1    1    2    0  502 -0.45098727767E+02 -0.11167090279E+03 -0.73158185314E+02  0.14099111977E+03  0.47000000000E+01 0.  1.
        -11    1    3    3    0    0  0.44423923793E+02  0.37391853443E+02 -0.82216714617E+01  0.58644962194E+02  0.00000000000E+00 0.  1.
         11    1    3    3    0    0  0.16814780254E+02  0.43123436564E+02 -0.15403315715E+03  0.16083712605E+03  0.00000000000E+00 0. -1.
<mgrwt>
<rscale>  0 0.15744601E+03</rscale>
<asrwt>0</asrwt>
<pdfrwt beam="2">  1        1 0.48512521E-01 0.16079815E+03</pdfrwt>
<pdfrwt beam="1">  1       -1 0.12392132E-01 0.16079815E+03</pdfrwt>
<totfact> 0.34889576E+03</totfact>
</mgrwt>
</event>
<event>
 7    1  0.1378058E-005  0.1698409E+03  0.7546771E-02  0.1184244E+00
          2   -1    0    0  501    0  0.00000000000E+00  0.00000000000E+00  0.40445663060E+03  0.40445663060E+03  0.00000000000E+00 0.  1.
         -2   -1    0    0    0  501 -0.00000000000E+00 -0.00000000000E+00 -0.62463675393E+02  0.62463675393E+02  0.00000000000E+00 0. -1.
         23    2    1    2    0    0  0.50438231012E+02  0.10332686302E+03  0.14792361833E+03  0.20902724176E+03  0.92685139958E+02 0.  0.
          5    1    1    2  502    0 -0.57910771380E+02 -0.44367072375E+02  0.18326161960E+03  0.19730434808E+03  0.47000000000E+01 0.  1.
         -5    1    1    2    0  502  0.74725403672E+01 -0.58959790645E+02  0.10807717281E+02  0.60588716155E+02  0.47000000000E+01 0.  1.
        -11    1    3    3    0    0  0.32075693820E+02 -0.49457872406E+01  0.60516834421E+02  0.68670213294E+02  0.00000000000E+00 0.  1.
         11    1    3    3    0    0  0.18362537193E+02  0.10827265026E+03  0.87406783905E+02  0.14035702846E+03  0.00000000000E+00 0. -1.
<mgrwt>
<rscale>  0 0.16400840E+03</rscale>
<asrwt>0</asrwt>
<pdfrwt beam="1">  1        2 0.62224095E-01 0.16984088E+03</pdfrwt>
<pdfrwt beam="2">  1       -2 0.96097965E-02 0.16984088E+03</pdfrwt>
<totfact> 0.54214086E+03</totfact>
</mgrwt>
</event>
<event>
 7    1  0.1378058E-005  0.1616223E+03  0.7546771E-02  0.1194507E+00
          2   -1    0    0  501    0  0.00000000000E+00  0.00000000000E+00  0.75995351757E+02  0.75995351757E+02  0.00000000000E+00 0. -1.
         -2   -1    0    0    0  501 -0.00000000000E+00 -0.00000000000E+00 -0.30402509840E+03  0.30402509840E+03  0.00000000000E+00 0.  1.
         23    2    1    2    0    0 -0.94867772203E+02  0.38694192606E+02 -0.67971541035E+02  0.15255531986E+03  0.90309802805E+02 0.  0.
          5    1    1    2  502    0 -0.15912437151E+02 -0.20230402411E+01  0.11240734379E+02  0.20143049850E+02  0.47000000000E+01 0.  1.
         -5    1    1    2    0  502  0.11078020935E+03 -0.36671152365E+02 -0.17129893999E+03  0.20732208045E+03  0.47000000000E+01 0.  1.
        -11    1    3    3    0    0 -0.93811195193E+01 -0.26648496147E+02 -0.79568719313E+01  0.29350631361E+02  0.00000000000E+00 0.  1.
         11    1    3    3    0    0 -0.85486652684E+02  0.65342688753E+02 -0.60014669104E+02  0.12320468850E+03  0.00000000000E+00 0. -1.
<mgrwt>
<rscale>  0 0.15495995E+03</rscale>
<asrwt>0</asrwt>
<pdfrwt beam="1">  1        2 0.11691593E-01 0.16162226E+03</pdfrwt>
<pdfrwt beam="2">  1       -2 0.46773091E-01 0.16162226E+03</pdfrwt>
<totfact> 0.22554220E+03</totfact>
</mgrwt>
</event>
<event>
 7    1  0.1378058E-005  0.1689834E+03  0.7546771E-02  0.1185704E+00
         -1   -1    0    0    0  501 -0.00000000000E+00  0.00000000000E+00  0.40636111331E+03  0.40636111331E+03  0.00000000000E+00 0.  1.
          1   -1    0    0  501    0  0.00000000000E+00 -0.00000000000E+00 -0.61428585502E+02  0.61428585502E+02  0.00000000000E+00 0. -1.
         23    2    1    2    0    0  0.82785905079E+02  0.77962250027E+02  0.13425771930E+03  0.19771696547E+03  0.90195591546E+02 0.  0.
          5    1    1    2  502    0 -0.46295520827E+01  0.32407330725E+02  0.50796133683E+02  0.60613571371E+02  0.47000000000E+01 0.  1.
         -5    1    1    2    0  502 -0.78156352997E+02 -0.11036958075E+03  0.15987867482E+03  0.20945916197E+03  0.47000000000E+01 0.  1.
        -11    1    3    3    0    0  0.83383447170E+02  0.54124253421E+02  0.14137962833E+03  0.17283064941E+03  0.00000000000E+00 0.  1.
         11    1    3    3    0    0 -0.59754209072E+00  0.23837996606E+02 -0.71219090280E+01  0.24886316058E+02  0.00000000000E+00 0. -1.
<mgrwt>
<rscale>  0 0.16267961E+03</rscale>
<asrwt>0</asrwt>
<pdfrwt beam="2">  1        1 0.94505519E-02 0.16898345E+03</pdfrwt>
<pdfrwt beam="1">  1       -1 0.62517093E-01 0.16898345E+03</pdfrwt>
<totfact> 0.18256147E+03</totfact>
</mgrwt>
</event>
<event>
 7    1  0.1378058E-005  0.1274809E+03  0.7546771E-02  0.1245962E+00
          2   -1    0    0  501    0  0.00000000000E+00  0.00000000000E+00  0.80945322244E+03  0.80945322244E+03  0.00000000000E+00 0. -1.
         -2   -1    0    0    0  501 -0.00000000000E+00 -0.00000000000E+00 -0.16061617969E+02  0.16061617969E+02  0.00000000000E+00 0.  1.
         23    2    1    2    0    0  0.14444494914E+02 -0.20437930753E+02  0.43457336799E+03  0.44472366967E+03  0.91097627566E+02 0.  0.
          5    1    1    2  502    0 -0.64928105797E+02 -0.95040717364E+01  0.14921706785E+03  0.16307608543E+03  0.47000000000E+01 0. -1.
         -5    1    1    2    0  502  0.50483610883E+02  0.29942002490E+02  0.20960116863E+03  0.21771508531E+03  0.47000000000E+01 0. -1.
        -11    1    3    3    0    0  0.51796447703E+02 -0.20775138396E+02  0.29535853992E+03  0.30058467272E+03  0.00000000000E+00 0.  1.
         11    1    3    3    0    0 -0.37351952790E+02  0.33720764273E+00  0.13921482807E+03  0.14413899695E+03  0.00000000000E+00 0. -1.
<mgrwt>
<rscale>  0 0.11827985E+03</rscale>
<asrwt>0</asrwt>
<pdfrwt beam="1">  1        2 0.12453123E+00 0.12748094E+03</pdfrwt>
<pdfrwt beam="2">  1       -2 0.24710188E-02 0.12748094E+03</pdfrwt>
<totfact> 0.18678378E+04</totfact>
</mgrwt>
</event>
<event>
 7    1  0.1378058E-005  0.1326522E+03  0.7546771E-02  0.1236094E+00
         -2   -1    0    0    0  501 -0.00000000000E+00  0.00000000000E+00  0.41388877178E+03  0.41388877178E+03  0.00000000000E+00 0.  1.
          2   -1    0    0  501    0  0.00000000000E+00 -0.00000000000E+00 -0.34655196911E+02  0.34655196911E+02  0.00000000000E+00 0. -1.
         23    2    1    2    0    0 -0.44028140766E+02 -0.57090980760E+01  0.12342780830E+03  0.16038917022E+03  0.92299464149E+02 0.  0.
          5    1    1    2  502    0  0.57137453056E+01  0.41695376909E+02  0.20581867268E+02  0.47083485440E+02  0.47000000000E+01 0. -1.
         -5    1    1    2    0  502  0.38314395460E+02 -0.35986278833E+02  0.23522389931E+03  0.24107131303E+03  0.47000000000E+01 0. -1.
        -11    1    3    3    0    0 -0.24897536563E+02 -0.46197251037E+02  0.41051129698E+02  0.66627836373E+02  0.00000000000E+00 0. -1.
         11    1    3    3    0    0 -0.19130604203E+02  0.40488152961E+02  0.82376678603E+02  0.93761333848E+02  0.00000000000E+00 0.  1.
<mgrwt>
<rscale>  0 0.12434664E+03</rscale>
<asrwt>0</asrwt>
<pdfrwt beam="2">  1        2 0.53315691E-02 0.13265217E+03</pdfrwt>
<pdfrwt beam="1">  1       -2 0.63675192E-01 0.13265217E+03</pdfrwt>
<totfact> 0.32134169E+03</totfact>
</mgrwt>
</event>
<event>
 7    1  0.1378058E-005  0.1623348E+03  0.7546771E-02  0.1193621E+00
         -1   -1    0    0    0  501 -0.00000000000E+00  0.00000000000E+00  0.13773286107E+03  0.13773286107E+03  0.00000000000E+00 0.  1.
          1   -1    0    0  501    0  0.00000000000E+00 -0.00000000000E+00 -0.21775622632E+03  0.21775622632E+03  0.00000000000E+00 0. -1.
         23    2    1    2    0    0 -0.43820223599E+02  0.93846324076E+02 -0.12633488262E+03  0.18667750683E+03  0.90336285347E+02 0.  0.
          5    1    1    2  502    0 -0.30423736429E+02 -0.20108187805E+01  0.39921522748E+02  0.50452602599E+02  0.47000000000E+01 0. -1.
         -5    1    1    2    0  502  0.74243960028E+02 -0.91835505296E+02  0.63899946238E+01  0.11835897796E+03  0.47000000000E+01 0. -1.
        -11    1    3    3    0    0  0.40897234665E+01  0.65639565001E+02 -0.23617002395E+02  0.69878760247E+02  0.00000000000E+00 0.  1.
         11    1    3    3    0    0 -0.47909947065E+02  0.28206759075E+02 -0.10271788022E+03  0.11679874658E+03  0.00000000000E+00 0. -1.
<mgrwt>
<rscale>  0 0.15571555E+03</rscale>
<asrwt>0</asrwt>
<pdfrwt beam="2">  1        1 0.33500958E-01 0.16233482E+03</pdfrwt>
<pdfrwt beam="1">  1       -1 0.21189671E-01 0.16233482E+03</pdfrwt>
<totfact> 0.23641613E+03</totfact>
</mgrwt>
</event>
<event>
 7    1  0.1378058E-005  0.1494950E+03  0.7546771E-02  0.1210135E+00
          4   -1    0    0  501    0  0.00000000000E+00  0.00000000000E+00  0.55117004393E+03  0.55117004393E+03  0.00000000000E+00 0. -1.
         -4   -1    0    0    0  501 -0.00000000000E+00 -0.00000000000E+00 -0.33795637924E+02  0.33795637924E+02  0.00000000000E+00 0.  1.
         23    2    1    2    0    0 -0.81948567565E+02 -0.24019999792E+01  0.21804412798E+03  0.25038030034E+03  0.91791697455E+02 0.  0.
          5    1    1    2  502    0  0.10395878801E+03 -0.17552464481E+02  0.15741816488E+03  0.18952067763E+03  0.47000000000E+01 0.  1.
         -5    1    1    2    0  502 -0.22010220447E+02  0.19954464460E+02  0.14191211315E+03  0.14506470389E+03  0.47000000000E+01 0.  1.
        -11    1    3    3    0    0 -0.40208838867E+02  0.44709785727E+02  0.10625279894E+03  0.12208756261E+03  0.00000000000E+00 0.  1.
         11    1    3    3    0    0 -0.41739728698E+02 -0.47111785706E+02  0.11179132904E+03  0.12829273773E+03  0.00000000000E+00 0. -1.
<mgrwt>
<rscale>  0 0.14240035E+03</rscale>
<asrwt>0</asrwt>
<pdfrwt beam="1">  1        4 0.84795385E-01 0.14949502E+03</pdfrwt>
<pdfrwt beam="2">  1       -4 0.51993293E-02 0.14949502E+03</pdfrwt>
<totfact> 0.47334878E+02</totfact>
</mgrwt>
</event>
<event>
 7    1  0.1378058E-005  0.1559054E+03  0.7546771E-02  0.1204593E+00
         -2   -1    0    0    0  501 -0.00000000000E+00  0.00000000000E+00  0.67899215393E+02  0.67899215393E+02  0.00000000000E+00 0.  1.
          2   -1    0    0  501    0  0.00000000000E+00 -0.00000000000E+00 -0.28502799247E+03  0.28502799247E+03  0.00000000000E+00 0. -1.
         23    2    1    2    0    0  0.38884349045E+02 -0.84670090594E+02 -0.90234879134E+02  0.15190844325E+03  0.79074805573E+02 0.  0.
          5    1    1    2  502    0 -0.29482332500E+02  0.86765078247E+02 -0.20414399612E+02  0.94001193845E+02  0.47000000000E+01 0. -1.
         -5    1    1    2    0  502 -0.94020165453E+01 -0.20949876526E+01 -0.10647949833E+03  0.10701757077E+03  0.47000000000E+01 0. -1.
        -11    1    3    3    0    0  0.32012965265E+02 -0.16861008424E+02 -0.73202422572E+02  0.81656097265E+02  0.00000000000E+00 0.  1.
         11    1    3    3    0    0  0.68713837800E+01 -0.67809082171E+02 -0.17032456563E+02  0.70252345985E+02  0.00000000000E+00 0. -1.
<mgrwt>
<rscale>  0 0.14669565E+03</rscale>
<asrwt>0</asrwt>
<pdfrwt beam="2">  1        2 0.43850460E-01 0.15590536E+03</pdfrwt>
<pdfrwt beam="1">  1       -2 0.10446033E-01 0.15590536E+03</pdfrwt>
<totfact> 0.68746506E+03</totfact>
</mgrwt>
</event>
<event>
 7    1  0.1378058E-005  0.1489637E+03  0.7546771E-02  0.1211183E+00
          2   -1    0    0  501    0  0.00000000000E+00  0.00000000000E+00  0.45408841117E+03  0.45408841117E+03  0.00000000000E+00 0. -1.
         -2   -1    0    0    0  501 -0.00000000000E+00 -0.00000000000E+00 -0.41855120129E+02  0.41855120129E+02  0.00000000000E+00 0.  1.
         23    2    1    2    0    0 -0.70274914161E+02 -0.40317283536E+02  0.23338495306E+03  0.26318418757E+03  0.90737717413E+02 0.  0.
          5    1    1    2  502    0  0.94674569146E+02  0.32143808897E+02  0.18066415457E+03  0.20653843526E+03  0.47000000000E+01 0. -1.
         -5    1    1    2    0  502 -0.24399654985E+02  0.81734746393E+01 -0.18158165863E+01  0.26220908469E+02  0.47000000000E+01 0. -1.
        -11    1    3    3    0    0 -0.33898098428E+02  0.16185958374E+02  0.15706862774E+03  0.16149804997E+03  0.00000000000E+00 0. -1.
         11    1    3    3    0    0 -0.36376815733E+02 -0.56503241910E+02  0.76316325320E+02  0.10168613760E+03  0.00000000000E+00 0.  1.
<mgrwt>
<rscale>  0 0.14160658E+03</rscale>
<asrwt>0</asrwt>
<pdfrwt beam="1">  1        2 0.69859752E-01 0.14896370E+03</pdfrwt>
<pdfrwt beam="2">  1       -2 0.64392496E-02 0.14896370E+03</pdfrwt>
<totfact> 0.88261135E+03</totfact>
</mgrwt>
</event>
<event>
 7    1  0.1378058E-005  0.2470739E+03  0.7546771E-02  0.1117620E+00
          1   -1    0    0  501    0  0.00000000000E+00  0.00000000000E+00  0.37190845533E+03  0.37190845533E+03  0.00000000000E+00 0. -1.
         -1   -1    0    0    0  501 -0.00000000000E+00 -0.00000000000E+00 -0.22354247140E+03  0.22354247140E+03  0.00000000000E+00 0.  1.
         23    2    1    2    0    0  0.10304453241E+03  0.18655394513E+03  0.23805027705E+03  0.33260350744E+03  0.92393769541E+02 0.  0.
          5    1    1    2  502    0  0.24083455398E+02 -0.11794795247E+02  0.35183934992E+01  0.27451759718E+02  0.47000000000E+01 0. -1.
         -5    1    1    2    0  502 -0.12712798781E+03 -0.17475914989E+03 -0.93202686624E+02  0.23539565958E+03  0.47000000000E+01 0. -1.
        -11    1    3    3    0    0 -0.10320550926E+02  0.34028428390E+02  0.71729970525E+02  0.80060204731E+02  0.00000000000E+00 0.  1.
         11    1    3    3    0    0  0.11336508334E+03  0.15252551674E+03  0.16632030653E+03  0.25254330271E+03  0.00000000000E+00 0. -1.
<mgrwt>
<rscale>  0 0.24329111E+03</rscale>
<asrwt>0</asrwt>
<pdfrwt beam="1">  1        1 0.57216686E-01 0.24707386E+03</pdfrwt>
<pdfrwt beam="2">  1       -1 0.34391149E-01 0.24707386E+03</pdfrwt>
<totfact> 0.53979473E+02</totfact>
</mgrwt>
</event>
<event>
 7    1  0.1378058E-005  0.3204244E+03  0.7546771E-02  0.1106992E+00
         -2   -1    0    0    0  501 -0.00000000000E+00  0.00000000000E+00  0.19461178242E+03  0.19461178242E+03  0.00000000000E+00 0.  1.
          2   -1    0    0  501    0  0.00000000000E+00 -0.00000000000E+00 -0.27261516551E+03  0.27261516551E+03  0.00000000000E+00 0. -1.
         23    2    1    2    0    0  0.63145781596E+02 -0.82273066447E+02 -0.36379145759E+02  0.14411027914E+03  0.93209887408E+02 0.  0.
          5    1    1    2  502    0 -0.36212752739E+02 -0.84302792660E+02 -0.10794769532E+03  0.14175020012E+03  0.47000000000E+01 0. -1.
         -5    1    1    2    0  502 -0.26933028857E+02  0.16657585911E+03  0.66323457982E+02  0.18136646867E+03  0.47000000000E+01 0.  1.
        -11    1    3    3    0    0  0.33244620484E+02  0.15856078217E+02 -0.83653484254E+01  0.37770346329E+02  0.00000000000E+00 0.  1.
         11    1    3    3    0    0  0.29901161112E+02 -0.98129144664E+02 -0.28013797334E+02  0.10633993281E+03  0.00000000000E+00 0. -1.
<mgrwt>
<rscale>  0 0.26025155E+03</rscale>
<asrwt>0</asrwt>
<pdfrwt beam="2">  1        2 0.41940795E-01 0.32042441E+03</pdfrwt>
<pdfrwt beam="1">  1       -2 0.29940274E-01 0.32042441E+03</pdfrwt>
<totfact> 0.12486659E+03</totfact>
</mgrwt>
</event>
<event>
 7    1  0.1378058E-005  0.1572548E+03  0.7546771E-02  0.1200292E+00
          2   -1    0    0  501    0  0.00000000000E+00  0.00000000000E+00  0.22420141937E+03  0.22420141937E+03  0.00000000000E+00 0. -1.
         -2   -1    0    0    0  501 -0.00000000000E+00 -0.00000000000E+00 -0.95301730658E+02  0.95301730658E+02  0.00000000000E+00 0.  1.
         23    2    1    2    0    0  0.86029399956E+02  0.41269031960E+02  0.86171490551E+02  0.15654681971E+03  0.89315118106E+02 0.  0.
          5    1    1    2  502    0 -0.79959700390E+01 -0.72348306968E+02  0.23820314198E+02  0.76731417467E+02  0.47000000000E+01 0. -1.
         -5    1    1    2    0  502 -0.78033429917E+02  0.31079275008E+02  0.18907883960E+02  0.86224912847E+02  0.47000000000E+01 0. -1.
        -11    1    3    3    0    0  0.76723274160E+02 -0.94316526775E+01  0.38599144997E+02  0.86402030443E+02  0.00000000000E+00 0. -1.
         11    1    3    3    0    0  0.93061257953E+01  0.50700684637E+02  0.47572345554E+02  0.70144789268E+02  0.00000000000E+00 0.  1.
<mgrwt>
<rscale>  0 0.15014756E+03</rscale>
<asrwt>0</asrwt>
<pdfrwt beam="1">  1        2 0.34492526E-01 0.15725478E+03</pdfrwt>
<pdfrwt beam="2">  1       -2 0.14661805E-01 0.15725478E+03</pdfrwt>
<totfact> 0.51559682E+03</totfact>
</mgrwt>
</event>
<event>
 7    1  0.1378058E-005  0.1490337E+03  0.7546771E-02  0.1212029E+00
          1   -1    0    0  501    0  0.00000000000E+00  0.00000000000E+00  0.13281402552E+03  0.13281402552E+03  0.00000000000E+00 0. -1.
         -1   -1    0    0    0  501 -0.00000000000E+00 -0.00000000000E+00 -0.13756219158E+03  0.13756219158E+03  0.00000000000E+00 0.  1.
         23    2    1    2    0    0 -0.38126119055E+02 -0.71640226244E+02  0.14176911930E+02  0.12014573574E+03  0.87453359079E+02 0.  0.
          5    1    1    2  502    0  0.51339161419E+02  0.69751043098E+02 -0.60869903381E+02  0.10596297771E+03  0.47000000000E+01 0.  1.
         -5    1    1    2    0  502 -0.13213042365E+02  0.18891831460E+01  0.41944825398E+02  0.44267503647E+02  0.47000000000E+01 0.  1.
        -11    1    3    3    0    0  0.21152450977E+02 -0.43552903572E+02  0.23622563963E+02  0.53873064885E+02  0.00000000000E+00 0. -1.
         11    1    3    3    0    0 -0.59278570032E+02 -0.28087322671E+02 -0.94456520332E+01  0.66272670855E+02  0.00000000000E+00 0.  1.
<mgrwt>
<rscale>  0 0.14097083E+03</rscale>
<asrwt>0</asrwt>
<pdfrwt beam="1">  1        1 0.20432927E-01 0.14903368E+03</pdfrwt>
<pdfrwt beam="2">  1       -1 0.21163414E-01 0.14903368E+03</pdfrwt>
<totfact> 0.43939772E+03</totfact>
</mgrwt>
</event>
<event>
 7    1  0.1378058E-005  0.1299448E+03  0.7546771E-02  0.1237045E+00
         -2   -1    0    0    0  501 -0.00000000000E+00  0.00000000000E+00  0.21771192975E+02  0.21771192975E+02  0.00000000000E+00 0.  1.
          2   -1    0    0  501    0  0.00000000000E+00 -0.00000000000E+00 -0.69226986446E+03  0.69226986446E+03  0.00000000000E+00 0. -1.
         23    2    1    2    0    0 -0.44328837980E+02  0.35097881946E+02 -0.39876615499E+03  0.41283644636E+03  0.90678431199E+02 0.  0.
          5    1    1    2  502    0  0.75832705072E+00  0.20207335259E+02 -0.19822816096E+03  0.19931233092E+03  0.47000000000E+01 0. -1.
         -5    1    1    2    0  502  0.43570510929E+02 -0.55305217205E+02 -0.73504355531E+02  0.10189228015E+03  0.47000000000E+01 0.  1.
        -11    1    3    3    0    0 -0.54693125140E+02 -0.11699842274E+02 -0.16545922413E+03  0.17465674649E+03  0.00000000000E+00 0.  1.
         11    1    3    3    0    0  0.10364287160E+02  0.46797724220E+02 -0.23330693087E+03  0.23817969987E+03  0.00000000000E+00 0. -1.
<mgrwt>
<rscale>  0 0.12374426E+03</rscale>
<asrwt>0</asrwt>
<pdfrwt beam="2">  1        2 0.10650304E+00 0.12994482E+03</pdfrwt>
<pdfrwt beam="1">  1       -2 0.33494148E-02 0.12994482E+03</pdfrwt>
<totfact> 0.14476607E+04</totfact>
</mgrwt>
</event>
<event>
 7    1  0.1378058E-005  0.1446539E+03  0.7546771E-02  0.1216286E+00
          2   -1    0    0  501    0  0.00000000000E+00  0.00000000000E+00  0.24997514228E+03  0.24997514228E+03  0.00000000000E+00 0. -1.
         -2   -1    0    0    0  501 -0.00000000000E+00 -0.00000000000E+00 -0.26674153612E+03  0.26674153612E+03  0.00000000000E+00 0.  1.
         23    2    1    2    0    0 -0.67636124075E+02 -0.26939226019E+02  0.21364894662E+03  0.24465792384E+03  0.94399471024E+02 0.  0.
          5    1    1    2  502    0  0.73347700773E+02 -0.28382797400E+02 -0.18142280167E+03  0.19779229348E+03  0.47000000000E+01 0. -1.
         -5    1    1    2    0  502 -0.57115766981E+01  0.55322023419E+02 -0.48992538794E+02  0.74266461078E+02  0.47000000000E+01 0. -1.
        -11    1    3    3    0    0  0.16297072625E+02  0.12288445556E+00  0.33799241854E+01  0.16644325287E+02  0.00000000000E+00 0.  1.
         11    1    3    3    0    0 -0.83933196700E+02 -0.27062110475E+02  0.21026902243E+03  0.22801359856E+03  0.00000000000E+00 0. -1.
<mgrwt>
<rscale>  0 0.13782499E+03</rscale>
<asrwt>0</asrwt>
<pdfrwt beam="1">  1        2 0.38457714E-01 0.14465385E+03</pdfrwt>
<pdfrwt beam="2">  1       -2 0.41037159E-01 0.14465385E+03</pdfrwt>
<totfact> 0.75235548E+02</totfact>
</mgrwt>
</event>
<event>
 7    1  0.1378058E-005  0.1337603E+03  0.7546771E-02  0.1234117E+00
         -1   -1    0    0    0  501 -0.00000000000E+00  0.00000000000E+00  0.80334918797E+02  0.80334918797E+02  0.00000000000E+00 0.  1.
          1   -1    0    0  501    0  0.00000000000E+00 -0.00000000000E+00 -0.19339727351E+03  0.19339727351E+03  0.00000000000E+00 0. -1.
         23    2    1    2    0    0  0.38499871742E+02 -0.27999803067E+02 -0.90907252329E+02  0.13814946394E+03  0.92492793045E+02 0.  0.
          5    1    1    2  502    0 -0.79740889228E+01  0.43965367743E+02  0.42708179764E+02  0.61988856044E+02  0.47000000000E+01 0. -1.
         -5    1    1    2    0  502 -0.30525782819E+02 -0.15965564676E+02 -0.64863282146E+02  0.73593872319E+02  0.47000000000E+01 0. -1.
        -11    1    3    3    0    0 -0.30714340739E+02 -0.88405351731E+01 -0.23691043365E+02  0.39784310035E+02  0.00000000000E+00 0.  1.
         11    1    3    3    0    0  0.69214212481E+02 -0.19159267894E+02 -0.67216208963E+02  0.98365153906E+02  0.00000000000E+00 0. -1.
<mgrwt>
<rscale>  0 0.12561158E+03</rscale>
<asrwt>0</asrwt>
<pdfrwt beam="2">  1        1 0.29753426E-01 0.13376034E+03</pdfrwt>
<pdfrwt beam="1">  1       -1 0.12359219E-01 0.13376034E+03</pdfrwt>
<totfact> 0.63618002E+03</totfact>
</mgrwt>
</event>
<event>
 7    1  0.1378058E-005  0.1682882E+03  0.7546771E-02  0.1185503E+00
          2   -1    0    0  501    0  0.00000000000E+00  0.00000000000E+00  0.37950369521E+03  0.37950369521E+03  0.00000000000E+00 0. -1.
         -2   -1    0    0    0  501 -0.00000000000E+00 -0.00000000000E+00 -0.78728457799E+02  0.78728457799E+02  0.00000000000E+00 0.  1.
         23    2    1    2    0    0 -0.16185743721E+02 -0.11150547651E+03  0.23506957408E+03  0.27757184895E+03  0.95357102931E+02 0.  0.
          5    1    1    2  502    0  0.19419189703E+02  0.34686184790E+02 -0.35480146992E+02  0.53489879179E+02  0.47000000000E+01 0.  1.
         -5    1    1    2    0  502 -0.32334459828E+01  0.76819291723E+02  0.10118581032E+03  0.12717042488E+03  0.47000000000E+01 0.  1.
        -11    1    3    3    0    0  0.18652294929E+00 -0.75632983693E+02  0.22428121288E+03  0.23669061127E+03  0.00000000000E+00 0. -1.
         11    1    3    3    0    0 -0.16372266670E+02 -0.35872492820E+02  0.10788361205E+02  0.40881237683E+02  0.00000000000E+00 0.  1.
<mgrwt>
<rscale>  0 0.16286150E+03</rscale>
<asrwt>0</asrwt>
<pdfrwt beam="1">  1        2 0.58385183E-01 0.16828818E+03</pdfrwt>
<pdfrwt beam="2">  1       -2 0.12112071E-01 0.16828818E+03</pdfrwt>
<totfact> 0.40166749E+03</totfact>
</mgrwt>
</event>
<event>
 7    1  0.1378058E-005  0.1378419E+03  0.7546771E-02  0.1227711E+00
         -1   -1    0    0    0  501 -0.00000000000E+00  0.00000000000E+00  0.35586201894E+02  0.35586201894E+02  0.00000000000E+00 0.  1.
          1   -1    0    0  501    0  0.00000000000E+00 -0.00000000000E+00 -0.42723168921E+03  0.42723168921E+03  0.00000000000E+00 0. -1.
         23    2    1    2    0    0 -0.46909201411E+02  0.34307136578E+02 -0.16142804606E+03  0.19448887352E+03  0.91593968530E+02 0.  0.
          5    1    1    2  502    0  0.62888078334E+02 -0.10989245620E+02 -0.23095681916E+03  0.23966396524E+03  0.47000000000E+01 0. -1.
         -5    1    1    2    0  502 -0.15978876923E+02 -0.23317890958E+02  0.73937790528E+00  0.28665052349E+02  0.47000000000E+01 0. -1.
        -11    1    3    3    0    0 -0.43784178455E+02  0.61404953419E+02 -0.86553556228E+02  0.11480043851E+03  0.00000000000E+00 0.  1.
         11    1    3    3    0    0 -0.31250229563E+01 -0.27097816840E+02 -0.74874489835E+02  0.79688435008E+02  0.00000000000E+00 0. -1.
<mgrwt>
<rscale>  0 0.12982811E+03</rscale>
<asrwt>0</asrwt>
<pdfrwt beam="2">  1        1 0.65727953E-01 0.13784191E+03</pdfrwt>
<pdfrwt beam="1">  1       -1 0.54748002E-02 0.13784191E+03</pdfrwt>
<totfact> 0.81472671E+03</totfact>
</mgrwt>
</event>
<event>
 7    1  0.1378058E-005  0.2423270E+03  0.7546771E-02  0.1118252E+00
          1   -1    0    0  501    0  0.00000000000E+00  0.00000000000E+00  0.64109234481E+02  0.64109234481E+02  0.00000000000E+00 0. -1.
         -1   -1    0    0    0  501 -0.00000000000E+00 -0.00000000000E+00 -0.22899339823E+03  0.22899339823E+03  0.00000000000E+00 0.  1.
         23    2    1    2    0    0 -0.34288910139E+02  0.28028718705E+02 -0.86955506378E+02  0.13346265802E+03  0.91047693909E+02 0.  0.
          5    1    1    2  502    0  0.45978662997E+02 -0.76306015047E+02 -0.54254841574E+02  0.10441419069E+03  0.47000000000E+01 0. -1.
         -5    1    1    2    0  502 -0.11689752858E+02  0.48277296342E+02 -0.23673815801E+02  0.55225784001E+02  0.47000000000E+01 0.  1.
        -11    1    3    3    0    0 -0.22366515315E+02  0.47779894942E+02 -0.95301264299E+02  0.10892892336E+03  0.00000000000E+00 0.  1.
         11    1    3    3    0    0 -0.11922394824E+02 -0.19751176237E+02  0.83457579206E+01  0.24533734659E+02  0.00000000000E+00 0. -1.
<mgrwt>
<rscale>  0 0.24232698E+03</rscale>
<asrwt>0</asrwt>
<pdfrwt beam="1">  1        1 0.98629592E-02 0.24232698E+03</pdfrwt>
<pdfrwt beam="2">  1       -1 0.35229754E-01 0.24232698E+03</pdfrwt>
<totfact> 0.49911677E+03</totfact>
</mgrwt>
</event>
<event>
 7    1  0.1378058E-005  0.1302853E+03  0.7546771E-02  0.1246755E+00
         -2   -1    0    0    0  501 -0.00000000000E+00  0.00000000000E+00  0.44721319597E+03  0.44721319597E+03  0.00000000000E+00 0.  1.
          2   -1    0    0  501    0  0.00000000000E+00 -0.00000000000E+00 -0.27415653465E+02  0.27415653465E+02  0.00000000000E+00 0. -1.
         23    2    1    2    0    0  0.36492464202E+02 -0.39974701412E+01  0.12532260571E+03  0.15261991988E+03  0.78989902715E+02 0.  0.
          5    1    1    2  502    0  0.40675613267E+02 -0.16123479548E+02  0.15656519909E+03  0.16263217294E+03  0.47000000000E+01 0. -1.
         -5    1    1    2    0  502 -0.77168077470E+02  0.20120949689E+02  0.13790973771E+03  0.15937675662E+03  0.47000000000E+01 0. -1.
        -11    1    3    3    0    0  0.22628781557E+02  0.34461294008E+02  0.88367487219E+02  0.97511308764E+02  0.00000000000E+00 0.  1.
         11    1    3    3    0    0  0.13863682646E+02 -0.38458764149E+02  0.36955118488E+02  0.55108611113E+02  0.00000000000E+00 0. -1.
<mgrwt>
<rscale>  0 0.11780967E+03</rscale>
<asrwt>0</asrwt>
<pdfrwt beam="2">  1        2 0.42177932E-02 0.13028531E+03</pdfrwt>
<pdfrwt beam="1">  1       -2 0.68802025E-01 0.13028531E+03</pdfrwt>
<totfact> 0.37074067E+03</totfact>
</mgrwt>
</event>
<event>
 7    1  0.1378058E-005  0.1274728E+03  0.7546771E-02  0.1243975E+00
         -1   -1    0    0    0  501 -0.00000000000E+00  0.00000000000E+00  0.97442795663E+03  0.97442795663E+03  0.00000000000E+00 0.  1.
          1   -1    0    0  501    0  0.00000000000E+00 -0.00000000000E+00 -0.13340875102E+02  0.13340875102E+02  0.00000000000E+00 0. -1.
         23    2    1    2    0    0  0.73844911441E+01  0.23874642623E+02  0.35172055532E+03  0.36521210370E+03  0.95120988144E+02 0.  0.
          5    1    1    2  502    0 -0.16999480400E+02  0.21458948006E+01  0.63255145984E+01  0.18859727816E+02  0.47000000000E+01 0.  1.
         -5    1    1    2    0  502  0.96149892554E+01 -0.26020537423E+02  0.60304101161E+03  0.60369700022E+03  0.47000000000E+01 0.  1.
        -11    1    3    3    0    0  0.50278022319E+02  0.25383354191E+01  0.17198620023E+03  0.17920261088E+03  0.00000000000E+00 0.  1.
         11    1    3    3    0    0 -0.42893531175E+02  0.21336307203E+02  0.17973435509E+03  0.18600949282E+03  0.00000000000E+00 0. -1.
<mgrwt>
<rscale>  0 0.11946912E+03</rscale>
<asrwt>0</asrwt>
<pdfrwt beam="2">  1        1 0.20524431E-02 0.12747281E+03</pdfrwt>
<pdfrwt beam="1">  1       -1 0.14991194E+00 0.12747281E+03</pdfrwt>
<totfact> 0.21312866E+03</totfact>
</mgrwt>
</event>
<event>
 7    1  0.1378058E-005  0.1332486E+03  0.7546771E-02  0.1234301E+00
         -2   -1    0    0    0  501 -0.00000000000E+00  0.00000000000E+00  0.32395293899E+02  0.32395293899E+02  0.00000000000E+00 0.  1.
          2   -1    0    0  501    0  0.00000000000E+00 -0.00000000000E+00 -0.44044870047E+03  0.44044870047E+03  0.00000000000E+00 0. -1.
         23    2    1    2    0    0  0.31783946776E+02  0.33515652114E+02 -0.19930184617E+03  0.22519019974E+03  0.94105695715E+02 0.  0.
          5    1    1    2  502    0  0.14434369792E+02  0.51500398083E+01 -0.18001637892E+03  0.18072869341E+03  0.47000000000E+01 0.  1.
         -5    1    1    2    0  502 -0.46218316568E+02 -0.38665691922E+02 -0.28735181486E+02  0.66925101220E+02  0.47000000000E+01 0.  1.
        -11    1    3    3    0    0  0.49326590621E+02 -0.21830916743E+01 -0.48424854732E+02  0.69158115846E+02  0.00000000000E+00 0.  1.
         11    1    3    3    0    0 -0.17542643845E+02  0.35698743788E+02 -0.15087699143E+03  0.15603208390E+03  0.00000000000E+00 0. -1.
<mgrwt>
<rscale>  0 0.12549278E+03</rscale>
<asrwt>0</asrwt>
<pdfrwt beam="2">  1        2 0.67761333E-01 0.13324859E+03</pdfrwt>
<pdfrwt beam="1">  1       -2 0.49838917E-02 0.13324859E+03</pdfrwt>
<totfact> 0.13335518E+04</totfact>
</mgrwt>
</event>
<event>
 7    1  0.1378058E-005  0.1282755E+03  0.7546771E-02  0.1244147E+00
         -1   -1    0    0    0  501 -0.00000000000E+00  0.00000000000E+00  0.68818263409E+02  0.68818263409E+02  0.00000000000E+00 0.  1.
          1   -1    0    0  501    0  0.00000000000E+00 -0.00000000000E+00 -0.31587340558E+03  0.31587340558E+03  0.00000000000E+00 0. -1.
         23    2    1    2    0    0  0.14435801438E+02  0.24899691108E+02 -0.23729362782E+03  0.25604525839E+03  0.91774296827E+02 0.  0.
          5    1    1    2  502    0 -0.44176203327E+02  0.22707832120E+02 -0.40692645468E+02  0.64382947860E+02  0.47000000000E+01 0.  1.
         -5    1    1    2    0  502  0.29740401889E+02 -0.47607523227E+02  0.30931131111E+02  0.64263462747E+02  0.47000000000E+01 0.  1.
        -11    1    3    3    0    0 -0.88047608872E+01  0.41900050145E+02 -0.21607749756E+03  0.22027851227E+03  0.00000000000E+00 0. -1.
         11    1    3    3    0    0  0.23240562325E+02 -0.17000359037E+02 -0.21216130261E+02  0.35766746118E+02  0.00000000000E+00 0.  1.
<mgrwt>
<rscale>  0 0.11936608E+03</rscale>
<asrwt>0</asrwt>
<pdfrwt beam="2">  1        1 0.48595908E-01 0.12827553E+03</pdfrwt>
<pdfrwt beam="1">  1       -1 0.10587425E-01 0.12827553E+03</pdfrwt>
<totfact> 0.43874035E+03</totfact>
</mgrwt>
</event>
<event>
 7    1  0.1378058E-005  0.1361993E+03  0.7546771E-02  0.1231124E+00
         -1   -1    0    0    0  501 -0.00000000000E+00  0.00000000000E+00  0.56153508846E+02  0.56153508846E+02  0.00000000000E+00 0.  1.
          1   -1    0    0  501    0  0.00000000000E+00 -0.00000000000E+00 -0.26262252289E+03  0.26262252289E+03  0.00000000000E+00 0. -1.
         23    2    1    2    0    0 -0.48490790066E+02 -0.23980134650E+02 -0.10965899954E+03  0.15167598176E+03  0.89744658242E+02 0.  0.
          5    1    1    2  502    0  0.10427244597E+02  0.40086163584E+02 -0.11453405747E+03  0.12188424123E+03  0.47000000000E+01 0. -1.
         -5    1    1    2    0  502  0.38063545468E+02 -0.16106028934E+02  0.17724042964E+02  0.45215808746E+02  0.47000000000E+01 0. -1.
        -11    1    3    3    0    0  0.15624313362E+02 -0.36091348578E+02 -0.36635561904E+02  0.53748200028E+02  0.00000000000E+00 0. -1.
         11    1    3    3    0    0 -0.64115103428E+02  0.12111213928E+02 -0.73023437637E+02  0.97927781730E+02  0.00000000000E+00 0.  1.
<mgrwt>
<rscale>  0 0.12755836E+03</rscale>
<asrwt>0</asrwt>
<pdfrwt beam="2">  1        1 0.40403465E-01 0.13619929E+03</pdfrwt>
<pdfrwt beam="1">  1       -1 0.86390014E-02 0.13619929E+03</pdfrwt>
<totfact> 0.75388084E+03</totfact>
</mgrwt>
</event>
<event>
 7    1  0.1378058E-005  0.1147664E+03  0.7546771E-02  0.1259611E+00
         -2   -1    0    0    0  501 -0.00000000000E+00  0.00000000000E+00  0.31921607318E+03  0.31921607318E+03  0.00000000000E+00 0.  1.
          2   -1    0    0  501    0  0.00000000000E+00 -0.00000000000E+00 -0.19367077076E+03  0.19367077076E+03  0.00000000000E+00 0. -1.
         23    2    1    2    0    0  0.64162614503E+01  0.31191414715E+02 -0.16959188358E+03  0.19622096884E+03  0.93419424508E+02 0.  0.
          5    1    1    2  502    0 -0.56599196334E+00  0.26428324179E+02  0.15388476421E+02  0.30946273966E+02  0.47000000000E+01 0. -1.
         -5    1    1    2    0  502 -0.58502694869E+01 -0.57619738894E+02  0.27974870958E+03  0.28571960113E+03  0.47000000000E+01 0.  1.
        -11    1    3    3    0    0 -0.42355507956E+02  0.13555574772E+02 -0.57315645457E+02  0.72545336692E+02  0.00000000000E+00 0.  1.
         11    1    3    3    0    0  0.48771769406E+02  0.17635839943E+02 -0.11227623812E+03  0.12367563215E+03  0.00000000000E+00 0. -1.
<mgrwt>
<rscale>  0 0.11051923E+03</rscale>
<asrwt>0</asrwt>
<pdfrwt beam="2">  1        2 0.29795503E-01 0.11476636E+03</pdfrwt>
<pdfrwt beam="1">  1       -2 0.49110165E-01 0.11476636E+03</pdfrwt>
<totfact> 0.69591683E+02</totfact>
</mgrwt>
</event>
<event>
 7    1  0.1378058E-005  0.1379659E+03  0.7546771E-02  0.1227474E+00
          1   -1    0    0  501    0  0.00000000000E+00  0.00000000000E+00  0.25185265898E+02  0.25185265898E+02  0.00000000000E+00 0. -1.
         -1   -1    0    0    0  501 -0.00000000000E+00 -0.00000000000E+00 -0.78530042016E+03  0.78530042016E+03  0.00000000000E+00 0.  1.
         23    2    1    2    0    0  0.49618466788E+02  0.30785037156E+02 -0.15176062169E+03  0.18668296567E+03  0.91703503840E+02 0.  0.
          5    1    1    2  502    0 -0.64102508583E+02  0.17811867483E+02 -0.49576197281E+03  0.50022836576E+03  0.47000000000E+01 0. -1.
         -5    1    1    2    0  502  0.14484041795E+02 -0.48596904639E+02 -0.11259255976E+03  0.12357435462E+03  0.47000000000E+01 0. -1.
        -11    1    3    3    0    0  0.27210334352E+02  0.62827773880E+02 -0.10919030529E+03  0.12888077528E+03  0.00000000000E+00 0.  1.
         11    1    3    3    0    0  0.22408132436E+02 -0.32042736724E+02 -0.42570316401E+02  0.57802190395E+02  0.00000000000E+00 0. -1.
<mgrwt>
<rscale>  0 0.12998780E+03</rscale>
<asrwt>0</asrwt>
<pdfrwt beam="1">  1        1 0.38746561E-02 0.13796593E+03</pdfrwt>
<pdfrwt beam="2">  1       -1 0.12081546E+00 0.13796593E+03</pdfrwt>
<totfact> 0.15101100E+03</totfact>
</mgrwt>
</event>
<event>
 7    1  0.1378058E-005  0.2926438E+03  0.7546771E-02  0.1090556E+00
          1   -1    0    0  501    0  0.00000000000E+00  0.00000000000E+00  0.42624005696E+03  0.42624005696E+03  0.00000000000E+00 0. -1.
         -1   -1    0    0    0  501 -0.00000000000E+00 -0.00000000000E+00 -0.19342766290E+03  0.19342766290E+03  0.00000000000E+00 0.  1.
         23    2    1    2    0    0 -0.28597399907E+02  0.26305636278E+03  0.13185585280E+03  0.31009930875E+03  0.93590352558E+02 0.  0.
          5    1    1    2  502    0  0.11880835561E+02 -0.26570754049E+03  0.71808000423E+02  0.27553607795E+03  0.47000000000E+01 0.  1.
         -5    1    1    2    0  502  0.16716564346E+02  0.26511777115E+01  0.29148540845E+02  0.34032333158E+02  0.47000000000E+01 0.  1.
        -11    1    3    3    0    0  0.16179622304E+02  0.50864695590E+01  0.17557501397E+02  0.24411435963E+02  0.00000000000E+00 0. -1.
         11    1    3    3    0    0 -0.44777022211E+02  0.25796989322E+03  0.11429835140E+03  0.28568787279E+03  0.00000000000E+00 0.  1.
<mgrwt>
<rscale>  0 0.28960326E+03</rscale>
<asrwt>0</asrwt>
<pdfrwt beam="1">  1        1 0.65575393E-01 0.29264377E+03</pdfrwt>
<pdfrwt beam="2">  1       -1 0.29758102E-01 0.29264377E+03</pdfrwt>
<totfact> 0.58017014E+02</totfact>
</mgrwt>
</event>
<event>
 7    1  0.1378058E-005  0.1340877E+03  0.7546771E-02  0.1233935E+00
         -2   -1    0    0    0  501 -0.00000000000E+00  0.00000000000E+00  0.60858274199E+03  0.60858274199E+03  0.00000000000E+00 0.  1.
          2   -1    0    0  501    0  0.00000000000E+00 -0.00000000000E+00 -0.23488721741E+02  0.23488721741E+02  0.00000000000E+00 0. -1.
         23    2    1    2    0    0 -0.88805670481E+01  0.47702549495E+02  0.22184224991E+03  0.24486174327E+03  0.91590893500E+02 0.  0.
          5    1    1    2  502    0  0.25188620394E+00 -0.90261848080E+02  0.24141371922E+03  0.25777885579E+03  0.47000000000E+01 0.  1.
         -5    1    1    2    0  502  0.86286808442E+01  0.42559298585E+02  0.12183805112E+03  0.12943086467E+03  0.47000000000E+01 0.  1.
        -11    1    3    3    0    0 -0.44695501091E+02  0.12876254452E+02  0.62740372277E+02  0.78101472841E+02  0.00000000000E+00 0. -1.
         11    1    3    3    0    0  0.35814934043E+02  0.34826295043E+02  0.15910187764E+03  0.16676027043E+03  0.00000000000E+00 0.  1.
<mgrwt>
<rscale>  0 0.12572856E+03</rscale>
<asrwt>0</asrwt>
<pdfrwt beam="2">  1        2 0.36136500E-02 0.13408773E+03</pdfrwt>
<pdfrwt beam="1">  1       -2 0.93628102E-01 0.13408773E+03</pdfrwt>
<totfact> 0.23234949E+03</totfact>
</mgrwt>
</event>
<event>
 7    1  0.1378058E-005  0.1158218E+03  0.7546771E-02  0.1260870E+00
         -1   -1    0    0    0  501 -0.00000000000E+00  0.00000000000E+00  0.44688515513E+02  0.44688515513E+02  0.00000000000E+00 0.  1.
          1   -1    0    0  501    0  0.00000000000E+00 -0.00000000000E+00 -0.27469966065E+03  0.27469966065E+03  0.00000000000E+00 0. -1.
         23    2    1    2    0    0 -0.76352946524E+00  0.19627758476E+02 -0.15591497351E+03  0.18189297765E+03  0.91595548314E+02 0.  0.
          5    1    1    2  502    0  0.51504109524E+01 -0.14788964345E+02 -0.10463976538E+03  0.10590944575E+03  0.47000000000E+01 0. -1.
         -5    1    1    2    0  502 -0.43868814871E+01 -0.48387941314E+01  0.30543593763E+02  0.31585752766E+02  0.47000000000E+01 0.  1.
        -11    1    3    3    0    0 -0.22714211066E+02 -0.31034152625E+02 -0.62945616923E+02  0.73764521982E+02  0.00000000000E+00 0.  1.
         11    1    3    3    0    0  0.21950681601E+02  0.50661911101E+02 -0.92969356592E+02  0.10812845566E+03  0.00000000000E+00 0. -1.
<mgrwt>
<rscale>  0 0.10983788E+03</rscale>
<asrwt>0</asrwt>
<pdfrwt beam="2">  1        1 0.42261486E-01 0.11582179E+03</pdfrwt>
<pdfrwt beam="1">  1       -1 0.68751562E-02 0.11582179E+03</pdfrwt>
<totfact> 0.99321386E+03</totfact>
</mgrwt>
</event>
<event>
 7    1  0.1378058E-005  0.1260039E+03  0.7546771E-02  0.1248462E+00
         -2   -1    0    0    0  501 -0.00000000000E+00  0.00000000000E+00  0.28834336993E+02  0.28834336993E+02  0.00000000000E+00 0.  1.
          2   -1    0    0  501    0  0.00000000000E+00 -0.00000000000E+00 -0.43764846109E+03  0.43764846109E+03  0.00000000000E+00 0. -1.
         23    2    1    2    0    0 -0.37215473618E+01  0.15475702653E+02 -0.22645833453E+03  0.24482850192E+03  0.91674809990E+02 0.  0.
          5    1    1    2  502    0 -0.56624193949E+02 -0.15675593290E+02 -0.12531009401E+03  0.13848008242E+03  0.47000000000E+01 0.  1.
         -5    1    1    2    0  502  0.60345741310E+02  0.19989063677E+00 -0.57045695552E+02  0.83174213742E+02  0.47000000000E+01 0.  1.
        -11    1    3    3    0    0 -0.37956939133E+02 -0.19209287730E+02 -0.82121790857E+02  0.92486293563E+02  0.00000000000E+00 0.  1.
         11    1    3    3    0    0  0.34235391771E+02  0.34684990383E+02 -0.14433654367E+03  0.15234220836E+03  0.00000000000E+00 0. -1.
<mgrwt>
<rscale>  0 0.11680539E+03</rscale>
<asrwt>0</asrwt>
<pdfrwt beam="2">  1        2 0.67330530E-01 0.12600394E+03</pdfrwt>
<pdfrwt beam="1">  1       -2 0.44360520E-02 0.12600394E+03</pdfrwt>
<totfact> 0.15907879E+04</totfact>
</mgrwt>
</event>
<event>
 7    1  0.1378058E-005  0.1824991E+03  0.7546771E-02  0.1171268E+00
          2   -1    0    0  501    0  0.00000000000E+00  0.00000000000E+00  0.10423480237E+04  0.10423480237E+04  0.00000000000E+00 0. -1.
         -2   -1    0    0    0  501 -0.00000000000E+00 -0.00000000000E+00 -0.28095840241E+02  0.28095840241E+02  0.00000000000E+00 0.  1.
         23    2    1    2    0    0 -0.11560236799E+03  0.65703582443E+02  0.49252906645E+03  0.51772246730E+03  0.88152161698E+02 0.  0.
          5    1    1    2  502    0 -0.24283792237E+01  0.18678038290E+02  0.18530328127E+03  0.18631736953E+03  0.47000000000E+01 0.  1.
         -5    1    1    2    0  502  0.11803074722E+03 -0.84381620733E+02  0.33641983573E+03  0.36640402710E+03  0.47000000000E+01 0.  1.
        -11    1    3    3    0    0 -0.80297991370E+02  0.51785863654E+02  0.45283979861E+03  0.46281035673E+03  0.00000000000E+00 0. -1.
         11    1    3    3    0    0 -0.35304376622E+02  0.13917718788E+02  0.39689267844E+02  0.54912110567E+02  0.00000000000E+00 0.  1.
<mgrwt>
<rscale>  0 0.17646563E+03</rscale>
<asrwt>0</asrwt>
<pdfrwt beam="1">  1        2 0.16036120E+00 0.18249913E+03</pdfrwt>
<pdfrwt beam="2">  1       -2 0.43224378E-02 0.18249913E+03</pdfrwt>
<totfact> 0.59563196E+03</totfact>
</mgrwt>
</event>
<event>
 7    1  0.1378058E-005  0.1541465E+03  0.7546771E-02  0.1201886E+00
         -2   -1    0    0    0  501 -0.00000000000E+00  0.00000000000E+00  0.38014026552E+02  0.38014026552E+02  0.00000000000E+00 0.  1.
          2   -1    0    0  501    0  0.00000000000E+00 -0.00000000000E+00 -0.56504290062E+03  0.56504290062E+03  0.00000000000E+00 0. -1.
         23    2    1    2    0    0 -0.84926450248E+02  0.30391683032E+02 -0.30064886370E+03  0.32917911560E+03  0.99161457020E+02 0.  0.
          5    1    1    2  502    0  0.78304998596E+02  0.35010870757E+02 -0.10409553905E+03  0.13496445875E+03  0.47000000000E+01 0. -1.
         -5    1    1    2    0  502  0.66214516521E+01 -0.65402553790E+02 -0.12228447132E+03  0.13891335282E+03  0.47000000000E+01 0. -1.
        -11    1    3    3    0    0 -0.61345557535E+02  0.63035094084E+02 -0.24631707192E+03  0.26155076072E+03  0.00000000000E+00 0. -1.
         11    1    3    3    0    0 -0.23580892713E+02 -0.32643411052E+02 -0.54331791780E+02  0.67628354884E+02  0.00000000000E+00 0.  1.
<mgrwt>
<rscale>  0 0.14885596E+03</rscale>
<asrwt>0</asrwt>
<pdfrwt beam="2">  1        2 0.86929673E-01 0.15414651E+03</pdfrwt>
<pdfrwt beam="1">  1       -2 0.58483120E-02 0.15414651E+03</pdfrwt>
<totfact> 0.80418995E+03</totfact>
</mgrwt>
</event>
<event>
 7    1  0.1378058E-005  0.1394673E+03  0.7546771E-02  0.1224927E+00
          1   -1    0    0  501    0  0.00000000000E+00  0.00000000000E+00  0.94309251351E+02  0.94309251351E+02  0.00000000000E+00 0. -1.
         -1   -1    0    0    0  501 -0.00000000000E+00 -0.00000000000E+00 -0.17284018879E+03  0.17284018879E+03  0.00000000000E+00 0.  1.
         23    2    1    2    0    0  0.34940206734E+02 -0.51044786716E+02 -0.90469096128E+01  0.11133173614E+03  0.92122313264E+02 0.  0.
          5    1    1    2  502    0  0.15409445245E+02  0.39402433746E+02 -0.90359539655E+02  0.99884629421E+02  0.47000000000E+01 0. -1.
         -5    1    1    2    0  502 -0.50349651979E+02  0.11642352970E+02  0.20875511833E+02  0.55933074575E+02  0.47000000000E+01 0. -1.
        -11    1    3    3    0    0  0.52864136953E+01 -0.70546498018E+02  0.93430140659E+01  0.71358576669E+02  0.00000000000E+00 0. -1.
         11    1    3    3    0    0  0.29653793038E+02  0.19501711302E+02 -0.18389923679E+02  0.39973159472E+02  0.00000000000E+00 0.  1.
<mgrwt>
<rscale>  0 0.13171929E+03</rscale>
<asrwt>0</asrwt>
<pdfrwt beam="1">  1        1 0.14509116E-01 0.13946730E+03</pdfrwt>
<pdfrwt beam="2">  1       -1 0.26590798E-01 0.13946730E+03</pdfrwt>
<totfact> 0.46781795E+03</totfact>
</mgrwt>
</event>
<event>
 7    1  0.1378058E-005  0.2336989E+03  0.7546771E-02  0.1126902E+00
          1   -1    0    0  501    0  0.00000000000E+00  0.00000000000E+00  0.12560608284E+04  0.12560608284E+04  0.00000000000E+00 0. -1.
         -1   -1    0    0    0  501 -0.00000000000E+00 -0.00000000000E+00 -0.57536235655E+02  0.57536235655E+02  0.00000000000E+00 0.  1.
         23    2    1    2    0    0 -0.86407293350E+02  0.17755194725E+03  0.94081184747E+03  0.96570194633E+03  0.91991317493E+02 0.  0.
          5    1    1    2  502    0  0.70001366537E+02 -0.10367542633E+03  0.23899745835E+03  0.26979744336E+03  0.47000000000E+01 0. -1.
         -5    1    1    2    0  502  0.16405926813E+02 -0.73876520922E+02  0.18715286932E+02  0.78097674377E+02  0.47000000000E+01 0. -1.
        -11    1    3    3    0    0 -0.25479010207E+02  0.13360300750E+03  0.71195248028E+03  0.72482775729E+03  0.00000000000E+00 0.  1.
         11    1    3    3    0    0 -0.60928283144E+02  0.43948939757E+02  0.22885936719E+03  0.24087418903E+03  0.00000000000E+00 0. -1.
<mgrwt>
<rscale>  0 0.22962848E+03</rscale>
<asrwt>0</asrwt>
<pdfrwt beam="1">  1        1 0.19324011E+00 0.23369885E+03</pdfrwt>
<pdfrwt beam="2">  1       -1 0.88517295E-02 0.23369885E+03</pdfrwt>
<totfact> 0.77442685E+02</totfact>
</mgrwt>
</event>
<event>
 7    1  0.1378058E-005  0.1403851E+03  0.7546771E-02  0.1223481E+00
         -2   -1    0    0    0  501 -0.00000000000E+00  0.00000000000E+00  0.21269649490E+02  0.21269649490E+02  0.00000000000E+00 0.  1.
          2   -1    0    0  501    0  0.00000000000E+00 -0.00000000000E+00 -0.79307093560E+03  0.79307093560E+03  0.00000000000E+00 0. -1.
         23    2    1    2    0    0  0.78071588674E+01  0.63415465324E+02 -0.43998935468E+03  0.45405299655E+03  0.92146722548E+02 0.  0.
          5    1    1    2  502    0  0.52847833476E+02 -0.52336122781E+02 -0.22310833182E+03  0.23522623361E+03  0.47000000000E+01 0.  1.
         -5    1    1    2    0  502 -0.60654992343E+02 -0.11079342542E+02 -0.10870359961E+03  0.12506135492E+03  0.47000000000E+01 0.  1.
        -11    1    3    3    0    0  0.16169317561E+02  0.74066169044E+02 -0.43141534199E+03  0.43802561743E+03  0.00000000000E+00 0. -1.
         11    1    3    3    0    0 -0.83621586935E+01 -0.10650703720E+02 -0.85740126907E+01  0.16027379117E+02  0.00000000000E+00 0.  1.
<mgrwt>
<rscale>  0 0.13271587E+03</rscale>
<asrwt>0</asrwt>
<pdfrwt beam="2">  1        2 0.12201090E+00 0.14038514E+03</pdfrwt>
<pdfrwt beam="1">  1       -2 0.32722541E-02 0.14038514E+03</pdfrwt>
<totfact> 0.12779421E+04</totfact>
</mgrwt>
</event>
<event>
 7    1  0.1378058E-005  0.1401412E+03  0.7546771E-02  0.1221147E+00
          2   -1    0    0  501    0  0.00000000000E+00  0.00000000000E+00  0.14571980328E+03  0.14571980328E+03  0.00000000000E+00 0. -1.
         -2   -1    0    0    0  501 -0.00000000000E+00 -0.00000000000E+00 -0.22051103623E+03  0.22051103623E+03  0.00000000000E+00 0.  1.
         23    2    1    2    0    0 -0.39512400724E+02  0.49532149810E+02  0.90889731701E+02  0.14922912933E+03  0.99968625266E+02 0.  0.
          5    1    1    2  502    0  0.60286581583E+02 -0.54678679702E+02 -0.17510186301E+03  0.19315015496E+03  0.47000000000E+01 0.  1.
         -5    1    1    2    0  502 -0.20774180859E+02  0.51465298921E+01  0.94208983531E+01  0.23851555213E+02  0.47000000000E+01 0.  1.
        -11    1    3    3    0    0 -0.22067373288E+02 -0.28634079277E+02  0.15830610656E+02  0.39465018607E+02  0.00000000000E+00 0. -1.
         11    1    3    3    0    0 -0.17445027436E+02  0.78166229087E+02  0.75059121046E+02  0.10976411073E+03  0.00000000000E+00 0.  1.
<mgrwt>
<rscale>  0 0.13434544E+03</rscale>
<asrwt>0</asrwt>
<pdfrwt beam="1">  1        2 0.22418431E-01 0.14014122E+03</pdfrwt>
<pdfrwt beam="2">  1       -2 0.33924775E-01 0.14014122E+03</pdfrwt>
<totfact> 0.19311165E+03</totfact>
</mgrwt>
</event>
<event>
 7    1  0.1378058E-005  0.2046491E+03  0.7546771E-02  0.1149852E+00
          1   -1    0    0  501    0  0.00000000000E+00  0.00000000000E+00  0.45805093073E+03  0.45805093073E+03  0.00000000000E+00 0. -1.
         -1   -1    0    0    0  501 -0.00000000000E+00 -0.00000000000E+00 -0.83889451381E+02  0.83889451381E+02  0.00000000000E+00 0.  1.
         23    2    1    2    0    0 -0.13098420897E+02 -0.16150598570E+03  0.19966884640E+03  0.27299996377E+03  0.91681949961E+02 0.  0.
          5    1    1    2  502    0  0.65549257670E+02  0.11834378405E+03  0.12945603993E+03  0.18730433171E+03  0.47000000000E+01 0.  1.
         -5    1    1    2    0  502 -0.52450836773E+02  0.43162201644E+02  0.45036593021E+02  0.81636086628E+02  0.47000000000E+01 0.  1.
        -11    1    3    3    0    0 -0.41157306596E+02 -0.43932520028E+02  0.98189420226E+02  0.11517444355E+03  0.00000000000E+00 0. -1.
         11    1    3    3    0    0  0.28058885699E+02 -0.11757346567E+03  0.10147942618E+03  0.15782552022E+03  0.00000000000E+00 0.  1.
<mgrwt>
<rscale>  0 0.19986562E+03</rscale>
<asrwt>0</asrwt>
<pdfrwt beam="1">  1        1 0.70469373E-01 0.20464914E+03</pdfrwt>
<pdfrwt beam="2">  1       -1 0.12906070E-01 0.20464914E+03</pdfrwt>
<totfact> 0.20553242E+03</totfact>
</mgrwt>
</event>
<event>
 7    1  0.1378058E-005  0.1273994E+03  0.7546771E-02  0.1246348E+00
          2   -1    0    0  501    0  0.00000000000E+00  0.00000000000E+00  0.21713339157E+03  0.21713339157E+03  0.00000000000E+00 0. -1.
         -2   -1    0    0    0  501 -0.00000000000E+00 -0.00000000000E+00 -0.57832487587E+02  0.57832487587E+02  0.00000000000E+00 0.  1.
         23    2    1    2    0    0 -0.12465512134E+02 -0.21221537613E+02  0.89311386174E+02  0.12960719416E+03  0.90640820969E+02 0.  0.
          5    1    1    2  502    0  0.29878414877E+02  0.29452830575E+01 -0.29654018324E+02  0.42459924289E+02  0.47000000000E+01 0. -1.
         -5    1    1    2    0  502 -0.17412902743E+02  0.18276254555E+02  0.99643536136E+02  0.10289876071E+03  0.47000000000E+01 0. -1.
        -11    1    3    3    0    0 -0.24490107515E+02  0.26790473395E+02  0.65036813918E+02  0.74480077842E+02  0.00000000000E+00 0. -1.
         11    1    3    3    0    0  0.12024595381E+02 -0.48012011008E+02  0.24274572256E+02  0.55127116316E+02  0.00000000000E+00 0.  1.
<mgrwt>
<rscale>  0 0.11805066E+03</rscale>
<asrwt>0</asrwt>
<pdfrwt beam="1">  1        2 0.33405137E-01 0.12739943E+03</pdfrwt>
<pdfrwt beam="2">  1       -2 0.88973059E-02 0.12739943E+03</pdfrwt>
<totfact> 0.11648838E+04</totfact>
</mgrwt>
</event>
<event>
 7    1  0.1378058E-005  0.1638556E+03  0.7546771E-02  0.1191220E+00
          1   -1    0    0  501    0  0.00000000000E+00  0.00000000000E+00  0.23395252993E+03  0.23395252993E+03  0.00000000000E+00 0. -1.
         -1   -1    0    0    0  501 -0.00000000000E+00 -0.00000000000E+00 -0.10008613011E+03  0.10008613011E+03  0.00000000000E+00 0.  1.
         23    2    1    2    0    0 -0.21655654280E+02 -0.10370293037E+03  0.77232152090E+02  0.16067176318E+03  0.92883502510E+02 0.  0.
          5    1    1    2  502    0  0.61226725082E+02  0.71317731358E+02  0.73399023222E+02  0.11935006192E+03  0.47000000000E+01 0.  1.
         -5    1    1    2    0  502 -0.39571070802E+02  0.32385199008E+02 -0.16764775496E+02  0.54016834937E+02  0.47000000000E+01 0.  1.
        -11    1    3    3    0    0  0.27388437814E+02 -0.15164467806E+02  0.44278080543E+02  0.54227631575E+02  0.00000000000E+00 0.  1.
         11    1    3    3    0    0 -0.49044092094E+02 -0.88538462560E+02  0.32954071548E+02  0.10644413161E+03  0.00000000000E+00 0. -1.
<mgrwt>
<rscale>  0 0.15778569E+03</rscale>
<asrwt>0</asrwt>
<pdfrwt beam="1">  1        1 0.35992697E-01 0.16385556E+03</pdfrwt>
<pdfrwt beam="2">  1       -1 0.15397866E-01 0.16385556E+03</pdfrwt>
<totfact> 0.36033597E+03</totfact>
</mgrwt>
</event>
<event>
 7    1  0.1378058E-005  0.1273961E+03  0.7546771E-02  0.1247124E+00
          1   -1    0    0  501    0  0.00000000000E+00  0.00000000000E+00  0.31397632528E+03  0.31397632528E+03  0.00000000000E+00 0. -1.
         -1   -1    0    0    0  501 -0.00000000000E+00 -0.00000000000E+00 -0.42777881219E+02  0.42777881219E+02  0.00000000000E+00 0.  1.
         23    2    1    2    0    0  0.11801545315E+01  0.24617183492E+02  0.17202720528E+03  0.19530852458E+03  0.89132833046E+02 0.  0.
          5    1    1    2  502    0 -0.51939298601E+02  0.22975488714E+02  0.52863299206E+02  0.77731475116E+02  0.47000000000E+01 0. -1.
         -5    1    1    2    0  502  0.50759144069E+02 -0.47592672206E+02  0.46307939577E+02  0.83714206812E+02  0.47000000000E+01 0. -1.
        -11    1    3    3    0    0  0.43945836144E+02  0.22925195009E+02  0.97093568878E+02  0.10901358722E+03  0.00000000000E+00 0. -1.
         11    1    3    3    0    0 -0.42765681613E+02  0.16919884826E+01  0.74933636404E+02  0.86294937358E+02  0.00000000000E+00 0.  1.
<mgrwt>
<rscale>  0 0.11759152E+03</rscale>
<asrwt>0</asrwt>
<pdfrwt beam="1">  1        1 0.48304048E-01 0.12739613E+03</pdfrwt>
<pdfrwt beam="2">  1       -1 0.65812127E-02 0.12739613E+03</pdfrwt>
<totfact> 0.90575268E+03</totfact>
</mgrwt>
</event>
<event>
 7    1  0.1378058E-005  0.1294920E+03  0.7546771E-02  0.1241758E+00
          3   -1    0    0  501    0  0.00000000000E+00  0.00000000000E+00  0.10444617823E+03  0.10444617823E+03  0.00000000000E+00 0. -1.
         -3   -1    0    0    0  501 -0.00000000000E+00 -0.00000000000E+00 -0.16407405433E+03  0.16407405433E+03  0.00000000000E+00 0.  1.
         23    2    1    2    0    0  0.33712859869E+02  0.22493338343E+01  0.39162460412E+02  0.10564695496E+03  0.92119294201E+02 0.  0.
          5    1    1    2  502    0 -0.21204493191E+02  0.52247880472E+02 -0.89663974043E+02  0.10602447730E+03  0.47000000000E+01 0.  1.
         -5    1    1    2    0  502 -0.12508366678E+02 -0.54497214306E+02 -0.91263624677E+01  0.56848800303E+02  0.47000000000E+01 0.  1.
        -11    1    3    3    0    0  0.12316026976E+02 -0.19705029516E+02  0.62783559250E+02  0.66945858877E+02  0.00000000000E+00 0. -1.
         11    1    3    3    0    0  0.21396832893E+02  0.21954363350E+02 -0.23621098838E+02  0.38701096086E+02  0.00000000000E+00 0.  1.
<mgrwt>
<rscale>  0 0.12081526E+03</rscale>
<asrwt>0</asrwt>
<pdfrwt beam="1">  1        3 0.16068643E-01 0.12949198E+03</pdfrwt>
<pdfrwt beam="2">  1       -3 0.25242162E-01 0.12949198E+03</pdfrwt>
<totfact> 0.11121145E+03</totfact>
</mgrwt>
</event>
<event>
 7    1  0.1378058E-005  0.1548186E+03  0.7546771E-02  0.1202830E+00
          1   -1    0    0  501    0  0.00000000000E+00  0.00000000000E+00  0.11525275820E+03  0.11525275820E+03  0.00000000000E+00 0. -1.
         -1   -1    0    0    0  501 -0.00000000000E+00 -0.00000000000E+00 -0.17553712060E+03  0.17553712060E+03  0.00000000000E+00 0.  1.
         23    2    1    2    0    0  0.42243663153E+02  0.81012484151E+02 -0.25797311889E+02  0.13217661016E+03  0.91965239675E+02 0.  0.
          5    1    1    2  502    0 -0.74095855876E+02 -0.93984422897E+02 -0.31050738502E+02  0.12373158840E+03  0.47000000000E+01 0. -1.
         -5    1    1    2    0  502  0.31852192723E+02  0.12971938746E+02 -0.34363120046E+01  0.34881680239E+02  0.47000000000E+01 0. -1.
        -11    1    3    3    0    0  0.71501876900E+02  0.51893812275E+02 -0.16931677466E+02  0.89956477557E+02  0.00000000000E+00 0.  1.
         11    1    3    3    0    0 -0.29258213747E+02  0.29118671876E+02 -0.88656344233E+01  0.42220132605E+02  0.00000000000E+00 0. -1.
<mgrwt>
<rscale>  0 0.14809751E+03</rscale>
<asrwt>0</asrwt>
<pdfrwt beam="1">  1        1 0.17731194E-01 0.15481864E+03</pdfrwt>
<pdfrwt beam="2">  1       -1 0.27005711E-01 0.15481864E+03</pdfrwt>
<totfact> 0.35396975E+03</totfact>
</mgrwt>
</event>
<event>
 7    1  0.1378058E-005  0.1895296E+03  0.7546771E-02  0.1163725E+00
         -2   -1    0    0    0  501 -0.00000000000E+00  0.00000000000E+00  0.16932811590E+03  0.16932811590E+03  0.00000000000E+00 0.  1.
          2   -1    0    0  501    0  0.00000000000E+00 -0.00000000000E+00 -0.23846474232E+03  0.23846474232E+03  0.00000000000E+00 0. -1.
         23    2    1    2    0    0  0.98798888998E+02 -0.10264113342E+03 -0.12464353031E+03  0.21030243100E+03  0.91622486875E+02 0.  0.
          5    1    1    2  502    0 -0.55031446618E+02  0.40705214599E+00 -0.24488299496E+02  0.60418479131E+02  0.47000000000E+01 0.  1.
         -5    1    1    2    0  502 -0.43767442380E+02  0.10223408127E+03  0.79995203385E+02  0.13707194808E+03  0.47000000000E+01 0.  1.
        -11    1    3    3    0    0  0.30220785064E+02 -0.77257608115E+02 -0.10643196983E+03  0.13494368479E+03  0.00000000000E+00 0.  1.
         11    1    3    3    0    0  0.68578103934E+02 -0.25383525306E+02 -0.18211560473E+02  0.75358746214E+02  0.00000000000E+00 0. -1.
<mgrwt>
<rscale>  0 0.18427911E+03</rscale>
<asrwt>0</asrwt>
<pdfrwt beam="2">  1        2 0.36686884E-01 0.18952956E+03</pdfrwt>
<pdfrwt beam="1">  1       -2 0.26050479E-01 0.18952956E+03</pdfrwt>
<totfact> 0.18326926E+03</totfact>
</mgrwt>
</event>
<event>
 7    1  0.1378058E-005  0.1342504E+03  0.7546771E-02  0.1233944E+00
         -1   -1    0    0    0  501 -0.00000000000E+00  0.00000000000E+00  0.82631222325E+02  0.82631222325E+02  0.00000000000E+00 0.  1.
          1   -1    0    0  501    0  0.00000000000E+00 -0.00000000000E+00 -0.21081831442E+03  0.21081831442E+03  0.00000000000E+00 0. -1.
         23    2    1    2    0    0  0.19201115082E+02 -0.45064403627E+02 -0.12091359558E+03  0.15900227590E+03  0.90896330248E+02 0.  0.
          5    1    1    2  502    0 -0.33689620357E+02  0.73038286923E+02 -0.38979765579E+02  0.89504714965E+02  0.47000000000E+01 0.  1.
         -5    1    1    2    0  502  0.14488505275E+02 -0.27973883296E+02  0.31706269062E+02  0.44942545874E+02  0.47000000000E+01 0.  1.
        -11    1    3    3    0    0  0.40266681998E+02 -0.52352019677E+02 -0.11965918931E+03  0.13667648382E+03  0.00000000000E+00 0. -1.
         11    1    3    3    0    0 -0.21065566917E+02  0.72876160494E+01 -0.12544062713E+01  0.22325792087E+02  0.00000000000E+00 0.  1.
<mgrwt>
<rscale>  0 0.12572295E+03</rscale>
<asrwt>0</asrwt>
<pdfrwt beam="2">  1        1 0.32433586E-01 0.13425037E+03</pdfrwt>
<pdfrwt beam="1">  1       -1 0.12712496E-01 0.13425037E+03</pdfrwt>
<totfact> 0.54731078E+03</totfact>
</mgrwt>
</event>
<event>
 7    1  0.1378058E-005  0.3233744E+03  0.7546771E-02  0.1075383E+00
         -1   -1    0    0    0  501 -0.00000000000E+00  0.00000000000E+00  0.22801415193E+03  0.22801415193E+03  0.00000000000E+00 0.  1.
          1   -1    0    0  501    0  0.00000000000E+00 -0.00000000000E+00 -0.44312444201E+03  0.44312444201E+03  0.00000000000E+00 0. -1.
         23    2    1    2    0    0 -0.28479395628E+03  0.88537588200E+02 -0.10300924294E+03  0.32888479322E+03  0.92778235732E+02 0.  0.
          5    1    1    2  502    0  0.21099735543E+03 -0.51975477399E+02 -0.19484623606E+02  0.21822711749E+03  0.47000000000E+01 0. -1.
         -5    1    1    2    0  502  0.73796600845E+02 -0.36562110801E+02 -0.92616423535E+02  0.12402668322E+03  0.47000000000E+01 0. -1.
        -11    1    3    3    0    0 -0.13873117580E+03  0.49363595184E+02 -0.24396022027E+01  0.14727204530E+03  0.00000000000E+00 0.  1.
         11    1    3    3    0    0 -0.14606278048E+03  0.39173993017E+02 -0.10056964074E+03  0.18161274792E+03  0.00000000000E+00 0. -1.
<mgrwt>
<rscale>  0 0.32057899E+03</rscale>
<asrwt>0</asrwt>
<pdfrwt beam="2">  1        1 0.68172990E-01 0.32337443E+03</pdfrwt>
<pdfrwt beam="1">  1       -1 0.35079101E-01 0.32337443E+03</pdfrwt>
<totfact> 0.41431820E+02</totfact>
</mgrwt>
</event>
<event>
 7    1  0.1378058E-005  0.1521061E+03  0.7546771E-02  0.1207681E+00
         -2   -1    0    0    0  501 -0.00000000000E+00  0.00000000000E+00  0.76211131998E+03  0.76211131998E+03  0.00000000000E+00 0.  1.
          2   -1    0    0  501    0  0.00000000000E+00 -0.00000000000E+00 -0.35912775037E+02  0.35912775037E+02  0.00000000000E+00 0. -1.
         23    2    1    2    0    0  0.86483401128E+02  0.57355616453E+01  0.11607325017E+03  0.16922432239E+03  0.87473404777E+02 0.  0.
          5    1    1    2  502    0  0.24205571591E+02  0.20096029650E+02  0.70956152699E+02  0.77760052145E+02  0.47000000000E+01 0.  1.
         -5    1    1    2    0  502 -0.11068897272E+03 -0.25831591295E+02  0.53916914207E+03  0.55103972048E+03  0.47000000000E+01 0.  1.
        -11    1    3    3    0    0  0.72617510200E+02 -0.31770923027E+01  0.12913948246E+03  0.14819042693E+03  0.00000000000E+00 0.  1.
         11    1    3    3    0    0  0.13865890928E+02  0.89126539480E+01 -0.13066232292E+02  0.21033895453E+02  0.00000000000E+00 0. -1.
<mgrwt>
<rscale>  0 0.14428173E+03</rscale>
<asrwt>0</asrwt>
<pdfrwt beam="2">  1        2 0.55250429E-02 0.15210614E+03</pdfrwt>
<pdfrwt beam="1">  1       -2 0.11724788E+00 0.15210614E+03</pdfrwt>
<totfact> 0.79214955E+02</totfact>
</mgrwt>
</event>
<event>
 7    1  0.1378058E-005  0.1433439E+03  0.7546771E-02  0.1218526E+00
         -1   -1    0    0    0  501 -0.00000000000E+00  0.00000000000E+00  0.83232567739E+02  0.83232567739E+02  0.00000000000E+00 0.  1.
          1   -1    0    0  501    0  0.00000000000E+00 -0.00000000000E+00 -0.20346862718E+03  0.20346862718E+03  0.00000000000E+00 0. -1.
         23    2    1    2    0    0  0.18320115549E+02  0.71153528887E+02 -0.50743387769E+02  0.12740055331E+03  0.90871108036E+02 0.  0.
          5    1    1    2  502    0  0.33780566847E+02  0.52033985866E+01 -0.55985825305E+02  0.65762486939E+02  0.47000000000E+01 0. -1.
         -5    1    1    2    0  502 -0.52100682396E+02 -0.76356927473E+02 -0.13506846368E+02  0.93538154665E+02  0.47000000000E+01 0.  1.
        -11    1    3    3    0    0 -0.46750569366E+01  0.81202612455E+02 -0.13437558928E+02  0.82439604662E+02  0.00000000000E+00 0.  1.
         11    1    3    3    0    0  0.22995172485E+02 -0.10049083568E+02 -0.37305828840E+02  0.44960948652E+02  0.00000000000E+00 0. -1.
<mgrwt>
<rscale>  0 0.13620712E+03</rscale>
<asrwt>0</asrwt>
<pdfrwt beam="2">  1        1 0.31302866E-01 0.14334386E+03</pdfrwt>
<pdfrwt beam="1">  1       -1 0.12805010E-01 0.14334386E+03</pdfrwt>
<totfact> 0.56785844E+03</totfact>
</mgrwt>
</event>
<event>
 7    1  0.1378058E-005  0.1978885E+03  0.7546771E-02  0.1156333E+00
         -2   -1    0    0    0  501 -0.00000000000E+00  0.00000000000E+00  0.48588648225E+02  0.48588648225E+02  0.00000000000E+00 0. -1.
          2   -1    0    0  501    0  0.00000000000E+00 -0.00000000000E+00 -0.77721450242E+03  0.77721450242E+03  0.00000000000E+00 0.  1.
         23    2    1    2    0    0 -0.10854195116E+03 -0.10840899076E+03 -0.45493828049E+03  0.48806839813E+03  0.87795545167E+02 0.  0.
          5    1    1    2  502    0  0.49657021150E+02  0.10344289524E+03 -0.93637061701E+02  0.14817638695E+03  0.47000000000E+01 0.  1.
         -5    1    1    2    0  502  0.58884930006E+02  0.49660955177E+01 -0.18005051200E+03  0.18955836557E+03  0.47000000000E+01 0.  1.
        -11    1    3    3    0    0 -0.35407515325E+02 -0.80280862016E+02 -0.32214660922E+03  0.33388193539E+03  0.00000000000E+00 0.  1.
         11    1    3    3    0    0 -0.73134435831E+02 -0.28128128742E+02 -0.13279167127E+03  0.15418646273E+03  0.00000000000E+00 0. -1.
<mgrwt>
<rscale>  0 0.19237902E+03</rscale>
<asrwt>0</asrwt>
<pdfrwt beam="2">  1        2 0.11957145E+00 0.19788854E+03</pdfrwt>
<pdfrwt beam="1">  1       -2 0.74751771E-02 0.19788854E+03</pdfrwt>
<totfact> 0.38266808E+03</totfact>
</mgrwt>
</event>
<event>
 7    1  0.1378058E-005  0.1463700E+03  0.7546771E-02  0.1214099E+00
          2   -1    0    0  501    0  0.00000000000E+00  0.00000000000E+00  0.58467062093E+03  0.58467062093E+03  0.00000000000E+00 0. -1.
         -2   -1    0    0    0  501 -0.00000000000E+00 -0.00000000000E+00 -0.37976046859E+02  0.37976046859E+02  0.00000000000E+00 0.  1.
         23    2    1    2    0    0  0.14828180824E+00  0.76150507493E+02  0.39011638822E+03  0.40830839417E+03  0.93413203670E+02 0.  0.
          5    1    1    2  502    0 -0.74805997831E+01 -0.98297389513E+02  0.61409371176E+02  0.11623913724E+03  0.47000000000E+01 0. -1.
         -5    1    1    2    0  502  0.73323179748E+01  0.22146882020E+02  0.95168814679E+02  0.98099136375E+02  0.47000000000E+01 0. -1.
        -11    1    3    3    0    0  0.42506187722E+02  0.60216219379E+02  0.27229010711E+03  0.28208982878E+03  0.00000000000E+00 0.  1.
         11    1    3    3    0    0 -0.42357905914E+02  0.15934288113E+02  0.11782628111E+03  0.12621856540E+03  0.00000000000E+00 0. -1.
<mgrwt>
<rscale>  0 0.13942906E+03</rscale>
<asrwt>0</asrwt>
<pdfrwt beam="1">  1        2 0.89949320E-01 0.14636997E+03</pdfrwt>
<pdfrwt beam="2">  1       -2 0.58424692E-02 0.14636997E+03</pdfrwt>
<totfact> 0.77253978E+03</totfact>
</mgrwt>
</event>
<event>
 7    1  0.1378058E-005  0.2116265E+03  0.7546771E-02  0.1161563E+00
          1   -1    0    0  501    0  0.00000000000E+00  0.00000000000E+00  0.30297249245E+03  0.30297249245E+03  0.00000000000E+00 0. -1.
         -1   -1    0    0    0  501 -0.00000000000E+00 -0.00000000000E+00 -0.11763783894E+03  0.11763783894E+03  0.00000000000E+00 0.  1.
         23    2    1    2    0    0 -0.41674725781E+02 -0.85980059825E+02  0.16388287285E+03  0.20789932255E+03  0.85059854493E+02 0.  0.
          5    1    1    2  502    0 -0.42181375707E+02  0.97121923200E+02 -0.34167997911E+02  0.11136192574E+03  0.47000000000E+01 0. -1.
         -5    1    1    2    0  502  0.83856101488E+02 -0.11141863375E+02  0.55619778571E+02  0.10134908310E+03  0.47000000000E+01 0.  1.
        -11    1    3    3    0    0 -0.28030717672E+02 -0.32203310524E+02  0.93457846985E+01  0.43704897135E+02  0.00000000000E+00 0.  1.
         11    1    3    3    0    0 -0.13644008109E+02 -0.53776749301E+02  0.15453708816E+03  0.16419442542E+03  0.00000000000E+00 0. -1.
<mgrwt>
<rscale>  0 0.18660168E+03</rscale>
<asrwt>0</asrwt>
<pdfrwt beam="1">  1        1 0.46611152E-01 0.21162654E+03</pdfrwt>
<pdfrwt beam="2">  1       -1 0.18098129E-01 0.21162654E+03</pdfrwt>
<totfact> 0.20362514E+03</totfact>
</mgrwt>
</event>
<event>
 7    1  0.1378058E-005  0.1289099E+03  0.7546771E-02  0.1240541E+00
          2   -1    0    0  501    0  0.00000000000E+00  0.00000000000E+00  0.11950004517E+03  0.11950004517E+03  0.00000000000E+00 0.  1.
         -2   -1    0    0    0  501 -0.00000000000E+00 -0.00000000000E+00 -0.12063770632E+03  0.12063770632E+03  0.00000000000E+00 0. -1.
         23    2    1    2    0    0  0.30162711324E+02 -0.91839686948E+01  0.32350719575E+02  0.10694899444E+03  0.96940104799E+02 0.  0.
          5    1    1    2  502    0 -0.37761310862E+02  0.18444834731E+02  0.40223409193E+02  0.58362155318E+02  0.47000000000E+01 0. -1.
         -5    1    1    2    0  502  0.75985995382E+01 -0.92608660361E+01 -0.73711789920E+02  0.74826601740E+02  0.47000000000E+01 0. -1.
        -11    1    3    3    0    0 -0.34227575227E+02 -0.52408853349E+00  0.23164559989E+02  0.41332776513E+02  0.00000000000E+00 0.  1.
         11    1    3    3    0    0  0.64390286552E+02 -0.86598801613E+01  0.91861595858E+01  0.65616217923E+02  0.00000000000E+00 0. -1.
<mgrwt>
<rscale>  0 0.12156252E+03</rscale>
<asrwt>0</asrwt>
<pdfrwt beam="1">  1        2 0.18384622E-01 0.12890994E+03</pdfrwt>
<pdfrwt beam="2">  1       -2 0.18559647E-01 0.12890994E+03</pdfrwt>
<totfact> 0.69078707E+03</totfact>
</mgrwt>
</event>
<event>
 7    1  0.1378058E-005  0.1393239E+03  0.7546771E-02  0.1225376E+00
          3   -1    0    0  501    0  0.00000000000E+00  0.00000000000E+00  0.63667201178E+02  0.63667201178E+02  0.00000000000E+00 0. -1.
         -3   -1    0    0    0  501 -0.00000000000E+00 -0.00000000000E+00 -0.26270496513E+03  0.26270496513E+03  0.00000000000E+00 0.  1.
         23    2    1    2    0    0 -0.40084184371E+02 -0.46681899358E+02 -0.46185329620E+02  0.11955092176E+03  0.91506265670E+02 0.  0.
          5    1    1    2  502    0 -0.22485132845E+02  0.17911352320E+02  0.93086312015E+01  0.30580031979E+02  0.47000000000E+01 0. -1.
         -5    1    1    2    0  502  0.62569317215E+02  0.28770547038E+02 -0.16216106553E+03  0.17624121257E+03  0.47000000000E+01 0. -1.
        -11    1    3    3    0    0 -0.20090517426E+01 -0.60077156089E+02 -0.26289408251E+01  0.60168200093E+02  0.00000000000E+00 0. -1.
         11    1    3    3    0    0 -0.38075132628E+02  0.13395256731E+02 -0.43556388795E+02  0.59382721665E+02  0.00000000000E+00 0.  1.
<mgrwt>
<rscale>  0 0.13141140E+03</rscale>
<asrwt>0</asrwt>
<pdfrwt beam="1">  1        3 0.97949539E-02 0.13932394E+03</pdfrwt>
<pdfrwt beam="2">  1       -3 0.40416149E-01 0.13932394E+03</pdfrwt>
<totfact> 0.10757151E+03</totfact>
</mgrwt>
</event>
<event>
 7    1  0.1378058E-005  0.1463794E+03  0.7546771E-02  0.1216793E+00
         -2   -1    0    0    0  501 -0.00000000000E+00  0.00000000000E+00  0.63418625752E+02  0.63418625752E+02  0.00000000000E+00 0.  1.
          2   -1    0    0  501    0  0.00000000000E+00 -0.00000000000E+00 -0.30319670798E+03  0.30319670798E+03  0.00000000000E+00 0. -1.
         23    2    1    2    0    0  0.95475747769E+01  0.75573234659E+02 -0.16967605524E+03  0.20431555032E+03  0.84571924414E+02 0.  0.
          5    1    1    2  502    0 -0.47452274100E+02 -0.62423946650E+02 -0.88136428171E+02  0.11806179485E+03  0.47000000000E+01 0. -1.
         -5    1    1    2    0  502  0.37904699323E+02 -0.13149288009E+02  0.18034401184E+02  0.44237988562E+02  0.47000000000E+01 0. -1.
        -11    1    3    3    0    0  0.12842602975E+02 -0.13620852435E+02 -0.60323905593E+02  0.63161963698E+02  0.00000000000E+00 0. -1.
         11    1    3    3    0    0 -0.32950281979E+01  0.89194087094E+02 -0.10935214964E+03  0.14115358662E+03  0.00000000000E+00 0.  1.
<mgrwt>
<rscale>  0 0.13745613E+03</rscale>
<asrwt>0</asrwt>
<pdfrwt beam="2">  1        2 0.46645647E-01 0.14637939E+03</pdfrwt>
<pdfrwt beam="1">  1       -2 0.97567118E-02 0.14637939E+03</pdfrwt>
<totfact> 0.71401521E+03</totfact>
</mgrwt>
</event>
<event>
 7    1  0.1378058E-005  0.1364777E+03  0.7546771E-02  0.1233566E+00
          1   -1    0    0  501    0  0.00000000000E+00  0.00000000000E+00  0.12555001572E+02  0.12555001572E+02  0.00000000000E+00 0. -1.
         -1   -1    0    0    0  501 -0.00000000000E+00 -0.00000000000E+00 -0.11588002439E+04  0.11588002439E+04  0.00000000000E+00 0.  1.
         23    2    1    2    0    0  0.77139757911E+01  0.12060160611E+00 -0.36113937845E+03  0.37447546820E+03  0.98745661410E+02 0.  0.
          5    1    1    2  502    0 -0.28039910605E+02  0.60543499077E+02 -0.28876068038E+03  0.29640609373E+03  0.47000000000E+01 0. -1.
         -5    1    1    2    0  502  0.20325934814E+02 -0.60664100683E+02 -0.49634518346E+03  0.50047368350E+03  0.47000000000E+01 0.  1.
        -11    1    3    3    0    0 -0.29420209059E+02 -0.32522269118E+02 -0.23374168552E+03  0.23782014683E+03  0.00000000000E+00 0.  1.
         11    1    3    3    0    0  0.37134184850E+02  0.32642870724E+02 -0.12739769293E+03  0.13665532137E+03  0.00000000000E+00 0. -1.
<mgrwt>
<rscale>  0 0.12596681E+03</rscale>
<asrwt>0</asrwt>
<pdfrwt beam="1">  1        1 0.19315384E-02 0.13647770E+03</pdfrwt>
<pdfrwt beam="2">  1       -1 0.17827699E+00 0.13647770E+03</pdfrwt>
<totfact> 0.14570319E+03</totfact>
</mgrwt>
</event>
<event>
 7    1  0.1378058E-005  0.1696696E+03  0.7546771E-02  0.1185083E+00
         -1   -1    0    0    0  501 -0.00000000000E+00  0.00000000000E+00  0.31085991726E+03  0.31085991726E+03  0.00000000000E+00 0.  1.
          1   -1    0    0  501    0  0.00000000000E+00 -0.00000000000E+00 -0.10059343869E+03  0.10059343869E+03  0.00000000000E+00 0. -1.
         23    2    1    2    0    0  0.11179835741E+03  0.25785277737E+02  0.54553057145E+01  0.14549211511E+03  0.89299730855E+02 0.  0.
          5    1    1    2  502    0  0.29057669235E+01  0.24569763814E+02  0.98266541097E+02  0.10144219967E+03  0.47000000000E+01 0.  1.
         -5    1    1    2    0  502 -0.11470412433E+03 -0.50355041552E+02  0.10654463177E+03  0.16451904117E+03  0.47000000000E+01 0.  1.
        -11    1    3    3    0    0  0.45344731865E+02  0.13221854138E+02  0.46581525570E+02  0.66338530729E+02  0.00000000000E+00 0.  1.
         11    1    3    3    0    0  0.66453625546E+02  0.12563423600E+02 -0.41126219856E+02  0.79153584381E+02  0.00000000000E+00 0. -1.
<mgrwt>
<rscale>  0 0.16324371E+03</rscale>
<asrwt>0</asrwt>
<pdfrwt beam="2">  1        1 0.15475914E-01 0.16966958E+03</pdfrwt>
<pdfrwt beam="1">  1       -1 0.47824602E-01 0.16966958E+03</pdfrwt>
<totfact> 0.15722986E+03</totfact>
</mgrwt>
</event>
<event>
 7    1  0.1378058E-005  0.1328362E+03  0.7546771E-02  0.1236711E+00
          3   -1    0    0  501    0  0.00000000000E+00  0.00000000000E+00  0.48195355915E+03  0.48195355915E+03  0.00000000000E+00 0. -1.
         -3   -1    0    0    0  501 -0.00000000000E+00 -0.00000000000E+00 -0.29188018128E+02  0.29188018128E+02  0.00000000000E+00 0.  1.
         23    2    1    2    0    0 -0.44938527044E+02 -0.97476595139E+00  0.24048614859E+03  0.26072595021E+03  0.90133301652E+02 0.  0.
          5    1    1    2  502    0  0.50691120790E+02 -0.52617491756E+02  0.85434482417E+02  0.11251369228E+03  0.47000000000E+01 0.  1.
         -5    1    1    2    0  502 -0.57525937461E+01  0.53592257707E+02  0.12684491002E+03  0.13790193479E+03  0.47000000000E+01 0.  1.
        -11    1    3    3    0    0 -0.16551357562E+02  0.38186078227E+02  0.54617873854E+02  0.68667577151E+02  0.00000000000E+00 0.  1.
         11    1    3    3    0    0 -0.28387169482E+02 -0.39160844178E+02  0.18586827474E+03  0.19205837306E+03  0.00000000000E+00 0. -1.
<mgrwt>
<rscale>  0 0.12395547E+03</rscale>
<asrwt>0</asrwt>
<pdfrwt beam="1">  1        3 0.74146696E-01 0.13283616E+03</pdfrwt>
<pdfrwt beam="2">  1       -3 0.44904647E-02 0.13283616E+03</pdfrwt>
<totfact> 0.10940833E+03</totfact>
</mgrwt>
</event>
<event>
 7    1  0.1378058E-005  0.1380764E+03  0.7546771E-02  0.1219335E+00
         -3   -1    0    0    0  501 -0.00000000000E+00  0.00000000000E+00  0.57938519971E+02  0.57938519971E+02  0.00000000000E+00 0.  1.
          3   -1    0    0  501    0  0.00000000000E+00 -0.00000000000E+00 -0.31537265396E+03  0.31537265396E+03  0.00000000000E+00 0. -1.
         23    2    1    2    0    0 -0.12857746576E+02  0.57250974333E+02 -0.15512268823E+03  0.20146033251E+03  0.11436879584E+03 0.  0.
          5    1    1    2  502    0  0.14903862081E+02 -0.26264792024E+02 -0.12779920138E+03  0.13140277881E+03  0.47000000000E+01 0.  1.
         -5    1    1    2    0  502 -0.20461155050E+01 -0.30986182309E+02  0.25487755621E+02  0.40448062616E+02  0.47000000000E+01 0.  1.
        -11    1    3    3    0    0  0.42069268884E+01 -0.28088227206E+02 -0.63506930403E+01  0.29102887202E+02  0.00000000000E+00 0.  1.
         11    1    3    3    0    0 -0.17064673464E+02  0.85339201539E+02 -0.14877199519E+03  0.17235744531E+03  0.00000000000E+00 0. -1.
<mgrwt>
<rscale>  0 0.13562861E+03</rscale>
<asrwt>0</asrwt>
<pdfrwt beam="2">  1        3 0.48518869E-01 0.13807635E+03</pdfrwt>
<pdfrwt beam="1">  1       -3 0.89136186E-02 0.13807635E+03</pdfrwt>
<totfact> 0.87759101E+02</totfact>
</mgrwt>
</event>
<event>
 7    1  0.1378058E-005  0.1328977E+03  0.7546771E-02  0.1235989E+00
         -2   -1    0    0    0  501 -0.00000000000E+00  0.00000000000E+00  0.86300910617E+02  0.86300910617E+02  0.00000000000E+00 0.  1.
          2   -1    0    0  501    0  0.00000000000E+00 -0.00000000000E+00 -0.17598261183E+03  0.17598261183E+03  0.00000000000E+00 0. -1.
         23    2    1    2    0    0  0.18967992346E+01  0.45038194632E+02 -0.78779040998E+02  0.12893931014E+03  0.91581502363E+02 0.  0.
          5    1    1    2  502    0  0.35303448468E+01 -0.88044406673E+02 -0.15168578704E+02  0.89534667370E+02  0.47000000000E+01 0. -1.
         -5    1    1    2    0  502 -0.54271440814E+01  0.43006212041E+02  0.42659184919E+01  0.43809544937E+02  0.47000000000E+01 0. -1.
        -11    1    3    3    0    0 -0.29111806959E+02  0.59925761795E+02 -0.42926469060E+02  0.79254501305E+02  0.00000000000E+00 0.  1.
         11    1    3    3    0    0  0.31008606194E+02 -0.14887567163E+02 -0.35852571938E+02  0.49684808832E+02  0.00000000000E+00 0. -1.
<mgrwt>
<rscale>  0 0.12441351E+03</rscale>
<asrwt>0</asrwt>
<pdfrwt beam="2">  1        2 0.27074247E-01 0.13289775E+03</pdfrwt>
<pdfrwt beam="1">  1       -2 0.13277063E-01 0.13289775E+03</pdfrwt>
<totfact> 0.77895504E+03</totfact>
</mgrwt>
</event>
<event>
 7    1  0.1378058E-005  0.1444272E+03  0.7546771E-02  0.1217415E+00
         -1   -1    0    0    0  501 -0.00000000000E+00  0.00000000000E+00  0.21733883367E+03  0.21733883367E+03  0.00000000000E+00 0.  1.
          1   -1    0    0  501    0  0.00000000000E+00 -0.00000000000E+00 -0.96573454504E+02  0.96573454504E+02  0.00000000000E+00 0. -1.
         23    2    1    2    0    0 -0.68050467517E+02  0.24562088811E+02 -0.12214499202E+02  0.11758890849E+03  0.91890124998E+02 0.  0.
          5    1    1    2  502    0 -0.34524949390E+02 -0.12251039773E+02  0.57298895317E+02  0.68171207341E+02  0.47000000000E+01 0. -1.
         -5    1    1    2    0  502  0.10257541691E+03 -0.12311049038E+02  0.75680983053E+02  0.12815217235E+03  0.47000000000E+01 0. -1.
        -11    1    3    3    0    0  0.43470736231E+01  0.23850504463E+02 -0.34202004831E+02  0.41922795072E+02  0.00000000000E+00 0. -1.
         11    1    3    3    0    0 -0.72397541140E+02  0.71158434809E+00  0.21987505629E+02  0.75666113414E+02  0.00000000000E+00 0.  1.
<mgrwt>
<rscale>  0 0.13700595E+03</rscale>
<asrwt>0</asrwt>
<pdfrwt beam="2">  1        1 0.14857455E-01 0.14442722E+03</pdfrwt>
<pdfrwt beam="1">  1       -1 0.33436744E-01 0.14442722E+03</pdfrwt>
<totfact> 0.30926085E+03</totfact>
</mgrwt>
</event>
<event>
 7    1  0.1378058E-005  0.2697161E+03  0.7546771E-02  0.1103155E+00
          1   -1    0    0  501    0  0.00000000000E+00  0.00000000000E+00  0.42127173643E+03  0.42127173643E+03  0.00000000000E+00 0. -1.
         -1   -1    0    0    0  501 -0.00000000000E+00 -0.00000000000E+00 -0.50876444316E+03  0.50876444316E+03  0.00000000000E+00 0.  1.
         23    2    1    2    0    0  0.14087135090E+03 -0.19861370794E+03  0.33862126899E+03  0.42573478143E+03  0.85402563326E+02 0.  0.
          5    1    1    2  502    0 -0.86530749262E+01  0.62491892890E+02 -0.19622428468E+03  0.20617025071E+03  0.47000000000E+01 0. -1.
         -5    1    1    2    0  502 -0.13221827597E+03  0.13612181505E+03 -0.22988969104E+03  0.29813114745E+03  0.47000000000E+01 0.  1.
        -11    1    3    3    0    0  0.12522407063E+03 -0.10592773955E+03  0.21821814981E+03  0.27298519151E+03  0.00000000000E+00 0.  1.
         11    1    3    3    0    0  0.15647280263E+02 -0.92685968382E+02  0.12040311917E+03  0.15274958992E+03  0.00000000000E+00 0. -1.
<mgrwt>
<rscale>  0 0.26674901E+03</rscale>
<asrwt>0</asrwt>
<pdfrwt beam="1">  1        1 0.64811036E-01 0.26971611E+03</pdfrwt>
<pdfrwt beam="2">  1       -1 0.78271453E-01 0.26971611E+03</pdfrwt>
<totfact> 0.97848024E+01</totfact>
</mgrwt>
</event>
<event>
 7    1  0.1378058E-005  0.1184774E+03  0.7546771E-02  0.1256283E+00
         -2   -1    0    0    0  501 -0.00000000000E+00  0.00000000000E+00  0.41364039972E+02  0.41364039972E+02  0.00000000000E+00 0.  1.
          2   -1    0    0  501    0  0.00000000000E+00 -0.00000000000E+00 -0.28724149754E+03  0.28724149754E+03  0.00000000000E+00 0. -1.
         23    2    1    2    0    0 -0.59268357933E+01  0.38681312247E+02 -0.14046807256E+03  0.17002419662E+03  0.87438988606E+02 0.  0.
          5    1    1    2  502    0  0.46172298285E+02 -0.43637063678E+02 -0.98313572919E+02  0.11714829523E+03  0.47000000000E+01 0. -1.
         -5    1    1    2    0  502 -0.40245462491E+02  0.49557514312E+01 -0.70958120886E+01  0.41433045659E+02  0.47000000000E+01 0.  1.
        -11    1    3    3    0    0 -0.30241785243E+02 -0.13494841249E+02 -0.79771609541E+02  0.86372368289E+02  0.00000000000E+00 0. -1.
         11    1    3    3    0    0  0.24314949450E+02  0.52176153497E+02 -0.60696463022E+02  0.83651828335E+02  0.00000000000E+00 0.  1.
<mgrwt>
<rscale>  0 0.11234766E+03</rscale>
<asrwt>0</asrwt>
<pdfrwt beam="2">  1        2 0.44191001E-01 0.11847744E+03</pdfrwt>
<pdfrwt beam="1">  1       -2 0.63636983E-02 0.11847744E+03</pdfrwt>
<totfact> 0.14381401E+04</totfact>
</mgrwt>
</event>
<event>
 7    1  0.1378058E-005  0.1564904E+03  0.7546771E-02  0.1200544E+00
          2   -1    0    0  501    0  0.00000000000E+00  0.00000000000E+00  0.10470905473E+03  0.10470905473E+03  0.00000000000E+00 0. -1.
         -2   -1    0    0    0  501 -0.00000000000E+00 -0.00000000000E+00 -0.19888876251E+03  0.19888876251E+03  0.00000000000E+00 0.  1.
         23    2    1    2    0    0  0.49883207328E+02  0.79850786898E+02 -0.49168737016E+02  0.14076278418E+03  0.92369443915E+02 0.  0.
          5    1    1    2  502    0  0.29543001471E+02  0.12655845554E+02 -0.20413861508E+02  0.38363721199E+02  0.47000000000E+01 0. -1.
         -5    1    1    2    0  502 -0.79426208799E+02 -0.92506632452E+02 -0.24597109252E+02  0.12447131186E+03  0.47000000000E+01 0. -1.
        -11    1    3    3    0    0  0.29220624685E+02 -0.10259202981E+02  0.81028470733E+01  0.32011752271E+02  0.00000000000E+00 0.  1.
         11    1    3    3    0    0  0.20662582643E+02  0.90109989879E+02 -0.57271584090E+02  0.10875103191E+03  0.00000000000E+00 0. -1.
<mgrwt>
<rscale>  0 0.14994221E+03</rscale>
<asrwt>0</asrwt>
<pdfrwt beam="1">  1        2 0.16109086E-01 0.15649045E+03</pdfrwt>
<pdfrwt beam="2">  1       -2 0.30598271E-01 0.15649045E+03</pdfrwt>
<totfact> 0.34165934E+03</totfact>
</mgrwt>
</event>
<event>
 7    1  0.1378058E-005  0.1289539E+03  0.7546771E-02  0.1244336E+00
         -1   -1    0    0    0  501 -0.00000000000E+00  0.00000000000E+00  0.34245977192E+02  0.34245977192E+02  0.00000000000E+00 0.  1.
          1   -1    0    0  501    0  0.00000000000E+00 -0.00000000000E+00 -0.36817795055E+03  0.36817795055E+03  0.00000000000E+00 0. -1.
         23    2    1    2    0    0  0.30598482545E+00  0.31696053264E+02 -0.16281361683E+03  0.18815636415E+03  0.88824603152E+02 0.  0.
          5    1    1    2  502    0  0.12322809438E+02 -0.55861070182E+02 -0.17692015798E+03  0.18599769647E+03  0.47000000000E+01 0.  1.
         -5    1    1    2    0  502 -0.12628794264E+02  0.24165016918E+02  0.58018014456E+01  0.28269867124E+02  0.47000000000E+01 0.  1.
        -11    1    3    3    0    0 -0.36016363728E+02 -0.78945283276E+01 -0.41718249875E+02  0.55676874969E+02  0.00000000000E+00 0.  1.
         11    1    3    3    0    0  0.36322348553E+02  0.39590581592E+02 -0.12109536695E+03  0.13247948918E+03  0.00000000000E+00 0. -1.
<mgrwt>
<rscale>  0 0.11925215E+03</rscale>
<asrwt>0</asrwt>
<pdfrwt beam="2">  1        1 0.56642764E-01 0.12895386E+03</pdfrwt>
<pdfrwt beam="1">  1       -1 0.52686117E-02 0.12895386E+03</pdfrwt>
<totfact> 0.10352234E+04</totfact>
</mgrwt>
</event>
<event>
 7    1  0.1378058E-005  0.1716196E+03  0.7546771E-02  0.1181882E+00
          1   -1    0    0  501    0  0.00000000000E+00  0.00000000000E+00  0.16097872379E+03  0.16097872379E+03  0.00000000000E+00 0. -1.
         -1   -1    0    0    0  501 -0.00000000000E+00 -0.00000000000E+00 -0.28820335503E+03  0.28820335503E+03  0.00000000000E+00 0.  1.
         23    2    1    2    0    0  0.92596306596E+02 -0.72494535475E+02  0.87393285868E+02  0.17438369857E+03  0.94565079406E+02 0.  0.
          5    1    1    2  502    0 -0.66972764778E+02  0.10307369869E+03 -0.11929289583E+03  0.17135467189E+03  0.47000000000E+01 0. -1.
         -5    1    1    2    0  502 -0.25623541818E+02 -0.30579163217E+02 -0.95325021278E+02  0.10344370836E+03  0.47000000000E+01 0. -1.
        -11    1    3    3    0    0 -0.13599109277E+02 -0.82532358889E+01 -0.80370825985E+01  0.17822636518E+02  0.00000000000E+00 0.  1.
         11    1    3    3    0    0  0.10619541587E+03 -0.64241299586E+02  0.95430368466E+02  0.15656106205E+03  0.00000000000E+00 0. -1.
<mgrwt>
<rscale>  0 0.16618835E+03</rscale>
<asrwt>0</asrwt>
<pdfrwt beam="1">  1        1 0.24765958E-01 0.17161964E+03</pdfrwt>
<pdfrwt beam="2">  1       -1 0.44338978E-01 0.17161964E+03</pdfrwt>
<totfact> 0.98707777E+02</totfact>
</mgrwt>
</event>
<event>
 7    1  0.1378058E-005  0.1981914E+03  0.7546771E-02  0.1155395E+00
          1   -1    0    0  501    0  0.00000000000E+00  0.00000000000E+00  0.74490737732E+03  0.74490737732E+03  0.00000000000E+00 0. -1.
         -1   -1    0    0    0  501 -0.00000000000E+00 -0.00000000000E+00 -0.58905935109E+02  0.58905935109E+02  0.00000000000E+00 0.  1.
         23    2    1    2    0    0 -0.13820117972E+03 -0.67493019292E+02  0.50249295070E+03  0.53371112072E+03  0.93239053787E+02 0.  0.
          5    1    1    2  502    0  0.13744669113E+03  0.79889785547E+02  0.10523537457E+03  0.19071063105E+03  0.47000000000E+01 0. -1.
         -5    1    1    2    0  502  0.75448858710E+00 -0.12396766255E+02  0.78273116947E+02  0.79391560655E+02  0.47000000000E+01 0. -1.
        -11    1    3    3    0    0 -0.13797689323E+03 -0.83928655107E+02  0.47471911667E+03  0.50143781463E+03  0.00000000000E+00 0.  1.
         11    1    3    3    0    0 -0.22428648316E+00  0.16435635815E+02  0.27773834036E+02  0.32273306092E+02  0.00000000000E+00 0. -1.
<mgrwt>
<rscale>  0 0.19343951E+03</rscale>
<asrwt>0</asrwt>
<pdfrwt beam="1">  1        1 0.11460113E+00 0.19819139E+03</pdfrwt>
<pdfrwt beam="2">  1       -1 0.90624521E-02 0.19819139E+03</pdfrwt>
<totfact> 0.18170667E+03</totfact>
</mgrwt>
</event>
<event>
 7    1  0.1378058E-005  0.1578604E+03  0.7546771E-02  0.1199039E+00
         -1   -1    0    0    0  501 -0.00000000000E+00  0.00000000000E+00  0.34121264231E+02  0.34121264231E+02  0.00000000000E+00 0.  1.
          1   -1    0    0  501    0  0.00000000000E+00 -0.00000000000E+00 -0.73252522944E+03  0.73252522944E+03  0.00000000000E+00 0. -1.
         23    2    1    2    0    0  0.96242808530E+02  0.57306418235E+01 -0.17318545646E+03  0.21821746978E+03  0.91269618929E+02 0.  0.
          5    1    1    2  502    0 -0.70791596459E+02 -0.53917970956E+02 -0.20438385104E+03  0.22296512348E+03  0.47000000000E+01 0. -1.
         -5    1    1    2    0  502 -0.25451212071E+02  0.48187329132E+02 -0.32083465771E+03  0.32546390041E+03  0.47000000000E+01 0. -1.
        -11    1    3    3    0    0  0.54842470707E+02  0.41039407004E+00 -0.18316077206E+02  0.57821654255E+02  0.00000000000E+00 0.  1.
         11    1    3    3    0    0  0.41400337823E+02  0.53202477535E+01 -0.15486937926E+03  0.16039581553E+03  0.00000000000E+00 0. -1.
<mgrwt>
<rscale>  0 0.15117261E+03</rscale>
<asrwt>0</asrwt>
<pdfrwt beam="2">  1        1 0.11269619E+00 0.15786042E+03</pdfrwt>
<pdfrwt beam="1">  1       -1 0.52494255E-02 0.15786042E+03</pdfrwt>
<totfact> 0.42199916E+03</totfact>
</mgrwt>
</event>
<event>
 7    1  0.1378058E-005  0.1737042E+03  0.7546771E-02  0.1204488E+00
         -2   -1    0    0    0  501 -0.00000000000E+00  0.00000000000E+00  0.46246882419E+03  0.46246882419E+03  0.00000000000E+00 0.  1.
          2   -1    0    0  501    0  0.00000000000E+00 -0.00000000000E+00 -0.41151442674E+02  0.41151442674E+02  0.00000000000E+00 0. -1.
         23    2    1    2    0    0  0.16128064623E+02  0.33992385450E+02  0.74465931487E+02  0.11570393937E+03  0.80166264075E+02 0.  0.
          5    1    1    2  502    0  0.56596773041E+02  0.39497120840E+02  0.11867831543E+03  0.13736757196E+03  0.47000000000E+01 0. -1.
         -5    1    1    2    0  502 -0.72724837663E+02 -0.73489506290E+02  0.22817313459E+03  0.25054875553E+03  0.47000000000E+01 0.  1.
        -11    1    3    3    0    0  0.80398492492E+01 -0.22258222894E+02  0.46920512855E+02  0.52550948507E+02  0.00000000000E+00 0. -1.
         11    1    3    3    0    0  0.80882153734E+01  0.56250608344E+02  0.27545418632E+02  0.63152990860E+02  0.00000000000E+00 0.  1.
<mgrwt>
<rscale>  0 0.14677857E+03</rscale>
<asrwt>0</asrwt>
<pdfrwt beam="2">  1        2 0.63309915E-02 0.17370420E+03</pdfrwt>
<pdfrwt beam="1">  1       -2 0.71149046E-01 0.17370420E+03</pdfrwt>
<totfact> 0.20691438E+03</totfact>
</mgrwt>
</event>
<event>
 7    1  0.1378058E-005  0.1407071E+03  0.7546771E-02  0.1223529E+00
         -2   -1    0    0    0  501 -0.00000000000E+00  0.00000000000E+00  0.25517615397E+02  0.25517615397E+02  0.00000000000E+00 0. -1.
          2   -1    0    0  501    0  0.00000000000E+00 -0.00000000000E+00 -0.65537492050E+03  0.65537492050E+03  0.00000000000E+00 0.  1.
         23    2    1    2    0    0  0.38808288764E+02  0.51651052718E+02 -0.35636561958E+03  0.37332758366E+03  0.90571051573E+02 0.  0.
          5    1    1    2  502    0  0.15417415700E+02 -0.78414610105E+02 -0.15553404090E+03  0.17492705813E+03  0.47000000000E+01 0.  1.
         -5    1    1    2    0  502 -0.54225704464E+02  0.26763557387E+02 -0.11795764462E+03  0.13263789410E+03  0.47000000000E+01 0.  1.
        -11    1    3    3    0    0  0.35086702039E+01  0.70833650546E+02 -0.23686931338E+03  0.24725854574E+03  0.00000000000E+00 0.  1.
         11    1    3    3    0    0  0.35299618560E+02 -0.19182597829E+02 -0.11949630619E+03  0.12606903793E+03  0.00000000000E+00 0. -1.
<mgrwt>
<rscale>  0 0.13268265E+03</rscale>
<asrwt>0</asrwt>
<pdfrwt beam="2">  1        2 0.10082690E+00 0.14070713E+03</pdfrwt>
<pdfrwt beam="1">  1       -2 0.39257873E-02 0.14070713E+03</pdfrwt>
<totfact> 0.12273712E+04</totfact>
</mgrwt>
</event>
<event>
 6    1  0.1378058E-005  0.2164071E+03  0.7546771E-02  0.1232866E+00
          2   -1    0    0  501    0  0.00000000000E+00  0.00000000000E+00  0.60648547471E+02  0.60648547471E+02  0.00000000000E+00 0. -1.
         -2   -1    0    0    0  501 -0.00000000000E+00 -0.00000000000E+00 -0.25453538155E+03  0.25453538155E+03  0.00000000000E+00 0.  1.
          5    1    1    2  502    0 -0.37951349920E+02  0.15201267010E+02  0.37714176698E+02  0.55819643527E+02  0.47000000000E+01 0. -1.
         -5    1    1    2    0  502  0.35182915687E+02 -0.18347501430E+02 -0.23071115762E+03  0.23414567392E+03  0.47000000000E+01 0.  1.
        -11    1    1    2    0    0  0.10171265931E+02 -0.47370870673E+01 -0.65710870188E+01  0.13002839272E+02  0.00000000000E+00 0. -1.
         11    1    1    2    0    0 -0.74028316973E+01  0.78833214868E+01  0.56812338600E+01  0.12215772304E+02  0.00000000000E+00 0.  1.
<mgrwt>
<rscale>  0 0.12642016E+03</rscale>
<asrwt>0</asrwt>
<pdfrwt beam="1">  1        2 0.93305458E-02 0.21640714E+03</pdfrwt>
<pdfrwt beam="2">  1       -2 0.39159289E-01 0.21640714E+03</pdfrwt>
<totfact> 0.42603825E+03</totfact>
</mgrwt>
</event>
<event>
 7    1  0.1378058E-005  0.1634578E+03  0.7546771E-02  0.1191989E+00
          1   -1    0    0  501    0  0.00000000000E+00  0.00000000000E+00  0.97732321203E+02  0.97732321203E+02  0.00000000000E+00 0. -1.
         -1   -1    0    0    0  501 -0.00000000000E+00 -0.00000000000E+00 -0.23977659260E+03  0.23977659260E+03  0.00000000000E+00 0.  1.
         23    2    1    2    0    0 -0.93809367529E+02 -0.47887050782E+02 -0.41387342498E+02  0.14554468401E+03  0.91525820704E+02 0.  0.
          5    1    1    2  502    0  0.10619500771E+03  0.17446529893E+02 -0.26823526850E+02  0.11101059706E+03  0.47000000000E+01 0.  1.
         -5    1    1    2    0  502 -0.12385640177E+02  0.30440520889E+02 -0.73833402053E+02  0.80953632737E+02  0.47000000000E+01 0.  1.
        -11    1    3    3    0    0 -0.12844297033E+02  0.24572469230E+02  0.35721408877E+01  0.27956079855E+02  0.00000000000E+00 0.  1.
         11    1    3    3    0    0 -0.80965070496E+02 -0.72459520012E+02 -0.44959483385E+02  0.11758860415E+03  0.00000000000E+00 0. -1.
<mgrwt>
<rscale>  0 0.15711799E+03</rscale>
<asrwt>0</asrwt>
<pdfrwt beam="1">  1        1 0.15035742E-01 0.16345779E+03</pdfrwt>
<pdfrwt beam="2">  1       -1 0.36888706E-01 0.16345779E+03</pdfrwt>
<totfact> 0.25860773E+03</totfact>
</mgrwt>
</event>
<event>
 7    1  0.1378058E-005  0.2448706E+03  0.7546771E-02  0.1119145E+00
         -3   -1    0    0    0  501 -0.00000000000E+00  0.00000000000E+00  0.39150719404E+03  0.39150719404E+03  0.00000000000E+00 0.  1.
          3   -1    0    0  501    0  0.00000000000E+00 -0.00000000000E+00 -0.16926355624E+03  0.16926355624E+03  0.00000000000E+00 0. -1.
         23    2    1    2    0    0  0.16743255044E+03  0.12768386497E+03 -0.63855897413E+00  0.22965432662E+03  0.91672643983E+02 0.  0.
          5    1    1    2  502    0 -0.14854514610E+03 -0.48115615596E+02  0.18108768823E+03  0.23915604471E+03  0.47000000000E+01 0.  1.
         -5    1    1    2    0  502 -0.18887404346E+02 -0.79568249377E+02  0.41794508534E+02  0.91960378944E+02  0.47000000000E+01 0.  1.
        -11    1    3    3    0    0  0.74946676096E+02  0.77493604898E+02  0.42562591885E+02  0.11590443169E+03  0.00000000000E+00 0.  1.
         11    1    3    3    0    0  0.92485874349E+02  0.50190260075E+02 -0.43201150860E+02  0.11374989493E+03  0.00000000000E+00 0. -1.
<mgrwt>
<rscale>  0 0.24097430E+03</rscale>
<asrwt>0</asrwt>
<pdfrwt beam="2">  1        3 0.26040547E-01 0.24487060E+03</pdfrwt>
<pdfrwt beam="1">  1       -3 0.60231876E-01 0.24487060E+03</pdfrwt>
<totfact> 0.94589162E+01</totfact>
</mgrwt>
</event>
<event>
 7    1  0.1378058E-005  0.2124671E+03  0.7546771E-02  0.1139627E+00
         -2   -1    0    0    0  501 -0.00000000000E+00  0.00000000000E+00  0.47892027848E+02  0.47892027848E+02  0.00000000000E+00 0.  1.
          2   -1    0    0  501    0  0.00000000000E+00 -0.00000000000E+00 -0.23564599796E+03  0.23564599796E+03  0.00000000000E+00 0. -1.
         23    2    1    2    0    0 -0.43674625935E+01 -0.14946789212E+02 -0.71157624731E+02  0.11189364024E+03  0.84937023327E+02 0.  0.
          5    1    1    2  502    0  0.31570196146E+02 -0.46129588651E+02 -0.35289274501E+02  0.66272461314E+02  0.47000000000E+01 0.  1.
         -5    1    1    2    0  502 -0.27202733553E+02  0.61076377862E+02 -0.81307070876E+02  0.10537192425E+03  0.47000000000E+01 0.  1.
        -11    1    3    3    0    0  0.14055691965E+02  0.14888483593E+02  0.10511056611E+02  0.23015467221E+02  0.00000000000E+00 0.  1.
         11    1    3    3    0    0 -0.18423154559E+02 -0.29835272805E+02 -0.81668681342E+02  0.88878173020E+02  0.00000000000E+00 0. -1.
<mgrwt>
<rscale>  0 0.21246708E+03</rscale>
<asrwt>0</asrwt>
<pdfrwt beam="2">  1        2 0.36253231E-01 0.21246708E+03</pdfrwt>
<pdfrwt beam="1">  1       -2 0.73680042E-02 0.21246708E+03</pdfrwt>
<totfact> 0.14879866E+04</totfact>
</mgrwt>
</event>
<event>
 7    1  0.1378058E-005  0.1480263E+03  0.7546771E-02  0.1212495E+00
          2   -1    0    0  501    0  0.00000000000E+00  0.00000000000E+00  0.91293288466E+03  0.91293288466E+03  0.00000000000E+00 0. -1.
         -2   -1    0    0    0  501 -0.00000000000E+00 -0.00000000000E+00 -0.19889123611E+02  0.19889123611E+02  0.00000000000E+00 0.  1.
         23    2    1    2    0    0 -0.68663789054E+02  0.39695611204E+02  0.36293828867E+03  0.38243704420E+03  0.90793358340E+02 0.  0.
          5    1    1    2  502    0  0.90969808477E+02 -0.38982381312E+02  0.51133764625E+03  0.52084874060E+03  0.47000000000E+01 0.  1.
         -5    1    1    2    0  502 -0.22306019423E+02 -0.71322989266E+00  0.18767826122E+02  0.29536223467E+02  0.47000000000E+01 0.  1.
        -11    1    3    3    0    0 -0.88782275849E+02  0.22658950313E+02  0.31061131401E+03  0.32384426647E+03  0.00000000000E+00 0. -1.
         11    1    3    3    0    0  0.20118486795E+02  0.17036660892E+02  0.52326974663E+02  0.58592777734E+02  0.00000000000E+00 0.  1.
<mgrwt>
<rscale>  0 0.14062158E+03</rscale>
<asrwt>0</asrwt>
<pdfrwt beam="1">  1        2 0.14045118E+00 0.14802634E+03</pdfrwt>
<pdfrwt beam="2">  1       -2 0.30598659E-02 0.14802634E+03</pdfrwt>
<totfact> 0.11823644E+04</totfact>
</mgrwt>
</event>
<event>
 7    1  0.1378058E-005  0.1411908E+03  0.7546771E-02  0.1222608E+00
         -1   -1    0    0    0  501 -0.00000000000E+00  0.00000000000E+00  0.38924084434E+03  0.38924084434E+03  0.00000000000E+00 0.  1.
          1   -1    0    0  501    0  0.00000000000E+00 -0.00000000000E+00 -0.44191626535E+02  0.44191626535E+02  0.00000000000E+00 0. -1.
         23    2    1    2    0    0 -0.54810507962E+02 -0.36122969752E+02  0.98612598147E+02  0.14941510714E+03  0.91056954714E+02 0.  0.
          5    1    1    2  502    0  0.93316616436E+02  0.36992986519E+02  0.19720408829E+03  0.22133236183E+03  0.47000000000E+01 0.  1.
         -5    1    1    2    0  502 -0.38506108474E+02 -0.87001676645E+00  0.49232531368E+02  0.62685001906E+02  0.47000000000E+01 0.  1.
        -11    1    3    3    0    0 -0.69720436202E+01  0.20901118679E+02  0.63310329925E+02  0.67034797154E+02  0.00000000000E+00 0.  1.
         11    1    3    3    0    0 -0.47838464342E+02 -0.57024088431E+02  0.35302268223E+02  0.82380309988E+02  0.00000000000E+00 0. -1.
<mgrwt>
<rscale>  0 0.13332239E+03</rscale>
<asrwt>0</asrwt>
<pdfrwt beam="2">  1        1 0.67987120E-02 0.14119085E+03</pdfrwt>
<pdfrwt beam="1">  1       -1 0.59883205E-01 0.14119085E+03</pdfrwt>
<totfact> 0.30628588E+03</totfact>
</mgrwt>
</event>
<event>
 7    1  0.1378058E-005  0.1656858E+03  0.7546771E-02  0.1200248E+00
         -1   -1    0    0    0  501 -0.00000000000E+00  0.00000000000E+00  0.23499725124E+03  0.23499725124E+03  0.00000000000E+00 0.  1.
          1   -1    0    0  501    0  0.00000000000E+00 -0.00000000000E+00 -0.10472347891E+03  0.10472347891E+03  0.00000000000E+00 0. -1.
         23    2    1    2    0    0 -0.48384232583E+02  0.43903328406E+02 -0.22797855251E+02  0.11414874373E+03  0.90783573869E+02 0.  0.
          5    1    1    2  502    0 -0.21985118298E+02  0.14357970070E+02 -0.17580265210E+02  0.31947651806E+02  0.47000000000E+01 0. -1.
         -5    1    1    2    0  502  0.70369350880E+02 -0.58261298476E+02  0.17065189279E+03  0.19362433462E+03  0.47000000000E+01 0.  1.
        -11    1    3    3    0    0 -0.13809228789E+01  0.41248125740E+02  0.24021399834E+02  0.47752931585E+02  0.00000000000E+00 0.  1.
         11    1    3    3    0    0 -0.47003309704E+02  0.26552026659E+01 -0.46819255085E+02  0.66395812149E+02  0.00000000000E+00 0. -1.
<mgrwt>
<rscale>  0 0.15018344E+03</rscale>
<asrwt>0</asrwt>
<pdfrwt beam="2">  1        1 0.16111305E-01 0.16568584E+03</pdfrwt>
<pdfrwt beam="1">  1       -1 0.36153423E-01 0.16568584E+03</pdfrwt>
<totfact> 0.24495917E+03</totfact>
</mgrwt>
</event>
<event>
 6    1  0.1378058E-005  0.1747474E+03  0.7546771E-02  0.1177791E+00
         -1   -1    0    0    0  501 -0.00000000000E+00  0.00000000000E+00  0.97834227336E+02  0.97834227336E+02  0.00000000000E+00 0.  1.
          1   -1    0    0  501    0  0.00000000000E+00 -0.00000000000E+00 -0.30216783079E+03  0.30216783079E+03  0.00000000000E+00 0. -1.
          5    1    1    2  502    0 -0.55198050961E+02  0.53463366466E+01  0.30515048061E+02  0.63471775646E+02  0.47000000000E+01 0.  1.
         -5    1    1    2    0  502 -0.77965644838E+01  0.65131227535E+02 -0.74347949760E+02  0.99260117124E+02  0.47000000000E+01 0.  1.
        -11    1    1    2    0    0 -0.21480463791E+01 -0.40420891776E+02 -0.16050228393E+03  0.16552777936E+03  0.00000000000E+00 0. -1.
         11    1    1    2    0    0  0.65142661824E+02 -0.30056672405E+02  0.15821697790E-02  0.71742385994E+02  0.00000000000E+00 0.  1.
<mgrwt>
<rscale>  0 0.17005420E+03</rscale>
<asrwt>0</asrwt>
<pdfrwt beam="2">  1        1 0.46487358E-01 0.17474741E+03</pdfrwt>
<pdfrwt beam="1">  1       -1 0.15051420E-01 0.17474741E+03</pdfrwt>
<totfact> 0.27234455E+03</totfact>
</mgrwt>
</event>
<event>
 7    1  0.1378058E-005  0.1373884E+03  0.7546771E-02  0.1228527E+00
          2   -1    0    0  501    0  0.00000000000E+00  0.00000000000E+00  0.18949896899E+03  0.18949896899E+03  0.00000000000E+00 0. -1.
         -2   -1    0    0    0  501 -0.00000000000E+00 -0.00000000000E+00 -0.80276861110E+02  0.80276861110E+02  0.00000000000E+00 0.  1.
         23    2    1    2    0    0 -0.37567386278E+02  0.42876764406E+02  0.63179701077E+02  0.12487764112E+03  0.91394885995E+02 0.  0.
          5    1    1    2  502    0 -0.43889361419E+02  0.11682452192E+00  0.23283797493E+02  0.49905059057E+02  0.47000000000E+01 0. -1.
         -5    1    1    2    0  502  0.81456747697E+02 -0.42993588928E+02  0.22758609306E+02  0.94993129919E+02  0.47000000000E+01 0. -1.
        -11    1    3    3    0    0 -0.10500798736E+02  0.18706635776E+01 -0.23181668489E+02  0.25517756763E+02  0.00000000000E+00 0.  1.
         11    1    3    3    0    0 -0.27066587541E+02  0.41006100829E+02  0.86361369566E+02  0.99359884358E+02  0.00000000000E+00 0. -1.
<mgrwt>
<rscale>  0 0.12928042E+03</rscale>
<asrwt>0</asrwt>
<pdfrwt beam="1">  1        2 0.29153687E-01 0.13738843E+03</pdfrwt>
<pdfrwt beam="2">  1       -2 0.12350286E-01 0.13738843E+03</pdfrwt>
<totfact> 0.80914551E+03</totfact>
</mgrwt>
</event>
<event>
 7    1  0.1378058E-005  0.1285991E+03  0.7546771E-02  0.1243813E+00
          4   -1    0    0  501    0  0.00000000000E+00  0.00000000000E+00  0.15326310919E+03  0.15326310919E+03  0.00000000000E+00 0. -1.
         -4   -1    0    0    0  501 -0.00000000000E+00 -0.00000000000E+00 -0.11314195791E+03  0.11314195791E+03  0.00000000000E+00 0.  1.
         23    2    1    2    0    0 -0.27852679460E+02  0.11717978381E+02  0.86896303813E+02  0.12956334836E+03  0.91228344562E+02 0.  0.
          5    1    1    2  502    0  0.16281906433E+02 -0.28900111525E+02  0.37292987674E+02  0.50131565435E+02  0.47000000000E+01 0. -1.
         -5    1    1    2    0  502  0.11570773026E+02  0.17182133144E+02 -0.84068140205E+02  0.86710153300E+02  0.47000000000E+01 0.  1.
        -11    1    3    3    0    0 -0.35415695461E+02 -0.13865150522E+02 -0.65407015736E+00  0.38038686777E+02  0.00000000000E+00 0.  1.
         11    1    3    3    0    0  0.75630160012E+01  0.25583128903E+02  0.87550373970E+02  0.91524661583E+02  0.00000000000E+00 0. -1.
<mgrwt>
<rscale>  0 0.11956726E+03</rscale>
<asrwt>0</asrwt>
<pdfrwt beam="1">  1        4 0.23578940E-01 0.12859915E+03</pdfrwt>
<pdfrwt beam="2">  1       -4 0.17406455E-01 0.12859915E+03</pdfrwt>
<totfact> 0.79062586E+02</totfact>
</mgrwt>
</event>
<event>
 7    1  0.1378058E-005  0.2153796E+03  0.7546771E-02  0.1140609E+00
          2   -1    0    0  501    0  0.00000000000E+00  0.00000000000E+00  0.26654974436E+03  0.26654974436E+03  0.00000000000E+00 0. -1.
         -2   -1    0    0    0  501 -0.00000000000E+00 -0.00000000000E+00 -0.16142214910E+03  0.16142214910E+03  0.00000000000E+00 0.  1.
         23    2    1    2    0    0  0.82867985360E+02  0.15457510432E+03  0.42550291217E+02  0.20368568081E+03  0.94428615416E+02 0.  0.
          5    1    1    2  502    0  0.15024829266E+02 -0.27751174577E+02 -0.26001665168E+02  0.41158835946E+02  0.47000000000E+01 0.  1.
         -5    1    1    2    0  502 -0.97892814627E+02 -0.12682392974E+03  0.88578969212E+02  0.18312737670E+03  0.47000000000E+01 0.  1.
        -11    1    3    3    0    0  0.30395254349E+02  0.57955654444E+02 -0.29965430156E+02  0.71976776626E+02  0.00000000000E+00 0.  1.
         11    1    3    3    0    0  0.52472731011E+02  0.96619449876E+02  0.72515721373E+02  0.13170890418E+03  0.00000000000E+00 0. -1.
<mgrwt>
<rscale>  0 0.21121331E+03</rscale>
<asrwt>0</asrwt>
<pdfrwt beam="1">  1        2 0.41007653E-01 0.21537963E+03</pdfrwt>
<pdfrwt beam="2">  1       -2 0.24834177E-01 0.21537963E+03</pdfrwt>
<totfact> 0.17750577E+03</totfact>
</mgrwt>
</event>
<event>
 7    1  0.1378058E-005  0.2301271E+03  0.7546771E-02  0.1129600E+00
          1   -1    0    0  501    0  0.00000000000E+00  0.00000000000E+00  0.44723372841E+02  0.44723372841E+02  0.00000000000E+00 0. -1.
         -1   -1    0    0    0  501 -0.00000000000E+00 -0.00000000000E+00 -0.11492999789E+04  0.11492999789E+04  0.00000000000E+00 0.  1.
         23    2    1    2    0    0  0.73203947920E+02  0.17881516118E+03 -0.40881116730E+03  0.46118775514E+03  0.90740812874E+02 0.  0.
          5    1    1    2  502    0  0.12787683397E+02 -0.96366453388E+02 -0.19329288667E+03  0.21641221828E+03  0.47000000000E+01 0.  1.
         -5    1    1    2    0  502 -0.85991631317E+02 -0.82448707788E+02 -0.50247255204E+03  0.51642337828E+03  0.47000000000E+01 0.  1.
        -11    1    3    3    0    0  0.91963585075E+02  0.14742027889E+03 -0.36402338812E+03  0.40336468203E+03  0.00000000000E+00 0.  1.
         11    1    3    3    0    0 -0.18759637155E+02  0.31394882288E+02 -0.44787779178E+02  0.57823073109E+02  0.00000000000E+00 0. -1.
<mgrwt>
<rscale>  0 0.22584359E+03</rscale>
<asrwt>0</asrwt>
<pdfrwt beam="1">  1        1 0.68805188E-02 0.23012706E+03</pdfrwt>
<pdfrwt beam="2">  1       -1 0.17681539E+00 0.23012706E+03</pdfrwt>
<totfact> 0.25814728E+02</totfact>
</mgrwt>
</event>
<event>
 7    1  0.1378058E-005  0.1287926E+03  0.7546771E-02  0.1244694E+00
          1   -1    0    0  501    0  0.00000000000E+00  0.00000000000E+00  0.33101747812E+02  0.33101747812E+02  0.00000000000E+00 0. -1.
         -1   -1    0    0    0  501 -0.00000000000E+00 -0.00000000000E+00 -0.57347570818E+03  0.57347570818E+03  0.00000000000E+00 0.  1.
         23    2    1    2    0    0 -0.17239999276E+01 -0.30945821164E+02 -0.65523223582E+02  0.11457058240E+03  0.88727163255E+02 0.  0.
          5    1    1    2  502    0 -0.29477696858E+02  0.50579653008E+02 -0.42892929999E+03  0.43293148453E+03  0.47000000000E+01 0.  1.
         -5    1    1    2    0  502  0.31201696785E+02 -0.19633831843E+02 -0.45921436797E+02  0.59075389061E+02  0.47000000000E+01 0.  1.
        -11    1    3    3    0    0 -0.26433544619E+01  0.30860978583E+02 -0.13539000017E+02  0.33803725288E+02  0.00000000000E+00 0. -1.
         11    1    3    3    0    0  0.91935453425E+00 -0.61806799747E+02 -0.51984223565E+02  0.80766857110E+02  0.00000000000E+00 0.  1.
<mgrwt>
<rscale>  0 0.11903716E+03</rscale>
<asrwt>0</asrwt>
<pdfrwt beam="1">  1        1 0.50925765E-02 0.12879263E+03</pdfrwt>
<pdfrwt beam="2">  1       -1 0.88227034E-01 0.12879263E+03</pdfrwt>
<totfact> 0.20827896E+03</totfact>
</mgrwt>
</event>
<event>
 7    1  0.1378058E-005  0.2402148E+03  0.7546771E-02  0.1122421E+00
         -2   -1    0    0    0  501 -0.00000000000E+00  0.00000000000E+00  0.78277838881E+02  0.78277838881E+02  0.00000000000E+00 0.  1.
          2   -1    0    0  501    0  0.00000000000E+00 -0.00000000000E+00 -0.76740762561E+03  0.76740762561E+03  0.00000000000E+00 0. -1.
         23    2    1    2    0    0  0.64567862019E+02  0.19469080574E+03 -0.46920647449E+03  0.52000246370E+03  0.90411989818E+02 0.  0.
          5    1    1    2  502    0 -0.54975648061E+02 -0.20620921887E+03 -0.16861916567E+03  0.27202771340E+03  0.47000000000E+01 0.  1.
         -5    1    1    2    0  502 -0.95922139579E+01  0.11518413138E+02 -0.51304146568E+02  0.53655287390E+02  0.47000000000E+01 0.  1.
        -11    1    3    3    0    0 -0.93492782016E+01  0.79666285536E+02 -0.11401922320E+03  0.13940770895E+03  0.00000000000E+00 0.  1.
         11    1    3    3    0    0  0.73917140220E+02  0.11502452020E+03 -0.35518725129E+03  0.38059475475E+03  0.00000000000E+00 0. -1.
<mgrwt>
<rscale>  0 0.23609648E+03</rscale>
<asrwt>0</asrwt>
<pdfrwt beam="2">  1        2 0.11806272E+00 0.24021481E+03</pdfrwt>
<pdfrwt beam="1">  1       -2 0.12042744E-01 0.24021481E+03</pdfrwt>
<totfact> 0.18349588E+03</totfact>
</mgrwt>
</event>
<event>
 7    1  0.1378058E-005  0.1372895E+03  0.7546771E-02  0.1226085E+00
         -1   -1    0    0    0  501 -0.00000000000E+00  0.00000000000E+00  0.39717705567E+03  0.39717705567E+03  0.00000000000E+00 0.  1.
          1   -1    0    0  501    0  0.00000000000E+00 -0.00000000000E+00 -0.46585282288E+02  0.46585282288E+02  0.00000000000E+00 0. -1.
         23    2    1    2    0    0 -0.49751752291E+02  0.27353750705E+02  0.75648829058E+02  0.13644810483E+03  0.98345693546E+02 0.  0.
          5    1    1    2  502    0 -0.16779195911E+02  0.35968041800E+02  0.12676196828E+03  0.13291323504E+03  0.47000000000E+01 0. -1.
         -5    1    1    2    0  502  0.66530948203E+02 -0.63321792506E+02  0.14818097605E+03  0.17440099810E+03  0.47000000000E+01 0. -1.
        -11    1    3    3    0    0 -0.17969830396E+01 -0.22714602020E+02 -0.11144053743E+02  0.25364783200E+02  0.00000000000E+00 0. -1.
         11    1    3    3    0    0 -0.47954769252E+02  0.50068352725E+02  0.86792882801E+02  0.11108332163E+03  0.00000000000E+00 0.  1.
<mgrwt>
<rscale>  0 0.13092789E+03</rscale>
<asrwt>0</asrwt>
<pdfrwt beam="2">  1        1 0.71669668E-02 0.13728953E+03</pdfrwt>
<pdfrwt beam="1">  1       -1 0.61104160E-01 0.13728953E+03</pdfrwt>
<totfact> 0.27406803E+03</totfact>
</mgrwt>
</event>
<event>
 7    1  0.1378058E-005  0.1673922E+03  0.7546771E-02  0.1187431E+00
          1   -1    0    0  501    0  0.00000000000E+00  0.00000000000E+00  0.56652338549E+03  0.56652338549E+03  0.00000000000E+00 0. -1.
         -1   -1    0    0    0  501 -0.00000000000E+00 -0.00000000000E+00 -0.63119858543E+02  0.63119858543E+02  0.00000000000E+00 0.  1.
         23    2    1    2    0    0 -0.46735705795E+02  0.10104932062E+03  0.41741217090E+03  0.44145537799E+03  0.90855593906E+02 0.  0.
          5    1    1    2  502    0  0.35626187120E+02 -0.69708314612E+02 -0.16666346587E+02  0.80176875988E+02  0.47000000000E+01 0. -1.
         -5    1    1    2    0  502  0.11109518676E+02 -0.31341006011E+02  0.10265770263E+03  0.10801099005E+03  0.47000000000E+01 0. -1.
        -11    1    3    3    0    0  0.15993850360E+02  0.73329010523E+02  0.22480539659E+03  0.23700298177E+03  0.00000000000E+00 0.  1.
         11    1    3    3    0    0 -0.62729556155E+02  0.27720310100E+02  0.19260677431E+03  0.20445239622E+03  0.00000000000E+00 0. -1.
<mgrwt>
<rscale>  0 0.16112625E+03</rscale>
<asrwt>0</asrwt>
<pdfrwt beam="1">  1        1 0.87157441E-01 0.16739223E+03</pdfrwt>
<pdfrwt beam="2">  1       -1 0.97107478E-02 0.16739223E+03</pdfrwt>
<totfact> 0.23971306E+03</totfact>
</mgrwt>
</event>
<event>
 7    1  0.1378058E-005  0.1967776E+03  0.7546771E-02  0.1155936E+00
         -1   -1    0    0    0  501 -0.00000000000E+00  0.00000000000E+00  0.64912877263E+03  0.64912877263E+03  0.00000000000E+00 0.  1.
          1   -1    0    0  501    0  0.00000000000E+00 -0.00000000000E+00 -0.64717255632E+02  0.64717255632E+02  0.00000000000E+00 0. -1.
         23    2    1    2    0    0  0.40741678034E+02 -0.14641254234E+03  0.14458074233E+03  0.23200317932E+03  0.99122990659E+02 0.  0.
          5    1    1    2  502    0 -0.56139717142E+02  0.36332424863E+02  0.75791991687E+02  0.10118413384E+03  0.47000000000E+01 0. -1.
         -5    1    1    2    0  502  0.15398039108E+02  0.11008011748E+03  0.36403878298E+03  0.38065871510E+03  0.47000000000E+01 0. -1.
        -11    1    3    3    0    0  0.61144472087E+02 -0.11996669491E+03  0.73356112039E+02  0.15333549337E+03  0.00000000000E+00 0. -1.
         11    1    3    3    0    0 -0.20402794054E+02 -0.26445847428E+02  0.71224630294E+02  0.78667685945E+02  0.00000000000E+00 0.  1.
<mgrwt>
<rscale>  0 0.19282677E+03</rscale>
<asrwt>0</asrwt>
<pdfrwt beam="2">  1        1 0.99565013E-02 0.19677759E+03</pdfrwt>
<pdfrwt beam="1">  1       -1 0.99865960E-01 0.19677759E+03</pdfrwt>
<totfact> 0.65107751E+02</totfact>
</mgrwt>
</event>
<event>
 7    1  0.1706941E-005  0.2713376E+03  0.7546771E-02  0.1102206E+00
          2   -1    0    0  501    0  0.00000000000E+00  0.00000000000E+00  0.14824949187E+04  0.14824949187E+04  0.00000000000E+00 0. -1.
         -2   -1    0    0    0  501 -0.00000000000E+00 -0.00000000000E+00 -0.50518309406E+02  0.50518309406E+02  0.00000000000E+00 0.  1.
         23    2    1    2    0    0  0.11669695901E+03 -0.21066977352E+03  0.88669695532E+03  0.92395329521E+03  0.97253624272E+02 0.  0.
          5    1    1    2  502    0 -0.57698307329E+02  0.19662478509E+03  0.36264995751E+03  0.41656630020E+03  0.47000000000E+01 0. -1.
         -5    1    1    2    0  502 -0.58998651676E+02  0.14044988428E+02  0.18262969649E+03  0.19249363272E+03  0.47000000000E+01 0. -1.
        -11    1    3    3    0    0  0.68552829837E+02 -0.73829113053E+02  0.51875905559E+03  0.52845168764E+03  0.00000000000E+00 0. -1.
         11    1    3    3    0    0  0.48144129168E+02 -0.13684066047E+03  0.36793789973E+03  0.39550160757E+03  0.00000000000E+00 0.  1.
<mgrwt>
<rscale>  0 0.26838723E+03</rscale>
<asrwt>0</asrwt>
<pdfrwt beam="1">  1        2 0.22807611E+00 0.27133761E+03</pdfrwt>
<pdfrwt beam="2">  1       -2 0.77720487E-02 0.27133761E+03</pdfrwt>
<totfact> 0.13807934E+03</totfact>
</mgrwt>
</event>
<event>
 7    1  0.1378058E-005  0.1314959E+03  0.7546771E-02  0.1242590E+00
         -2   -1    0    0    0  501 -0.00000000000E+00  0.00000000000E+00  0.14928356356E+02  0.14928356356E+02  0.00000000000E+00 0.  1.
          2   -1    0    0  501    0  0.00000000000E+00 -0.00000000000E+00 -0.83906877725E+03  0.83906877725E+03  0.00000000000E+00 0. -1.
         23    2    1    2    0    0  0.23074136520E+02 -0.33644873348E+02 -0.35763284610E+03  0.36931117642E+03  0.82614158254E+02 0.  0.
          5    1    1    2  502    0  0.48993666654E+02  0.32115044213E+02 -0.18867546761E+03  0.19761649100E+03  0.47000000000E+01 0.  1.
         -5    1    1    2    0  502 -0.72067803175E+02  0.15298291346E+01 -0.27783210718E+03  0.28706946618E+03  0.47000000000E+01 0.  1.
        -11    1    3    3    0    0 -0.45180304212E+01  0.25183258925E+02 -0.72935317500E+02  0.77292753009E+02  0.00000000000E+00 0. -1.
         11    1    3    3    0    0  0.27592166942E+02 -0.58828132272E+02 -0.28469752860E+03  0.29201842341E+03  0.00000000000E+00 0.  1.
<mgrwt>
<rscale>  0 0.12030793E+03</rscale>
<asrwt>0</asrwt>
<pdfrwt beam="2">  1        2 0.12908754E+00 0.13149585E+03</pdfrwt>
<pdfrwt beam="1">  1       -2 0.22966695E-02 0.13149585E+03</pdfrwt>
<totfact> 0.19911592E+04</totfact>
</mgrwt>
</event>
<event>
 7    1  0.1378058E-005  0.2804536E+03  0.7546771E-02  0.1097306E+00
          1   -1    0    0  501    0  0.00000000000E+00  0.00000000000E+00  0.48134362477E+03  0.48134362477E+03  0.00000000000E+00 0. -1.
         -1   -1    0    0    0  501 -0.00000000000E+00 -0.00000000000E+00 -0.34298533739E+03  0.34298533739E+03  0.00000000000E+00 0.  1.
         23    2    1    2    0    0 -0.30067984552E+02 -0.24925398509E+03  0.37291766077E+03  0.45871674481E+03  0.91224105741E+02 0.  0.
          5    1    1    2  502    0  0.61651709054E+02  0.18228957317E+03 -0.11301398319E+03  0.22321440838E+03  0.47000000000E+01 0. -1.
         -5    1    1    2    0  502 -0.31583724502E+02  0.66964411927E+02 -0.12154539021E+03  0.14239780897E+03  0.47000000000E+01 0. -1.
        -11    1    3    3    0    0 -0.35421525670E+02 -0.14222730304E+03  0.14167336794E+03  0.20384953616E+03  0.00000000000E+00 0.  1.
         11    1    3    3    0    0  0.53535411173E+01 -0.10702668206E+03  0.23124429283E+03  0.25486720864E+03  0.00000000000E+00 0. -1.
<mgrwt>
<rscale>  0 0.27705921E+03</rscale>
<asrwt>0</asrwt>
<pdfrwt beam="1">  1        1 0.74052865E-01 0.28045355E+03</pdfrwt>
<pdfrwt beam="2">  1       -1 0.52766975E-01 0.28045355E+03</pdfrwt>
<totfact> 0.17805908E+02</totfact>
</mgrwt>
</event>
<event>
 7    1  0.1378058E-005  0.1666011E+03  0.7546771E-02  0.1187471E+00
         -1   -1    0    0    0  501 -0.00000000000E+00  0.00000000000E+00  0.26773785012E+03  0.26773785012E+03  0.00000000000E+00 0.  1.
          1   -1    0    0  501    0  0.00000000000E+00 -0.00000000000E+00 -0.91816225347E+02  0.91816225347E+02  0.00000000000E+00 0. -1.
         23    2    1    2    0    0 -0.67769704229E+02 -0.87030609643E+02  0.65486984302E+02  0.15967475256E+03  0.95081132013E+02 0.  0.
          5    1    1    2  502    0  0.24481665067E+02 -0.28303794024E+02  0.57578491797E+01  0.38153630336E+02  0.47000000000E+01 0. -1.
         -5    1    1    2    0  502  0.43288039162E+02  0.11533440367E+03  0.10467679129E+03  0.16172569257E+03  0.47000000000E+01 0. -1.
        -11    1    3    3    0    0 -0.63997722696E+02 -0.97524718014E+02  0.27173437637E+02  0.11977134401E+03  0.00000000000E+00 0. -1.
         11    1    3    3    0    0 -0.37719815330E+01  0.10494108371E+02  0.38313546665E+02  0.39903408542E+02  0.00000000000E+00 0.  1.
<mgrwt>
<rscale>  0 0.16109037E+03</rscale>
<asrwt>0</asrwt>
<pdfrwt beam="2">  1        1 0.14125573E-01 0.16660112E+03</pdfrwt>
<pdfrwt beam="1">  1       -1 0.41190438E-01 0.16660112E+03</pdfrwt>
<totfact> 0.23138205E+03</totfact>
</mgrwt>
</event>
<event>
 7    1  0.1378058E-005  0.1252119E+03  0.7546771E-02  0.1250016E+00
          1   -1    0    0  501    0  0.00000000000E+00  0.00000000000E+00  0.74308870562E+02  0.74308870562E+02  0.00000000000E+00 0. -1.
         -1   -1    0    0    0  501 -0.00000000000E+00 -0.00000000000E+00 -0.34993394161E+03  0.34993394161E+03  0.00000000000E+00 0.  1.
         23    2    1    2    0    0  0.78203528329E+01  0.16208017132E+02  0.27771070389E+02  0.96024546220E+02  0.90142239757E+02 0.  0.
          5    1    1    2  502    0 -0.42885707800E+02  0.10714394001E+02 -0.36141743975E+02  0.57291341666E+02  0.47000000000E+01 0. -1.
         -5    1    1    2    0  502  0.35065354967E+02 -0.26922411133E+02 -0.26725439746E+03  0.27092692428E+03  0.47000000000E+01 0.  1.
        -11    1    3    3    0    0 -0.11326617880E+02  0.31892451067E+02  0.51572789466E+02  0.61686086931E+02  0.00000000000E+00 0. -1.
         11    1    3    3    0    0  0.19146970713E+02 -0.15684433934E+02 -0.23801719076E+02  0.34338459289E+02  0.00000000000E+00 0.  1.
<mgrwt>
<rscale>  0 0.11590118E+03</rscale>
<asrwt>0</asrwt>
<pdfrwt beam="1">  1        1 0.11432134E-01 0.12521187E+03</pdfrwt>
<pdfrwt beam="2">  1       -1 0.53835992E-01 0.12521187E+03</pdfrwt>
<totfact> 0.18592157E+03</totfact>
</mgrwt>
</event>
