<event>
 6    1  0.6447971E-006  0.9844405E+02  0.7561462E-02  0.1283602E+00
          2   -1    0    0  501    0  0.00000000000E+00  0.00000000000E+00  0.11839434641E+03  0.11839434641E+03  0.00000000000E+00 0. -1.
         -2   -1    0    0    0  501 -0.00000000000E+00 -0.00000000000E+00 -0.12671663390E+03  0.12671663390E+03  0.00000000000E+00 0.  1.
          5    1    1    2  502    0 -0.57953836917E+02  0.14576519677E+02  0.27150273742E+02  0.65770296515E+02  0.41800000000E+01 0. -1.
         -5    1    1    2    0  502  0.13620616373E+02 -0.37883472489E+02 -0.60922281719E+02  0.73141475840E+02  0.41800000000E+01 0. -1.
        -11    1    1    2    0    0  0.41195012866E+02 -0.24942567852E+02  0.31389231081E+02  0.57484298760E+02  0.00000000000E+00 0. -1.
         11    1    1    2    0    0  0.31382076786E+01  0.48249520664E+02 -0.59395105898E+01  0.48714909194E+02  0.00000000000E+00 0.  1.
</event>
<event>
 6    1  0.6447971E-006  0.7494463E+02  0.7561462E-02  0.1344043E+00
         -2   -1    0    0    0  501 -0.00000000000E+00  0.00000000000E+00  0.36670836879E+03  0.36670836879E+03  0.00000000000E+00 0.  1.
          2   -1    0    0  501    0  0.00000000000E+00 -0.00000000000E+00 -0.53790515581E+02  0.53790515581E+02  0.00000000000E+00 0. -1.
          5    1    1    2  502    0  0.28264636965E+01  0.18309438075E+02 -0.64342925504E+01  0.20052354981E+02  0.41800000000E+01 0. -1.
         -5    1    1    2    0  502  0.15418166357E+02 -0.51464381110E+02  0.29378374866E+03  0.29868489375E+03  0.41800000000E+01 0.  1.
        -11    1    1    2    0    0  0.24940983539E+02  0.49417368444E+01 -0.20453328332E+02  0.32631458177E+02  0.00000000000E+00 0.  1.
         11    1    1    2    0    0 -0.43185613592E+02  0.28213206190E+02  0.46021725434E+02  0.69130177468E+02  0.00000000000E+00 0. -1.
</event>
<event>
 6    1  0.6447971E-006  0.8305988E+02  0.7561462E-02  0.1320586E+00
         -1   -1    0    0    0  501 -0.00000000000E+00  0.00000000000E+00  0.87095345489E+02  0.87095345489E+02  0.00000000000E+00 0.  1.
          1   -1    0    0  501    0  0.00000000000E+00 -0.00000000000E+00 -0.17872058056E+03  0.17872058056E+03  0.00000000000E+00 0. -1.
          5    1    1    2  502    0  0.16224332503E+02 -0.90162756372E+01 -0.51192094497E+02  0.54613415298E+02  0.41800000000E+01 0. -1.
         -5    1    1    2    0  502 -0.49125955069E+02  0.99122913530E+01  0.55374648358E+02  0.74802654111E+02  0.41800000000E+01 0. -1.
        -11    1    1    2    0    0 -0.17333983196E+02 -0.32936934112E+02 -0.41963978232E+02  0.56091746908E+02  0.00000000000E+00 0.  1.
         11    1    1    2    0    0  0.50235605762E+02  0.32040918396E+02 -0.53843810699E+02  0.80308109731E+02  0.00000000000E+00 0. -1.
</event>
<event>
 6    1  0.6447971E-006  0.1227288E+03  0.7561462E-02  0.1238662E+00
          1   -1    0    0  501    0  0.00000000000E+00  0.00000000000E+00  0.14815341267E+03  0.14815341267E+03  0.00000000000E+00 0. -1.
         -1   -1    0    0    0  501 -0.00000000000E+00 -0.00000000000E+00 -0.18929513339E+03  0.18929513339E+03  0.00000000000E+00 0.  1.
          5    1    1    2  502    0  0.43820936663E+02 -0.25986475576E+01  0.12752734901E+02  0.45903508652E+02  0.41800000000E+01 0.  1.
         -5    1    1    2    0  502 -0.18245643904E+01 -0.90888539474E+02 -0.11012776553E+03  0.14286235607E+03  0.41800000000E+01 0.  1.
        -11    1    1    2    0    0  0.81673094729E+01  0.94759105609E+01  0.48995174872E+02  0.50567034575E+02  0.00000000000E+00 0. -1.
         11    1    1    2    0    0 -0.50163681745E+02  0.84011276471E+02  0.72381350240E+01  0.98115646760E+02  0.00000000000E+00 0.  1.
</event>
<event>
 6    1  0.6447971E-006  0.1109464E+03  0.7561462E-02  0.1258827E+00
         -2   -1    0    0    0  501 -0.00000000000E+00  0.00000000000E+00  0.22446526960E+03  0.22446526960E+03  0.00000000000E+00 0.  1.
          2   -1    0    0  501    0  0.00000000000E+00 -0.00000000000E+00 -0.12006078067E+03  0.12006078067E+03  0.00000000000E+00 0. -1.
          5    1    1    2  502    0 -0.10598862739E+01 -0.35125842357E+01  0.11888950367E+03  0.11901952819E+03  0.41800000000E+01 0.  1.
         -5    1    1    2    0  502 -0.99094778921E+01 -0.88199216010E+02  0.23705767280E+02  0.91960509238E+02  0.41800000000E+01 0.  1.
        -11    1    1    2    0    0  0.48453220348E+02  0.66598631610E+02 -0.30218321450E+02  0.87728212371E+02  0.00000000000E+00 0. -1.
         11    1    1    2    0    0 -0.37483856182E+02  0.25113168636E+02 -0.79724605732E+01  0.45817800480E+02  0.00000000000E+00 0.  1.
</event>
<event>
 6    1  0.6447971E-006  0.1396645E+03  0.7561462E-02  0.1213781E+00
          1   -1    0    0  501    0  0.00000000000E+00  0.00000000000E+00  0.70547729070E+03  0.70547729070E+03  0.00000000000E+00 0.  1.
         -1   -1    0    0    0  501 -0.00000000000E+00 -0.00000000000E+00 -0.49834688163E+02  0.49834688163E+02  0.00000000000E+00 0. -1.
          5    1    1    2  502    0 -0.99999847957E+02 -0.72539698755E+02  0.58821447650E+02  0.13689197416E+03  0.41800000000E+01 0.  1.
         -5    1    1    2    0  502  0.12679162372E+01  0.71903640732E+01  0.90997729202E+02  0.91385819835E+02  0.41800000000E+01 0.  1.
        -11    1    1    2    0    0 -0.12401938938E+02  0.27050170212E+02  0.12432565431E+03  0.12783735024E+03  0.00000000000E+00 0.  1.
         11    1    1    2    0    0  0.11113387066E+03  0.38299164469E+02  0.38149777138E+03  0.39919683462E+03  0.00000000000E+00 0. -1.
</event>
<event>
 6    1  0.6447971E-006  0.1834758E+03  0.7561462E-02  0.1164481E+00
          1   -1    0    0  501    0  0.00000000000E+00  0.00000000000E+00  0.10059611853E+04  0.10059611853E+04  0.00000000000E+00 0. -1.
         -1   -1    0    0    0  501 -0.00000000000E+00 -0.00000000000E+00 -0.41233656460E+02  0.41233656460E+02  0.00000000000E+00 0.  1.
          5    1    1    2  502    0  0.12143113287E+03  0.10430682987E+03  0.20772981941E+03  0.26228721863E+03  0.41800000000E+01 0. -1.
         -5    1    1    2    0  502  0.12422530781E+02 -0.22488741426E+02  0.11358396440E+03  0.11652833188E+03  0.41800000000E+01 0. -1.
        -11    1    1    2    0    0  0.13633243653E+02 -0.86873876196E+01  0.66592181655E+02  0.68526306582E+02  0.00000000000E+00 0. -1.
         11    1    1    2    0    0 -0.14748690731E+03 -0.73130700826E+02  0.57682156335E+03  0.59985298464E+03  0.00000000000E+00 0.  1.
</event>
<event>
 6    1  0.6447971E-006  0.1685418E+03  0.7561462E-02  0.1179377E+00
          1   -1    0    0  501    0  0.00000000000E+00  0.00000000000E+00  0.37823929370E+03  0.37823929370E+03  0.00000000000E+00 0. -1.
         -1   -1    0    0    0  501 -0.00000000000E+00 -0.00000000000E+00 -0.81284617540E+02  0.81284617540E+02  0.00000000000E+00 0.  1.
          5    1    1    2  502    0 -0.12330333396E+03  0.52565715468E+02  0.61955080523E+02  0.14772532285E+03  0.41800000000E+01 0.  1.
         -5    1    1    2    0  502 -0.10984236990E+02 -0.39434984374E+02  0.60955821321E+02  0.73544925098E+02  0.41800000000E+01 0.  1.
        -11    1    1    2    0    0  0.92867421429E+02  0.34171694393E+02  0.94163194487E+02  0.13659710779E+03  0.00000000000E+00 0.  1.
         11    1    1    2    0    0  0.41420149519E+02 -0.47302425487E+02  0.79880579831E+02  0.10165655551E+03  0.00000000000E+00 0. -1.
</event>
<event>
 6    1  0.6447971E-006  0.1231387E+03  0.7561462E-02  0.1238007E+00
          2   -1    0    0  501    0  0.00000000000E+00  0.00000000000E+00  0.43619652709E+03  0.43619652709E+03  0.00000000000E+00 0. -1.
         -2   -1    0    0    0  501 -0.00000000000E+00 -0.00000000000E+00 -0.48994908066E+02  0.48994908066E+02  0.00000000000E+00 0.  1.
          5    1    1    2  502    0 -0.10294846967E+02  0.32564247703E+02  0.60247477721E+02  0.69380437259E+02  0.41800000000E+01 0. -1.
         -5    1    1    2    0  502 -0.36978657618E+02 -0.10172858151E+03  0.63962742648E+02  0.12579678160E+03  0.41800000000E+01 0. -1.
        -11    1    1    2    0    0 -0.78436810452E+01  0.40825858612E+02  0.36914517114E+02  0.55596363527E+02  0.00000000000E+00 0.  1.
         11    1    1    2    0    0  0.55117185630E+02  0.28338475192E+02  0.22607688154E+03  0.23441785276E+03  0.00000000000E+00 0. -1.
</event>
<event>
 6    1  0.6447971E-006  0.1279899E+03  0.7561462E-02  0.1230469E+00
          3   -1    0    0  501    0  0.00000000000E+00  0.00000000000E+00  0.16669476914E+03  0.16669476914E+03  0.00000000000E+00 0. -1.
         -3   -1    0    0    0  501 -0.00000000000E+00 -0.00000000000E+00 -0.18968358925E+03  0.18968358925E+03  0.00000000000E+00 0.  1.
          5    1    1    2  502    0 -0.10012083547E+03 -0.19620764548E+02 -0.20722939146E+02  0.10419245992E+03  0.41800000000E+01 0.  1.
         -5    1    1    2    0  502 -0.19534618314E+01  0.20890894208E+02 -0.87866410004E+02  0.90433532945E+02  0.41800000000E+01 0.  1.
        -11    1    1    2    0    0  0.33427195047E+02  0.40193460192E+02  0.13698929918E+02  0.54042134412E+02  0.00000000000E+00 0.  1.
         11    1    1    2    0    0  0.68647102253E+02 -0.41463589852E+02  0.71901599117E+02  0.10771023111E+03  0.00000000000E+00 0. -1.
</event>
<event>
 6    1  0.6447971E-006  0.9689771E+02  0.7561462E-02  0.1286958E+00
          2   -1    0    0  501    0  0.00000000000E+00  0.00000000000E+00  0.26055137689E+03  0.26055137689E+03  0.00000000000E+00 0. -1.
         -2   -1    0    0    0  501 -0.00000000000E+00 -0.00000000000E+00 -0.46091233416E+02  0.46091233416E+02  0.00000000000E+00 0.  1.
          5    1    1    2  502    0  0.25103885108E+02  0.54245626150E+02  0.54669875088E+02  0.81111408853E+02  0.41800000000E+01 0.  1.
         -5    1    1    2    0  502 -0.12658273039E+02 -0.64662176895E+02  0.70732474286E+02  0.96757347606E+02  0.41800000000E+01 0.  1.
        -11    1    1    2    0    0 -0.25129114673E+02  0.33284192945E+02  0.65436234119E+01  0.42215268702E+02  0.00000000000E+00 0.  1.
         11    1    1    2    0    0  0.12683502604E+02 -0.22867642200E+02  0.82514170688E+02  0.86558585146E+02  0.00000000000E+00 0. -1.
</event>
<event>
 6    1  0.6447971E-006  0.1242684E+03  0.7561462E-02  0.1236217E+00
          2   -1    0    0  501    0  0.00000000000E+00  0.00000000000E+00  0.91696134744E+03  0.91696134744E+03  0.00000000000E+00 0. -1.
         -2   -1    0    0    0  501 -0.00000000000E+00 -0.00000000000E+00 -0.24083321521E+02  0.24083321521E+02  0.00000000000E+00 0.  1.
          5    1    1    2  502    0 -0.48658735763E+02  0.27858295513E+02  0.26490685430E+03  0.27080781202E+03  0.41800000000E+01 0.  1.
         -5    1    1    2    0  502 -0.13485964991E+02 -0.97126358097E+02  0.34205960751E+03  0.35586183861E+03  0.41800000000E+01 0.  1.
        -11    1    1    2    0    0  0.39799665123E+02  0.33653598493E+02  0.42198182126E+02  0.67061647834E+02  0.00000000000E+00 0.  1.
         11    1    1    2    0    0  0.22345035631E+02  0.35614464091E+02  0.24371338197E+03  0.24731337049E+03  0.00000000000E+00 0. -1.
</event>
<event>
 6    1  0.6447971E-006  0.1133447E+03  0.7561462E-02  0.1254499E+00
          1   -1    0    0  501    0  0.00000000000E+00  0.00000000000E+00  0.38594578487E+02  0.38594578487E+02  0.00000000000E+00 0. -1.
         -1   -1    0    0    0  501 -0.00000000000E+00 -0.00000000000E+00 -0.34381863297E+03  0.34381863297E+03  0.00000000000E+00 0.  1.
          5    1    1    2  502    0  0.54483440923E+02  0.32276912098E+02 -0.10793893183E+03  0.12521393610E+03  0.41800000000E+01 0. -1.
         -5    1    1    2    0  502 -0.65855763268E+02  0.11697019390E+01 -0.90609064159E+02  0.11209738920E+03  0.41800000000E+01 0. -1.
        -11    1    1    2    0    0 -0.39100154607E+02 -0.53612007878E+01 -0.32738276929E+02  0.51277278988E+02  0.00000000000E+00 0. -1.
         11    1    1    2    0    0  0.50472476951E+02 -0.28085413249E+02 -0.73937781567E+02  0.93824607167E+02  0.00000000000E+00 0.  1.
</event>
<event>
 6    1  0.6447971E-006  0.8240740E+02  0.7561462E-02  0.1322355E+00
          2   -1    0    0  501    0  0.00000000000E+00  0.00000000000E+00  0.22389769464E+03  0.22389769464E+03  0.00000000000E+00 0. -1.
         -2   -1    0    0    0  501 -0.00000000000E+00 -0.00000000000E+00 -0.70437849564E+02  0.70437849564E+02  0.00000000000E+00 0.  1.
          5    1    1    2  502    0 -0.16996052476E+00  0.36711488077E+02  0.68856345449E+02  0.78143655865E+02  0.41800000000E+01 0. -1.
         -5    1    1    2    0  502 -0.43068843752E+02 -0.18508783914E+02 -0.36216190815E+02  0.59385059243E+02  0.41800000000E+01 0. -1.
        -11    1    1    2    0    0  0.24196551504E+02 -0.43118051698E+02  0.23854590056E+02  0.54897003139E+02  0.00000000000E+00 0.  1.
         11    1    1    2    0    0  0.19042252773E+02  0.24915347535E+02  0.96965100382E+02  0.10190982595E+03  0.00000000000E+00 0. -1.
</event>
<event>
 6    1  0.6447971E-006  0.9153041E+02  0.7561462E-02  0.1299187E+00
          1   -1    0    0  501    0  0.00000000000E+00  0.00000000000E+00  0.26440558422E+03  0.26440558422E+03  0.00000000000E+00 0. -1.
         -1   -1    0    0    0  501 -0.00000000000E+00 -0.00000000000E+00 -0.53958633785E+02  0.53958633785E+02  0.00000000000E+00 0.  1.
          5    1    1    2  502    0 -0.10190517253E+02  0.46902788040E+02  0.48797903168E+02  0.68574236572E+02  0.41800000000E+01 0. -1.
         -5    1    1    2    0  502 -0.26706175422E+01 -0.67485839431E+02 -0.60957595289E+00  0.67670633990E+02  0.41800000000E+01 0. -1.
        -11    1    1    2    0    0 -0.12079697231E+02  0.35946012824E+02  0.14077436073E+03  0.14579250860E+03  0.00000000000E+00 0. -1.
         11    1    1    2    0    0  0.24940832026E+02 -0.15362961432E+02  0.21484262490E+02  0.36326838850E+02  0.00000000000E+00 0.  1.
</event>
<event>
 6    1  0.6447971E-006  0.9250694E+02  0.7561462E-02  0.1296892E+00
          1   -1    0    0  501    0  0.00000000000E+00  0.00000000000E+00  0.19638590546E+03  0.19638590546E+03  0.00000000000E+00 0. -1.
         -1   -1    0    0    0  501 -0.00000000000E+00 -0.00000000000E+00 -0.62949344673E+02  0.62949344673E+02  0.00000000000E+00 0.  1.
          5    1    1    2  502    0  0.72350309892E+01  0.61221748525E+02  0.33715966406E+02  0.70389537266E+02  0.41800000000E+01 0.  1.
         -5    1    1    2    0  502  0.17561680770E+02 -0.63223580704E+02  0.35014120929E+02  0.74492246932E+02  0.41800000000E+01 0.  1.
        -11    1    1    2    0    0 -0.23345514156E+02  0.25129991587E+02 -0.10408544833E+02  0.35845045877E+02  0.00000000000E+00 0.  1.
         11    1    1    2    0    0 -0.14511976036E+01 -0.23128159408E+02  0.75115018282E+02  0.78608420055E+02  0.00000000000E+00 0. -1.
</event>
<event>
 6    1  0.6447971E-006  0.1032463E+03  0.7561462E-02  0.1273614E+00
          2   -1    0    0  501    0  0.00000000000E+00  0.00000000000E+00  0.37880458377E+03  0.37880458377E+03  0.00000000000E+00 0. -1.
         -2   -1    0    0    0  501 -0.00000000000E+00 -0.00000000000E+00 -0.43733995765E+02  0.43733995765E+02  0.00000000000E+00 0.  1.
          5    1    1    2  502    0 -0.40913984177E+02 -0.23772265569E+02  0.75762956502E+02  0.89423557800E+02  0.41800000000E+01 0.  1.
         -5    1    1    2    0  502  0.85422837251E+02 -0.16734487476E+02  0.69117976865E+02  0.11122891405E+03  0.41800000000E+01 0.  1.
        -11    1    1    2    0    0 -0.49938380982E+02  0.25891200400E+02  0.19699892344E+03  0.20487257501E+03  0.00000000000E+00 0. -1.
         11    1    1    2    0    0  0.54295279084E+01  0.14615552645E+02 -0.68092688052E+01  0.17013532676E+02  0.00000000000E+00 0.  1.
</event>
<event>
 6    1  0.6447971E-006  0.1841149E+03  0.7561462E-02  0.1163879E+00
         -3   -1    0    0    0  501 -0.00000000000E+00  0.00000000000E+00  0.26605543105E+03  0.26605543105E+03  0.00000000000E+00 0.  1.
          3   -1    0    0  501    0  0.00000000000E+00 -0.00000000000E+00 -0.14939656004E+03  0.14939656004E+03  0.00000000000E+00 0. -1.
          5    1    1    2  502    0 -0.41991910702E+02  0.15431161245E+03  0.12500831826E+03  0.20302695962E+03  0.41800000000E+01 0.  1.
         -5    1    1    2    0  502 -0.28011394947E+02 -0.15564105335E+02 -0.16131322787E+00  0.32316838393E+02  0.41800000000E+01 0.  1.
        -11    1    1    2    0    0  0.22745866076E+02 -0.12452364023E+03  0.11213751082E+02  0.12707973723E+03  0.00000000000E+00 0.  1.
         11    1    1    2    0    0  0.47257439573E+02 -0.14223866880E+02 -0.19401885106E+02  0.53028455849E+02  0.00000000000E+00 0. -1.
</event>
<event>
 6    1  0.6447971E-006  0.1162619E+03  0.7561462E-02  0.1249394E+00
          2   -1    0    0  501    0  0.00000000000E+00  0.00000000000E+00  0.17960971820E+03  0.17960971820E+03  0.00000000000E+00 0. -1.
         -2   -1    0    0    0  501 -0.00000000000E+00 -0.00000000000E+00 -0.11582859407E+03  0.11582859407E+03  0.00000000000E+00 0.  1.
          5    1    1    2  502    0 -0.51404295387E+02  0.24944387902E+02  0.58424899762E+02  0.81826434508E+02  0.41800000000E+01 0. -1.
         -5    1    1    2    0  502  0.20462617661E+02  0.63087417431E+02 -0.36415901744E+02  0.75778171392E+02  0.41800000000E+01 0. -1.
        -11    1    1    2    0    0 -0.86372038324E+01 -0.59164903540E+02  0.60805596655E+02  0.85278412776E+02  0.00000000000E+00 0. -1.
         11    1    1    2    0    0  0.39578881558E+02 -0.28866901793E+02 -0.19033470540E+02  0.52555293600E+02  0.00000000000E+00 0.  1.
</event>
<event>
 6    1  0.6447971E-006  0.1375266E+03  0.7561462E-02  0.1216696E+00
          2   -1    0    0  501    0  0.00000000000E+00  0.00000000000E+00  0.75032499050E+03  0.75032499050E+03  0.00000000000E+00 0. -1.
         -2   -1    0    0    0  501 -0.00000000000E+00 -0.00000000000E+00 -0.37580150265E+02  0.37580150265E+02  0.00000000000E+00 0.  1.
          5    1    1    2  502    0 -0.27055088617E+02 -0.24601456054E+02  0.20543635152E+02  0.42151189845E+02  0.41800000000E+01 0.  1.
         -5    1    1    2    0  502 -0.11424791872E+02  0.11665621573E+03  0.17179294049E+03  0.20801318550E+03  0.41800000000E+01 0.  1.
        -11    1    1    2    0    0  0.37199363503E+02 -0.94995087245E+01  0.70094701709E+02  0.79920588829E+02  0.00000000000E+00 0.  1.
         11    1    1    2    0    0  0.12805169856E+01 -0.82555250948E+02  0.45031356289E+03  0.45782017660E+03  0.00000000000E+00 0. -1.
</event>
<event>
 6    1  0.6447971E-006  0.8520774E+02  0.7561462E-02  0.1314890E+00
         -2   -1    0    0    0  501 -0.00000000000E+00  0.00000000000E+00  0.58033850659E+02  0.58033850659E+02  0.00000000000E+00 0.  1.
          2   -1    0    0  501    0  0.00000000000E+00 -0.00000000000E+00 -0.34928860595E+03  0.34928860595E+03  0.00000000000E+00 0. -1.
          5    1    1    2  502    0  0.58870425534E+01  0.69423538912E+00 -0.14068328145E+03  0.14087014344E+03  0.41800000000E+01 0. -1.
         -5    1    1    2    0  502 -0.11690175054E+02  0.58046385697E+02  0.22319486125E+02  0.63416677193E+02  0.41800000000E+01 0.  1.
        -11    1    1    2    0    0 -0.29547496689E+02 -0.61617163523E+02 -0.13388158117E+03  0.15031303063E+03  0.00000000000E+00 0.  1.
         11    1    1    2    0    0  0.35350629189E+02  0.28765424368E+01 -0.39009378797E+02  0.52722605347E+02  0.00000000000E+00 0. -1.
</event>
<event>
 6    1  0.6447971E-006  0.1031341E+03  0.7561462E-02  0.1273840E+00
         -2   -1    0    0    0  501 -0.00000000000E+00  0.00000000000E+00  0.37060415581E+02  0.37060415581E+02  0.00000000000E+00 0.  1.
          2   -1    0    0  501    0  0.00000000000E+00 -0.00000000000E+00 -0.35236155937E+03  0.35236155937E+03  0.00000000000E+00 0. -1.
          5    1    1    2  502    0  0.37707516375E+02  0.29381917175E+02 -0.46122310120E+02  0.66557446908E+02  0.41800000000E+01 0. -1.
         -5    1    1    2    0  502 -0.55357699394E+02 -0.59022053509E+02 -0.10522086277E+03  0.13280429227E+03  0.41800000000E+01 0. -1.
        -11    1    1    2    0    0  0.68616758797E+01  0.51987962917E+02 -0.15507729287E+03  0.16370338313E+03  0.00000000000E+00 0. -1.
         11    1    1    2    0    0  0.10788507139E+02 -0.22347826583E+02 -0.88806780319E+01  0.26356852649E+02  0.00000000000E+00 0.  1.
</event>
<event>
 6    1  0.6447971E-006  0.1373102E+03  0.7561462E-02  0.1216995E+00
          2   -1    0    0  501    0  0.00000000000E+00  0.00000000000E+00  0.54026736891E+03  0.54026736891E+03  0.00000000000E+00 0. -1.
         -2   -1    0    0    0  501 -0.00000000000E+00 -0.00000000000E+00 -0.42657940679E+02  0.42657940679E+02  0.00000000000E+00 0.  1.
          5    1    1    2  502    0 -0.11810798924E+03  0.58363738626E+02  0.20234357715E+03  0.24148751256E+03  0.41800000000E+01 0. -1.
         -5    1    1    2    0  502  0.30885961173E+02 -0.21396891815E-01  0.39572957868E+02  0.50372953555E+02  0.41800000000E+01 0. -1.
        -11    1    1    2    0    0  0.35321924351E+02 -0.46529398061E+02  0.21838795848E+03  0.22606619303E+03  0.00000000000E+00 0. -1.
         11    1    1    2    0    0  0.51900103715E+02 -0.11812943673E+02  0.37304934735E+02  0.64998650443E+02  0.00000000000E+00 0.  1.
</event>
<event>
 6    1  0.6447971E-006  0.1886114E+03  0.7561462E-02  0.1159720E+00
         -1   -1    0    0    0  501 -0.00000000000E+00  0.00000000000E+00  0.38124240524E+03  0.38124240524E+03  0.00000000000E+00 0.  1.
          1   -1    0    0  501    0  0.00000000000E+00 -0.00000000000E+00 -0.10576813996E+03  0.10576813996E+03  0.00000000000E+00 0. -1.
          5    1    1    2  502    0 -0.35469237519E+02 -0.24955393486E+01  0.25931111592E+02  0.44206215346E+02  0.41800000000E+01 0.  1.
         -5    1    1    2    0  502  0.30708128220E+02  0.15916159250E+03  0.41670571449E+02  0.16741956454E+03  0.41800000000E+01 0.  1.
        -11    1    1    2    0    0 -0.19370709559E+02 -0.15374703386E+03  0.16692655310E+03  0.22776709362E+03  0.00000000000E+00 0. -1.
         11    1    1    2    0    0  0.24131818858E+02 -0.29190192965E+01  0.40946029142E+02  0.47617671693E+02  0.00000000000E+00 0.  1.
</event>
<event>
 6    1  0.6447971E-006  0.1036030E+03  0.7561462E-02  0.1272897E+00
          2   -1    0    0  501    0  0.00000000000E+00  0.00000000000E+00  0.13949112918E+03  0.13949112918E+03  0.00000000000E+00 0. -1.
         -2   -1    0    0    0  501 -0.00000000000E+00 -0.00000000000E+00 -0.91861290773E+02  0.91861290773E+02  0.00000000000E+00 0.  1.
          5    1    1    2  502    0  0.36603784356E+02 -0.57958047609E+02 -0.94185220058E+01  0.69319212839E+02  0.41800000000E+01 0. -1.
         -5    1    1    2    0  502 -0.35813596877E+02  0.42921235468E+02  0.83485545935E+01  0.56674658704E+02  0.41800000000E+01 0. -1.
        -11    1    1    2    0    0 -0.72848087246E+01 -0.33104113570E+02 -0.34713897674E+01  0.34073469449E+02  0.00000000000E+00 0.  1.
         11    1    1    2    0    0  0.64946212457E+01  0.48140925710E+02  0.52171195588E+02  0.71285078961E+02  0.00000000000E+00 0. -1.
</event>
<event>
 6    1  0.7376991E-006  0.2617722E+03  0.7561462E-02  0.1106083E+00
         -3   -1    0    0    0  501 -0.00000000000E+00  0.00000000000E+00  0.33045868935E+03  0.33045868935E+03  0.00000000000E+00 0.  1.
          3   -1    0    0  501    0  0.00000000000E+00 -0.00000000000E+00 -0.24216592114E+03  0.24216592114E+03  0.00000000000E+00 0. -1.
          5    1    1    2  502    0  0.22437261464E+03  0.14808418089E+02  0.13132684902E+03  0.26043535305E+03  0.41800000000E+01 0. -1.
         -5    1    1    2    0  502  0.12603891380E+02 -0.42261990000E+02  0.21084383283E+02  0.49060753104E+02  0.41800000000E+01 0. -1.
        -11    1    1    2    0    0 -0.64804133489E+02 -0.31899845043E+02 -0.86112936669E+01  0.72741530158E+02  0.00000000000E+00 0.  1.
         11    1    1    2    0    0 -0.17217237253E+03  0.59353416953E+02 -0.55507170428E+02  0.19038697417E+03  0.00000000000E+00 0. -1.
</event>
<event>
 6    1  0.6447971E-006  0.1188321E+03  0.7561462E-02  0.1245036E+00
          2   -1    0    0  501    0  0.00000000000E+00  0.00000000000E+00  0.55935691932E+03  0.55935691932E+03  0.00000000000E+00 0. -1.
         -2   -1    0    0    0  501 -0.00000000000E+00 -0.00000000000E+00 -0.42453236021E+02  0.42453236021E+02  0.00000000000E+00 0.  1.
          5    1    1    2  502    0  0.36908066073E+02  0.43969372435E+02  0.15158139124E+03  0.16214160979E+03  0.41800000000E+01 0.  1.
         -5    1    1    2    0  502  0.62478135461E+02 -0.48162425777E+02  0.43971168352E+02  0.90410578550E+02  0.41800000000E+01 0.  1.
        -11    1    1    2    0    0 -0.47466346678E+02 -0.70440905230E+01  0.38668595460E+02  0.61627376653E+02  0.00000000000E+00 0.  1.
         11    1    1    2    0    0 -0.51919854857E+02  0.11237143865E+02  0.28268252824E+03  0.28763059035E+03  0.00000000000E+00 0. -1.
</event>
<event>
 6    1  0.6447971E-006  0.1078114E+03  0.7561462E-02  0.1264677E+00
         -3   -1    0    0    0  501 -0.00000000000E+00  0.00000000000E+00  0.55214951380E+03  0.55214951380E+03  0.00000000000E+00 0.  1.
          3   -1    0    0  501    0  0.00000000000E+00 -0.00000000000E+00 -0.24719951690E+02  0.24719951690E+02  0.00000000000E+00 0. -1.
          5    1    1    2  502    0 -0.16804521703E+02 -0.81649969084E+02  0.15411345174E+03  0.17526419431E+03  0.41800000000E+01 0. -1.
         -5    1    1    2    0  502  0.15959065085E+02  0.44134212154E+02  0.90217614471E+02  0.10178020830E+03  0.41800000000E+01 0. -1.
        -11    1    1    2    0    0  0.30605164486E+02 -0.70921909634E+01  0.39893925924E+02  0.50778938464E+02  0.00000000000E+00 0. -1.
         11    1    1    2    0    0 -0.29759707868E+02  0.44607947893E+02  0.24320456998E+03  0.24904612442E+03  0.00000000000E+00 0.  1.
</event>
<event>
 6    1  0.6447971E-006  0.1049004E+03  0.7561462E-02  0.1270316E+00
          2   -1    0    0  501    0  0.00000000000E+00  0.00000000000E+00  0.30257107782E+03  0.30257107782E+03  0.00000000000E+00 0. -1.
         -2   -1    0    0    0  501 -0.00000000000E+00 -0.00000000000E+00 -0.45208153968E+02  0.45208153968E+02  0.00000000000E+00 0.  1.
          5    1    1    2  502    0  0.37342049244E+02 -0.72791412157E+02  0.45608657474E+02  0.93758414887E+02  0.41800000000E+01 0.  1.
         -5    1    1    2    0  502 -0.17162456817E+02  0.39826903859E+02  0.61668259296E+02  0.75506150740E+02  0.41800000000E+01 0.  1.
        -11    1    1    2    0    0  0.26092056259E+02  0.27190197972E+02  0.25534791843E+02  0.45520631148E+02  0.00000000000E+00 0. -1.
         11    1    1    2    0    0 -0.46271648686E+02  0.57743103264E+01  0.12455121524E+03  0.13299403501E+03  0.00000000000E+00 0.  1.
</event>
<event>
 6    1  0.6447971E-006  0.9228430E+02  0.7561462E-02  0.1297412E+00
          2   -1    0    0  501    0  0.00000000000E+00  0.00000000000E+00  0.15316130789E+03  0.15316130789E+03  0.00000000000E+00 0. -1.
         -2   -1    0    0    0  501 -0.00000000000E+00 -0.00000000000E+00 -0.10096121147E+03  0.10096121147E+03  0.00000000000E+00 0.  1.
          5    1    1    2  502    0 -0.29906889186E+02  0.27939588387E+02  0.23000695003E+02  0.47133289623E+02  0.41800000000E+01 0.  1.
         -5    1    1    2    0  502  0.42436375051E+02 -0.51935122877E+02 -0.49759223703E+02  0.83615522837E+02  0.41800000000E+01 0.  1.
        -11    1    1    2    0    0  0.16972291826E+02 -0.18108746866E+02 -0.46232216048E+01  0.25245981480E+02  0.00000000000E+00 0.  1.
         11    1    1    2    0    0 -0.29501777691E+02  0.42104281356E+02  0.83581846724E+02  0.98127725426E+02  0.00000000000E+00 0. -1.
</event>
<event>
 6    1  0.6447971E-006  0.1211727E+03  0.7561462E-02  0.1241175E+00
          2   -1    0    0  501    0  0.00000000000E+00  0.00000000000E+00  0.34530267402E+03  0.34530267402E+03  0.00000000000E+00 0. -1.
         -2   -1    0    0    0  501 -0.00000000000E+00 -0.00000000000E+00 -0.60842192050E+02  0.60842192050E+02  0.00000000000E+00 0.  1.
          5    1    1    2  502    0 -0.32183059409E+02 -0.97931094165E+02  0.20531292591E+03  0.22977623563E+03  0.41800000000E+01 0.  1.
         -5    1    1    2    0  502  0.23635270856E+02  0.95668816256E+01 -0.82423744717E+00  0.25851557397E+02  0.41800000000E+01 0.  1.
        -11    1    1    2    0    0 -0.27952757912E+02  0.62905798130E+02  0.12916156936E+02  0.70038012702E+02  0.00000000000E+00 0.  1.
         11    1    1    2    0    0  0.36500546465E+02  0.25458414409E+02  0.67055636576E+02  0.80479060339E+02  0.00000000000E+00 0. -1.
</event>
<event>
 6    1  0.6447971E-006  0.1180894E+03  0.7561462E-02  0.1246283E+00
          1   -1    0    0  501    0  0.00000000000E+00  0.00000000000E+00  0.22530147917E+03  0.22530147917E+03  0.00000000000E+00 0. -1.
         -1   -1    0    0    0  501 -0.00000000000E+00 -0.00000000000E+00 -0.83660018855E+02  0.83660018855E+02  0.00000000000E+00 0.  1.
          5    1    1    2  502    0  0.10985588067E+02 -0.22557956676E+02  0.58825996958E+02  0.64089896806E+02  0.41800000000E+01 0.  1.
         -5    1    1    2    0  502 -0.90536722699E+02  0.49141316694E+02  0.16830578969E+02  0.10446295014E+03  0.41800000000E+01 0.  1.
        -11    1    1    2    0    0  0.30114753321E+02 -0.45624818624E+02  0.68175547166E+02  0.87386656152E+02  0.00000000000E+00 0. -1.
         11    1    1    2    0    0  0.49436381312E+02  0.19041458606E+02 -0.21906627745E+01  0.53021994931E+02  0.00000000000E+00 0.  1.
</event>
<event>
 6    1  0.6447971E-006  0.1002088E+03  0.7561462E-02  0.1279858E+00
         -1   -1    0    0    0  501 -0.00000000000E+00  0.00000000000E+00  0.55527554136E+02  0.55527554136E+02  0.00000000000E+00 0.  1.
          1   -1    0    0  501    0  0.00000000000E+00 -0.00000000000E+00 -0.25479705859E+03  0.25479705859E+03  0.00000000000E+00 0. -1.
          5    1    1    2  502    0  0.18567687942E+02 -0.19973235649E+02 -0.89910655148E+02  0.94048325274E+02  0.41800000000E+01 0.  1.
         -5    1    1    2    0  502 -0.44516115983E+02  0.64782214133E+02 -0.22346960393E+02  0.81824683861E+02  0.41800000000E+01 0.  1.
        -11    1    1    2    0    0  0.50656253423E+02 -0.47268263890E+02 -0.84826494604E+02  0.10952570004E+03  0.00000000000E+00 0. -1.
         11    1    1    2    0    0 -0.24707825382E+02  0.24592854062E+01 -0.21853943115E+01  0.24925903556E+02  0.00000000000E+00 0.  1.
</event>
<event>
 6    1  0.6447971E-006  0.8804283E+02  0.7561462E-02  0.1307662E+00
         -1   -1    0    0    0  501 -0.00000000000E+00  0.00000000000E+00  0.16002923274E+03  0.16002923274E+03  0.00000000000E+00 0.  1.
          1   -1    0    0  501    0  0.00000000000E+00 -0.00000000000E+00 -0.99415291649E+02  0.99415291649E+02  0.00000000000E+00 0. -1.
          5    1    1    2  502    0  0.35857720159E+01  0.58992642168E+02 -0.33591062821E+02  0.68108894370E+02  0.41800000000E+01 0. -1.
         -5    1    1    2    0  502 -0.31462536309E+02 -0.17184675261E+01  0.69992622844E+02  0.76871867248E+02  0.41800000000E+01 0. -1.
        -11    1    1    2    0    0  0.51171193564E+01  0.11511609556E+02 -0.24229045121E+02  0.27308399671E+02  0.00000000000E+00 0. -1.
         11    1    1    2    0    0  0.22759644937E+02 -0.68785784198E+02  0.48441426184E+02  0.87155363095E+02  0.00000000000E+00 0.  1.
</event>
<event>
 6    1  0.6447971E-006  0.1079390E+03  0.7561462E-02  0.1264435E+00
          1   -1    0    0  501    0  0.00000000000E+00  0.00000000000E+00  0.11383818958E+03  0.11383818958E+03  0.00000000000E+00 0.  1.
         -1   -1    0    0    0  501 -0.00000000000E+00 -0.00000000000E+00 -0.19671639418E+03  0.19671639418E+03  0.00000000000E+00 0. -1.
          5    1    1    2  502    0  0.51758119938E+02  0.48285048114E+02 -0.87478439765E+02  0.11260683227E+03  0.41800000000E+01 0.  1.
         -5    1    1    2    0  502 -0.25548359716E+02 -0.50435989484E+02 -0.59604507112E+02  0.82259816359E+02  0.41800000000E+01 0.  1.
        -11    1    1    2    0    0  0.19680118272E+02 -0.27372087425E+02  0.48205454635E+02  0.58824349395E+02  0.00000000000E+00 0. -1.
         11    1    1    2    0    0 -0.45889878493E+02  0.29523028794E+02  0.15999287639E+02  0.56863585732E+02  0.00000000000E+00 0.  1.
</event>
<event>
 6    1  0.6447971E-006  0.2171708E+03  0.7561462E-02  0.1136010E+00
          1   -1    0    0  501    0  0.00000000000E+00  0.00000000000E+00  0.22876898224E+03  0.22876898224E+03  0.00000000000E+00 0. -1.
         -1   -1    0    0    0  501 -0.00000000000E+00 -0.00000000000E+00 -0.22591635729E+03  0.22591635729E+03  0.00000000000E+00 0.  1.
          5    1    1    2  502    0  0.18975246313E+02  0.41296374273E+02  0.67145620066E+01  0.46130339731E+02  0.41800000000E+01 0. -1.
         -5    1    1    2    0  502 -0.15850989831E+03  0.99355249087E+02 -0.26926677523E+02  0.18904859626E+03  0.41800000000E+01 0. -1.
        -11    1    1    2    0    0  0.58287368981E+02 -0.33900953459E+02  0.48375607478E+02  0.82987296781E+02  0.00000000000E+00 0.  1.
         11    1    1    2    0    0  0.81247283020E+02 -0.10675066990E+03 -0.25310867011E+02  0.13651910676E+03  0.00000000000E+00 0. -1.
</event>
<event>
 6    1  0.6447971E-006  0.1016254E+03  0.7561462E-02  0.1276915E+00
         -2   -1    0    0    0  501 -0.00000000000E+00  0.00000000000E+00  0.32391761604E+02  0.32391761604E+02  0.00000000000E+00 0.  1.
          2   -1    0    0  501    0  0.00000000000E+00 -0.00000000000E+00 -0.52488019782E+03  0.52488019782E+03  0.00000000000E+00 0. -1.
          5    1    1    2  502    0  0.12165657582E+02  0.62915914125E+02 -0.20683613361E+03  0.21657579284E+03  0.41800000000E+01 0. -1.
         -5    1    1    2    0  502 -0.84790809368E+01 -0.62557178433E+02 -0.27156749949E+02  0.68849523272E+02  0.41800000000E+01 0.  1.
        -11    1    1    2    0    0 -0.27745728208E+02  0.27425472507E+02 -0.73259516521E+02  0.82999630944E+02  0.00000000000E+00 0.  1.
         11    1    1    2    0    0  0.24059151563E+02 -0.27784208199E+02 -0.18523603613E+03  0.18884701237E+03  0.00000000000E+00 0. -1.
</event>
<event>
 6    1  0.6447971E-006  0.5082343E+03  0.7561462E-02  0.1011652E+00
         -3   -1    0    0    0  501 -0.00000000000E+00  0.00000000000E+00  0.69431512960E+03  0.69431512960E+03  0.00000000000E+00 0.  1.
          3   -1    0    0  501    0  0.00000000000E+00 -0.00000000000E+00 -0.49636298394E+03  0.49636298394E+03  0.00000000000E+00 0. -1.
          5    1    1    2  502    0 -0.39502370923E+02 -0.93110043972E+00  0.86632194045E+01  0.40667284480E+02  0.41800000000E+01 0.  1.
         -5    1    1    2    0  502 -0.33513481895E+03 -0.33400727530E+03  0.37809356907E+03  0.60568013522E+03  0.41800000000E+01 0.  1.
        -11    1    1    2    0    0  0.11163299675E+02  0.36008367304E+01 -0.22092176495E+02  0.25012987568E+02  0.00000000000E+00 0.  1.
         11    1    1    2    0    0  0.36347389020E+03  0.33133753901E+03 -0.16671246632E+03  0.51931770627E+03  0.00000000000E+00 0. -1.
</event>
<event>
 6    1  0.6447971E-006  0.7048783E+02  0.7561462E-02  0.1358442E+00
         -1   -1    0    0    0  501 -0.00000000000E+00  0.00000000000E+00  0.50161672609E+03  0.50161672609E+03  0.00000000000E+00 0.  1.
          1   -1    0    0  501    0  0.00000000000E+00 -0.00000000000E+00 -0.32574190585E+02  0.32574190585E+02  0.00000000000E+00 0. -1.
          5    1    1    2  502    0 -0.14175239884E+02  0.35950679343E+02  0.24641557505E+02  0.46022467636E+02  0.41800000000E+01 0.  1.
         -5    1    1    2    0  502 -0.18029209594E+02 -0.14015741619E+02  0.35185176587E+03  0.35261683307E+03  0.41800000000E+01 0.  1.
        -11    1    1    2    0    0 -0.21089606345E+02 -0.13213915295E+02  0.74603270727E+02  0.78644942981E+02  0.00000000000E+00 0.  1.
         11    1    1    2    0    0  0.53294055823E+02 -0.87210224294E+01  0.17945941394E+02  0.56906672990E+02  0.00000000000E+00 0. -1.
</event>
<event>
 6    1  0.6447971E-006  0.7353725E+02  0.7561462E-02  0.1348461E+00
          1   -1    0    0  501    0  0.00000000000E+00  0.00000000000E+00  0.77153714172E+02  0.77153714172E+02  0.00000000000E+00 0. -1.
         -1   -1    0    0    0  501 -0.00000000000E+00 -0.00000000000E+00 -0.17344537917E+03  0.17344537917E+03  0.00000000000E+00 0.  1.
          5    1    1    2  502    0 -0.92803830919E+01  0.37013942984E+02 -0.11897715906E+03  0.12501677593E+03  0.41800000000E+01 0. -1.
         -5    1    1    2    0  502  0.19181949220E+01 -0.29068580899E+02  0.19385504836E+02  0.35241056525E+02  0.41800000000E+01 0. -1.
        -11    1    1    2    0    0 -0.34639992429E+02  0.56734915482E+01  0.23026505703E+02  0.41980204225E+02  0.00000000000E+00 0. -1.
         11    1    1    2    0    0  0.42002180599E+02 -0.13618853633E+02 -0.19726516477E+02  0.48361056664E+02  0.00000000000E+00 0.  1.
</event>
<event>
 6    1  0.6447971E-006  0.1184313E+03  0.7561462E-02  0.1245708E+00
         -2   -1    0    0    0  501 -0.00000000000E+00  0.00000000000E+00  0.33940823110E+02  0.33940823110E+02  0.00000000000E+00 0.  1.
          2   -1    0    0  501    0  0.00000000000E+00 -0.00000000000E+00 -0.63834160814E+03  0.63834160814E+03  0.00000000000E+00 0. -1.
          5    1    1    2  502    0 -0.10320505446E+03 -0.26606321839E+02 -0.13078728037E+03  0.16876600587E+03  0.41800000000E+01 0. -1.
         -5    1    1    2    0  502  0.20325528223E+02 -0.22988743558E+02 -0.15257612981E+03  0.15568737012E+03  0.41800000000E+01 0. -1.
        -11    1    1    2    0    0  0.34506067288E+02  0.33909889174E+02 -0.41609219866E+02  0.63811256385E+02  0.00000000000E+00 0.  1.
         11    1    1    2    0    0  0.48373458951E+02  0.15685176223E+02 -0.27942815497E+03  0.28401779887E+03  0.00000000000E+00 0. -1.
</event>
<event>
 6    1  0.6447971E-006  0.1273956E+03  0.7561462E-02  0.1231372E+00
          1   -1    0    0  501    0  0.00000000000E+00  0.00000000000E+00  0.23932302666E+03  0.23932302666E+03  0.00000000000E+00 0. -1.
         -1   -1    0    0    0  501 -0.00000000000E+00 -0.00000000000E+00 -0.17025442194E+03  0.17025442194E+03  0.00000000000E+00 0.  1.
          5    1    1    2  502    0  0.98912284815E+02 -0.22472027454E+02 -0.21550654462E+02  0.10378118911E+03  0.41800000000E+01 0.  1.
         -5    1    1    2    0  502 -0.12613323080E+02 -0.40038376391E+02 -0.77079667778E+02  0.87868737830E+02  0.41800000000E+01 0.  1.
        -11    1    1    2    0    0 -0.58708760155E+02  0.23347887122E+02  0.25950367262E+02  0.68302737229E+02  0.00000000000E+00 0.  1.
         11    1    1    2    0    0 -0.27590201580E+02  0.39162516723E+02  0.14174855970E+03  0.14962478443E+03  0.00000000000E+00 0. -1.
</event>
<event>
 6    1  0.6447971E-006  0.6798796E+02  0.7561462E-02  0.1367072E+00
          2   -1    0    0  501    0  0.00000000000E+00  0.00000000000E+00  0.73311296340E+03  0.73311296340E+03  0.00000000000E+00 0. -1.
         -2   -1    0    0    0  501 -0.00000000000E+00 -0.00000000000E+00 -0.18404633330E+02  0.18404633330E+02  0.00000000000E+00 0.  1.
          5    1    1    2  502    0 -0.21379914368E+02  0.15479544810E+02  0.30306809265E+03  0.30424407673E+03  0.41800000000E+01 0.  1.
         -5    1    1    2    0  502 -0.29898653836E+01 -0.14383761941E+02 -0.79488337126E+01  0.17218834455E+02  0.41800000000E+01 0.  1.
        -11    1    1    2    0    0 -0.10952312515E+02  0.39019500588E+02  0.16360053617E+03  0.16854557251E+03  0.00000000000E+00 0.  1.
         11    1    1    2    0    0  0.35322092267E+02 -0.40115283457E+02  0.25598853496E+03  0.26150911303E+03  0.00000000000E+00 0. -1.
</event>
<event>
 6    1  0.6447971E-006  0.1138571E+03  0.7561462E-02  0.1253589E+00
          2   -1    0    0  501    0  0.00000000000E+00  0.00000000000E+00  0.15043537690E+03  0.15043537690E+03  0.00000000000E+00 0. -1.
         -2   -1    0    0    0  501 -0.00000000000E+00 -0.00000000000E+00 -0.93868390002E+02  0.93868390002E+02  0.00000000000E+00 0.  1.
          5    1    1    2  502    0 -0.46001752096E+02  0.71010890829E+02  0.33112438890E+02  0.90953910425E+02  0.41800000000E+01 0.  1.
         -5    1    1    2    0  502  0.11266914424E+02 -0.39732742668E+02 -0.14298911302E+02  0.43904048389E+02  0.41800000000E+01 0.  1.
        -11    1    1    2    0    0  0.65436716929E+02 -0.16866085711E+02  0.32984900175E+02  0.75195960059E+02  0.00000000000E+00 0. -1.
         11    1    1    2    0    0 -0.30701879256E+02 -0.14412062449E+02  0.47685591356E+01  0.34249848031E+02  0.00000000000E+00 0.  1.
</event>
<event>
 6    1  0.6447971E-006  0.1216587E+03  0.7561462E-02  0.1240386E+00
          1   -1    0    0  501    0  0.00000000000E+00  0.00000000000E+00  0.44769906382E+03  0.44769906382E+03  0.00000000000E+00 0. -1.
         -1   -1    0    0    0  501 -0.00000000000E+00 -0.00000000000E+00 -0.45867168937E+02  0.45867168937E+02  0.00000000000E+00 0.  1.
          5    1    1    2  502    0 -0.93436449385E+01 -0.41475642964E+02  0.11038927184E+02  0.44123270203E+02  0.41800000000E+01 0. -1.
         -5    1    1    2    0  502 -0.60202556945E+02  0.73349279209E+02  0.11564047969E+03  0.14964844659E+03  0.41800000000E+01 0. -1.
        -11    1    1    2    0    0  0.44621174931E+02  0.19358784737E+02  0.19799289681E+03  0.20387986410E+03  0.00000000000E+00 0. -1.
         11    1    1    2    0    0  0.24925026953E+02 -0.51232420982E+02  0.77159591197E+02  0.95914651862E+02  0.00000000000E+00 0.  1.
</event>
<event>
 6    1  0.6447971E-006  0.9378970E+02  0.7561462E-02  0.1293925E+00
         -2   -1    0    0    0  501 -0.00000000000E+00  0.00000000000E+00  0.40461233703E+02  0.40461233703E+02  0.00000000000E+00 0.  1.
          2   -1    0    0  501    0  0.00000000000E+00 -0.00000000000E+00 -0.46079556480E+03  0.46079556480E+03  0.00000000000E+00 0. -1.
          5    1    1    2  502    0  0.52741324665E+02  0.40056747236E+02 -0.28931729362E+03  0.29683018565E+03  0.41800000000E+01 0. -1.
         -5    1    1    2    0  502  0.18243439592E+02  0.56268783173E+01  0.15970509723E+02  0.25239144767E+02  0.41800000000E+01 0.  1.
        -11    1    1    2    0    0 -0.80261129446E+02 -0.35095747728E+02 -0.11798270231E+03  0.14694719614E+03  0.00000000000E+00 0. -1.
         11    1    1    2    0    0  0.92763651889E+01 -0.10587877826E+02 -0.29004844892E+02  0.32240271947E+02  0.00000000000E+00 0.  1.
</event>
<event>
 6    1  0.6447971E-006  0.1114445E+03  0.7561462E-02  0.1257918E+00
          1   -1    0    0  501    0  0.00000000000E+00  0.00000000000E+00  0.49216820237E+03  0.49216820237E+03  0.00000000000E+00 0. -1.
         -1   -1    0    0    0  501 -0.00000000000E+00 -0.00000000000E+00 -0.39504068289E+02  0.39504068289E+02  0.00000000000E+00 0.  1.
          5    1    1    2  502    0 -0.96379089200E+01 -0.28268667042E+02  0.80029282733E+02  0.85522893540E+02  0.41800000000E+01 0. -1.
         -5    1    1    2    0  502  0.53840409039E+02  0.94796775733E+02  0.10213519603E+03  0.14944660920E+03  0.41800000000E+01 0. -1.
        -11    1    1    2    0    0 -0.65898778245E+01 -0.31677182483E+02  0.14217579793E+02  0.35341334935E+02  0.00000000000E+00 0.  1.
         11    1    1    2    0    0 -0.37612622294E+02 -0.34850926207E+02  0.25628207552E+03  0.26136143298E+03  0.00000000000E+00 0. -1.
</event>
<event>
 6    1  0.6447971E-006  0.9290071E+02  0.7561462E-02  0.1295975E+00
         -2   -1    0    0    0  501 -0.00000000000E+00  0.00000000000E+00  0.41140661464E+02  0.41140661464E+02  0.00000000000E+00 0.  1.
          2   -1    0    0  501    0  0.00000000000E+00 -0.00000000000E+00 -0.34008038073E+03  0.34008038073E+03  0.00000000000E+00 0. -1.
          5    1    1    2  502    0  0.40347313371E+02 -0.50330818522E+02 -0.11402659667E+03  0.13107491804E+03  0.41800000000E+01 0.  1.
         -5    1    1    2    0  502 -0.58044510745E+02 -0.56118755558E+01 -0.21015056003E+02  0.62126993761E+02  0.41800000000E+01 0.  1.
        -11    1    1    2    0    0 -0.38985971231E+01  0.22841281462E+02 -0.42583412609E+01  0.23559640673E+02  0.00000000000E+00 0.  1.
         11    1    1    2    0    0  0.21595794498E+02  0.33101412615E+02 -0.15963972533E+03  0.16445948973E+03  0.00000000000E+00 0. -1.
</event>
<event>
 6    1  0.6447971E-006  0.1286629E+03  0.7561462E-02  0.1229453E+00
          1   -1    0    0  501    0  0.00000000000E+00  0.00000000000E+00  0.10774443019E+04  0.10774443019E+04  0.00000000000E+00 0. -1.
         -1   -1    0    0    0  501 -0.00000000000E+00 -0.00000000000E+00 -0.20597140628E+02  0.20597140628E+02  0.00000000000E+00 0.  1.
          5    1    1    2  502    0  0.20117561740E+02  0.34334481345E+02  0.63710106553E+02  0.75233124198E+02  0.41800000000E+01 0. -1.
         -5    1    1    2    0  502 -0.93748031182E+02  0.32803846692E+02  0.55372564091E+03  0.56257829989E+03  0.41800000000E+01 0. -1.
        -11    1    1    2    0    0  0.84198632133E+02 -0.66541486043E+02  0.43614222533E+03  0.44915166674E+03  0.00000000000E+00 0. -1.
         11    1    1    2    0    0 -0.10568162691E+02 -0.59684199412E+00  0.32691884757E+01  0.11078351697E+02  0.00000000000E+00 0.  1.
</event>
<event>
 6    1  0.6447971E-006  0.1087985E+03  0.7561462E-02  0.1262811E+00
          2   -1    0    0  501    0  0.00000000000E+00  0.00000000000E+00  0.46754314793E+03  0.46754314793E+03  0.00000000000E+00 0. -1.
         -2   -1    0    0    0  501 -0.00000000000E+00 -0.00000000000E+00 -0.37912627067E+02  0.37912627067E+02  0.00000000000E+00 0.  1.
          5    1    1    2  502    0  0.12542774342E+02 -0.66040292438E+02  0.60354630558E+02  0.90436691909E+02  0.41800000000E+01 0.  1.
         -5    1    1    2    0  502  0.41891099588E+02  0.54924148696E+02  0.75354119126E+02  0.10230954014E+03  0.41800000000E+01 0.  1.
        -11    1    1    2    0    0  0.78379924546E+01 -0.12241221970E+02  0.37473688379E+01  0.15010809913E+02  0.00000000000E+00 0.  1.
         11    1    1    2    0    0 -0.62271866385E+02  0.23357365712E+02  0.29017440234E+03  0.29769873304E+03  0.00000000000E+00 0. -1.
</event>
<event>
 6    1  0.6447971E-006  0.1057769E+03  0.7561462E-02  0.1268596E+00
          1   -1    0    0  501    0  0.00000000000E+00  0.00000000000E+00  0.57146265661E+02  0.57146265661E+02  0.00000000000E+00 0. -1.
         -1   -1    0    0    0  501 -0.00000000000E+00 -0.00000000000E+00 -0.53545424832E+03  0.53545424832E+03  0.00000000000E+00 0.  1.
          5    1    1    2  502    0  0.26566960147E+02 -0.31374751254E+02 -0.23463429827E+02  0.47520346453E+02  0.41800000000E+01 0.  1.
         -5    1    1    2    0  502  0.23136721154E+02 -0.46438738992E+02 -0.40400113629E+03  0.40734046555E+03  0.41800000000E+01 0.  1.
        -11    1    1    2    0    0 -0.12699964750E+02 -0.14171772633E+02 -0.31378439276E+02  0.36697884075E+02  0.00000000000E+00 0. -1.
         11    1    1    2    0    0 -0.37003716551E+02  0.91985262879E+02 -0.19464977259E+02  0.10104181790E+03  0.00000000000E+00 0.  1.
</event>
<event>
 6    1  0.6447971E-006  0.3688513E+03  0.7561462E-02  0.1055133E+00
          2   -1    0    0  501    0  0.00000000000E+00  0.00000000000E+00  0.44127090141E+03  0.44127090141E+03  0.00000000000E+00 0. -1.
         -2   -1    0    0    0  501 -0.00000000000E+00 -0.00000000000E+00 -0.33110802026E+03  0.33110802026E+03  0.00000000000E+00 0.  1.
          5    1    1    2  502    0  0.14302827986E+03 -0.25690128342E+03  0.10689202798E+03  0.31288773755E+03  0.41800000000E+01 0. -1.
         -5    1    1    2    0  502  0.51015562568E+02 -0.54130312153E+02 -0.30281810634E+02  0.80418522575E+02  0.41800000000E+01 0.  1.
        -11    1    1    2    0    0 -0.10610978816E+03  0.20938456373E+03  0.59561327761E+02  0.24217500787E+03  0.00000000000E+00 0.  1.
         11    1    1    2    0    0 -0.87934054263E+02  0.10164703184E+03 -0.26008663960E+02  0.13689765368E+03  0.00000000000E+00 0. -1.
</event>
<event>
 6    1  0.6447971E-006  0.1295415E+03  0.7561462E-02  0.1228138E+00
          1   -1    0    0  501    0  0.00000000000E+00  0.00000000000E+00  0.92998946009E+02  0.92998946009E+02  0.00000000000E+00 0. -1.
         -1   -1    0    0    0  501 -0.00000000000E+00 -0.00000000000E+00 -0.20195136087E+03  0.20195136087E+03  0.00000000000E+00 0.  1.
          5    1    1    2  502    0 -0.15756052409E+02 -0.41296416907E+02 -0.32043182962E+02  0.54752947055E+02  0.41800000000E+01 0.  1.
         -5    1    1    2    0  502 -0.47173903924E+02  0.92452205237E+02 -0.47485955860E+02  0.11421547999E+03  0.41800000000E+01 0.  1.
        -11    1    1    2    0    0  0.38152094030E+02 -0.69971786098E+02 -0.44640132137E+02  0.91347548001E+02  0.00000000000E+00 0.  1.
         11    1    1    2    0    0  0.24777862302E+02  0.18815997769E+02  0.15216856097E+02  0.34634331837E+02  0.00000000000E+00 0. -1.
</event>
<event>
 6    1  0.6447971E-006  0.1229677E+03  0.7561462E-02  0.1238280E+00
         -2   -1    0    0    0  501 -0.00000000000E+00  0.00000000000E+00  0.60717229403E+02  0.60717229403E+02  0.00000000000E+00 0.  1.
          2   -1    0    0  501    0  0.00000000000E+00 -0.00000000000E+00 -0.26174064194E+03  0.26174064194E+03  0.00000000000E+00 0. -1.
          5    1    1    2  502    0 -0.78494844352E+02  0.20018204522E+02 -0.41781907981E+02  0.91243461885E+02  0.41800000000E+01 0.  1.
         -5    1    1    2    0  502  0.42968423745E+02  0.30310414826E+02 -0.68914849416E+02  0.86785572281E+02  0.41800000000E+01 0.  1.
        -11    1    1    2    0    0  0.66356805195E+02 -0.21211298568E+02 -0.48647884697E+02  0.84969179519E+02  0.00000000000E+00 0.  1.
         11    1    1    2    0    0 -0.30830384588E+02 -0.29117320780E+02 -0.41678770445E+02  0.59459657660E+02  0.00000000000E+00 0. -1.
</event>
<event>
 6    1  0.6447971E-006  0.1237363E+03  0.7561462E-02  0.1237058E+00
          2   -1    0    0  501    0  0.00000000000E+00  0.00000000000E+00  0.26670370563E+03  0.26670370563E+03  0.00000000000E+00 0.  1.
         -2   -1    0    0    0  501 -0.00000000000E+00 -0.00000000000E+00 -0.92657393092E+02  0.92657393092E+02  0.00000000000E+00 0. -1.
          5    1    1    2  502    0  0.17550929227E+02  0.55762243176E+02 -0.10035550088E+02  0.59461311340E+02  0.41800000000E+01 0.  1.
         -5    1    1    2    0  502  0.72276753739E+02 -0.56705035304E+02  0.24809926041E+02  0.95249120679E+02  0.41800000000E+01 0.  1.
        -11    1    1    2    0    0 -0.21055714859E+02  0.16069494387E+02  0.12226756286E+03  0.12510367183E+03  0.00000000000E+00 0.  1.
         11    1    1    2    0    0 -0.68771968107E+02 -0.15126702258E+02  0.37004373726E+02  0.79546994873E+02  0.00000000000E+00 0. -1.
</event>
<event>
 6    1  0.6447971E-006  0.9879844E+02  0.7561462E-02  0.1282843E+00
          3   -1    0    0  501    0  0.00000000000E+00  0.00000000000E+00  0.71255300141E+03  0.71255300141E+03  0.00000000000E+00 0. -1.
         -3   -1    0    0    0  501 -0.00000000000E+00 -0.00000000000E+00 -0.17406503449E+02  0.17406503449E+02  0.00000000000E+00 0.  1.
          5    1    1    2  502    0 -0.44710049490E+02  0.57554019392E+00  0.24652007267E+03  0.25057721046E+03  0.41800000000E+01 0. -1.
         -5    1    1    2    0  502  0.59847255255E+02 -0.17133282193E+02  0.93393962836E+02  0.11231717595E+03  0.41800000000E+01 0. -1.
        -11    1    1    2    0    0  0.20332602439E+01  0.51406835615E+02  0.16225540626E+03  0.17021637334E+03  0.00000000000E+00 0.  1.
         11    1    1    2    0    0 -0.17170466008E+02 -0.34849093616E+02  0.19297705620E+03  0.19684874511E+03  0.00000000000E+00 0. -1.
</event>
<event>
 6    1  0.6447971E-006  0.9210850E+02  0.7561462E-02  0.1297825E+00
          1   -1    0    0  501    0  0.00000000000E+00  0.00000000000E+00  0.10186080273E+03  0.10186080273E+03  0.00000000000E+00 0. -1.
         -1   -1    0    0    0  501 -0.00000000000E+00 -0.00000000000E+00 -0.13851623635E+03  0.13851623635E+03  0.00000000000E+00 0.  1.
          5    1    1    2  502    0 -0.73008025603E+02  0.37350236011E+01  0.43998079366E+01  0.73354978793E+02  0.41800000000E+01 0.  1.
         -5    1    1    2    0  502  0.45049782621E+02 -0.24547497972E+02 -0.28094828486E+02  0.58641745869E+02  0.41800000000E+01 0.  1.
        -11    1    1    2    0    0 -0.13762186727E+01 -0.13959732100E+02  0.37739459976E+02  0.40262078155E+02  0.00000000000E+00 0. -1.
         11    1    1    2    0    0  0.29334461655E+02  0.34772206471E+02 -0.50699873046E+02  0.68118236254E+02  0.00000000000E+00 0.  1.
</event>
<event>
 6    1  0.6447971E-006  0.9249014E+02  0.7561462E-02  0.1296931E+00
          2   -1    0    0  501    0  0.00000000000E+00  0.00000000000E+00  0.37528436700E+03  0.37528436700E+03  0.00000000000E+00 0. -1.
         -2   -1    0    0    0  501 -0.00000000000E+00 -0.00000000000E+00 -0.42074819298E+02  0.42074819298E+02  0.00000000000E+00 0.  1.
          5    1    1    2  502    0  0.37805525630E+01  0.10752211214E+02 -0.17097112870E+02  0.20968697913E+02  0.41800000000E+01 0.  1.
         -5    1    1    2    0  502 -0.63264334032E+02 -0.31275126474E+02  0.18262514717E+03  0.19583137204E+03  0.41800000000E+01 0.  1.
        -11    1    1    2    0    0  0.40992065767E+02  0.51649170831E+02  0.14076882867E+03  0.15544725610E+03  0.00000000000E+00 0. -1.
         11    1    1    2    0    0  0.18491715702E+02 -0.31126255571E+02  0.26912684737E+02  0.45111860250E+02  0.00000000000E+00 0.  1.
</event>
<event>
 6    1  0.6447971E-006  0.2260427E+03  0.7561462E-02  0.1129457E+00
          2   -1    0    0  501    0  0.00000000000E+00  0.00000000000E+00  0.16081010425E+03  0.16081010425E+03  0.00000000000E+00 0. -1.
         -2   -1    0    0    0  501 -0.00000000000E+00 -0.00000000000E+00 -0.35032169467E+03  0.35032169467E+03  0.00000000000E+00 0.  1.
          5    1    1    2  502    0 -0.49364326043E+02  0.52419746935E+01  0.16530027131E+02  0.52488371868E+02  0.41800000000E+01 0.  1.
         -5    1    1    2    0  502 -0.13403259676E+03 -0.11429226238E+03 -0.13379396681E+03  0.22123687800E+03  0.41800000000E+01 0.  1.
        -11    1    1    2    0    0  0.22189775344E+02 -0.11294643045E+02 -0.60706462875E+01  0.25628262479E+02  0.00000000000E+00 0.  1.
         11    1    1    2    0    0  0.16120714746E+03  0.12034493073E+03 -0.66177004462E+02  0.21177828657E+03  0.00000000000E+00 0. -1.
</event>
<event>
 6    1  0.6447971E-006  0.2088166E+03  0.7561462E-02  0.1142507E+00
          1   -1    0    0  501    0  0.00000000000E+00  0.00000000000E+00  0.34213057751E+03  0.34213057751E+03  0.00000000000E+00 0. -1.
         -1   -1    0    0    0  501 -0.00000000000E+00 -0.00000000000E+00 -0.21063614167E+03  0.21063614167E+03  0.00000000000E+00 0.  1.
          5    1    1    2  502    0 -0.61907192902E+02 -0.92007787170E+02 -0.89585127471E+02  0.14262153027E+03  0.41800000000E+01 0.  1.
         -5    1    1    2    0  502  0.29677376804E+02 -0.99598375401E+02  0.32563836515E+01  0.10406084523E+03  0.41800000000E+01 0.  1.
        -11    1    1    2    0    0  0.48482079987E+02  0.15882017818E+03  0.12982717603E+03  0.21078296115E+03  0.00000000000E+00 0.  1.
         11    1    1    2    0    0 -0.16252263889E+02  0.32785984395E+02  0.87996003633E+02  0.95301382517E+02  0.00000000000E+00 0. -1.
</event>
<event>
 6    1  0.6447971E-006  0.1355895E+03  0.7561462E-02  0.1219390E+00
          2   -1    0    0  501    0  0.00000000000E+00  0.00000000000E+00  0.68397102376E+03  0.68397102376E+03  0.00000000000E+00 0. -1.
         -2   -1    0    0    0  501 -0.00000000000E+00 -0.00000000000E+00 -0.30395962673E+02  0.30395962673E+02  0.00000000000E+00 0.  1.
          5    1    1    2  502    0  0.46837645221E+02  0.67191133466E+02  0.15069093726E+03  0.17156236300E+03  0.41800000000E+01 0. -1.
         -5    1    1    2    0  502 -0.64072715008E+02  0.10702500710E+02  0.87544673443E+02  0.10909353133E+03  0.41800000000E+01 0. -1.
        -11    1    1    2    0    0  0.35961806080E+02  0.74274259253E+01  0.14672684044E+03  0.15125205407E+03  0.00000000000E+00 0.  1.
         11    1    1    2    0    0 -0.18726736293E+02 -0.85321060101E+02  0.26861260994E+03  0.28245903804E+03  0.00000000000E+00 0. -1.
</event>
<event>
 6    1  0.6447971E-006  0.1021479E+03  0.7561462E-02  0.1275843E+00
          1   -1    0    0  501    0  0.00000000000E+00  0.00000000000E+00  0.73536415387E+02  0.73536415387E+02  0.00000000000E+00 0. -1.
         -1   -1    0    0    0  501 -0.00000000000E+00 -0.00000000000E+00 -0.19508538629E+03  0.19508538629E+03  0.00000000000E+00 0.  1.
          5    1    1    2  502    0 -0.61888462042E+02 -0.10335447877E+02 -0.65288931780E+02  0.90648332746E+02  0.41800000000E+01 0.  1.
         -5    1    1    2    0  502  0.59771653273E+02  0.17124630214E+02 -0.58158179584E+02  0.85239367357E+02  0.41800000000E+01 0.  1.
        -11    1    1    2    0    0 -0.40855678123E+00  0.36114340903E+02 -0.23236772684E+02  0.42946014277E+02  0.00000000000E+00 0.  1.
         11    1    1    2    0    0  0.25253655504E+01 -0.42903523241E+02  0.25134913146E+02  0.49788087295E+02  0.00000000000E+00 0. -1.
</event>
<event>
 6    1  0.6447971E-006  0.1528204E+03  0.7561462E-02  0.1197050E+00
         -1   -1    0    0    0  501 -0.00000000000E+00  0.00000000000E+00  0.43702118901E+02  0.43702118901E+02  0.00000000000E+00 0.  1.
          1   -1    0    0  501    0  0.00000000000E+00 -0.00000000000E+00 -0.56336309255E+03  0.56336309255E+03  0.00000000000E+00 0. -1.
          5    1    1    2  502    0  0.85633541527E+02  0.66367036427E+01 -0.12328886606E+03  0.15031555529E+03  0.41800000000E+01 0. -1.
         -5    1    1    2    0  502 -0.38792276096E+01 -0.80429767602E+02 -0.10970947937E+03  0.13615299551E+03  0.41800000000E+01 0. -1.
        -11    1    1    2    0    0 -0.20857261509E+02 -0.18875415543E+02 -0.95967533311E+02  0.10000537045E+03  0.00000000000E+00 0. -1.
         11    1    1    2    0    0 -0.60897052408E+02  0.92668479503E+02 -0.19069509491E+03  0.22059129019E+03  0.00000000000E+00 0.  1.
</event>
<event>
 6    1  0.6447971E-006  0.1214628E+03  0.7561462E-02  0.1240703E+00
         -1   -1    0    0    0  501 -0.00000000000E+00  0.00000000000E+00  0.38667847830E+02  0.38667847830E+02  0.00000000000E+00 0.  1.
          1   -1    0    0  501    0  0.00000000000E+00 -0.00000000000E+00 -0.43422218253E+03  0.43422218253E+03  0.00000000000E+00 0. -1.
          5    1    1    2  502    0  0.52499518197E+02 -0.22555070360E+02 -0.12706110659E+03  0.13938051448E+03  0.41800000000E+01 0. -1.
         -5    1    1    2    0  502 -0.67754665692E+01  0.72281184242E+02 -0.52714287897E+02  0.89815060491E+02  0.41800000000E+01 0. -1.
        -11    1    1    2    0    0 -0.73464524755E+02 -0.38984869260E+02 -0.15032268057E+03  0.17179570636E+03  0.00000000000E+00 0. -1.
         11    1    1    2    0    0  0.27740473127E+02 -0.10741244622E+02 -0.65456259645E+02  0.71898749030E+02  0.00000000000E+00 0.  1.
</event>
<event>
 6    1  0.6447971E-006  0.2340226E+03  0.7561462E-02  0.1123840E+00
          1   -1    0    0  501    0  0.00000000000E+00  0.00000000000E+00  0.41768614202E+03  0.41768614202E+03  0.00000000000E+00 0. -1.
         -1   -1    0    0    0  501 -0.00000000000E+00 -0.00000000000E+00 -0.14809689432E+03  0.14809689432E+03  0.00000000000E+00 0.  1.
          5    1    1    2  502    0  0.19996339593E+02 -0.15726750955E+03  0.20320816004E+02  0.15988536868E+03  0.41800000000E+01 0. -1.
         -5    1    1    2    0  502 -0.39040183489E+02 -0.64238495035E+02  0.91900897791E+02  0.11880222046E+03  0.41800000000E+01 0. -1.
        -11    1    1    2    0    0  0.41548542247E+02  0.73235692784E+02  0.88221228673E+02  0.12195381605E+03  0.00000000000E+00 0. -1.
         11    1    1    2    0    0 -0.22504698351E+02  0.14827031180E+03  0.69146305238E+02  0.16514163114E+03  0.00000000000E+00 0.  1.
</event>
<event>
 6    1  0.6447971E-006  0.8811346E+02  0.7561462E-02  0.1307486E+00
          1   -1    0    0  501    0  0.00000000000E+00  0.00000000000E+00  0.13061613074E+03  0.13061613074E+03  0.00000000000E+00 0. -1.
         -1   -1    0    0    0  501 -0.00000000000E+00 -0.00000000000E+00 -0.13209630072E+03  0.13209630072E+03  0.00000000000E+00 0.  1.
          5    1    1    2  502    0  0.51492429244E+00 -0.71484341081E+02 -0.20421160448E+02  0.74463228246E+02  0.41800000000E+01 0.  1.
         -5    1    1    2    0  502 -0.25282998852E+02  0.48116399037E+02 -0.45141908862E+02  0.70779108662E+02  0.41800000000E+01 0.  1.
        -11    1    1    2    0    0 -0.92721525240E+01  0.97088029040E+01 -0.20939475370E+02  0.24873586292E+02  0.00000000000E+00 0.  1.
         11    1    1    2    0    0  0.34040227083E+02  0.13659139140E+02  0.85022374698E+02  0.92596508256E+02  0.00000000000E+00 0. -1.
</event>
<event>
 6    1  0.6447971E-006  0.1209075E+03  0.7561462E-02  0.1241607E+00
         -1   -1    0    0    0  501 -0.00000000000E+00  0.00000000000E+00  0.16396238782E+03  0.16396238782E+03  0.00000000000E+00 0.  1.
          1   -1    0    0  501    0  0.00000000000E+00 -0.00000000000E+00 -0.23040167884E+03  0.23040167884E+03  0.00000000000E+00 0. -1.
          5    1    1    2  502    0  0.72238302525E+02 -0.96010777129E+02  0.85914084642E+02  0.14776719533E+03  0.41800000000E+01 0. -1.
         -5    1    1    2    0  502 -0.24880009871E+02  0.20792363224E+02  0.15586306689E+02  0.36217987462E+02  0.41800000000E+01 0. -1.
        -11    1    1    2    0    0 -0.27811737311E+02  0.45548457643E+02 -0.18053290073E+02  0.56338938651E+02  0.00000000000E+00 0.  1.
         11    1    1    2    0    0 -0.19546555343E+02  0.29669956262E+02 -0.14988639228E+03  0.15403994521E+03  0.00000000000E+00 0. -1.
</event>
<event>
 6    1  0.6447971E-006  0.1266631E+03  0.7561462E-02  0.1232493E+00
         -1   -1    0    0    0  501 -0.00000000000E+00  0.00000000000E+00  0.56503823536E+03  0.56503823536E+03  0.00000000000E+00 0.  1.
          1   -1    0    0  501    0  0.00000000000E+00 -0.00000000000E+00 -0.50746143597E+02  0.50746143597E+02  0.00000000000E+00 0. -1.
          5    1    1    2  502    0 -0.36544181887E+02  0.42223630133E+02  0.15231049565E+03  0.16227837705E+03  0.41800000000E+01 0.  1.
         -5    1    1    2    0  502  0.86236339505E+02  0.95878737301E+01  0.31745552005E+03  0.32912628759E+03  0.41800000000E+01 0.  1.
        -11    1    1    2    0    0  0.18942985072E+02 -0.34997452602E+02  0.35149574560E+02  0.53095677449E+02  0.00000000000E+00 0.  1.
         11    1    1    2    0    0 -0.68635142690E+02 -0.16814051262E+02  0.93765015003E+01  0.71284036868E+02  0.00000000000E+00 0. -1.
</event>
<event>
 6    1  0.6447971E-006  0.1511121E+03  0.7561462E-02  0.1199113E+00
          2   -1    0    0  501    0  0.00000000000E+00  0.00000000000E+00  0.13617313980E+03  0.13617313980E+03  0.00000000000E+00 0. -1.
         -2   -1    0    0    0  501 -0.00000000000E+00 -0.00000000000E+00 -0.24868399507E+03  0.24868399507E+03  0.00000000000E+00 0.  1.
          5    1    1    2  502    0  0.11886801050E+03 -0.84166991396E+02 -0.12919557797E+03  0.19473740300E+03  0.41800000000E+01 0.  1.
         -5    1    1    2    0  502 -0.37061729416E+01  0.26043929896E+02 -0.10362882300E+00  0.26636537711E+02  0.41800000000E+01 0.  1.
        -11    1    1    2    0    0 -0.10074169827E+03  0.44828979858E+02 -0.28706134008E+02  0.11394107835E+03  0.00000000000E+00 0.  1.
         11    1    1    2    0    0 -0.14420139293E+02  0.13294081641E+02  0.45494485538E+02  0.49542115803E+02  0.00000000000E+00 0. -1.
</event>
<event>
 6    1  0.6447971E-006  0.1074447E+03  0.7561462E-02  0.1265376E+00
          1   -1    0    0  501    0  0.00000000000E+00  0.00000000000E+00  0.65447301434E+03  0.65447301434E+03  0.00000000000E+00 0. -1.
         -1   -1    0    0    0  501 -0.00000000000E+00 -0.00000000000E+00 -0.18481093517E+02  0.18481093517E+02  0.00000000000E+00 0.  1.
          5    1    1    2  502    0  0.58655139661E+02  0.32950151973E+02  0.27167791408E+03  0.27991516451E+03  0.41800000000E+01 0.  1.
         -5    1    1    2    0  502 -0.39985480411E+02 -0.38912336781E+02  0.13897903369E+03  0.14981873315E+03  0.41800000000E+01 0.  1.
        -11    1    1    2    0    0  0.35102408810E+02 -0.79463490127E+01  0.86747731250E+02  0.93917476776E+02  0.00000000000E+00 0. -1.
         11    1    1    2    0    0 -0.53772068060E+02  0.13908533821E+02  0.13858724180E+03  0.14930273342E+03  0.00000000000E+00 0.  1.
</event>
<event>
 6    1  0.6447971E-006  0.1500452E+03  0.7561462E-02  0.1200417E+00
          2   -1    0    0  501    0  0.00000000000E+00  0.00000000000E+00  0.18913268921E+04  0.18913268921E+04  0.00000000000E+00 0. -1.
         -2   -1    0    0    0  501 -0.00000000000E+00 -0.00000000000E+00 -0.14518975729E+02  0.14518975729E+02  0.00000000000E+00 0.  1.
          5    1    1    2  502    0  0.42296032976E+02  0.42437104205E+02  0.22475614657E+03  0.23264277345E+03  0.41800000000E+01 0. -1.
         -5    1    1    2    0  502 -0.52771180715E+02  0.76810658873E+02  0.99091008140E+03  0.99529138279E+03  0.41800000000E+01 0. -1.
        -11    1    1    2    0    0  0.31032748431E+02 -0.12210692985E+03  0.60679598315E+03  0.61973744357E+03  0.00000000000E+00 0. -1.
         11    1    1    2    0    0 -0.20557600693E+02  0.28591667703E+01  0.54345705282E+02  0.58174268052E+02  0.00000000000E+00 0.  1.
</event>
<event>
 6    1  0.6447971E-006  0.1287760E+03  0.7561462E-02  0.1229283E+00
         -1   -1    0    0    0  501 -0.00000000000E+00  0.00000000000E+00  0.27675497463E+03  0.27675497463E+03  0.00000000000E+00 0.  1.
          1   -1    0    0  501    0  0.00000000000E+00 -0.00000000000E+00 -0.10679025564E+03  0.10679025564E+03  0.00000000000E+00 0. -1.
          5    1    1    2  502    0  0.28175187601E+01 -0.32037119635E+02  0.79022021260E+02  0.85418192971E+02  0.41800000000E+01 0. -1.
         -5    1    1    2    0  502  0.63382958543E+00  0.11084405097E+03  0.13500084602E+03  0.17472694755E+03  0.41800000000E+01 0. -1.
        -11    1    1    2    0    0 -0.38134633265E+02 -0.67833997789E+02 -0.37705109257E+02  0.86471826478E+02  0.00000000000E+00 0.  1.
         11    1    1    2    0    0  0.34683284920E+02 -0.10972933542E+02 -0.63530390320E+01  0.36928263272E+02  0.00000000000E+00 0. -1.
</event>
<event>
 6    1  0.6447971E-006  0.7791201E+02  0.7561462E-02  0.1335083E+00
          1   -1    0    0  501    0  0.00000000000E+00  0.00000000000E+00  0.94698111399E+02  0.94698111399E+02  0.00000000000E+00 0. -1.
         -1   -1    0    0    0  501 -0.00000000000E+00 -0.00000000000E+00 -0.17087972127E+03  0.17087972127E+03  0.00000000000E+00 0.  1.
          5    1    1    2  502    0 -0.28156921241E+02 -0.24476334870E+02 -0.10698529202E+03  0.11338089914E+03  0.41800000000E+01 0.  1.
         -5    1    1    2    0  502 -0.23532359873E+01  0.48420139592E+02  0.98942602506E+01  0.49652959867E+02  0.41800000000E+01 0.  1.
        -11    1    1    2    0    0  0.47419664496E+02 -0.11974672696E+02 -0.22959562038E+02  0.54029240751E+02  0.00000000000E+00 0.  1.
         11    1    1    2    0    0 -0.16909507268E+02 -0.11969132026E+02  0.43868983936E+02  0.48514732907E+02  0.00000000000E+00 0. -1.
</event>
<event>
 6    1  0.6447971E-006  0.9229184E+02  0.7561462E-02  0.1297395E+00
         -2   -1    0    0    0  501 -0.00000000000E+00  0.00000000000E+00  0.40260380197E+02  0.40260380197E+02  0.00000000000E+00 0.  1.
          2   -1    0    0  501    0  0.00000000000E+00 -0.00000000000E+00 -0.29141146307E+03  0.29141146307E+03  0.00000000000E+00 0. -1.
          5    1    1    2  502    0  0.14206292206E+02 -0.59397665408E+02 -0.10562638557E+03  0.12208319754E+03  0.41800000000E+01 0.  1.
         -5    1    1    2    0  502 -0.16678718690E+02  0.48337841789E+02 -0.18596055939E+02  0.54571167318E+02  0.41800000000E+01 0.  1.
        -11    1    1    2    0    0  0.24089962507E+02  0.33265701749E+02 -0.11447157660E+03  0.12161691929E+03  0.00000000000E+00 0. -1.
         11    1    1    2    0    0 -0.21617536023E+02 -0.22205878130E+02 -0.12457064765E+02  0.33400559123E+02  0.00000000000E+00 0.  1.
</event>
<event>
 6    1  0.6447971E-006  0.9427401E+02  0.7561462E-02  0.1292820E+00
         -2   -1    0    0    0  501 -0.00000000000E+00  0.00000000000E+00  0.43075048935E+02  0.43075048935E+02  0.00000000000E+00 0.  1.
          2   -1    0    0  501    0  0.00000000000E+00 -0.00000000000E+00 -0.44557277777E+03  0.44557277777E+03  0.00000000000E+00 0. -1.
          5    1    1    2  502    0 -0.12205946266E+02  0.41596896002E+02 -0.20362327306E+03  0.20822871227E+03  0.41800000000E+01 0.  1.
         -5    1    1    2    0  502 -0.55732220293E+02  0.99246027550E+01 -0.16844313218E+02  0.59209639472E+02  0.41800000000E+01 0.  1.
        -11    1    1    2    0    0  0.39708153696E+02 -0.43473029834E+02 -0.29452822679E+02  0.65833962031E+02  0.00000000000E+00 0.  1.
         11    1    1    2    0    0  0.28230012863E+02 -0.80484689228E+01 -0.15257731988E+03  0.15537551294E+03  0.00000000000E+00 0. -1.
</event>
<event>
 6    1  0.6447971E-006  0.1022172E+03  0.7561462E-02  0.1275701E+00
          2   -1    0    0  501    0  0.00000000000E+00  0.00000000000E+00  0.19044486718E+03  0.19044486718E+03  0.00000000000E+00 0. -1.
         -2   -1    0    0    0  501 -0.00000000000E+00 -0.00000000000E+00 -0.63418607519E+02  0.63418607519E+02  0.00000000000E+00 0.  1.
          5    1    1    2  502    0 -0.19211688529E+02 -0.77646726799E+02  0.50110856565E+02  0.94481074847E+02  0.41800000000E+01 0.  1.
         -5    1    1    2    0  502  0.34324497276E+02  0.32290137203E+02 -0.31987540820E+01  0.47418651410E+02  0.41800000000E+01 0.  1.
        -11    1    1    2    0    0  0.21390547871E+02  0.31298257590E+02  0.29726701349E+02  0.48174819558E+02  0.00000000000E+00 0.  1.
         11    1    1    2    0    0 -0.36503356617E+02  0.14058332006E+02  0.50387455828E+02  0.63788928882E+02  0.00000000000E+00 0. -1.
</event>
<event>
 6    1  0.6447971E-006  0.1603859E+03  0.7561462E-02  0.1188262E+00
          1   -1    0    0  501    0  0.00000000000E+00  0.00000000000E+00  0.59064037495E+03  0.59064037495E+03  0.00000000000E+00 0. -1.
         -1   -1    0    0    0  501 -0.00000000000E+00 -0.00000000000E+00 -0.65364767119E+02  0.65364767119E+02  0.00000000000E+00 0.  1.
          5    1    1    2  502    0  0.12653684347E+03 -0.70212942092E+02  0.80061134698E+02  0.16543484422E+03  0.41800000000E+01 0. -1.
         -5    1    1    2    0  502  0.74355362030E+01  0.35618775081E+02  0.49915139763E+02  0.61911048404E+02  0.41800000000E+01 0. -1.
        -11    1    1    2    0    0 -0.72279865117E+02  0.10036862678E+02  0.32022132129E+03  0.32843083309E+03  0.00000000000E+00 0. -1.
         11    1    1    2    0    0 -0.61692514554E+02  0.24557304333E+02  0.75078012078E+02  0.10022841636E+03  0.00000000000E+00 0.  1.
</event>
<event>
 6    1  0.6447971E-006  0.1150477E+03  0.7561462E-02  0.1251498E+00
          1   -1    0    0  501    0  0.00000000000E+00  0.00000000000E+00  0.24538812878E+03  0.24538812878E+03  0.00000000000E+00 0. -1.
         -1   -1    0    0    0  501 -0.00000000000E+00 -0.00000000000E+00 -0.88243620255E+02  0.88243620255E+02  0.00000000000E+00 0.  1.
          5    1    1    2  502    0 -0.15001595023E+02  0.36967241767E+00  0.77389736252E+02  0.78941929215E+02  0.41800000000E+01 0.  1.
         -5    1    1    2    0  502 -0.43103289506E+02 -0.83227552272E+02 -0.12308829488E+02  0.94623985896E+02  0.41800000000E+01 0.  1.
        -11    1    1    2    0    0  0.70783254552E+02  0.53524836946E+02  0.36473184037E+02  0.95945142915E+02  0.00000000000E+00 0.  1.
         11    1    1    2    0    0 -0.12678370023E+02  0.29333042909E+02  0.55590417722E+02  0.64120691007E+02  0.00000000000E+00 0. -1.
</event>
<event>
 6    1  0.6447971E-006  0.1934690E+03  0.7561462E-02  0.1155369E+00
          1   -1    0    0  501    0  0.00000000000E+00  0.00000000000E+00  0.19398344252E+03  0.19398344252E+03  0.00000000000E+00 0.  1.
         -1   -1    0    0    0  501 -0.00000000000E+00 -0.00000000000E+00 -0.31875144702E+03  0.31875144702E+03  0.00000000000E+00 0. -1.
          5    1    1    2  502    0 -0.27388706500E+02  0.47742648846E+02 -0.92812763185E+02  0.10798695835E+03  0.41800000000E+01 0. -1.
         -5    1    1    2    0  502  0.11372724055E+03  0.89804456814E+02 -0.12916543553E+03  0.19416464107E+03  0.41800000000E+01 0. -1.
        -11    1    1    2    0    0 -0.77814208571E+02 -0.37534525078E+02  0.42954216630E+02  0.96482932971E+02  0.00000000000E+00 0.  1.
         11    1    1    2    0    0 -0.85243254751E+01 -0.10001258058E+03  0.54255977578E+02  0.11410035715E+03  0.00000000000E+00 0. -1.
</event>
<event>
 6    1  0.6447971E-006  0.1141376E+03  0.7561462E-02  0.1253094E+00
          1   -1    0    0  501    0  0.00000000000E+00  0.00000000000E+00  0.42903736066E+03  0.42903736066E+03  0.00000000000E+00 0. -1.
         -1   -1    0    0    0  501 -0.00000000000E+00 -0.00000000000E+00 -0.54550975064E+02  0.54550975064E+02  0.00000000000E+00 0.  1.
          5    1    1    2  502    0  0.38794494644E+02 -0.98974233135E+02  0.12430830422E+03  0.16361827080E+03  0.41800000000E+01 0.  1.
         -5    1    1    2    0  502 -0.39859596098E+01  0.16409756507E+02 -0.16723869345E+02  0.24131477130E+02  0.41800000000E+01 0.  1.
        -11    1    1    2    0    0  0.75829357665E+01  0.51198335820E+02  0.47708176390E+02  0.70390628638E+02  0.00000000000E+00 0.  1.
         11    1    1    2    0    0 -0.42391470801E+02  0.31366140808E+02  0.21919377433E+03  0.22544795916E+03  0.00000000000E+00 0. -1.
</event>
<event>
 6    1  0.6447971E-006  0.9724898E+02  0.7561462E-02  0.1286190E+00
         -2   -1    0    0    0  501 -0.00000000000E+00  0.00000000000E+00  0.32421687360E+03  0.32421687360E+03  0.00000000000E+00 0.  1.
          2   -1    0    0  501    0  0.00000000000E+00 -0.00000000000E+00 -0.42387120111E+02  0.42387120111E+02  0.00000000000E+00 0. -1.
          5    1    1    2  502    0 -0.48563570104E+02  0.16885318856E+02  0.76917463612E+02  0.92613729774E+02  0.41800000000E+01 0.  1.
         -5    1    1    2    0  502  0.79236077593E+02  0.98887235903E+01  0.12057677618E+03  0.14468024813E+03  0.41800000000E+01 0.  1.
        -11    1    1    2    0    0 -0.15097907396E+02  0.13198349281E+02  0.84050485618E+02  0.86409648559E+02  0.00000000000E+00 0.  1.
         11    1    1    2    0    0 -0.15574600093E+02 -0.39972391727E+02  0.28502807746E+00  0.42900367241E+02  0.00000000000E+00 0. -1.
</event>
<event>
 6    1  0.6447971E-006  0.1003084E+03  0.7561462E-02  0.1279649E+00
         -2   -1    0    0    0  501 -0.00000000000E+00  0.00000000000E+00  0.28172038507E+02  0.28172038507E+02  0.00000000000E+00 0.  1.
          2   -1    0    0  501    0  0.00000000000E+00 -0.00000000000E+00 -0.66983584552E+03  0.66983584552E+03  0.00000000000E+00 0. -1.
          5    1    1    2  502    0 -0.28282021914E+01 -0.16145084971E+02 -0.23354504050E+03  0.23415682958E+03  0.41800000000E+01 0.  1.
         -5    1    1    2    0  502  0.39855193065E+02 -0.51274253200E+02 -0.40211369317E+02  0.76497791326E+02  0.41800000000E+01 0.  1.
        -11    1    1    2    0    0  0.23629428941E+02  0.50339556627E+02 -0.13339629310E+03  0.14452332645E+03  0.00000000000E+00 0.  1.
         11    1    1    2    0    0 -0.60656419814E+02  0.17079781544E+02 -0.23451110409E+03  0.24282993667E+03  0.00000000000E+00 0. -1.
</event>
<event>
 6    1  0.1300209E-005  0.2124187E+03  0.7561462E-02  0.1139665E+00
         -1   -1    0    0    0  501 -0.00000000000E+00  0.00000000000E+00  0.39797069909E+02  0.39797069909E+02  0.00000000000E+00 0.  1.
          1   -1    0    0  501    0  0.00000000000E+00 -0.00000000000E+00 -0.13928704917E+04  0.13928704917E+04  0.00000000000E+00 0. -1.
          5    1    1    2  502    0 -0.98202498696E+02 -0.14844073657E+03 -0.29654430183E+03  0.34588202956E+03  0.41800000000E+01 0. -1.
         -5    1    1    2    0  502  0.21830356948E+01 -0.27245081404E+02 -0.22392912763E+03  0.22562975581E+03  0.41800000000E+01 0. -1.
        -11    1    1    2    0    0  0.11882802429E+00  0.91630428203E+02 -0.31308038358E+03  0.32621385022E+03  0.00000000000E+00 0.  1.
         11    1    1    2    0    0  0.95900634977E+02  0.84055389770E+02 -0.51951960870E+03  0.53494192597E+03  0.00000000000E+00 0. -1.
</event>
<event>
 6    1  0.6447971E-006  0.1190651E+03  0.7561462E-02  0.1244647E+00
          1   -1    0    0  501    0  0.00000000000E+00  0.00000000000E+00  0.23646455158E+02  0.23646455158E+02  0.00000000000E+00 0. -1.
         -1   -1    0    0    0  501 -0.00000000000E+00 -0.00000000000E+00 -0.67837552414E+03  0.67837552414E+03  0.00000000000E+00 0.  1.
          5    1    1    2  502    0 -0.72373220881E+01 -0.65819588645E+02 -0.20524595850E+03  0.21570343753E+03  0.41800000000E+01 0.  1.
         -5    1    1    2    0  502 -0.56789107668E+02  0.47404791543E+02 -0.17167443486E+03  0.18698075033E+03  0.41800000000E+01 0.  1.
        -11    1    1    2    0    0  0.50507063824E+01  0.35839576176E+02 -0.41070480957E+02  0.54742755333E+02  0.00000000000E+00 0. -1.
         11    1    1    2    0    0  0.58975723374E+02 -0.17424779074E+02 -0.23673819467E+03  0.24459503611E+03  0.00000000000E+00 0.  1.
</event>
<event>
 6    1  0.6447971E-006  0.1386582E+03  0.7561462E-02  0.1215146E+00
         -2   -1    0    0    0  501 -0.00000000000E+00  0.00000000000E+00  0.51036042614E+02  0.51036042614E+02  0.00000000000E+00 0.  1.
          2   -1    0    0  501    0  0.00000000000E+00 -0.00000000000E+00 -0.47675357404E+03  0.47675357404E+03  0.00000000000E+00 0. -1.
          5    1    1    2  502    0 -0.57210794136E+02 -0.10362093384E+03 -0.10150003179E+03  0.15598109420E+03  0.41800000000E+01 0.  1.
         -5    1    1    2    0  502  0.39968040698E+02 -0.54778399164E+01 -0.85618263783E+02  0.94738643122E+02  0.41800000000E+01 0.  1.
        -11    1    1    2    0    0 -0.79729956411E+01  0.77424091377E+02 -0.73407917166E+02  0.10698962981E+03  0.00000000000E+00 0.  1.
         11    1    1    2    0    0  0.25215749079E+02  0.31674682378E+02 -0.16519131869E+03  0.17008024952E+03  0.00000000000E+00 0. -1.
</event>
<event>
 6    1  0.6447971E-006  0.2416169E+03  0.7561462E-02  0.1118720E+00
         -2   -1    0    0    0  501 -0.00000000000E+00  0.00000000000E+00  0.18281590507E+03  0.18281590507E+03  0.00000000000E+00 0.  1.
          2   -1    0    0  501    0  0.00000000000E+00 -0.00000000000E+00 -0.32460125847E+03  0.32460125847E+03  0.00000000000E+00 0. -1.
          5    1    1    2  502    0 -0.16177508175E+03  0.15759822518E+03 -0.55921760673E+02  0.23270817212E+03  0.41800000000E+01 0. -1.
         -5    1    1    2    0  502 -0.72515556938E+01 -0.21384733227E+02  0.35898301693E+01  0.23243303462E+02  0.41800000000E+01 0. -1.
        -11    1    1    2    0    0  0.62370356380E+02 -0.10690747697E+03 -0.56460565879E+02  0.13604067585E+03  0.00000000000E+00 0. -1.
         11    1    1    2    0    0  0.10665628106E+03 -0.29306014986E+02 -0.32992857017E+02  0.11542501210E+03  0.00000000000E+00 0.  1.
</event>
<event>
 6    1  0.6447971E-006  0.1098592E+03  0.7561462E-02  0.1260831E+00
         -1   -1    0    0    0  501 -0.00000000000E+00  0.00000000000E+00  0.42500655483E+02  0.42500655483E+02  0.00000000000E+00 0.  1.
          1   -1    0    0  501    0  0.00000000000E+00 -0.00000000000E+00 -0.43594215906E+03  0.43594215906E+03  0.00000000000E+00 0. -1.
          5    1    1    2  502    0 -0.43429779442E+02  0.24864308126E+02 -0.24926690451E+02  0.56064176243E+02  0.41800000000E+01 0.  1.
         -5    1    1    2    0  502  0.54191818919E+02  0.56384333617E+02 -0.19257419771E+03  0.20788997171E+03  0.41800000000E+01 0.  1.
        -11    1    1    2    0    0  0.13861508127E+02 -0.14598461336E+02  0.44430229849E+01  0.20615453771E+02  0.00000000000E+00 0.  1.
         11    1    1    2    0    0 -0.24623547604E+02 -0.66650180407E+02 -0.18038363840E+03  0.19387321282E+03  0.00000000000E+00 0. -1.
</event>
<event>
 6    1  0.6447971E-006  0.8285655E+02  0.7561462E-02  0.1321135E+00
          3   -1    0    0  501    0  0.00000000000E+00  0.00000000000E+00  0.95186859620E+02  0.95186859620E+02  0.00000000000E+00 0. -1.
         -3   -1    0    0    0  501 -0.00000000000E+00 -0.00000000000E+00 -0.25243498927E+03  0.25243498927E+03  0.00000000000E+00 0.  1.
          5    1    1    2  502    0 -0.32774362587E+02 -0.49386964183E+01 -0.15708458458E+03  0.16059759861E+03  0.41800000000E+01 0.  1.
         -5    1    1    2    0  502  0.65140588558E+02  0.20771470045E+02 -0.53249381793E+02  0.86762430273E+02  0.41800000000E+01 0.  1.
        -11    1    1    2    0    0 -0.20417649015E+02  0.18439030993E+02 -0.84844236707E+01  0.28789993058E+02  0.00000000000E+00 0.  1.
         11    1    1    2    0    0 -0.11948576956E+02 -0.34271804620E+02  0.61570260393E+02  0.71471826954E+02  0.00000000000E+00 0. -1.
</event>
<event>
 6    1  0.6447971E-006  0.9590503E+02  0.7561462E-02  0.1289151E+00
         -1   -1    0    0    0  501 -0.00000000000E+00  0.00000000000E+00  0.64232747117E+02  0.64232747117E+02  0.00000000000E+00 0.  1.
          1   -1    0    0  501    0  0.00000000000E+00 -0.00000000000E+00 -0.25532056016E+03  0.25532056016E+03  0.00000000000E+00 0. -1.
          5    1    1    2  502    0 -0.20639222657E+02  0.54120344895E+02 -0.38610521701E+02  0.69736891453E+02  0.41800000000E+01 0. -1.
         -5    1    1    2    0  502  0.25941685372E+02 -0.48424494754E+02  0.16523248170E+02  0.57518630566E+02  0.41800000000E+01 0. -1.
        -11    1    1    2    0    0  0.11566905077E+02 -0.39340653752E+02 -0.37675723979E+02  0.55686088999E+02  0.00000000000E+00 0.  1.
         11    1    1    2    0    0 -0.16869367791E+02  0.33644803611E+02 -0.13132481553E+03  0.13661169626E+03  0.00000000000E+00 0. -1.
</event>
<event>
 6    1  0.6447971E-006  0.1221198E+03  0.7561462E-02  0.1239640E+00
         -2   -1    0    0    0  501 -0.00000000000E+00  0.00000000000E+00  0.43348266663E+02  0.43348266663E+02  0.00000000000E+00 0.  1.
          2   -1    0    0  501    0  0.00000000000E+00 -0.00000000000E+00 -0.53858597314E+03  0.53858597314E+03  0.00000000000E+00 0. -1.
          5    1    1    2  502    0 -0.98596128572E+01 -0.78411625731E+02 -0.41044846905E+02  0.89150136696E+02  0.41800000000E+01 0.  1.
         -5    1    1    2    0  502  0.55242390967E+02 -0.86071372713E+01 -0.14567791768E+03  0.15609398666E+03  0.41800000000E+01 0.  1.
        -11    1    1    2    0    0 -0.16955536161E+02 -0.55333853687E+00 -0.25285959871E+01  0.17151973290E+02  0.00000000000E+00 0.  1.
         11    1    1    2    0    0 -0.28427241948E+02  0.87572101539E+02 -0.30598634590E+03  0.31953814315E+03  0.00000000000E+00 0. -1.
</event>
<event>
 6    1  0.6447971E-006  0.1054421E+03  0.7561462E-02  0.1269251E+00
          1   -1    0    0  501    0  0.00000000000E+00  0.00000000000E+00  0.53107903870E+03  0.53107903870E+03  0.00000000000E+00 0. -1.
         -1   -1    0    0    0  501 -0.00000000000E+00 -0.00000000000E+00 -0.28156345419E+02  0.28156345419E+02  0.00000000000E+00 0.  1.
          5    1    1    2  502    0 -0.23375083259E+02  0.59684477743E+02  0.45781901733E+02  0.78880202377E+02  0.41800000000E+01 0. -1.
         -5    1    1    2    0  502  0.34452371548E+02 -0.32204121589E+02  0.13410058345E+03  0.14221290460E+03  0.41800000000E+01 0. -1.
        -11    1    1    2    0    0  0.31653859138E+02 -0.43388845997E+02  0.19331711584E+03  0.20063914382E+03  0.00000000000E+00 0.  1.
         11    1    1    2    0    0 -0.42731147427E+02  0.15908489844E+02  0.12972309226E+03  0.13750313332E+03  0.00000000000E+00 0. -1.
</event>
<event>
 6    1  0.6447971E-006  0.1255871E+03  0.7561462E-02  0.1234155E+00
         -1   -1    0    0    0  501 -0.00000000000E+00  0.00000000000E+00  0.31393829046E+03  0.31393829046E+03  0.00000000000E+00 0.  1.
          1   -1    0    0  501    0  0.00000000000E+00 -0.00000000000E+00 -0.64001432257E+02  0.64001432257E+02  0.00000000000E+00 0. -1.
          5    1    1    2  502    0  0.66898755501E+01  0.25349258409E+02  0.30169711842E+01  0.26719166377E+02  0.41800000000E+01 0. -1.
         -5    1    1    2    0  502 -0.32597558299E+01 -0.11703850670E+03  0.16010846555E+03  0.19839564310E+03  0.41800000000E+01 0. -1.
        -11    1    1    2    0    0  0.12455626776E+02  0.90699532113E+02  0.97427792305E+02  0.13369264182E+03  0.00000000000E+00 0.  1.
         11    1    1    2    0    0 -0.15885746496E+02  0.98971618246E+00 -0.10616370838E+02  0.19132271418E+02  0.00000000000E+00 0. -1.
</event>
<event>
 6    1  0.6447971E-006  0.8509454E+02  0.7561462E-02  0.1315185E+00
         -2   -1    0    0    0  501 -0.00000000000E+00  0.00000000000E+00  0.56735634366E+02  0.56735634366E+02  0.00000000000E+00 0. -1.
          2   -1    0    0  501    0  0.00000000000E+00 -0.00000000000E+00 -0.24608182760E+03  0.24608182760E+03  0.00000000000E+00 0.  1.
          5    1    1    2  502    0 -0.68566251007E+02 -0.14894982708E+02 -0.86648925856E+01  0.70821917868E+02  0.41800000000E+01 0.  1.
         -5    1    1    2    0  502  0.41846034815E+02 -0.14652867688E+02 -0.67754519822E+02  0.81079865056E+02  0.41800000000E+01 0.  1.
        -11    1    1    2    0    0 -0.68638449568E+01  0.18940629173E+02  0.10390508969E+02  0.22667652672E+02  0.00000000000E+00 0. -1.
         11    1    1    2    0    0  0.33584061149E+02  0.10607221223E+02 -0.12331728979E+03  0.12824802637E+03  0.00000000000E+00 0.  1.
</event>
<event>
 6    1  0.6447971E-006  0.1630448E+03  0.7561462E-02  0.1185301E+00
         -2   -1    0    0    0  501 -0.00000000000E+00  0.00000000000E+00  0.76612517100E+02  0.76612517100E+02  0.00000000000E+00 0. -1.
          2   -1    0    0  501    0  0.00000000000E+00 -0.00000000000E+00 -0.37852328031E+03  0.37852328031E+03  0.00000000000E+00 0.  1.
          5    1    1    2  502    0  0.90964330917E+02 -0.63256838638E+02 -0.16279992667E+03  0.19697011361E+03  0.41800000000E+01 0.  1.
         -5    1    1    2    0  502 -0.28421858048E+02 -0.52868681387E+02 -0.27357288845E+02  0.66096846668E+02  0.41800000000E+01 0.  1.
        -11    1    1    2    0    0 -0.42995520057E+02  0.62543093436E+01 -0.21145104889E+02  0.48320250321E+02  0.00000000000E+00 0.  1.
         11    1    1    2    0    0 -0.19546952813E+02  0.10987121068E+03 -0.90608442803E+02  0.14374858680E+03  0.00000000000E+00 0. -1.
</event>
<event>
 6    1  0.6447971E-006  0.1479185E+03  0.7561462E-02  0.1203054E+00
         -1   -1    0    0    0  501 -0.00000000000E+00  0.00000000000E+00  0.12052838036E+03  0.12052838036E+03  0.00000000000E+00 0.  1.
          1   -1    0    0  501    0  0.00000000000E+00 -0.00000000000E+00 -0.21718932095E+03  0.21718932095E+03  0.00000000000E+00 0. -1.
          5    1    1    2  502    0  0.13821379285E+02 -0.29540796583E+02 -0.50204126302E+01  0.33262082483E+02  0.41800000000E+01 0. -1.
         -5    1    1    2    0  502 -0.12367587813E+03  0.54831398177E+02 -0.57746347998E+01  0.13547333267E+03  0.41800000000E+01 0. -1.
        -11    1    1    2    0    0  0.12661583921E+02 -0.27621253797E+02  0.10447914421E+02  0.32131110850E+02  0.00000000000E+00 0.  1.
         11    1    1    2    0    0  0.97192914923E+02  0.23306522036E+01 -0.96313807587E+02  0.13685117531E+03  0.00000000000E+00 0. -1.
</event>
<event>
 6    1  0.9957019E-006  0.2060715E+03  0.7561462E-02  0.1144715E+00
          1   -1    0    0  501    0  0.00000000000E+00  0.00000000000E+00  0.53992383147E+03  0.53992383147E+03  0.00000000000E+00 0. -1.
         -1   -1    0    0    0  501 -0.00000000000E+00 -0.00000000000E+00 -0.98488655843E+02  0.98488655843E+02  0.00000000000E+00 0.  1.
          5    1    1    2  502    0 -0.23731574913E+02  0.12864834084E+03  0.99006238205E+02  0.16411365224E+03  0.41800000000E+01 0. -1.
         -5    1    1    2    0  502 -0.80577648127E+02  0.23592226206E+02  0.11924489166E+02  0.84905926512E+02  0.41800000000E+01 0. -1.
        -11    1    1    2    0    0  0.10163074484E+02 -0.74240471500E+02  0.74361956533E+02  0.10556815936E+03  0.00000000000E+00 0. -1.
         11    1    1    2    0    0  0.94146148555E+02 -0.78000095543E+02  0.25614249172E+03  0.28382474920E+03  0.00000000000E+00 0.  1.
</event>
<event>
 6    1  0.6447971E-006  0.1393312E+03  0.7561462E-02  0.1214232E+00
          3   -1    0    0  501    0  0.00000000000E+00  0.00000000000E+00  0.40813462520E+02  0.40813462520E+02  0.00000000000E+00 0. -1.
         -3   -1    0    0    0  501 -0.00000000000E+00 -0.00000000000E+00 -0.59734045048E+03  0.59734045048E+03  0.00000000000E+00 0.  1.
          5    1    1    2  502    0 -0.49441311312E+02  0.34173459374E+02 -0.19124392684E+03  0.20050930288E+03  0.41800000000E+01 0. -1.
         -5    1    1    2    0  502  0.70476312762E+02  0.66290408995E+02 -0.22217734990E+03  0.24236661526E+03  0.41800000000E+01 0.  1.
        -11    1    1    2    0    0  0.20237632536E+02 -0.61754734463E+02 -0.11501400025E+03  0.13210385783E+03  0.00000000000E+00 0.  1.
         11    1    1    2    0    0 -0.41272633986E+02 -0.38709133905E+02 -0.28091710970E+02  0.63174137027E+02  0.00000000000E+00 0. -1.
</event>
<event>
 6    1  0.6447971E-006  0.1168740E+03  0.7561462E-02  0.1248345E+00
          1   -1    0    0  501    0  0.00000000000E+00  0.00000000000E+00  0.32310313957E+02  0.32310313957E+02  0.00000000000E+00 0. -1.
         -1   -1    0    0    0  501 -0.00000000000E+00 -0.00000000000E+00 -0.12653107874E+04  0.12653107874E+04  0.00000000000E+00 0.  1.
          5    1    1    2  502    0  0.62062012882E+02  0.65254796162E+02 -0.98204274436E+03  0.98617204686E+03  0.41800000000E+01 0. -1.
         -5    1    1    2    0  502 -0.32626667067E+02 -0.16427845397E+02 -0.17871226359E+03  0.18245525223E+03  0.41800000000E+01 0.  1.
        -11    1    1    2    0    0 -0.56169059345E+02 -0.61973304705E+01 -0.39879352084E+02  0.69164534664E+02  0.00000000000E+00 0.  1.
         11    1    1    2    0    0  0.26733713529E+02 -0.42629620294E+02 -0.32366113429E+02  0.59829267620E+02  0.00000000000E+00 0. -1.
</event>
<event>
 6    1  0.6447971E-006  0.1237761E+03  0.7561462E-02  0.1236994E+00
         -1   -1    0    0    0  501 -0.00000000000E+00  0.00000000000E+00  0.68446823474E+02  0.68446823474E+02  0.00000000000E+00 0.  1.
          1   -1    0    0  501    0  0.00000000000E+00 -0.00000000000E+00 -0.33368831638E+03  0.33368831638E+03  0.00000000000E+00 0. -1.
          5    1    1    2  502    0 -0.86960388478E+02  0.29028651171E+02 -0.12111377590E+03  0.15195654269E+03  0.41800000000E+01 0.  1.
         -5    1    1    2    0  502 -0.27738390204E+02 -0.22721333120E+02  0.24312519370E+02  0.43522962537E+02  0.41800000000E+01 0.  1.
        -11    1    1    2    0    0  0.60939618307E+02 -0.20119685449E+02 -0.87452667892E+02  0.10847307474E+03  0.00000000000E+00 0.  1.
         11    1    1    2    0    0  0.53759160375E+02  0.13812367398E+02 -0.80987568487E+02  0.98182559891E+02  0.00000000000E+00 0. -1.
</event>
<event>
 6    1  0.6447971E-006  0.1022023E+03  0.7561462E-02  0.1275732E+00
         -2   -1    0    0    0  501 -0.00000000000E+00  0.00000000000E+00  0.12995438037E+03  0.12995438037E+03  0.00000000000E+00 0. -1.
          2   -1    0    0  501    0  0.00000000000E+00 -0.00000000000E+00 -0.15344324623E+03  0.15344324623E+03  0.00000000000E+00 0.  1.
          5    1    1    2  502    0  0.38754893221E+02  0.45054269732E+02  0.72841274042E+02  0.94101820246E+02  0.41800000000E+01 0.  1.
         -5    1    1    2    0  502  0.15046323891E+02 -0.49748526058E+02 -0.14492449189E+02  0.54118492136E+02  0.41800000000E+01 0.  1.
        -11    1    1    2    0    0 -0.61146555853E+02  0.28725639236E+02 -0.86359312126E+02  0.10964485593E+03  0.00000000000E+00 0.  1.
         11    1    1    2    0    0  0.73453387413E+01 -0.24031382911E+02  0.45216214066E+01  0.25532458283E+02  0.00000000000E+00 0. -1.
</event>
<event>
 6    1  0.6447971E-006  0.1001511E+03  0.7561462E-02  0.1279979E+00
          2   -1    0    0  501    0  0.00000000000E+00  0.00000000000E+00  0.28753647632E+03  0.28753647632E+03  0.00000000000E+00 0.  1.
         -2   -1    0    0    0  501 -0.00000000000E+00 -0.00000000000E+00 -0.62407661376E+02  0.62407661376E+02  0.00000000000E+00 0. -1.
          5    1    1    2  502    0 -0.37328132934E+02  0.26484307808E+01  0.96897518785E+02  0.10395674697E+03  0.41800000000E+01 0. -1.
         -5    1    1    2    0  502 -0.24335792448E+01  0.53071026930E+02 -0.21358603810E+02  0.57411832961E+02  0.41800000000E+01 0. -1.
        -11    1    1    2    0    0 -0.25860325692E+02 -0.28014841558E+02  0.81774278732E+02  0.90225386974E+02  0.00000000000E+00 0.  1.
         11    1    1    2    0    0  0.65622037871E+02 -0.27704616152E+02  0.67815621233E+02  0.98350170786E+02  0.00000000000E+00 0. -1.
</event>
<event>
 6    1  0.6447971E-006  0.1657670E+03  0.7561462E-02  0.1182335E+00
          1   -1    0    0  501    0  0.00000000000E+00  0.00000000000E+00  0.75283953354E+02  0.75283953354E+02  0.00000000000E+00 0. -1.
         -1   -1    0    0    0  501 -0.00000000000E+00 -0.00000000000E+00 -0.40420666206E+03  0.40420666206E+03  0.00000000000E+00 0.  1.
          5    1    1    2  502    0  0.10955826296E+03  0.22207970935E+02 -0.66813008301E+02  0.13029834010E+03  0.41800000000E+01 0. -1.
         -5    1    1    2    0  502 -0.63134162621E+01  0.65314005553E+02 -0.91405652790E+02  0.11259771005E+03  0.41800000000E+01 0. -1.
        -11    1    1    2    0    0 -0.10485910006E+03 -0.97875136398E+02 -0.17410090077E+03  0.22557946901E+03  0.00000000000E+00 0.  1.
         11    1    1    2    0    0  0.16142533678E+01  0.10353159910E+02  0.33968531562E+01  0.11015096251E+02  0.00000000000E+00 0. -1.
</event>
<event>
 6    1  0.6447971E-006  0.9634531E+02  0.7561462E-02  0.1288175E+00
          1   -1    0    0  501    0  0.00000000000E+00  0.00000000000E+00  0.43043980467E+03  0.43043980467E+03  0.00000000000E+00 0. -1.
         -1   -1    0    0    0  501 -0.00000000000E+00 -0.00000000000E+00 -0.35063558978E+02  0.35063558978E+02  0.00000000000E+00 0.  1.
          5    1    1    2  502    0 -0.50148675610E+02  0.40913537125E+02  0.28790043848E+02  0.70958764154E+02  0.41800000000E+01 0. -1.
         -5    1    1    2    0  502  0.16961818472E+02 -0.43100232765E+02  0.10683730348E+03  0.11652044956E+03  0.41800000000E+01 0. -1.
        -11    1    1    2    0    0 -0.10864600464E+02 -0.26581207236E+02  0.27044764224E+02  0.39446411666E+02  0.00000000000E+00 0.  1.
         11    1    1    2    0    0  0.44051457602E+02  0.28767902876E+02  0.23270413414E+03  0.23857773827E+03  0.00000000000E+00 0. -1.
</event>
<event>
 6    1  0.6447971E-006  0.1365698E+03  0.7561462E-02  0.1218021E+00
         -2   -1    0    0    0  501 -0.00000000000E+00  0.00000000000E+00  0.25216984349E+02  0.25216984349E+02  0.00000000000E+00 0.  1.
          2   -1    0    0  501    0  0.00000000000E+00 -0.00000000000E+00 -0.11998418668E+04  0.11998418668E+04  0.00000000000E+00 0. -1.
          5    1    1    2  502    0  0.43722550296E+02 -0.70125242791E+02 -0.75126015997E+03  0.75580322270E+03  0.41800000000E+01 0.  1.
         -5    1    1    2    0  502  0.24510128800E+02 -0.34052162652E+02 -0.53661207026E+02  0.68244367786E+02  0.41800000000E+01 0.  1.
        -11    1    1    2    0    0 -0.80910670567E+02  0.55965498432E+02 -0.18301476053E+03  0.20778131821E+03  0.00000000000E+00 0.  1.
         11    1    1    2    0    0  0.12677991471E+02  0.48211907011E+02 -0.18668875495E+03  0.19322994248E+03  0.00000000000E+00 0. -1.
</event>
<event>
 6    1  0.6447971E-006  0.1287149E+03  0.7561462E-02  0.1229375E+00
          2   -1    0    0  501    0  0.00000000000E+00  0.00000000000E+00  0.46471514971E+03  0.46471514971E+03  0.00000000000E+00 0. -1.
         -2   -1    0    0    0  501 -0.00000000000E+00 -0.00000000000E+00 -0.47101807367E+02  0.47101807367E+02  0.00000000000E+00 0.  1.
          5    1    1    2  502    0 -0.48217778415E+01 -0.73126942557E+02  0.34135599440E+02  0.80953757284E+02  0.41800000000E+01 0. -1.
         -5    1    1    2    0  502  0.64549517557E+02  0.23901500224E+02  0.77303842514E+02  0.10359188384E+03  0.41800000000E+01 0. -1.
        -11    1    1    2    0    0  0.19529283513E+02  0.25918877846E+02  0.10117158350E+03  0.10624909623E+03  0.00000000000E+00 0. -1.
         11    1    1    2    0    0 -0.79257023228E+02  0.23306564487E+02  0.20500231690E+03  0.22102221973E+03  0.00000000000E+00 0.  1.
</event>
<event>
 6    1  0.6447971E-006  0.1072487E+03  0.7561462E-02  0.1265751E+00
         -2   -1    0    0    0  501 -0.00000000000E+00  0.00000000000E+00  0.12209986182E+03  0.12209986182E+03  0.00000000000E+00 0.  1.
          2   -1    0    0  501    0  0.00000000000E+00 -0.00000000000E+00 -0.13873868501E+03  0.13873868501E+03  0.00000000000E+00 0. -1.
          5    1    1    2  502    0  0.60485047577E+02  0.61784023712E+02 -0.40690268458E+02  0.95649761701E+02  0.41800000000E+01 0.  1.
         -5    1    1    2    0  502 -0.14250277244E+02 -0.76962941103E+01  0.45351616984E+02  0.48337820675E+02  0.41800000000E+01 0.  1.
        -11    1    1    2    0    0 -0.27179004149E+02  0.20615059622E+02  0.68198778837E+01  0.34787780672E+02  0.00000000000E+00 0.  1.
         11    1    1    2    0    0 -0.19055766184E+02 -0.74702789223E+02 -0.28120049598E+02  0.82063183779E+02  0.00000000000E+00 0. -1.
</event>
<event>
 6    1  0.6447971E-006  0.8875199E+02  0.7561462E-02  0.1305902E+00
          2   -1    0    0  501    0  0.00000000000E+00  0.00000000000E+00  0.13107787805E+03  0.13107787805E+03  0.00000000000E+00 0. -1.
         -2   -1    0    0    0  501 -0.00000000000E+00 -0.00000000000E+00 -0.14250508800E+03  0.14250508800E+03  0.00000000000E+00 0.  1.
          5    1    1    2  502    0 -0.26587650352E+02  0.59575942336E+01 -0.80882729545E+02  0.85451064469E+02  0.41800000000E+01 0. -1.
         -5    1    1    2    0  502 -0.47586570774E+02  0.12586523681E+02  0.43527109396E+02  0.65840594991E+02  0.41800000000E+01 0. -1.
        -11    1    1    2    0    0  0.98579005760E+01  0.22277216886E+02 -0.21554097610E+02  0.32527399523E+02  0.00000000000E+00 0.  1.
         11    1    1    2    0    0  0.64316320551E+02 -0.40821334801E+02  0.47482507814E+02  0.89763907070E+02  0.00000000000E+00 0. -1.
</event>
<event>
 6    1  0.6447971E-006  0.1414830E+03  0.7561462E-02  0.1211347E+00
         -2   -1    0    0    0  501 -0.00000000000E+00  0.00000000000E+00  0.28034514360E+02  0.28034514360E+02  0.00000000000E+00 0.  1.
          2   -1    0    0  501    0  0.00000000000E+00 -0.00000000000E+00 -0.10803986580E+04  0.10803986580E+04  0.00000000000E+00 0. -1.
          5    1    1    2  502    0  0.68899664565E+02 -0.79366874307E+02 -0.12338631210E+03  0.16213549558E+03  0.41800000000E+01 0.  1.
         -5    1    1    2    0  502 -0.35821754582E+02 -0.18332179775E+02 -0.15333152283E+03  0.15857898729E+03  0.41800000000E+01 0.  1.
        -11    1    1    2    0    0 -0.64245109535E+02  0.75079855842E+02 -0.54790021133E+03  0.55673967025E+03  0.00000000000E+00 0. -1.
         11    1    1    2    0    0  0.31167199552E+02  0.22619198240E+02 -0.22774609743E+03  0.23097901929E+03  0.00000000000E+00 0.  1.
</event>
<event>
 6    1  0.6447971E-006  0.9574541E+02  0.7561462E-02  0.1289506E+00
         -2   -1    0    0    0  501 -0.00000000000E+00  0.00000000000E+00  0.13575766245E+03  0.13575766245E+03  0.00000000000E+00 0.  1.
          2   -1    0    0  501    0  0.00000000000E+00 -0.00000000000E+00 -0.14685771306E+03  0.14685771306E+03  0.00000000000E+00 0. -1.
          5    1    1    2  502    0  0.21626759225E+02 -0.43438533673E+02  0.57936832527E+02  0.75688650969E+02  0.41800000000E+01 0.  1.
         -5    1    1    2    0  502  0.18520086204E+02 -0.34186091554E+02 -0.66499925114E+02  0.77145284295E+02  0.41800000000E+01 0.  1.
        -11    1    1    2    0    0  0.13968757562E+02  0.22130735986E+02  0.34964848597E+02  0.43674206352E+02  0.00000000000E+00 0.  1.
         11    1    1    2    0    0 -0.54115602991E+02  0.55493889242E+02 -0.37501806622E+02  0.86107233901E+02  0.00000000000E+00 0. -1.
</event>
<event>
 6    1  0.6447971E-006  0.1154373E+03  0.7561462E-02  0.1250820E+00
          1   -1    0    0  501    0  0.00000000000E+00  0.00000000000E+00  0.32992990596E+03  0.32992990596E+03  0.00000000000E+00 0. -1.
         -1   -1    0    0    0  501 -0.00000000000E+00 -0.00000000000E+00 -0.62192337725E+02  0.62192337725E+02  0.00000000000E+00 0.  1.
          5    1    1    2  502    0  0.98144453622E+02 -0.10778844951E+02  0.10727766911E+03  0.14585776621E+03  0.41800000000E+01 0. -1.
         -5    1    1    2    0  502 -0.16909164674E+02 -0.84552360266E+01 -0.20150131399E+02  0.27944785947E+02  0.41800000000E+01 0. -1.
        -11    1    1    2    0    0 -0.88848305254E+02  0.34753590024E+02  0.17637189725E+03  0.20052151881E+03  0.00000000000E+00 0. -1.
         11    1    1    2    0    0  0.76130163047E+01 -0.15519509046E+02  0.42381332752E+01  0.17798172714E+02  0.00000000000E+00 0.  1.
</event>
<event>
 6    1  0.6447971E-006  0.1167097E+03  0.7561462E-02  0.1248626E+00
         -2   -1    0    0    0  501 -0.00000000000E+00  0.00000000000E+00  0.68896192441E+02  0.68896192441E+02  0.00000000000E+00 0.  1.
          2   -1    0    0  501    0  0.00000000000E+00 -0.00000000000E+00 -0.22529893730E+03  0.22529893730E+03  0.00000000000E+00 0. -1.
          5    1    1    2  502    0 -0.63304104124E+02  0.18266203664E+02 -0.16223133135E+02  0.67983279150E+02  0.41800000000E+01 0. -1.
         -5    1    1    2    0  502  0.50020258327E+02  0.41687492111E+02 -0.33342009823E+02  0.73273701016E+02  0.41800000000E+01 0.  1.
        -11    1    1    2    0    0 -0.20712761132E+02  0.11015709588E+02 -0.45729383151E+01  0.23901382727E+02  0.00000000000E+00 0. -1.
         11    1    1    2    0    0  0.33996606930E+02 -0.70969405363E+02 -0.10226466359E+03  0.12903676685E+03  0.00000000000E+00 0.  1.
</event>
<event>
 6    1  0.6447971E-006  0.2618301E+03  0.7561462E-02  0.1106049E+00
          2   -1    0    0  501    0  0.00000000000E+00  0.00000000000E+00  0.97831293620E+03  0.97831293620E+03  0.00000000000E+00 0. -1.
         -2   -1    0    0    0  501 -0.00000000000E+00 -0.00000000000E+00 -0.83354740883E+02  0.83354740883E+02  0.00000000000E+00 0.  1.
          5    1    1    2  502    0 -0.63473672997E+01 -0.22937334477E+02  0.17761153616E+02  0.29989020696E+02  0.41800000000E+01 0. -1.
         -5    1    1    2    0  502  0.22520939846E+03 -0.10086638893E+03  0.58889570235E+03  0.63852088628E+03  0.41800000000E+01 0. -1.
        -11    1    1    2    0    0 -0.26862514856E+02  0.62932335809E+01  0.26233635671E+00  0.27591091201E+02  0.00000000000E+00 0.  1.
         11    1    1    2    0    0 -0.19199951630E+03  0.11751048983E+03  0.28803900299E+03  0.36556667890E+03  0.00000000000E+00 0. -1.
</event>
<event>
 6    1  0.6447971E-006  0.1137585E+03  0.7561462E-02  0.1253764E+00
          2   -1    0    0  501    0  0.00000000000E+00  0.00000000000E+00  0.29011529951E+03  0.29011529951E+03  0.00000000000E+00 0. -1.
         -2   -1    0    0    0  501 -0.00000000000E+00 -0.00000000000E+00 -0.55404212628E+02  0.55404212628E+02  0.00000000000E+00 0.  1.
          5    1    1    2  502    0  0.69749253707E+02  0.38741230502E+02  0.11289873514E+03  0.13830921202E+03  0.41800000000E+01 0. -1.
         -5    1    1    2    0  502 -0.97790516026E+01 -0.33757520295E+02 -0.72539305877E+01  0.36128824167E+02  0.41800000000E+01 0. -1.
        -11    1    1    2    0    0 -0.70882076135E+02 -0.35891360193E+02  0.94072594665E+02  0.12313452611E+03  0.00000000000E+00 0. -1.
         11    1    1    2    0    0  0.10911874031E+02  0.30907649986E+02  0.34993687667E+02  0.47946949841E+02  0.00000000000E+00 0.  1.
</event>
<event>
 6    1  0.6447971E-006  0.1599330E+03  0.7561462E-02  0.1188772E+00
         -2   -1    0    0    0  501 -0.00000000000E+00  0.00000000000E+00  0.73975015294E+02  0.73975015294E+02  0.00000000000E+00 0.  1.
          2   -1    0    0  501    0  0.00000000000E+00 -0.00000000000E+00 -0.44112616313E+03  0.44112616313E+03  0.00000000000E+00 0. -1.
          5    1    1    2  502    0  0.19764674827E+02  0.57942802985E+02 -0.13860908436E+03  0.15158483254E+03  0.41800000000E+01 0. -1.
         -5    1    1    2    0  502 -0.39283357722E+02  0.82554408916E+02 -0.16467498210E+02  0.92989588248E+02  0.41800000000E+01 0. -1.
        -11    1    1    2    0    0  0.45197296703E+02 -0.13263966909E+03 -0.18787232113E+03  0.23437595118E+03  0.00000000000E+00 0.  1.
         11    1    1    2    0    0 -0.25678613809E+02 -0.78575428104E+01 -0.24202244137E+02  0.36150806456E+02  0.00000000000E+00 0. -1.
</event>
<event>
 6    1  0.6447971E-006  0.2782405E+03  0.7561462E-02  0.1096654E+00
         -1   -1    0    0    0  501 -0.00000000000E+00  0.00000000000E+00  0.28047558529E+03  0.28047558529E+03  0.00000000000E+00 0.  1.
          1   -1    0    0  501    0  0.00000000000E+00 -0.00000000000E+00 -0.40610591329E+03  0.40610591329E+03  0.00000000000E+00 0. -1.
          5    1    1    2  502    0  0.60141645615E+02  0.32317350154E+02 -0.49790059518E+02  0.84604675315E+02  0.41800000000E+01 0. -1.
         -5    1    1    2    0  502  0.19104502620E+03 -0.95417800673E+02  0.13733342014E+03  0.25393050114E+03  0.41800000000E+01 0.  1.
        -11    1    1    2    0    0 -0.13975628263E+03 -0.11756449517E+02 -0.97101183174E+02  0.17058332982E+03  0.00000000000E+00 0.  1.
         11    1    1    2    0    0 -0.11143038918E+03  0.74856900036E+02 -0.11607250544E+03  0.17746299230E+03  0.00000000000E+00 0. -1.
</event>
<event>
 6    1  0.6447971E-006  0.1257214E+03  0.7561462E-02  0.1233946E+00
          1   -1    0    0  501    0  0.00000000000E+00  0.00000000000E+00  0.33768596164E+03  0.33768596164E+03  0.00000000000E+00 0. -1.
         -1   -1    0    0    0  501 -0.00000000000E+00 -0.00000000000E+00 -0.17694405970E+03  0.17694405970E+03  0.00000000000E+00 0.  1.
          5    1    1    2  502    0 -0.38660243477E+02 -0.64430306218E+02  0.42113698750E+02  0.86237548710E+02  0.41800000000E+01 0. -1.
         -5    1    1    2    0  502 -0.78573698776E+00  0.77421001746E+02 -0.13492492362E+03  0.15561759640E+03  0.41800000000E+01 0.  1.
        -11    1    1    2    0    0 -0.24127167879E+02 -0.24113083479E+02  0.63797161483E+02  0.72343892887E+02  0.00000000000E+00 0.  1.
         11    1    1    2    0    0  0.63573148344E+02  0.11122387951E+02  0.18975596533E+03  0.20043098334E+03  0.00000000000E+00 0. -1.
</event>
<event>
 6    1  0.6447971E-006  0.9002593E+02  0.7561462E-02  0.1302789E+00
         -3   -1    0    0    0  501 -0.00000000000E+00  0.00000000000E+00  0.94695885182E+03  0.94695885182E+03  0.00000000000E+00 0.  1.
          3   -1    0    0  501    0  0.00000000000E+00 -0.00000000000E+00 -0.17337650887E+02  0.17337650887E+02  0.00000000000E+00 0. -1.
          5    1    1    2  502    0 -0.22419436150E+02 -0.11364717187E+02  0.11279674716E+02  0.27865594839E+02  0.41800000000E+01 0. -1.
         -5    1    1    2    0  502 -0.42215215582E+02 -0.38098427985E+01  0.52742619757E+03  0.52914318063E+03  0.41800000000E+01 0. -1.
        -11    1    1    2    0    0  0.85844557368E+01  0.46828000799E+02  0.20792226983E+03  0.21330312897E+03  0.00000000000E+00 0.  1.
         11    1    1    2    0    0  0.56050195996E+02 -0.31653440814E+02  0.18299305882E+03  0.19398459826E+03  0.00000000000E+00 0. -1.
</event>
<event>
 6    1  0.6447971E-006  0.5383693E+02  0.7561462E-02  0.1425681E+00
          2   -1    0    0  501    0  0.00000000000E+00  0.00000000000E+00  0.41671765032E+03  0.41671765032E+03  0.00000000000E+00 0.  1.
         -2   -1    0    0    0  501 -0.00000000000E+00 -0.00000000000E+00 -0.29643844779E+02  0.29643844779E+02  0.00000000000E+00 0. -1.
          5    1    1    2  502    0 -0.29164115277E+02  0.18847606320E+02 -0.14018041749E+01  0.35003076133E+02  0.41800000000E+01 0.  1.
         -5    1    1    2    0  502  0.19484476776E+02  0.11892070879E+00  0.19792093212E+03  0.19892165982E+03  0.41800000000E+01 0.  1.
        -11    1    1    2    0    0  0.21905426117E+02 -0.29423910046E+02  0.19274109602E+03  0.19620077541E+03  0.00000000000E+00 0.  1.
         11    1    1    2    0    0 -0.12225787616E+02  0.10457383017E+02 -0.21864184175E+01  0.16235983736E+02  0.00000000000E+00 0. -1.
</event>
<event>
 6    1  0.6447971E-006  0.1246018E+03  0.7561462E-02  0.1235693E+00
          3   -1    0    0  501    0  0.00000000000E+00  0.00000000000E+00  0.30223706497E+03  0.30223706497E+03  0.00000000000E+00 0. -1.
         -3   -1    0    0    0  501 -0.00000000000E+00 -0.00000000000E+00 -0.77265025352E+02  0.77265025352E+02  0.00000000000E+00 0.  1.
          5    1    1    2  502    0  0.38121531223E+02  0.40468408328E+02  0.93730306228E+02  0.10905863524E+03  0.41800000000E+01 0.  1.
         -5    1    1    2    0  502  0.67808392039E+02 -0.53826445456E+02  0.14689478355E+02  0.87911986871E+02  0.41800000000E+01 0.  1.
        -11    1    1    2    0    0 -0.75244439266E+02  0.99840353437E+01  0.16300625485E+02  0.77634509037E+02  0.00000000000E+00 0.  1.
         11    1    1    2    0    0 -0.30685483996E+02  0.33740017848E+01  0.10025162955E+03  0.10489695917E+03  0.00000000000E+00 0. -1.
</event>
<event>
 6    1  0.6447971E-006  0.1131082E+03  0.7561462E-02  0.1254920E+00
         -2   -1    0    0    0  501 -0.00000000000E+00  0.00000000000E+00  0.15058975530E+03  0.15058975530E+03  0.00000000000E+00 0.  1.
          2   -1    0    0  501    0  0.00000000000E+00 -0.00000000000E+00 -0.96966530357E+02  0.96966530357E+02  0.00000000000E+00 0. -1.
          5    1    1    2  502    0 -0.73193811479E+02 -0.40055081496E+02  0.13226860612E+02  0.84582302133E+02  0.41800000000E+01 0. -1.
         -5    1    1    2    0  502  0.40175240932E+02  0.88943792876E+01  0.43664098061E+02  0.60143044704E+02  0.41800000000E+01 0. -1.
        -11    1    1    2    0    0  0.43929965038E+02 -0.20526264699E+02  0.70736084095E+01  0.49002094921E+02  0.00000000000E+00 0. -1.
         11    1    1    2    0    0 -0.10911394490E+02  0.51686966908E+02 -0.10341342142E+02  0.53828843896E+02  0.00000000000E+00 0.  1.
</event>
<event>
 6    1  0.6447971E-006  0.8805148E+02  0.7561462E-02  0.1307640E+00
         -4   -1    0    0    0  501 -0.00000000000E+00  0.00000000000E+00  0.17943271132E+03  0.17943271132E+03  0.00000000000E+00 0. -1.
          4   -1    0    0  501    0  0.00000000000E+00 -0.00000000000E+00 -0.68028040830E+02  0.68028040830E+02  0.00000000000E+00 0.  1.
          5    1    1    2  502    0 -0.23043820343E+02  0.16754921953E+02 -0.12108311319E+02  0.31238256492E+02  0.41800000000E+01 0.  1.
         -5    1    1    2    0  502  0.38477573095E+02 -0.63585038884E+02  0.11973680747E+03  0.14098920620E+03  0.41800000000E+01 0.  1.
        -11    1    1    2    0    0  0.16091610211E+02 -0.38484659496E+00 -0.68184447290E+01  0.17480824197E+02  0.00000000000E+00 0. -1.
         11    1    1    2    0    0 -0.31525362963E+02  0.47214963525E+02  0.10594619067E+02  0.57752465262E+02  0.00000000000E+00 0.  1.
</event>
<event>
 6    1  0.6447971E-006  0.1523676E+03  0.7561462E-02  0.1197594E+00
          1   -1    0    0  501    0  0.00000000000E+00  0.00000000000E+00  0.19180837860E+03  0.19180837860E+03  0.00000000000E+00 0. -1.
         -1   -1    0    0    0  501 -0.00000000000E+00 -0.00000000000E+00 -0.14280706679E+03  0.14280706679E+03  0.00000000000E+00 0.  1.
          5    1    1    2  502    0  0.11368940029E+03 -0.62929613069E+02  0.74426452273E+01  0.13022396594E+03  0.41800000000E+01 0.  1.
         -5    1    1    2    0  502  0.18037690745E+00  0.34343561263E+02 -0.24045266443E+02  0.42132647369E+02  0.41800000000E+01 0.  1.
        -11    1    1    2    0    0 -0.81127994003E+02 -0.18081743751E+02  0.11950194701E+02  0.83973257775E+02  0.00000000000E+00 0. -1.
         11    1    1    2    0    0 -0.32741783190E+02  0.46667795557E+02  0.53653738315E+02  0.78285574302E+02  0.00000000000E+00 0.  1.
</event>
<event>
 6    1  0.6447971E-006  0.1526945E+03  0.7561462E-02  0.1197201E+00
          2   -1    0    0  501    0  0.00000000000E+00  0.00000000000E+00  0.35076367381E+03  0.35076367381E+03  0.00000000000E+00 0. -1.
         -2   -1    0    0    0  501 -0.00000000000E+00 -0.00000000000E+00 -0.81387856715E+02  0.81387856715E+02  0.00000000000E+00 0.  1.
          5    1    1    2  502    0  0.58558439686E+02 -0.24349657791E+02  0.67140323044E+01  0.63910463328E+02  0.41800000000E+01 0.  1.
         -5    1    1    2    0  502 -0.51598296390E+02 -0.86396013441E+02  0.51681668557E+02  0.11320389832E+03  0.41800000000E+01 0.  1.
        -11    1    1    2    0    0  0.39426951235E+01  0.12393728212E+03  0.16825050760E+03  0.20900772246E+03  0.00000000000E+00 0. -1.
         11    1    1    2    0    0 -0.10902838419E+02 -0.13191610884E+02  0.42729608634E+02  0.46029446415E+02  0.00000000000E+00 0.  1.
</event>
<event>
 6    1  0.6447971E-006  0.1102007E+03  0.7561462E-02  0.1260199E+00
          1   -1    0    0  501    0  0.00000000000E+00  0.00000000000E+00  0.55273314096E+03  0.55273314096E+03  0.00000000000E+00 0. -1.
         -1   -1    0    0    0  501 -0.00000000000E+00 -0.00000000000E+00 -0.27243535380E+02  0.27243535380E+02  0.00000000000E+00 0.  1.
          5    1    1    2  502    0  0.50514158748E+02  0.30774193996E+02  0.56644673959E+02  0.82005016542E+02  0.41800000000E+01 0.  1.
         -5    1    1    2    0  502 -0.22316297033E+02 -0.61336130919E+02  0.14280667623E+03  0.15707118528E+03  0.41800000000E+01 0.  1.
        -11    1    1    2    0    0  0.31006920376E+02  0.15215327611E+02  0.75829450406E+02  0.83324911367E+02  0.00000000000E+00 0.  1.
         11    1    1    2    0    0 -0.59204782091E+02  0.15346609312E+02  0.25020880499E+03  0.25757556316E+03  0.00000000000E+00 0. -1.
</event>
<event>
 6    1  0.6447971E-006  0.8984184E+02  0.7561462E-02  0.1303235E+00
         -1   -1    0    0    0  501 -0.00000000000E+00  0.00000000000E+00  0.12791323092E+03  0.12791323092E+03  0.00000000000E+00 0.  1.
          1   -1    0    0  501    0  0.00000000000E+00 -0.00000000000E+00 -0.13712614864E+03  0.13712614864E+03  0.00000000000E+00 0. -1.
          5    1    1    2  502    0  0.43274312929E+02 -0.31859404990E+02 -0.31838167232E+02  0.62600552221E+02  0.41800000000E+01 0.  1.
         -5    1    1    2    0  502  0.25390960731E+02  0.44458618849E+02  0.67862063729E+02  0.85111701724E+02  0.41800000000E+01 0.  1.
        -11    1    1    2    0    0 -0.54522393222E+02 -0.20459897897E+02  0.10601245749E+02  0.59191935228E+02  0.00000000000E+00 0.  1.
         11    1    1    2    0    0 -0.14142880438E+02  0.78606840384E+01 -0.55838059965E+02  0.58135190387E+02  0.00000000000E+00 0. -1.
</event>
<event>
 6    1  0.6447971E-006  0.1091702E+03  0.7561462E-02  0.1262114E+00
         -2   -1    0    0    0  501 -0.00000000000E+00  0.00000000000E+00  0.69121116910E+02  0.69121116910E+02  0.00000000000E+00 0.  1.
          2   -1    0    0  501    0  0.00000000000E+00 -0.00000000000E+00 -0.21744482857E+03  0.21744482857E+03  0.00000000000E+00 0. -1.
          5    1    1    2  502    0  0.63257573335E+02  0.29447271071E+02 -0.89608181384E+02  0.11364752936E+03  0.41800000000E+01 0. -1.
         -5    1    1    2    0  502 -0.41637030038E+02  0.23284787817E+02  0.43932984661E+01  0.48089469590E+02  0.41800000000E+01 0. -1.
        -11    1    1    2    0    0 -0.33528459812E+02  0.11330487842E+02 -0.19206956285E+01  0.35443287711E+02  0.00000000000E+00 0.  1.
         11    1    1    2    0    0  0.11907916515E+02 -0.64062546730E+02 -0.61188133116E+02  0.89385658824E+02  0.00000000000E+00 0. -1.
</event>
<event>
 6    1  0.6447971E-006  0.1402232E+03  0.7561462E-02  0.1213029E+00
          4   -1    0    0  501    0  0.00000000000E+00  0.00000000000E+00  0.80942823161E+03  0.80942823161E+03  0.00000000000E+00 0. -1.
         -4   -1    0    0    0  501 -0.00000000000E+00 -0.00000000000E+00 -0.34073902734E+02  0.34073902734E+02  0.00000000000E+00 0.  1.
          5    1    1    2  502    0  0.85819095558E+02 -0.70256758773E+02  0.16367089629E+03  0.19775379644E+03  0.41800000000E+01 0.  1.
         -5    1    1    2    0  502  0.11616135586E+02 -0.75001909391E+01  0.27151142893E+03  0.27189541355E+03  0.41800000000E+01 0.  1.
        -11    1    1    2    0    0 -0.85443345402E+02  0.98905401785E+02  0.28280683373E+03  0.31154863021E+03  0.00000000000E+00 0. -1.
         11    1    1    2    0    0 -0.11991885742E+02 -0.21148452072E+02  0.57365169920E+02  0.62304294143E+02  0.00000000000E+00 0.  1.
</event>
<event>
 6    1  0.6447971E-006  0.8333250E+02  0.7561462E-02  0.1319852E+00
         -1   -1    0    0    0  501 -0.00000000000E+00  0.00000000000E+00  0.38703708570E+02  0.38703708570E+02  0.00000000000E+00 0.  1.
          1   -1    0    0  501    0  0.00000000000E+00 -0.00000000000E+00 -0.34959513175E+03  0.34959513175E+03  0.00000000000E+00 0. -1.
          5    1    1    2  502    0  0.58162502366E+02 -0.29451958430E+01 -0.99087616108E+02  0.11501034269E+03  0.41800000000E+01 0. -1.
         -5    1    1    2    0  502 -0.49949490887E+02 -0.67169161503E+01 -0.10225525670E+02  0.51595565485E+02  0.41800000000E+01 0. -1.
        -11    1    1    2    0    0 -0.87592911412E+01  0.33111388819E+02 -0.19406369256E+03  0.19706294939E+03  0.00000000000E+00 0. -1.
         11    1    1    2    0    0  0.54627966237E+00 -0.23449276826E+02 -0.75145888406E+01  0.24629982756E+02  0.00000000000E+00 0.  1.
</event>
<event>
 6    1  0.6447971E-006  0.1337805E+03  0.7561462E-02  0.1221952E+00
          1   -1    0    0  501    0  0.00000000000E+00  0.00000000000E+00  0.23963409848E+03  0.23963409848E+03  0.00000000000E+00 0. -1.
         -1   -1    0    0    0  501 -0.00000000000E+00 -0.00000000000E+00 -0.10702044601E+03  0.10702044601E+03  0.00000000000E+00 0.  1.
          5    1    1    2  502    0 -0.30797801572E+02  0.48104547977E+02 -0.29010999839E+02  0.64200176241E+02  0.41800000000E+01 0. -1.
         -5    1    1    2    0  502 -0.62508242911E+02  0.23903236699E+02  0.10303354191E+03  0.12293099005E+03  0.41800000000E+01 0. -1.
        -11    1    1    2    0    0  0.88152379532E+02 -0.19252932610E+02  0.16249091469E+02  0.91681788840E+02  0.00000000000E+00 0.  1.
         11    1    1    2    0    0  0.51536649507E+01 -0.52754852066E+02  0.42342018939E+02  0.67841589359E+02  0.00000000000E+00 0. -1.
</event>
<event>
 6    1  0.6447971E-006  0.8547602E+02  0.7561462E-02  0.1314192E+00
         -1   -1    0    0    0  501 -0.00000000000E+00  0.00000000000E+00  0.40758610408E+02  0.40758610408E+02  0.00000000000E+00 0.  1.
          1   -1    0    0  501    0  0.00000000000E+00 -0.00000000000E+00 -0.29012074835E+03  0.29012074835E+03  0.00000000000E+00 0. -1.
          5    1    1    2  502    0 -0.36173135263E+02  0.30736011631E+02 -0.18920807773E+02  0.51270532399E+02  0.41800000000E+01 0. -1.
         -5    1    1    2    0  502  0.60775213366E+02 -0.13887303081E+02 -0.75767613269E+02  0.98207369209E+02  0.41800000000E+01 0.  1.
        -11    1    1    2    0    0  0.13303022909E+02 -0.18606555507E+02 -0.76689860176E+00  0.22885857201E+02  0.00000000000E+00 0.  1.
         11    1    1    2    0    0 -0.37905101012E+02  0.17578469573E+01 -0.15390681830E+03  0.15851559995E+03  0.00000000000E+00 0. -1.
</event>
<event>
 6    1  0.6447971E-006  0.1095022E+03  0.7561462E-02  0.1261494E+00
         -1   -1    0    0    0  501 -0.00000000000E+00  0.00000000000E+00  0.14198505044E+04  0.14198505044E+04  0.00000000000E+00 0. -1.
          1   -1    0    0  501    0  0.00000000000E+00 -0.00000000000E+00 -0.13167952940E+02  0.13167952940E+02  0.00000000000E+00 0.  1.
          5    1    1    2  502    0  0.21504212066E+02 -0.17563106785E+02  0.64108603905E+03  0.64170061222E+03  0.41800000000E+01 0. -1.
         -5    1    1    2    0  502 -0.47933441500E+02  0.13475533380E+02  0.11884483520E+03  0.12892157332E+03  0.41800000000E+01 0. -1.
        -11    1    1    2    0    0  0.40371503207E+02 -0.61687230999E+02  0.28064935409E+03  0.29017104041E+03  0.00000000000E+00 0.  1.
         11    1    1    2    0    0 -0.13942273772E+02  0.65774804403E+02  0.36610232309E+03  0.37222523136E+03  0.00000000000E+00 0. -1.
</event>
<event>
 6    1  0.6447971E-006  0.1020621E+03  0.7561462E-02  0.1276018E+00
         -1   -1    0    0    0  501 -0.00000000000E+00  0.00000000000E+00  0.19570631679E+02  0.19570631679E+02  0.00000000000E+00 0.  1.
          1   -1    0    0  501    0  0.00000000000E+00 -0.00000000000E+00 -0.82800397437E+03  0.82800397437E+03  0.00000000000E+00 0. -1.
          5    1    1    2  502    0 -0.69560038746E+01 -0.59119884225E+02 -0.22813819065E+03  0.23581359828E+03  0.41800000000E+01 0. -1.
         -5    1    1    2    0  502 -0.26994810364E+02  0.39011535713E+02 -0.38127898691E+02  0.61006792768E+02  0.41800000000E+01 0. -1.
        -11    1    1    2    0    0  0.16159280648E+01 -0.33867114971E+02 -0.19839060906E+03  0.20126705261E+03  0.00000000000E+00 0. -1.
         11    1    1    2    0    0  0.32334886174E+02  0.53975463482E+02 -0.34377664428E+03  0.34948716239E+03  0.00000000000E+00 0.  1.
</event>
<event>
 6    1  0.6447971E-006  0.1242243E+03  0.7561462E-02  0.1236287E+00
          1   -1    0    0  501    0  0.00000000000E+00  0.00000000000E+00  0.11743566656E+03  0.11743566656E+03  0.00000000000E+00 0. -1.
         -1   -1    0    0    0  501 -0.00000000000E+00 -0.00000000000E+00 -0.28265784333E+03  0.28265784333E+03  0.00000000000E+00 0.  1.
          5    1    1    2  502    0  0.34127644027E+02 -0.57186501836E+01 -0.36564802335E+02  0.50515900631E+02  0.41800000000E+01 0. -1.
         -5    1    1    2    0  502 -0.10111059755E+03  0.42079616939E+02 -0.18746738290E+03  0.21715326189E+03  0.41800000000E+01 0. -1.
        -11    1    1    2    0    0 -0.14365712691E+02  0.11584758611E+01  0.37736397641E+02  0.40394943673E+02  0.00000000000E+00 0. -1.
         11    1    1    2    0    0  0.81348666218E+02 -0.37519442616E+02  0.21073610822E+02  0.92029403686E+02  0.00000000000E+00 0.  1.
</event>
<event>
 6    1  0.6447971E-006  0.1376757E+03  0.7561462E-02  0.1216491E+00
          2   -1    0    0  501    0  0.00000000000E+00  0.00000000000E+00  0.67327781241E+02  0.67327781241E+02  0.00000000000E+00 0. -1.
         -2   -1    0    0    0  501 -0.00000000000E+00 -0.00000000000E+00 -0.48327183718E+03  0.48327183718E+03  0.00000000000E+00 0.  1.
          5    1    1    2  502    0  0.10963528945E+03  0.34747258439E+02 -0.30818682190E+03  0.32897394768E+03  0.41800000000E+01 0. -1.
         -5    1    1    2    0  502 -0.35171420006E+02  0.51529564099E+01 -0.88569618040E+02  0.95528170635E+02  0.41800000000E+01 0. -1.
        -11    1    1    2    0    0 -0.48011604257E+02  0.25186611873E+02 -0.52397910396E+01  0.54469578400E+02  0.00000000000E+00 0.  1.
         11    1    1    2    0    0 -0.26452265189E+02 -0.65086826722E+02 -0.13947824960E+02  0.71627921702E+02  0.00000000000E+00 0. -1.
</event>
<event>
 6    1  0.6447971E-006  0.1766728E+03  0.7561462E-02  0.1171062E+00
          1   -1    0    0  501    0  0.00000000000E+00  0.00000000000E+00  0.18916281470E+03  0.18916281470E+03  0.00000000000E+00 0. -1.
         -1   -1    0    0    0  501 -0.00000000000E+00 -0.00000000000E+00 -0.20279603929E+03  0.20279603929E+03  0.00000000000E+00 0.  1.
          5    1    1    2  502    0 -0.14080408254E+03 -0.12129773505E+01  0.30074086550E+02  0.14404577069E+03  0.41800000000E+01 0. -1.
         -5    1    1    2    0  502 -0.19417226587E+02 -0.26030160072E+02 -0.53025037823E+02  0.62319539133E+02  0.41800000000E+01 0. -1.
        -11    1    1    2    0    0  0.93904322706E+02  0.53881597318E+02  0.27796521627E+02  0.11177609300E+03  0.00000000000E+00 0. -1.
         11    1    1    2    0    0  0.66316986416E+02 -0.26638459896E+02 -0.18478794939E+02  0.73817451157E+02  0.00000000000E+00 0.  1.
</event>
<event>
 6    1  0.6447971E-006  0.9562582E+02  0.7561462E-02  0.1289773E+00
          1   -1    0    0  501    0  0.00000000000E+00  0.00000000000E+00  0.66746367160E+02  0.66746367160E+02  0.00000000000E+00 0. -1.
         -1   -1    0    0    0  501 -0.00000000000E+00 -0.00000000000E+00 -0.19432896655E+03  0.19432896655E+03  0.00000000000E+00 0.  1.
          5    1    1    2  502    0 -0.70084794089E+01 -0.56201974560E+02 -0.94685901261E+01  0.57575231889E+02  0.41800000000E+01 0.  1.
         -5    1    1    2    0  502  0.82675376251E+01  0.41888895608E+02 -0.10166524618E+03  0.11034639294E+03  0.41800000000E+01 0.  1.
        -11    1    1    2    0    0 -0.24703581551E+02 -0.31538372878E+02 -0.96670579341E+01  0.41211502210E+02  0.00000000000E+00 0. -1.
         11    1    1    2    0    0  0.23444523335E+02  0.45851451830E+02 -0.67817051495E+01  0.51942206673E+02  0.00000000000E+00 0.  1.
</event>
<event>
 6    1  0.6447971E-006  0.1452682E+03  0.7561462E-02  0.1206411E+00
         -1   -1    0    0    0  501 -0.00000000000E+00  0.00000000000E+00  0.12382295210E+03  0.12382295210E+03  0.00000000000E+00 0.  1.
          1   -1    0    0  501    0  0.00000000000E+00 -0.00000000000E+00 -0.20643915732E+03  0.20643915732E+03  0.00000000000E+00 0. -1.
          5    1    1    2  502    0 -0.15747868634E+02 -0.29151089198E+02  0.98411459499E+01  0.34815254150E+02  0.41800000000E+01 0.  1.
         -5    1    1    2    0  502  0.10988588527E+03  0.61083412615E+02  0.99549493345E+01  0.12618504069E+03  0.41800000000E+01 0.  1.
        -11    1    1    2    0    0  0.16329572760E+02 -0.85562331845E+01 -0.27176924567E+01  0.18634643144E+02  0.00000000000E+00 0.  1.
         11    1    1    2    0    0 -0.11046758939E+03 -0.23376090232E+02 -0.99694608043E+02  0.15062717143E+03  0.00000000000E+00 0. -1.
</event>
<event>
 6    1  0.1193525E-005  0.2558220E+03  0.7561462E-02  0.1109680E+00
          3   -1    0    0  501    0  0.00000000000E+00  0.00000000000E+00  0.14423937174E+04  0.14423937174E+04  0.00000000000E+00 0. -1.
         -3   -1    0    0    0  501 -0.00000000000E+00 -0.00000000000E+00 -0.48787902030E+02  0.48787902030E+02  0.00000000000E+00 0.  1.
          5    1    1    2  502    0 -0.40859242930E+02 -0.21047325837E+03  0.59021782837E+03  0.62796737777E+03  0.41800000000E+01 0.  1.
         -5    1    1    2    0  502 -0.36614158747E+02 -0.15059781697E+02  0.35913415219E+02  0.53615664112E+02  0.41800000000E+01 0.  1.
        -11    1    1    2    0    0  0.77029640962E+02  0.77200802407E+02  0.34633221008E+03  0.36309713468E+03  0.00000000000E+00 0.  1.
         11    1    1    2    0    0  0.44376071548E+00  0.14833223766E+03  0.42114236173E+03  0.44650144288E+03  0.00000000000E+00 0. -1.
</event>
<event>
 6    1  0.6447971E-006  0.1654222E+03  0.7561462E-02  0.1182708E+00
          2   -1    0    0  501    0  0.00000000000E+00  0.00000000000E+00  0.21274589851E+03  0.21274589851E+03  0.00000000000E+00 0. -1.
         -2   -1    0    0    0  501 -0.00000000000E+00 -0.00000000000E+00 -0.17612808187E+03  0.17612808187E+03  0.00000000000E+00 0.  1.
          5    1    1    2  502    0 -0.27166555955E+02  0.75653808087E+02 -0.53458750003E+02  0.96627277682E+02  0.41800000000E+01 0.  1.
         -5    1    1    2    0  502 -0.99947931264E+02  0.41232705443E+01  0.18591967289E+02  0.10183184164E+03  0.41800000000E+01 0.  1.
        -11    1    1    2    0    0  0.55640853834E+02 -0.38955904036E+02 -0.16535193035E+02  0.69906220634E+02  0.00000000000E+00 0.  1.
         11    1    1    2    0    0  0.71473633384E+02 -0.40821174595E+02  0.88019792392E+02  0.12050864043E+03  0.00000000000E+00 0. -1.
</event>
<event>
 6    1  0.6447971E-006  0.1104868E+03  0.7561462E-02  0.1259671E+00
          2   -1    0    0  501    0  0.00000000000E+00  0.00000000000E+00  0.47558081646E+02  0.47558081646E+02  0.00000000000E+00 0. -1.
         -2   -1    0    0    0  501 -0.00000000000E+00 -0.00000000000E+00 -0.28759248491E+03  0.28759248491E+03  0.00000000000E+00 0.  1.
          5    1    1    2  502    0 -0.12059202217E+02 -0.40653212820E+02 -0.58567499047E+02  0.72427428612E+02  0.41800000000E+01 0.  1.
         -5    1    1    2    0  502  0.32496772127E+02  0.84197360240E+02 -0.86687304748E+02  0.12520941208E+03  0.41800000000E+01 0.  1.
        -11    1    1    2    0    0  0.24674943749E+02 -0.33825028730E+02 -0.13400714660E+02  0.43960943700E+02  0.00000000000E+00 0. -1.
         11    1    1    2    0    0 -0.45112513659E+02 -0.97191186898E+01 -0.81378884808E+02  0.93552782157E+02  0.00000000000E+00 0.  1.
</event>
<event>
 6    1  0.6447971E-006  0.1629767E+03  0.7561462E-02  0.1185376E+00
         -2   -1    0    0    0  501 -0.00000000000E+00  0.00000000000E+00  0.34771937522E+03  0.34771937522E+03  0.00000000000E+00 0.  1.
          2   -1    0    0  501    0  0.00000000000E+00 -0.00000000000E+00 -0.16951889337E+03  0.16951889337E+03  0.00000000000E+00 0. -1.
          5    1    1    2  502    0  0.76035604787E+02 -0.12578568750E+03  0.18509350265E+03  0.23639062904E+03  0.41800000000E+01 0. -1.
         -5    1    1    2    0  502  0.18981079359E+01  0.21521888695E+02  0.90024576164E+02  0.92675192043E+02  0.41800000000E+01 0. -1.
        -11    1    1    2    0    0  0.16649676859E+02  0.37805949741E+02 -0.46093432562E+02  0.61895929597E+02  0.00000000000E+00 0. -1.
         11    1    1    2    0    0 -0.94583389582E+02  0.66457849064E+02 -0.50824164405E+02  0.12627651791E+03  0.00000000000E+00 0.  1.
</event>
<event>
 6    1  0.6447971E-006  0.9135138E+02  0.7561462E-02  0.1299612E+00
          2   -1    0    0  501    0  0.00000000000E+00  0.00000000000E+00  0.35606482001E+02  0.35606482001E+02  0.00000000000E+00 0. -1.
         -2   -1    0    0    0  501 -0.00000000000E+00 -0.00000000000E+00 -0.63117476273E+03  0.63117476273E+03  0.00000000000E+00 0.  1.
          5    1    1    2  502    0  0.48224043687E+02  0.19535036087E+01 -0.48339378801E+02  0.68436412155E+02  0.41800000000E+01 0.  1.
         -5    1    1    2    0  502  0.18816141980E+02 -0.28074283416E+02 -0.42622490059E+03  0.42758315083E+03  0.41800000000E+01 0.  1.
        -11    1    1    2    0    0 -0.22439896341E+02  0.46147480332E+02 -0.10891691207E+03  0.12039947102E+03  0.00000000000E+00 0.  1.
         11    1    1    2    0    0 -0.44600289325E+02 -0.20026700524E+02 -0.12087089267E+02  0.50362210721E+02  0.00000000000E+00 0. -1.
</event>
<event>
 6    1  0.6447971E-006  0.1843556E+03  0.7561462E-02  0.1163653E+00
         -1   -1    0    0    0  501 -0.00000000000E+00  0.00000000000E+00  0.23727644065E+03  0.23727644065E+03  0.00000000000E+00 0.  1.
          1   -1    0    0  501    0  0.00000000000E+00 -0.00000000000E+00 -0.19289405621E+03  0.19289405621E+03  0.00000000000E+00 0. -1.
          5    1    1    2  502    0 -0.11619597644E+02 -0.91868706285E+02  0.73993133875E+01  0.92989765472E+02  0.41800000000E+01 0.  1.
         -5    1    1    2    0  502 -0.87424332250E+02 -0.37409503826E+02  0.10266370970E+03  0.13999926619E+03  0.41800000000E+01 0.  1.
        -11    1    1    2    0    0  0.35381969590E+02  0.10809541856E+03 -0.63029524678E+02  0.13003547311E+03  0.00000000000E+00 0. -1.
         11    1    1    2    0    0  0.63661960303E+02  0.21182791548E+02 -0.26511139608E+01  0.67145992082E+02  0.00000000000E+00 0.  1.
</event>
<event>
 6    1  0.6447971E-006  0.9127908E+02  0.7561462E-02  0.1299783E+00
          1   -1    0    0  501    0  0.00000000000E+00  0.00000000000E+00  0.93109519231E+02  0.93109519231E+02  0.00000000000E+00 0. -1.
         -1   -1    0    0    0  501 -0.00000000000E+00 -0.00000000000E+00 -0.13359004778E+03  0.13359004778E+03  0.00000000000E+00 0.  1.
          5    1    1    2  502    0  0.45332288338E+02  0.22324195000E+02  0.16971936407E+02  0.53468729869E+02  0.41800000000E+01 0. -1.
         -5    1    1    2    0  502 -0.39856846543E+02 -0.27630616734E+02 -0.63960791808E+02  0.80377076870E+02  0.41800000000E+01 0. -1.
        -11    1    1    2    0    0 -0.35465042768E+02 -0.22729484995E+02 -0.17138845044E+02  0.45476793600E+02  0.00000000000E+00 0.  1.
         11    1    1    2    0    0  0.29989600972E+02  0.28035906730E+02  0.23647171895E+02  0.47376966674E+02  0.00000000000E+00 0. -1.
</event>
<event>
 6    1  0.6447971E-006  0.1147244E+03  0.7561462E-02  0.1252063E+00
         -1   -1    0    0    0  501 -0.00000000000E+00  0.00000000000E+00  0.43861563264E+02  0.43861563264E+02  0.00000000000E+00 0.  1.
          1   -1    0    0  501    0  0.00000000000E+00 -0.00000000000E+00 -0.34528256639E+03  0.34528256639E+03  0.00000000000E+00 0. -1.
          5    1    1    2  502    0 -0.60430569933E+02  0.53127348512E+01 -0.29204997876E+02  0.67457269697E+02  0.41800000000E+01 0. -1.
         -5    1    1    2    0  502  0.49080580374E+02  0.52236319728E+02 -0.89133748807E+02  0.11445450644E+03  0.41800000000E+01 0. -1.
        -11    1    1    2    0    0 -0.57384365831E+01 -0.73346838996E+02 -0.14514314821E+03  0.16272437407E+03  0.00000000000E+00 0. -1.
         11    1    1    2    0    0  0.17088426142E+02  0.15797784417E+02 -0.37939108238E+02  0.44507979446E+02  0.00000000000E+00 0.  1.
</event>
<event>
 6    1  0.6447971E-006  0.8055029E+02  0.7561462E-02  0.1327497E+00
          3   -1    0    0  501    0  0.00000000000E+00  0.00000000000E+00  0.16134277609E+03  0.16134277609E+03  0.00000000000E+00 0. -1.
         -3   -1    0    0    0  501 -0.00000000000E+00 -0.00000000000E+00 -0.85750040295E+02  0.85750040295E+02  0.00000000000E+00 0.  1.
          5    1    1    2  502    0 -0.46694320240E+01  0.26563497217E+02  0.73731708656E+02  0.78620991098E+02  0.41800000000E+01 0.  1.
         -5    1    1    2    0  502 -0.40620407877E+02 -0.15523144105E+02 -0.39823647199E+02  0.59113287975E+02  0.41800000000E+01 0.  1.
        -11    1    1    2    0    0  0.30620888708E+02 -0.44252942630E+02  0.48467318656E+02  0.72422667269E+02  0.00000000000E+00 0. -1.
         11    1    1    2    0    0  0.14668951193E+02  0.33212589517E+02 -0.67826443219E+01  0.36935870039E+02  0.00000000000E+00 0.  1.
</event>
<event>
 6    1  0.6447971E-006  0.1755869E+03  0.7561462E-02  0.1172144E+00
          1   -1    0    0  501    0  0.00000000000E+00  0.00000000000E+00  0.11838936807E+03  0.11838936807E+03  0.00000000000E+00 0. -1.
         -1   -1    0    0    0  501 -0.00000000000E+00 -0.00000000000E+00 -0.30201315408E+03  0.30201315408E+03  0.00000000000E+00 0.  1.
          5    1    1    2  502    0  0.93640970739E+02  0.13649019091E+03 -0.13638014810E+03  0.21451158667E+03  0.41800000000E+01 0. -1.
         -5    1    1    2    0  502 -0.36357082410E+02 -0.39262594418E+02 -0.15285990547E+01  0.53695416721E+02  0.41800000000E+01 0.  1.
        -11    1    1    2    0    0  0.12654027446E+02 -0.38734487793E+02  0.14136497062E+02  0.43131490867E+02  0.00000000000E+00 0. -1.
         11    1    1    2    0    0 -0.69937915776E+02 -0.58493108703E+02 -0.59851535913E+02  0.10906402789E+03  0.00000000000E+00 0.  1.
</event>
<event>
 6    1  0.6447971E-006  0.2180956E+03  0.7561462E-02  0.1135311E+00
         -4   -1    0    0    0  501 -0.00000000000E+00  0.00000000000E+00  0.41204640829E+02  0.41204640829E+02  0.00000000000E+00 0. -1.
          4   -1    0    0  501    0  0.00000000000E+00 -0.00000000000E+00 -0.11877003487E+04  0.11877003487E+04  0.00000000000E+00 0.  1.
          5    1    1    2  502    0 -0.11046696218E+03  0.40581234026E+02 -0.27152769531E+03  0.29596376131E+03  0.41800000000E+01 0. -1.
         -5    1    1    2    0  502 -0.91139491504E-01  0.10112561817E+03 -0.23601775534E+03  0.25680391780E+03  0.41800000000E+01 0. -1.
        -11    1    1    2    0    0  0.23697335867E+02 -0.12691517422E+03 -0.31535323896E+03  0.34075899181E+03  0.00000000000E+00 0.  1.
         11    1    1    2    0    0  0.86860765806E+02 -0.14791677983E+02 -0.32359701826E+03  0.33537831862E+03  0.00000000000E+00 0. -1.
</event>
<event>
 6    1  0.6447971E-006  0.1032748E+03  0.7561462E-02  0.1273556E+00
         -4   -1    0    0    0  501 -0.00000000000E+00  0.00000000000E+00  0.17357378427E+03  0.17357378427E+03  0.00000000000E+00 0.  1.
          4   -1    0    0  501    0  0.00000000000E+00 -0.00000000000E+00 -0.35236723660E+03  0.35236723660E+03  0.00000000000E+00 0. -1.
          5    1    1    2  502    0  0.33298145663E+02  0.74700986423E+02  0.27528138536E+02  0.86396033986E+02  0.41800000000E+01 0. -1.
         -5    1    1    2    0  502  0.16911531680E+01 -0.17876042156E+02  0.10611805607E+03  0.10770760004E+03  0.41800000000E+01 0.  1.
        -11    1    1    2    0    0  0.25807847784E+02 -0.30541271237E+02 -0.17164686655E+03  0.17624261985E+03  0.00000000000E+00 0.  1.
         11    1    1    2    0    0 -0.60797146615E+02 -0.26283673030E+02 -0.14079278039E+03  0.15559476699E+03  0.00000000000E+00 0. -1.
</event>
<event>
 6    1  0.6447971E-006  0.9674244E+02  0.7561462E-02  0.1287299E+00
         -1   -1    0    0    0  501 -0.00000000000E+00  0.00000000000E+00  0.16633240034E+03  0.16633240034E+03  0.00000000000E+00 0.  1.
          1   -1    0    0  501    0  0.00000000000E+00 -0.00000000000E+00 -0.94013999615E+02  0.94013999615E+02  0.00000000000E+00 0. -1.
          5    1    1    2  502    0 -0.44512434429E+02  0.14517518141E+02  0.61734117886E+02  0.77593098037E+02  0.41800000000E+01 0.  1.
         -5    1    1    2    0  502  0.75655761710E+02  0.97102599051E+01  0.28137401922E+02  0.81408041459E+02  0.41800000000E+01 0.  1.
        -11    1    1    2    0    0 -0.47717978306E+02 -0.24220926988E+02  0.22459763903E+02  0.58035331931E+02  0.00000000000E+00 0.  1.
         11    1    1    2    0    0  0.16574651025E+02 -0.68510584198E-02 -0.40012882990E+02  0.43309928524E+02  0.00000000000E+00 0. -1.
</event>
<event>
 6    1  0.6447971E-006  0.1093231E+03  0.7561462E-02  0.1261829E+00
          2   -1    0    0  501    0  0.00000000000E+00  0.00000000000E+00  0.12195565661E+04  0.12195565661E+04  0.00000000000E+00 0. -1.
         -2   -1    0    0    0  501 -0.00000000000E+00 -0.00000000000E+00 -0.12515197743E+02  0.12515197743E+02  0.00000000000E+00 0.  1.
          5    1    1    2  502    0  0.14156513553E+02  0.29293961285E+02  0.38902693104E+03  0.39040743912E+03  0.41800000000E+01 0.  1.
         -5    1    1    2    0  502 -0.70600410999E+02 -0.33128419629E+02  0.20741826421E+03  0.22163420077E+03  0.41800000000E+01 0.  1.
        -11    1    1    2    0    0  0.35921446383E+02 -0.43345065247E+02  0.32142986598E+03  0.32632239233E+03  0.00000000000E+00 0.  1.
         11    1    1    2    0    0  0.20522451064E+02  0.47179523591E+02  0.28916630715E+03  0.29370773165E+03  0.00000000000E+00 0. -1.
</event>
<event>
 6    1  0.6447971E-006  0.1409114E+03  0.7561462E-02  0.1212108E+00
         -1   -1    0    0    0  501 -0.00000000000E+00  0.00000000000E+00  0.52781673101E+02  0.52781673101E+02  0.00000000000E+00 0.  1.
          1   -1    0    0  501    0  0.00000000000E+00 -0.00000000000E+00 -0.64160012020E+03  0.64160012020E+03  0.00000000000E+00 0. -1.
          5    1    1    2  502    0  0.17409440281E+02 -0.59018428777E+02 -0.11037053233E+02  0.62654229629E+02  0.41800000000E+01 0. -1.
         -5    1    1    2    0  502 -0.87998021985E+02 -0.25091222798E+02 -0.10999818181E+03  0.14314431088E+03  0.41800000000E+01 0. -1.
        -11    1    1    2    0    0 -0.64718721892E+01  0.38418372401E+02 -0.63550537730E+02  0.74542117714E+02  0.00000000000E+00 0.  1.
         11    1    1    2    0    0  0.77060453893E+02  0.45691279174E+02 -0.40423267432E+03  0.41404113508E+03  0.00000000000E+00 0. -1.
</event>
<event>
 6    1  0.6447971E-006  0.1434745E+03  0.7561462E-02  0.1208729E+00
          3   -1    0    0  501    0  0.00000000000E+00  0.00000000000E+00  0.83678647745E+03  0.83678647745E+03  0.00000000000E+00 0. -1.
         -3   -1    0    0    0  501 -0.00000000000E+00 -0.00000000000E+00 -0.41836809354E+02  0.41836809354E+02  0.00000000000E+00 0.  1.
          5    1    1    2  502    0 -0.10232356181E+03  0.15833630779E+02  0.14456465631E+03  0.17786856782E+03  0.41800000000E+01 0. -1.
         -5    1    1    2    0  502  0.33237074468E+02  0.44478819955E+02  0.23446152392E+02  0.60417406480E+02  0.41800000000E+01 0.  1.
        -11    1    1    2    0    0  0.51614675130E+02  0.12213531453E+02  0.19913257361E+03  0.20607529427E+03  0.00000000000E+00 0.  1.
         11    1    1    2    0    0  0.17471812212E+02 -0.72525982187E+02  0.42780628579E+03  0.43426201823E+03  0.00000000000E+00 0. -1.
</event>
<event>
 6    1  0.6447971E-006  0.1982423E+03  0.7561462E-02  0.1151231E+00
         -2   -1    0    0    0  501 -0.00000000000E+00  0.00000000000E+00  0.63551389304E+02  0.63551389304E+02  0.00000000000E+00 0.  1.
          2   -1    0    0  501    0  0.00000000000E+00 -0.00000000000E+00 -0.11158365691E+04  0.11158365691E+04  0.00000000000E+00 0. -1.
          5    1    1    2  502    0  0.10174213402E+03  0.93472178817E+01 -0.24953545998E+02  0.10525675358E+03  0.41800000000E+01 0. -1.
         -5    1    1    2    0  502  0.70633641249E+02  0.54189069657E+02 -0.16319154912E+03  0.18594225085E+03  0.41800000000E+01 0. -1.
        -11    1    1    2    0    0 -0.61387731757E+02 -0.71008953567E+02 -0.37704692815E+03  0.38855515840E+03  0.00000000000E+00 0.  1.
         11    1    1    2    0    0 -0.11098804351E+03  0.74726660283E+01 -0.48709315656E+03  0.49963379560E+03  0.00000000000E+00 0. -1.
</event>
<event>
 6    1  0.6447971E-006  0.1380319E+03  0.7561462E-02  0.1216002E+00
          1   -1    0    0  501    0  0.00000000000E+00  0.00000000000E+00  0.91523479051E+02  0.91523479051E+02  0.00000000000E+00 0. -1.
         -1   -1    0    0    0  501 -0.00000000000E+00 -0.00000000000E+00 -0.26328655886E+03  0.26328655886E+03  0.00000000000E+00 0.  1.
          5    1    1    2  502    0 -0.35175443122E+02 -0.24977809660E+02 -0.13733021564E+02  0.45467252562E+02  0.41800000000E+01 0.  1.
         -5    1    1    2    0  502 -0.21977190506E+02  0.11906961992E+03 -0.88441552063E+02  0.14999983941E+03  0.41800000000E+01 0.  1.
        -11    1    1    2    0    0  0.12795080122E+02 -0.37750033268E+02 -0.77550738922E+02  0.87194588103E+02  0.00000000000E+00 0.  1.
         11    1    1    2    0    0  0.44357553506E+02 -0.56341776994E+02  0.79622327457E+01  0.72148357834E+02  0.00000000000E+00 0. -1.
</event>
<event>
 6    1  0.6447971E-006  0.7100387E+02  0.7561462E-02  0.1356712E+00
          1   -1    0    0  501    0  0.00000000000E+00  0.00000000000E+00  0.10345046595E+03  0.10345046595E+03  0.00000000000E+00 0. -1.
         -1   -1    0    0    0  501 -0.00000000000E+00 -0.00000000000E+00 -0.13924993903E+03  0.13924993903E+03  0.00000000000E+00 0.  1.
          5    1    1    2  502    0 -0.11845453909E+02  0.31959769337E+01 -0.71400700334E+02  0.72567633660E+02  0.41800000000E+01 0. -1.
         -5    1    1    2    0  502 -0.42217330291E+01 -0.51769617480E+02  0.40583573755E+02  0.66048581988E+02  0.41800000000E+01 0. -1.
        -11    1    1    2    0    0 -0.13802074508E+02 -0.57429354016E+01 -0.32871878848E+02  0.36111479985E+02  0.00000000000E+00 0.  1.
         11    1    1    2    0    0  0.29869261446E+02  0.54316575948E+02  0.27889532349E+02  0.67972709352E+02  0.00000000000E+00 0. -1.
</event>
<event>
 6    1  0.6447971E-006  0.7034112E+02  0.7561462E-02  0.1358937E+00
          2   -1    0    0  501    0  0.00000000000E+00  0.00000000000E+00  0.26421535136E+02  0.26421535136E+02  0.00000000000E+00 0. -1.
         -2   -1    0    0    0  501 -0.00000000000E+00 -0.00000000000E+00 -0.46373246126E+03  0.46373246126E+03  0.00000000000E+00 0.  1.
          5    1    1    2  502    0 -0.27680470856E+01 -0.43745346128E+02 -0.33245442887E+02  0.55172903361E+02  0.41800000000E+01 0. -1.
         -5    1    1    2    0  502 -0.39229306649E+01  0.39865178648E+02 -0.26944100192E+03  0.27243448345E+03  0.41800000000E+01 0. -1.
        -11    1    1    2    0    0  0.24869188567E+02 -0.15894700314E+02 -0.13233747146E+03  0.13558880629E+03  0.00000000000E+00 0.  1.
         11    1    1    2    0    0 -0.18178210816E+02  0.19774867794E+02 -0.22870098537E+01  0.26957803301E+02  0.00000000000E+00 0. -1.
</event>
<event>
 6    1  0.6447971E-006  0.1243623E+03  0.7561462E-02  0.1236069E+00
          1   -1    0    0  501    0  0.00000000000E+00  0.00000000000E+00  0.10572773945E+03  0.10572773945E+03  0.00000000000E+00 0. -1.
         -1   -1    0    0    0  501 -0.00000000000E+00 -0.00000000000E+00 -0.17475720382E+03  0.17475720382E+03  0.00000000000E+00 0.  1.
          5    1    1    2  502    0  0.34406832197E+02 -0.77849553338E+01 -0.17842899010E+02  0.39752698983E+02  0.41800000000E+01 0. -1.
         -5    1    1    2    0  502 -0.11162288258E+03 -0.50137360929E+01 -0.40569170151E+02  0.11894593491E+03  0.41800000000E+01 0. -1.
        -11    1    1    2    0    0  0.78871749054E+02  0.29794215798E+02  0.20070340017E+02  0.86667563957E+02  0.00000000000E+00 0.  1.
         11    1    1    2    0    0 -0.16556986690E+01 -0.16995524372E+02 -0.30687735229E+02  0.35118745425E+02  0.00000000000E+00 0. -1.
</event>
<event>
 6    1  0.6447971E-006  0.1256854E+03  0.7561462E-02  0.1234002E+00
         -3   -1    0    0    0  501 -0.00000000000E+00  0.00000000000E+00  0.74013662407E+03  0.74013662407E+03  0.00000000000E+00 0.  1.
          3   -1    0    0  501    0  0.00000000000E+00 -0.00000000000E+00 -0.26459627025E+02  0.26459627025E+02  0.00000000000E+00 0. -1.
          5    1    1    2  502    0 -0.26883576431E+02 -0.79651614229E+00  0.22232131952E+03  0.22398125509E+03  0.41800000000E+01 0. -1.
         -5    1    1    2    0  502  0.97103288462E+02  0.43531001608E+02  0.25784169493E+03  0.27896918965E+03  0.41800000000E+01 0. -1.
        -11    1    1    2    0    0 -0.89920151475E+02 -0.35168884191E+02  0.21454574019E+03  0.23527081989E+03  0.00000000000E+00 0.  1.
         11    1    1    2    0    0  0.19700439444E+02 -0.75656012742E+01  0.18968242411E+02  0.28374986469E+02  0.00000000000E+00 0. -1.
</event>
<event>
 6    1  0.6447971E-006  0.1275734E+03  0.7561462E-02  0.1231101E+00
          1   -1    0    0  501    0  0.00000000000E+00  0.00000000000E+00  0.14240634337E+03  0.14240634337E+03  0.00000000000E+00 0. -1.
         -1   -1    0    0    0  501 -0.00000000000E+00 -0.00000000000E+00 -0.19355469671E+03  0.19355469671E+03  0.00000000000E+00 0.  1.
          5    1    1    2  502    0 -0.41321483570E+02  0.60951432567E+02 -0.15154670368E+02  0.75297268014E+02  0.41800000000E+01 0.  1.
         -5    1    1    2    0  502 -0.61455621863E+02 -0.47385951718E+02 -0.86858748700E+02  0.11655100388E+03  0.41800000000E+01 0.  1.
        -11    1    1    2    0    0  0.15500517855E+02 -0.16317463662E+01  0.53762743452E+02  0.55976434626E+02  0.00000000000E+00 0. -1.
         11    1    1    2    0    0  0.87276587579E+02 -0.11933734483E+02 -0.28976777188E+01  0.88136333565E+02  0.00000000000E+00 0.  1.
</event>
<event>
 6    1  0.6447971E-006  0.8980174E+02  0.7561462E-02  0.1303333E+00
         -2   -1    0    0    0  501 -0.00000000000E+00  0.00000000000E+00  0.32169232434E+02  0.32169232434E+02  0.00000000000E+00 0.  1.
          2   -1    0    0  501    0  0.00000000000E+00 -0.00000000000E+00 -0.37121860987E+03  0.37121860987E+03  0.00000000000E+00 0. -1.
          5    1    1    2  502    0  0.54747197086E+02  0.20044912516E+02 -0.36961816742E+02  0.69157084984E+02  0.41800000000E+01 0. -1.
         -5    1    1    2    0  502 -0.42754544568E+02 -0.20939921466E+02 -0.13966599001E+03  0.14761603083E+03  0.41800000000E+01 0. -1.
        -11    1    1    2    0    0 -0.17217704511E+02  0.34922320696E+02 -0.28270778397E+02  0.48117094079E+02  0.00000000000E+00 0.  1.
         11    1    1    2    0    0  0.52250519927E+01 -0.34027311746E+02 -0.13415079229E+03  0.13849763241E+03  0.00000000000E+00 0. -1.
</event>
<event>
 6    1  0.6447971E-006  0.1676590E+03  0.7561462E-02  0.1180311E+00
          2   -1    0    0  501    0  0.00000000000E+00  0.00000000000E+00  0.10415007666E+04  0.10415007666E+04  0.00000000000E+00 0. -1.
         -2   -1    0    0    0  501 -0.00000000000E+00 -0.00000000000E+00 -0.28915606269E+02  0.28915606269E+02  0.00000000000E+00 0.  1.
          5    1    1    2  502    0  0.50591865834E+02 -0.25288833059E+02  0.25277224465E+03  0.25905663866E+03  0.41800000000E+01 0.  1.
         -5    1    1    2    0  502 -0.62910401761E+02 -0.10715915532E+03  0.41411150115E+03  0.43237323114E+03  0.41800000000E+01 0.  1.
        -11    1    1    2    0    0 -0.32622552437E+02  0.71074458339E+02  0.19708308944E+03  0.21203196386E+03  0.00000000000E+00 0. -1.
         11    1    1    2    0    0  0.44941088364E+02  0.61373530043E+02  0.14861832513E+03  0.16695453926E+03  0.00000000000E+00 0.  1.
</event>
<event>
 6    1  0.6447971E-006  0.1374350E+03  0.7561462E-02  0.1216823E+00
         -2   -1    0    0    0  501 -0.00000000000E+00  0.00000000000E+00  0.10810233642E+03  0.10810233642E+03  0.00000000000E+00 0.  1.
          2   -1    0    0  501    0  0.00000000000E+00 -0.00000000000E+00 -0.22032429264E+03  0.22032429264E+03  0.00000000000E+00 0. -1.
          5    1    1    2  502    0  0.12348470926E+01  0.36268730313E+02 -0.26995539274E+02  0.45422210278E+02  0.41800000000E+01 0.  1.
         -5    1    1    2    0  502 -0.94292263136E+02 -0.83412484584E+02 -0.68317077865E+02  0.14329469285E+03  0.41800000000E+01 0.  1.
        -11    1    1    2    0    0  0.33844041305E+01  0.17663443760E+02  0.29479464543E+02  0.34532452368E+02  0.00000000000E+00 0.  1.
         11    1    1    2    0    0  0.89673011913E+02  0.29480310511E+02 -0.46388803617E+02  0.10517727356E+03  0.00000000000E+00 0. -1.
</event>
<event>
 6    1  0.6447971E-006  0.7482646E+02  0.7561462E-02  0.1344409E+00
          1   -1    0    0  501    0  0.00000000000E+00  0.00000000000E+00  0.15644330173E+03  0.15644330173E+03  0.00000000000E+00 0. -1.
         -1   -1    0    0    0  501 -0.00000000000E+00 -0.00000000000E+00 -0.83104019257E+02  0.83104019257E+02  0.00000000000E+00 0.  1.
          5    1    1    2  502    0  0.29509879425E+02 -0.68093817508E+01 -0.42097700106E+02  0.52027775444E+02  0.41800000000E+01 0. -1.
         -5    1    1    2    0  502 -0.45246972082E+02 -0.13542733748E+02  0.60707685315E+02  0.77029796678E+02  0.41800000000E+01 0. -1.
        -11    1    1    2    0    0  0.32696670077E+02  0.35970406379E+02 -0.26188722801E+01  0.48680600461E+02  0.00000000000E+00 0.  1.
         11    1    1    2    0    0 -0.16959577420E+02 -0.15618290880E+02  0.57348169544E+02  0.61809148403E+02  0.00000000000E+00 0. -1.
</event>
<event>
 6    1  0.6447971E-006  0.2867574E+03  0.7561462E-02  0.1092054E+00
          2   -1    0    0  501    0  0.00000000000E+00  0.00000000000E+00  0.11611908184E+04  0.11611908184E+04  0.00000000000E+00 0. -1.
         -2   -1    0    0    0  501 -0.00000000000E+00 -0.00000000000E+00 -0.72088794887E+02  0.72088794887E+02  0.00000000000E+00 0.  1.
          5    1    1    2  502    0  0.64222543715E+02  0.24021057684E+02  0.12521858874E+03  0.14282406555E+03  0.41800000000E+01 0. -1.
         -5    1    1    2    0  502  0.40078395672E+02  0.22056258946E+03  0.50462781517E+03  0.55219637622E+03  0.41800000000E+01 0. -1.
        -11    1    1    2    0    0 -0.73163126154E+02 -0.23771610817E+03  0.40192516128E+03  0.47265804381E+03  0.00000000000E+00 0. -1.
         11    1    1    2    0    0 -0.31137813233E+02 -0.68675389775E+01  0.57330458325E+02  0.65601127706E+02  0.00000000000E+00 0.  1.
</event>
<event>
 6    1  0.6447971E-006  0.9540964E+02  0.7561462E-02  0.1290256E+00
         -2   -1    0    0    0  501 -0.00000000000E+00  0.00000000000E+00  0.31223292457E+02  0.31223292457E+02  0.00000000000E+00 0.  1.
          2   -1    0    0  501    0  0.00000000000E+00 -0.00000000000E+00 -0.54391120033E+03  0.54391120033E+03  0.00000000000E+00 0. -1.
          5    1    1    2  502    0 -0.32953240994E+02  0.24686348238E+02 -0.24158121160E+01  0.41456488389E+02  0.41800000000E+01 0. -1.
         -5    1    1    2    0  502  0.48221018380E+02 -0.31089544183E+02 -0.12632680585E+03  0.13880835943E+03  0.41800000000E+01 0. -1.
        -11    1    1    2    0    0  0.98944147465E+01  0.44866262862E+02 -0.17518983796E+03  0.18111421896E+03  0.00000000000E+00 0.  1.
         11    1    1    2    0    0 -0.25162192133E+02 -0.38463066916E+02 -0.20875545196E+03  0.21375542602E+03  0.00000000000E+00 0. -1.
</event>
<event>
 6    1  0.6447971E-006  0.1146204E+03  0.7561462E-02  0.1252245E+00
         -4   -1    0    0    0  501 -0.00000000000E+00  0.00000000000E+00  0.71343298828E+02  0.71343298828E+02  0.00000000000E+00 0.  1.
          4   -1    0    0  501    0  0.00000000000E+00 -0.00000000000E+00 -0.25827531976E+03  0.25827531976E+03  0.00000000000E+00 0. -1.
          5    1    1    2  502    0  0.37960602492E+02  0.20045078449E+02 -0.23378846891E+02  0.49059712530E+02  0.41800000000E+01 0.  1.
         -5    1    1    2    0  502 -0.33981435092E+02 -0.99115904247E+02 -0.63441148287E+02  0.12255999389E+03  0.41800000000E+01 0.  1.
        -11    1    1    2    0    0  0.61467709770E+01  0.51684444995E+02 -0.11425773594E+03  0.12555435026E+03  0.00000000000E+00 0. -1.
         11    1    1    2    0    0 -0.10125938377E+02  0.27386380804E+02  0.14145710177E+02  0.32444561917E+02  0.00000000000E+00 0.  1.
</event>
<event>
 6    1  0.6447971E-006  0.9593063E+02  0.7561462E-02  0.1289094E+00
          2   -1    0    0  501    0  0.00000000000E+00  0.00000000000E+00  0.17775378081E+03  0.17775378081E+03  0.00000000000E+00 0. -1.
         -2   -1    0    0    0  501 -0.00000000000E+00 -0.00000000000E+00 -0.75946251566E+02  0.75946251566E+02  0.00000000000E+00 0.  1.
          5    1    1    2  502    0  0.55548630636E+02  0.31483327257E+02 -0.24110839815E+02  0.68378763204E+02  0.41800000000E+01 0.  1.
         -5    1    1    2    0  502 -0.27398116374E+02 -0.13876372824E+02  0.57433723702E+02  0.65263431735E+02  0.41800000000E+01 0.  1.
        -11    1    1    2    0    0 -0.27700078384E+02 -0.53890706154E+02  0.31686531790E+02  0.68377911998E+02  0.00000000000E+00 0. -1.
         11    1    1    2    0    0 -0.45043587841E+00  0.36283751722E+02  0.36798113569E+02  0.51679925442E+02  0.00000000000E+00 0.  1.
</event>
<event>
 6    1  0.6447971E-006  0.2418452E+03  0.7561462E-02  0.1118570E+00
         -2   -1    0    0    0  501 -0.00000000000E+00  0.00000000000E+00  0.34191387450E+03  0.34191387450E+03  0.00000000000E+00 0. -1.
          2   -1    0    0  501    0  0.00000000000E+00 -0.00000000000E+00 -0.22034636575E+03  0.22034636575E+03  0.00000000000E+00 0.  1.
          5    1    1    2  502    0  0.22039080855E+03  0.59413158728E+02  0.17500524334E+03  0.28765663476E+03  0.41800000000E+01 0.  1.
         -5    1    1    2    0  502  0.60470848754E+01 -0.20963021109E+02 -0.68807017135E+01  0.23255793807E+02  0.41800000000E+01 0.  1.
        -11    1    1    2    0    0 -0.66021294610E+02  0.71488246544E+01  0.23522764113E+02  0.70450248172E+02  0.00000000000E+00 0. -1.
         11    1    1    2    0    0 -0.16041659882E+03 -0.45598962273E+02 -0.70079796995E+02  0.18089756351E+03  0.00000000000E+00 0.  1.
</event>
<event>
 6    1  0.6447971E-006  0.1222625E+03  0.7561462E-02  0.1239411E+00
         -2   -1    0    0    0  501 -0.00000000000E+00  0.00000000000E+00  0.21354714290E+02  0.21354714290E+02  0.00000000000E+00 0.  1.
          2   -1    0    0  501    0  0.00000000000E+00 -0.00000000000E+00 -0.73474443069E+03  0.73474443069E+03  0.00000000000E+00 0. -1.
          5    1    1    2  502    0 -0.39430398353E+02 -0.14910424954E+02 -0.78775189537E+02  0.89443166163E+02  0.41800000000E+01 0. -1.
         -5    1    1    2    0  502  0.92749019395E+02 -0.53603979831E+01 -0.26227122738E+03  0.27827106133E+03  0.41800000000E+01 0. -1.
        -11    1    1    2    0    0 -0.61796349794E+02 -0.22346616366E+02 -0.25237677021E+03  0.26079147658E+03  0.00000000000E+00 0.  1.
         11    1    1    2    0    0  0.84777287522E+01  0.42617439303E+02 -0.11996652928E+03  0.12759344091E+03  0.00000000000E+00 0. -1.
</event>
<event>
 6    1  0.6447971E-006  0.1524252E+03  0.7561462E-02  0.1197524E+00
         -2   -1    0    0    0  501 -0.00000000000E+00  0.00000000000E+00  0.50054802973E+02  0.50054802973E+02  0.00000000000E+00 0. -1.
          2   -1    0    0  501    0  0.00000000000E+00 -0.00000000000E+00 -0.75158734290E+03  0.75158734290E+03  0.00000000000E+00 0.  1.
          5    1    1    2  502    0  0.77115886042E+02 -0.71236542423E+02 -0.69278741604E+02  0.12585118710E+03  0.41800000000E+01 0.  1.
         -5    1    1    2    0  502 -0.48742834702E+02 -0.38189276358E+02 -0.63121164623E+02  0.88521401858E+02  0.41800000000E+01 0.  1.
        -11    1    1    2    0    0  0.92186146964E+01 -0.93550721125E+01 -0.18314002475E+02  0.22536701574E+02  0.00000000000E+00 0. -1.
         11    1    1    2    0    0 -0.37591666036E+02  0.11878089089E+03 -0.55081863122E+03  0.56473285534E+03  0.00000000000E+00 0.  1.
</event>
<event>
 6    1  0.6447971E-006  0.1448605E+03  0.7561462E-02  0.1206934E+00
         -2   -1    0    0    0  501 -0.00000000000E+00  0.00000000000E+00  0.31163394721E+02  0.31163394721E+02  0.00000000000E+00 0.  1.
          2   -1    0    0  501    0  0.00000000000E+00 -0.00000000000E+00 -0.89553475048E+03  0.89553475048E+03  0.00000000000E+00 0. -1.
          5    1    1    2  502    0  0.12071080720E+03 -0.70746597239E+02 -0.24003827150E+03  0.27787051693E+03  0.41800000000E+01 0.  1.
         -5    1    1    2    0  502 -0.11401348795E+02  0.24165160751E+02 -0.97823330313E+02  0.10149296578E+03  0.41800000000E+01 0.  1.
        -11    1    1    2    0    0 -0.22600057358E+02 -0.30262706422E+01 -0.17848481694E+02  0.28956678079E+02  0.00000000000E+00 0.  1.
         11    1    1    2    0    0 -0.86709401047E+02  0.49607707129E+02 -0.50866127225E+03  0.51837798441E+03  0.00000000000E+00 0. -1.
</event>
<event>
 6    1  0.6447971E-006  0.1383737E+03  0.7561462E-02  0.1215534E+00
         -2   -1    0    0    0  501 -0.00000000000E+00  0.00000000000E+00  0.56302537237E+02  0.56302537237E+02  0.00000000000E+00 0. -1.
          2   -1    0    0  501    0  0.00000000000E+00 -0.00000000000E+00 -0.42443790554E+03  0.42443790554E+03  0.00000000000E+00 0.  1.
          5    1    1    2  502    0 -0.24150844867E+02  0.48899603577E+01 -0.86004450292E+02  0.89562340803E+02  0.41800000000E+01 0. -1.
         -5    1    1    2    0  502  0.11509000924E+03  0.56020554074E+02 -0.12399785693E+03  0.17826091447E+03  0.41800000000E+01 0. -1.
        -11    1    1    2    0    0 -0.76873418638E+02 -0.18589762846E+02 -0.14704093287E+03  0.16696148572E+03  0.00000000000E+00 0.  1.
         11    1    1    2    0    0 -0.14065745733E+02 -0.42320751586E+02 -0.11092128210E+02  0.45955701780E+02  0.00000000000E+00 0. -1.
</event>
<event>
 6    1  0.6447971E-006  0.1189507E+03  0.7561462E-02  0.1244838E+00
         -2   -1    0    0    0  501 -0.00000000000E+00  0.00000000000E+00  0.45670207006E+02  0.45670207006E+02  0.00000000000E+00 0.  1.
          2   -1    0    0  501    0  0.00000000000E+00 -0.00000000000E+00 -0.32530369097E+03  0.32530369097E+03  0.00000000000E+00 0. -1.
          5    1    1    2  502    0  0.85312136855E+02 -0.31677138863E+02 -0.91855798277E+02  0.12936986472E+03  0.41800000000E+01 0. -1.
         -5    1    1    2    0  502 -0.41326222460E+02  0.88396180053E+01 -0.28414023255E+02  0.51096229086E+02  0.41800000000E+01 0. -1.
        -11    1    1    2    0    0 -0.27622775677E+02 -0.34793802647E+02 -0.64916794091E+02  0.78662675989E+02  0.00000000000E+00 0. -1.
         11    1    1    2    0    0 -0.16363138718E+02  0.57631323505E+02 -0.94446868336E+02  0.11184512817E+03  0.00000000000E+00 0.  1.
</event>
<event>
 6    1  0.6447971E-006  0.1455908E+03  0.7561462E-02  0.1205998E+00
         -2   -1    0    0    0  501 -0.00000000000E+00  0.00000000000E+00  0.41873763956E+02  0.41873763956E+02  0.00000000000E+00 0.  1.
          2   -1    0    0  501    0  0.00000000000E+00 -0.00000000000E+00 -0.60929632341E+03  0.60929632341E+03  0.00000000000E+00 0. -1.
          5    1    1    2  502    0  0.40335674158E+02  0.13716490444E+02 -0.17012576533E+02  0.46065267612E+02  0.41800000000E+01 0.  1.
         -5    1    1    2    0  502 -0.53021389421E+02  0.94281353203E+02 -0.19518696913E+03  0.22319423517E+03  0.41800000000E+01 0.  1.
        -11    1    1    2    0    0 -0.25786666875E+02 -0.96624515752E+02 -0.24584563663E+03  0.26540784894E+03  0.00000000000E+00 0.  1.
         11    1    1    2    0    0  0.38472382138E+02 -0.11373327895E+02 -0.10937737716E+03  0.11650273563E+03  0.00000000000E+00 0. -1.
</event>
<event>
 6    1  0.6447971E-006  0.1355955E+03  0.7561462E-02  0.1219382E+00
         -1   -1    0    0    0  501 -0.00000000000E+00  0.00000000000E+00  0.43083768976E+03  0.43083768976E+03  0.00000000000E+00 0.  1.
          1   -1    0    0  501    0  0.00000000000E+00 -0.00000000000E+00 -0.65422199131E+02  0.65422199131E+02  0.00000000000E+00 0. -1.
          5    1    1    2  502    0 -0.30403426590E+02 -0.81916146542E+02  0.67182895250E+02  0.11029794752E+03  0.41800000000E+01 0.  1.
         -5    1    1    2    0  502 -0.54864622654E+02 -0.58633977887E+01  0.21278327586E+03  0.21986064027E+03  0.41800000000E+01 0.  1.
        -11    1    1    2    0    0  0.34955973300E+02  0.63567392926E+02  0.82968717805E+02  0.11021134990E+03  0.00000000000E+00 0.  1.
         11    1    1    2    0    0  0.50312075943E+02  0.24212151405E+02  0.24806017187E+01  0.55889951210E+02  0.00000000000E+00 0. -1.
</event>
<event>
 6    1  0.6447971E-006  0.1038487E+03  0.7561462E-02  0.1272405E+00
          1   -1    0    0  501    0  0.00000000000E+00  0.00000000000E+00  0.71778740768E+02  0.71778740768E+02  0.00000000000E+00 0. -1.
         -1   -1    0    0    0  501 -0.00000000000E+00 -0.00000000000E+00 -0.24852651817E+03  0.24852651817E+03  0.00000000000E+00 0.  1.
          5    1    1    2  502    0 -0.28564391313E+02 -0.20988798141E+02 -0.51763480306E+01  0.36065510913E+02  0.41800000000E+01 0. -1.
         -5    1    1    2    0  502  0.23952287532E+02  0.67264796480E+02 -0.16782323592E+03  0.18242909811E+03  0.41800000000E+01 0. -1.
        -11    1    1    2    0    0 -0.29350346298E+02  0.13050418992E+02 -0.86800503043E+01  0.33273105310E+02  0.00000000000E+00 0.  1.
         11    1    1    2    0    0  0.33962450078E+02 -0.59326417332E+02  0.49318568486E+01  0.68537544607E+02  0.00000000000E+00 0. -1.
</event>
<event>
 6    1  0.6447971E-006  0.1643806E+03  0.7561462E-02  0.1183838E+00
          2   -1    0    0  501    0  0.00000000000E+00  0.00000000000E+00  0.63907457759E+03  0.63907457759E+03  0.00000000000E+00 0. -1.
         -2   -1    0    0    0  501 -0.00000000000E+00 -0.00000000000E+00 -0.10167488835E+03  0.10167488835E+03  0.00000000000E+00 0.  1.
          5    1    1    2  502    0  0.96207409312E+02  0.12797456455E+02  0.48496945529E+02  0.10857746831E+03  0.41800000000E+01 0.  1.
         -5    1    1    2    0  502  0.18286602107E+02  0.63941516800E+02 -0.40069193286E+02  0.77755578822E+02  0.41800000000E+01 0.  1.
        -11    1    1    2    0    0  0.12898357346E+02  0.47603642766E+01  0.64319397508E+02  0.65772437891E+02  0.00000000000E+00 0.  1.
         11    1    1    2    0    0 -0.12739236877E+03 -0.81499337532E+02  0.46465253949E+03  0.48864398092E+03  0.00000000000E+00 0. -1.
</event>
<event>
 6    1  0.6447971E-006  0.1346503E+03  0.7561462E-02  0.1220714E+00
          2   -1    0    0  501    0  0.00000000000E+00  0.00000000000E+00  0.24546012435E+03  0.24546012435E+03  0.00000000000E+00 0. -1.
         -2   -1    0    0    0  501 -0.00000000000E+00 -0.00000000000E+00 -0.23228699427E+03  0.23228699427E+03  0.00000000000E+00 0.  1.
          5    1    1    2  502    0  0.46622849152E+02  0.21338689426E+02 -0.17655380658E+02  0.54389471368E+02  0.41800000000E+01 0. -1.
         -5    1    1    2    0  502  0.41375822204E+02 -0.71045372765E+02 -0.16544309999E+03  0.18479257395E+03  0.41800000000E+01 0.  1.
        -11    1    1    2    0    0 -0.30703616328E+02 -0.26247717458E+02  0.62237623928E+02  0.74196877020E+02  0.00000000000E+00 0.  1.
         11    1    1    2    0    0 -0.57295055028E+02  0.75954400797E+02  0.13403398679E+03  0.16436819628E+03  0.00000000000E+00 0. -1.
</event>
<event>
 6    1  0.6447971E-006  0.1565592E+03  0.7561462E-02  0.1192637E+00
         -2   -1    0    0    0  501 -0.00000000000E+00  0.00000000000E+00  0.24597791097E+02  0.24597791097E+02  0.00000000000E+00 0.  1.
          2   -1    0    0  501    0  0.00000000000E+00 -0.00000000000E+00 -0.11516393709E+04  0.11516393709E+04  0.00000000000E+00 0. -1.
          5    1    1    2  502    0  0.68274101474E+02  0.98832110557E+02 -0.25719322027E+03  0.28389252185E+03  0.41800000000E+01 0.  1.
         -5    1    1    2    0  502 -0.45874484200E+02  0.13727039610E+02 -0.14138644543E+03  0.14933351689E+03  0.41800000000E+01 0.  1.
        -11    1    1    2    0    0 -0.35287548160E+02 -0.39738955823E+01 -0.13707462037E+03  0.14159962729E+03  0.00000000000E+00 0.  1.
         11    1    1    2    0    0  0.12887930886E+02 -0.10858525458E+03 -0.59138729373E+03  0.60141149595E+03  0.00000000000E+00 0. -1.
</event>
<event>
 6    1  0.6447971E-006  0.1168926E+03  0.7561462E-02  0.1248313E+00
         -2   -1    0    0    0  501 -0.00000000000E+00  0.00000000000E+00  0.50882563029E+02  0.50882563029E+02  0.00000000000E+00 0.  1.
          2   -1    0    0  501    0  0.00000000000E+00 -0.00000000000E+00 -0.34365663744E+03  0.34365663744E+03  0.00000000000E+00 0. -1.
          5    1    1    2  502    0  0.54126140884E+02  0.36554000834E+02 -0.38064569606E+02  0.75711412371E+02  0.41800000000E+01 0. -1.
         -5    1    1    2    0  502 -0.13786545867E+02 -0.68169592654E+02 -0.45924190562E+02  0.83448582303E+02  0.41800000000E+01 0. -1.
        -11    1    1    2    0    0 -0.82642131542E+01 -0.28961816661E+02 -0.11705561030E+03  0.12086810971E+03  0.00000000000E+00 0. -1.
         11    1    1    2    0    0 -0.32075381862E+02  0.60577408481E+02 -0.91729703942E+02  0.11451109608E+03  0.00000000000E+00 0.  1.
</event>
<event>
 6    1  0.6447971E-006  0.7835122E+02  0.7561462E-02  0.1333797E+00
         -1   -1    0    0    0  501 -0.00000000000E+00  0.00000000000E+00  0.62749406442E+02  0.62749406442E+02  0.00000000000E+00 0.  1.
          1   -1    0    0  501    0  0.00000000000E+00 -0.00000000000E+00 -0.27281860810E+03  0.27281860810E+03  0.00000000000E+00 0. -1.
          5    1    1    2  502    0  0.29985378931E+01  0.44897510098E+02  0.37442685799E+02  0.58687347549E+02  0.41800000000E+01 0.  1.
         -5    1    1    2    0  502  0.65646776216E+01 -0.85712610538E+01 -0.76870216312E+02  0.77737147260E+02  0.41800000000E+01 0.  1.
        -11    1    1    2    0    0 -0.49035727680E+02 -0.45239415045E+01 -0.10695236425E+03  0.11774454066E+03  0.00000000000E+00 0. -1.
         11    1    1    2    0    0  0.39472512165E+02 -0.31802307540E+02 -0.63689306889E+02  0.81398979069E+02  0.00000000000E+00 0.  1.
</event>
<event>
 6    1  0.6447971E-006  0.1734939E+03  0.7561462E-02  0.1174252E+00
         -2   -1    0    0    0  501 -0.00000000000E+00  0.00000000000E+00  0.80885776033E+02  0.80885776033E+02  0.00000000000E+00 0.  1.
          2   -1    0    0  501    0  0.00000000000E+00 -0.00000000000E+00 -0.52219055146E+03  0.52219055146E+03  0.00000000000E+00 0. -1.
          5    1    1    2  502    0 -0.21462823527E+02  0.11965418063E+02 -0.18439564582E+03  0.18607270251E+03  0.41800000000E+01 0.  1.
         -5    1    1    2    0  502 -0.13575239778E+03  0.29374582734E+02 -0.13652841015E+03  0.19480518164E+03  0.41800000000E+01 0.  1.
        -11    1    1    2    0    0  0.15338819973E+03 -0.12373099452E+02 -0.11587492504E+03  0.19263445087E+03  0.00000000000E+00 0. -1.
         11    1    1    2    0    0  0.38270215759E+01 -0.28966901345E+02 -0.45057944107E+01  0.29563992473E+02  0.00000000000E+00 0.  1.
</event>
<event>
 6    1  0.6447971E-006  0.1021895E+03  0.7561462E-02  0.1275758E+00
         -1   -1    0    0    0  501 -0.00000000000E+00  0.00000000000E+00  0.16756382795E+02  0.16756382795E+02  0.00000000000E+00 0.  1.
          1   -1    0    0  501    0  0.00000000000E+00 -0.00000000000E+00 -0.88011732270E+03  0.88011732270E+03  0.00000000000E+00 0. -1.
          5    1    1    2  502    0  0.44901075061E+02 -0.62131086091E+02 -0.37740641182E+03  0.38513562609E+03  0.41800000000E+01 0.  1.
         -5    1    1    2    0  502 -0.11358895423E+02  0.30054605800E+02 -0.32310647187E+02  0.45757558465E+02  0.41800000000E+01 0.  1.
        -11    1    1    2    0    0  0.27788716627E+02  0.53165660114E+01 -0.55952465171E+02  0.62698939422E+02  0.00000000000E+00 0.  1.
         11    1    1    2    0    0 -0.61330896265E+02  0.26759914279E+02 -0.39769141573E+03  0.40328158152E+03  0.00000000000E+00 0. -1.
</event>
<event>
 6    1  0.6447971E-006  0.9881528E+02  0.7561462E-02  0.1282807E+00
         -1   -1    0    0    0  501 -0.00000000000E+00  0.00000000000E+00  0.30276379305E+02  0.30276379305E+02  0.00000000000E+00 0.  1.
          1   -1    0    0  501    0  0.00000000000E+00 -0.00000000000E+00 -0.59827737269E+03  0.59827737269E+03  0.00000000000E+00 0. -1.
          5    1    1    2  502    0 -0.34657190526E+02 -0.59157536017E+02 -0.62825210731E+02  0.93087133516E+02  0.41800000000E+01 0. -1.
         -5    1    1    2    0  502 -0.32509703125E+02  0.20177742454E+02 -0.24655906855E+03  0.24954532409E+03  0.41800000000E+01 0. -1.
        -11    1    1    2    0    0  0.28027594104E+02  0.42763003961E+02 -0.43173725527E+02  0.66919288064E+02  0.00000000000E+00 0.  1.
         11    1    1    2    0    0  0.39139299547E+02 -0.37832103976E+01 -0.21544298857E+03  0.21900200633E+03  0.00000000000E+00 0. -1.
</event>
<event>
 6    1  0.6447971E-006  0.7352415E+02  0.7561462E-02  0.1348503E+00
          1   -1    0    0  501    0  0.00000000000E+00  0.00000000000E+00  0.49202330014E+02  0.49202330014E+02  0.00000000000E+00 0. -1.
         -1   -1    0    0    0  501 -0.00000000000E+00 -0.00000000000E+00 -0.38902340745E+03  0.38902340745E+03  0.00000000000E+00 0.  1.
          5    1    1    2  502    0 -0.29022691260E+02 -0.20274214193E+02  0.28310225182E+01  0.35760976743E+02  0.41800000000E+01 0. -1.
         -5    1    1    2    0  502 -0.18825170938E+02 -0.20241938520E+01 -0.27852842651E+03  0.27920250929E+03  0.41800000000E+01 0.  1.
        -11    1    1    2    0    0  0.34693236625E+02  0.50281645548E+02 -0.68780589132E+02  0.91992575722E+02  0.00000000000E+00 0. -1.
         11    1    1    2    0    0  0.13154625573E+02 -0.27983237503E+02  0.46569156861E+01  0.31269675707E+02  0.00000000000E+00 0.  1.
</event>
<event>
 6    1  0.6447971E-006  0.1360604E+03  0.7561462E-02  0.1218731E+00
         -1   -1    0    0    0  501 -0.00000000000E+00  0.00000000000E+00  0.60745921472E+02  0.60745921472E+02  0.00000000000E+00 0.  1.
          1   -1    0    0  501    0  0.00000000000E+00 -0.00000000000E+00 -0.32588013773E+03  0.32588013773E+03  0.00000000000E+00 0. -1.
          5    1    1    2  502    0  0.43254415742E+02  0.38572189166E+02 -0.56041226402E+02  0.80727007345E+02  0.41800000000E+01 0. -1.
         -5    1    1    2    0  502  0.27348550506E+02 -0.89379088791E+02 -0.66268233515E+02  0.11465389614E+03  0.41800000000E+01 0. -1.
        -11    1    1    2    0    0 -0.81793571367E+02  0.15285079737E+02 -0.67233805105E+02  0.10697759826E+03  0.00000000000E+00 0.  1.
         11    1    1    2    0    0  0.11190605119E+02  0.35521819888E+02 -0.75590951233E+02  0.84267557455E+02  0.00000000000E+00 0. -1.
</event>
<event>
 6    1  0.6447971E-006  0.1273271E+03  0.7561462E-02  0.1231477E+00
         -2   -1    0    0    0  501 -0.00000000000E+00  0.00000000000E+00  0.64880594021E+02  0.64880594021E+02  0.00000000000E+00 0.  1.
          2   -1    0    0  501    0  0.00000000000E+00 -0.00000000000E+00 -0.45299740394E+03  0.45299740394E+03  0.00000000000E+00 0. -1.
          5    1    1    2  502    0  0.17152527302E+02 -0.43371725298E+02 -0.88265887389E+02  0.99918241701E+02  0.41800000000E+01 0. -1.
         -5    1    1    2    0  502 -0.57091800698E+02 -0.46513382769E+02  0.14997220550E+02  0.75268569189E+02  0.41800000000E+01 0. -1.
        -11    1    1    2    0    0  0.56168914838E+02  0.15974858563E+02 -0.11456338591E+03  0.12858815066E+03  0.00000000000E+00 0. -1.
         11    1    1    2    0    0 -0.16229641443E+02  0.73910249503E+02 -0.20028475717E+03  0.21410303640E+03  0.00000000000E+00 0.  1.
</event>
<event>
 6    1  0.6447971E-006  0.1097202E+03  0.7561462E-02  0.1261089E+00
         -2   -1    0    0    0  501 -0.00000000000E+00  0.00000000000E+00  0.31963769987E+02  0.31963769987E+02  0.00000000000E+00 0. -1.
          2   -1    0    0  501    0  0.00000000000E+00 -0.00000000000E+00 -0.45063437697E+03  0.45063437697E+03  0.00000000000E+00 0.  1.
          5    1    1    2  502    0  0.34279574057E+02  0.30921967769E+02 -0.33364012886E+02  0.57112932372E+02  0.41800000000E+01 0. -1.
         -5    1    1    2    0  502 -0.64844368446E+02 -0.44420646183E+02 -0.12123609715E+03  0.14454635789E+03  0.41800000000E+01 0. -1.
        -11    1    1    2    0    0  0.15023060007E+02 -0.37851746014E+02 -0.13909797619E+03  0.14493686208E+03  0.00000000000E+00 0.  1.
         11    1    1    2    0    0  0.15541734382E+02  0.51350424427E+02 -0.12497252075E+03  0.13600199462E+03  0.00000000000E+00 0. -1.
</event>
<event>
 6    1  0.6447971E-006  0.1310854E+03  0.7561462E-02  0.1225854E+00
         -1   -1    0    0    0  501 -0.00000000000E+00  0.00000000000E+00  0.12025319459E+03  0.12025319459E+03  0.00000000000E+00 0.  1.
          1   -1    0    0  501    0  0.00000000000E+00 -0.00000000000E+00 -0.19583888215E+03  0.19583888215E+03  0.00000000000E+00 0. -1.
          5    1    1    2  502    0 -0.61178492877E+02  0.10934775980E+03 -0.61810419246E+01  0.12552058892E+03  0.41800000000E+01 0.  1.
         -5    1    1    2    0  502  0.16536874634E+02 -0.23435627324E+02  0.15668145610E+02  0.32949355647E+02  0.41800000000E+01 0.  1.
        -11    1    1    2    0    0 -0.10192267583E+02 -0.15917601535E+02  0.14724992373E+02  0.23959919814E+02  0.00000000000E+00 0.  1.
         11    1    1    2    0    0  0.54833885826E+02 -0.69994530941E+02 -0.99797783623E+02  0.13366221236E+03  0.00000000000E+00 0. -1.
</event>
<event>
 6    1  0.6447971E-006  0.1336228E+03  0.7561462E-02  0.1222177E+00
          2   -1    0    0  501    0  0.00000000000E+00  0.00000000000E+00  0.72005838213E+02  0.72005838213E+02  0.00000000000E+00 0. -1.
         -2   -1    0    0    0  501 -0.00000000000E+00 -0.00000000000E+00 -0.32607455017E+03  0.32607455017E+03  0.00000000000E+00 0.  1.
          5    1    1    2  502    0  0.74041139183E+02 -0.43886526514E+02 -0.51008791121E+02  0.10013733905E+03  0.41800000000E+01 0. -1.
         -5    1    1    2    0  502  0.19684990232E+02  0.46926601547E+02 -0.14580911338E+03  0.15449069460E+03  0.41800000000E+01 0.  1.
        -11    1    1    2    0    0 -0.98002957288E+01  0.36102604064E+02 -0.26617050850E+02  0.45911994212E+02  0.00000000000E+00 0.  1.
         11    1    1    2    0    0 -0.83925833686E+02 -0.39142679098E+02 -0.30633756611E+02  0.97540360523E+02  0.00000000000E+00 0. -1.
</event>
<event>
 6    1  0.6447971E-006  0.1096252E+03  0.7561462E-02  0.1261266E+00
         -1   -1    0    0    0  501 -0.00000000000E+00  0.00000000000E+00  0.75183679253E+02  0.75183679253E+02  0.00000000000E+00 0.  1.
          1   -1    0    0  501    0  0.00000000000E+00 -0.00000000000E+00 -0.27413069106E+03  0.27413069106E+03  0.00000000000E+00 0. -1.
          5    1    1    2  502    0 -0.37790609329E+02  0.63341266162E+02 -0.33643222685E+02  0.81176258753E+02  0.41800000000E+01 0.  1.
         -5    1    1    2    0  502  0.41585206986E+02 -0.17705806108E+02  0.25899330576E+02  0.52259666419E+02  0.41800000000E+01 0.  1.
        -11    1    1    2    0    0 -0.73776495350E+01  0.26628064557E+02 -0.46356242398E+02  0.53966515025E+02  0.00000000000E+00 0.  1.
         11    1    1    2    0    0  0.35830518783E+01 -0.72263524611E+02 -0.14484687730E+03  0.16191193011E+03  0.00000000000E+00 0. -1.
</event>
<event>
 6    1  0.6447971E-006  0.1396838E+03  0.7561462E-02  0.1213755E+00
          2   -1    0    0  501    0  0.00000000000E+00  0.00000000000E+00  0.63934899027E+03  0.63934899027E+03  0.00000000000E+00 0. -1.
         -2   -1    0    0    0  501 -0.00000000000E+00 -0.00000000000E+00 -0.47590823362E+02  0.47590823362E+02  0.00000000000E+00 0.  1.
          5    1    1    2  502    0  0.12412172863E+03  0.10793085330E+02  0.22759746300E+03  0.25950100534E+03  0.41800000000E+01 0. -1.
         -5    1    1    2    0  502  0.17401187354E+01 -0.23157605660E+01 -0.15997430185E+02  0.16786331724E+02  0.41800000000E+01 0. -1.
        -11    1    1    2    0    0 -0.50076891329E+02 -0.43317061555E+02  0.11516411476E+03  0.13284139489E+03  0.00000000000E+00 0. -1.
         11    1    1    2    0    0 -0.75784956039E+02  0.34839736791E+02  0.26499401933E+03  0.27781108168E+03  0.00000000000E+00 0.  1.
</event>
<event>
 6    1  0.6447971E-006  0.2028818E+03  0.7561462E-02  0.1147330E+00
          3   -1    0    0  501    0  0.00000000000E+00  0.00000000000E+00  0.29152653586E+03  0.29152653586E+03  0.00000000000E+00 0. -1.
         -3   -1    0    0    0  501 -0.00000000000E+00 -0.00000000000E+00 -0.15092936307E+03  0.15092936307E+03  0.00000000000E+00 0.  1.
          5    1    1    2  502    0  0.75476979979E+02 -0.64202743910E+02 -0.33690187219E+01  0.99235021638E+02  0.41800000000E+01 0. -1.
         -5    1    1    2    0  502  0.10159747788E+03  0.42908266247E+02  0.61001997154E+02  0.12610266801E+03  0.41800000000E+01 0. -1.
        -11    1    1    2    0    0 -0.23705699323E+02 -0.26519973957E+02 -0.15306414359E+01  0.35603540025E+02  0.00000000000E+00 0.  1.
         11    1    1    2    0    0 -0.15336875853E+03  0.47814451620E+02  0.84494835791E+02  0.18151466925E+03  0.00000000000E+00 0. -1.
</event>
<event>
 6    1  0.6447971E-006  0.7403414E+02  0.7561462E-02  0.1346888E+00
         -3   -1    0    0    0  501 -0.00000000000E+00  0.00000000000E+00  0.47506289086E+02  0.47506289086E+02  0.00000000000E+00 0.  1.
          3   -1    0    0  501    0  0.00000000000E+00 -0.00000000000E+00 -0.31534015115E+03  0.31534015115E+03  0.00000000000E+00 0. -1.
          5    1    1    2  502    0 -0.20860815144E+02  0.47027170093E+01 -0.12648710748E+03  0.12835010680E+03  0.41800000000E+01 0.  1.
         -5    1    1    2    0  502 -0.67094627192E+01  0.32864846069E+02  0.22716877891E+02  0.40726452562E+02  0.41800000000E+01 0.  1.
        -11    1    1    2    0    0 -0.16916987558E+02 -0.44358158060E+02 -0.40972913898E+02  0.62710528046E+02  0.00000000000E+00 0.  1.
         11    1    1    2    0    0  0.44487265422E+02  0.67905949817E+01 -0.12309071857E+03  0.13105935283E+03  0.00000000000E+00 0. -1.
</event>
<event>
 6    1  0.6447971E-006  0.8119449E+02  0.7561462E-02  0.1325695E+00
         -1   -1    0    0    0  501 -0.00000000000E+00  0.00000000000E+00  0.19458544444E+02  0.19458544444E+02  0.00000000000E+00 0.  1.
          1   -1    0    0  501    0  0.00000000000E+00 -0.00000000000E+00 -0.66337127582E+03  0.66337127582E+03  0.00000000000E+00 0. -1.
          5    1    1    2  502    0 -0.68465666117E+01  0.44458623334E+02 -0.33504649171E+03  0.33807849484E+03  0.41800000000E+01 0. -1.
         -5    1    1    2    0  502 -0.17831770631E+02 -0.22676472957E+02 -0.10664246570E+02  0.31038573171E+02  0.41800000000E+01 0. -1.
        -11    1    1    2    0    0  0.54841488593E+02 -0.17689775952E+02 -0.12228764094E+03  0.13518426007E+03  0.00000000000E+00 0.  1.
         11    1    1    2    0    0 -0.30163151351E+02 -0.40923744251E+01 -0.17591435215E+03  0.17852849218E+03  0.00000000000E+00 0. -1.
</event>
<event>
 6    1  0.6447971E-006  0.1493387E+03  0.7561462E-02  0.1201288E+00
         -2   -1    0    0    0  501 -0.00000000000E+00  0.00000000000E+00  0.23797104807E+03  0.23797104807E+03  0.00000000000E+00 0.  1.
          2   -1    0    0  501    0  0.00000000000E+00 -0.00000000000E+00 -0.14057981427E+03  0.14057981427E+03  0.00000000000E+00 0. -1.
          5    1    1    2  502    0 -0.89251016101E+02  0.66237761209E+02 -0.24946004158E+02  0.11398666768E+03  0.41800000000E+01 0. -1.
         -5    1    1    2    0  502  0.16567470976E+02 -0.72271476604E+02  0.13111005687E+03  0.15068167386E+03  0.41800000000E+01 0.  1.
        -11    1    1    2    0    0 -0.20165868857E+02  0.39748163715E+00 -0.50270416616E+01  0.20786808467E+02  0.00000000000E+00 0.  1.
         11    1    1    2    0    0  0.92849413982E+02  0.56362337584E+01 -0.37457772482E+01  0.93095712334E+02  0.00000000000E+00 0. -1.
</event>
<event>
 6    1  0.6447971E-006  0.1152820E+03  0.7561462E-02  0.1251090E+00
          2   -1    0    0  501    0  0.00000000000E+00  0.00000000000E+00  0.18750029903E+03  0.18750029903E+03  0.00000000000E+00 0. -1.
         -2   -1    0    0    0  501 -0.00000000000E+00 -0.00000000000E+00 -0.11518382824E+03  0.11518382824E+03  0.00000000000E+00 0.  1.
          5    1    1    2  502    0  0.76325193603E+02 -0.67499773820E+02  0.99233384350E+01  0.10245828268E+03  0.41800000000E+01 0.  1.
         -5    1    1    2    0  502 -0.27559630484E+02  0.92480158912E+01 -0.35578280180E+02  0.46133994526E+02  0.41800000000E+01 0.  1.
        -11    1    1    2    0    0 -0.42982388235E+02  0.23799892809E+01  0.86704120956E+02  0.96802658218E+02  0.00000000000E+00 0. -1.
         11    1    1    2    0    0 -0.57831748842E+01  0.55871768648E+02  0.11267291578E+02  0.57289191853E+02  0.00000000000E+00 0.  1.
</event>
<event>
 6    1  0.6447971E-006  0.1450588E+03  0.7561462E-02  0.1206680E+00
         -2   -1    0    0    0  501 -0.00000000000E+00  0.00000000000E+00  0.45193391606E+02  0.45193391606E+02  0.00000000000E+00 0.  1.
          2   -1    0    0  501    0  0.00000000000E+00 -0.00000000000E+00 -0.58588658447E+03  0.58588658447E+03  0.00000000000E+00 0. -1.
          5    1    1    2  502    0 -0.65235627475E+02  0.70298722028E+02 -0.80516258737E+02  0.12529141125E+03  0.41800000000E+01 0. -1.
         -5    1    1    2    0  502 -0.36899501290E+02 -0.42692605091E+02 -0.61315396334E+02  0.83434297220E+02  0.41800000000E+01 0.  1.
        -11    1    1    2    0    0  0.10082288528E+03  0.87106480743E+01 -0.31770086885E+03  0.33342911039E+03  0.00000000000E+00 0. -1.
         11    1    1    2    0    0  0.13122434843E+01 -0.36316765012E+02 -0.81160668936E+02  0.88925157217E+02  0.00000000000E+00 0.  1.
</event>
<event>
 6    1  0.6447971E-006  0.1092677E+03  0.7561462E-02  0.1261932E+00
          1   -1    0    0  501    0  0.00000000000E+00  0.00000000000E+00  0.27710969206E+02  0.27710969206E+02  0.00000000000E+00 0. -1.
         -1   -1    0    0    0  501 -0.00000000000E+00 -0.00000000000E+00 -0.49588805961E+03  0.49588805961E+03  0.00000000000E+00 0.  1.
          5    1    1    2  502    0  0.35207035120E+02 -0.46694603767E+02 -0.64993283253E+02  0.87530112595E+02  0.41800000000E+01 0.  1.
         -5    1    1    2    0  502 -0.46547954135E+02  0.30776408969E+02 -0.17619889051E+03  0.18487136285E+03  0.41800000000E+01 0.  1.
        -11    1    1    2    0    0  0.47617912919E+02 -0.21130205312E+02 -0.81287672806E+02  0.96548624835E+02  0.00000000000E+00 0. -1.
         11    1    1    2    0    0 -0.36276993905E+02  0.37048400110E+02 -0.14569724383E+03  0.15464892854E+03  0.00000000000E+00 0.  1.
</event>
<event>
 6    1  0.6447971E-006  0.1683825E+03  0.7561462E-02  0.1179545E+00
          2   -1    0    0  501    0  0.00000000000E+00  0.00000000000E+00  0.40910726789E+03  0.40910726789E+03  0.00000000000E+00 0. -1.
         -2   -1    0    0    0  501 -0.00000000000E+00 -0.00000000000E+00 -0.83733013425E+02  0.83733013425E+02  0.00000000000E+00 0.  1.
          5    1    1    2  502    0  0.32885175958E+02  0.21896307192E+01  0.21806086515E+02  0.39739238663E+02  0.41800000000E+01 0.  1.
         -5    1    1    2    0  502 -0.99065605145E+02  0.93639990628E+02  0.42045009399E+02  0.14271544129E+03  0.41800000000E+01 0.  1.
        -11    1    1    2    0    0  0.10157008250E+03 -0.71759343939E+02  0.19344570317E+03  0.22997200955E+03  0.00000000000E+00 0. -1.
         11    1    1    2    0    0 -0.35389653316E+02 -0.24070277408E+02  0.68077455379E+02  0.80413591806E+02  0.00000000000E+00 0.  1.
</event>
<event>
 6    1  0.6447971E-006  0.2120364E+03  0.7561462E-02  0.1139963E+00
          2   -1    0    0  501    0  0.00000000000E+00  0.00000000000E+00  0.91960411765E+03  0.91960411765E+03  0.00000000000E+00 0. -1.
         -2   -1    0    0    0  501 -0.00000000000E+00 -0.00000000000E+00 -0.63764492873E+02  0.63764492873E+02  0.00000000000E+00 0.  1.
          5    1    1    2  502    0 -0.49196340054E+02 -0.33751757881E+02  0.94855081136E+02  0.11213572068E+03  0.41800000000E+01 0.  1.
         -5    1    1    2    0  502 -0.13233148547E+03  0.10073094219E+03  0.14867836726E+03  0.22311672741E+03  0.41800000000E+01 0.  1.
        -11    1    1    2    0    0  0.79532289928E+02 -0.76265526223E+01  0.13905650782E+03  0.16037537782E+03  0.00000000000E+00 0.  1.
         11    1    1    2    0    0  0.10199553559E+03 -0.59352631691E+02  0.47324966857E+03  0.48774078461E+03  0.00000000000E+00 0. -1.
</event>
<event>
 6    1  0.6447971E-006  0.1608465E+03  0.7561462E-02  0.1187744E+00
         -1   -1    0    0    0  501 -0.00000000000E+00  0.00000000000E+00  0.57308721353E+02  0.57308721353E+02  0.00000000000E+00 0.  1.
          1   -1    0    0  501    0  0.00000000000E+00 -0.00000000000E+00 -0.50376360690E+03  0.50376360690E+03  0.00000000000E+00 0. -1.
          5    1    1    2  502    0 -0.98071693396E+02  0.10386199916E+03 -0.22371750220E+03  0.26546631633E+03  0.41800000000E+01 0.  1.
         -5    1    1    2    0  502 -0.10846350849E+02 -0.33661793506E+02 -0.36435903957E+02  0.50949064426E+02  0.41800000000E+01 0.  1.
        -11    1    1    2    0    0  0.45376212872E+02  0.39179880355E+01 -0.11521723837E+03  0.12389254757E+03  0.00000000000E+00 0. -1.
         11    1    1    2    0    0  0.63541831373E+02 -0.74118193688E+02 -0.71084241024E+02  0.12076439994E+03  0.00000000000E+00 0.  1.
</event>
<event>
 6    1  0.6447971E-006  0.1138542E+03  0.7561462E-02  0.1253595E+00
         -1   -1    0    0    0  501 -0.00000000000E+00  0.00000000000E+00  0.10044299966E+03  0.10044299966E+03  0.00000000000E+00 0.  1.
          1   -1    0    0  501    0  0.00000000000E+00 -0.00000000000E+00 -0.17067136673E+03  0.17067136673E+03  0.00000000000E+00 0. -1.
          5    1    1    2  502    0 -0.68889981105E+01  0.93266311751E+02 -0.71262270155E+02  0.11765137802E+03  0.41800000000E+01 0. -1.
         -5    1    1    2    0  502  0.14949586848E+02 -0.21256242216E+02  0.22785468739E+02  0.34813330288E+02  0.41800000000E+01 0. -1.
        -11    1    1    2    0    0  0.34975373860E+02 -0.44884013754E+02 -0.34051066975E+02  0.66312341456E+02  0.00000000000E+00 0.  1.
         11    1    1    2    0    0 -0.43035962598E+02 -0.27126055781E+02  0.12299501320E+02  0.52337316626E+02  0.00000000000E+00 0. -1.
</event>
<event>
 6    1  0.6447971E-006  0.1330585E+03  0.7561462E-02  0.1222987E+00
         -1   -1    0    0    0  501 -0.00000000000E+00  0.00000000000E+00  0.11566522181E+03  0.11566522181E+03  0.00000000000E+00 0.  1.
          1   -1    0    0  501    0  0.00000000000E+00 -0.00000000000E+00 -0.20177929845E+03  0.20177929845E+03  0.00000000000E+00 0. -1.
          5    1    1    2  502    0  0.26969053249E+02 -0.47645825420E+02 -0.27542166807E+02  0.61428803224E+02  0.41800000000E+01 0.  1.
         -5    1    1    2    0  502  0.63949192594E+02  0.55274764811E+02  0.40837162271E+02  0.93967787463E+02  0.41800000000E+01 0.  1.
        -11    1    1    2    0    0 -0.43115457629E+02 -0.47630785147E+02 -0.62372178694E+02  0.89542855971E+02  0.00000000000E+00 0. -1.
         11    1    1    2    0    0 -0.47802788213E+02  0.40001845757E+02 -0.37036893403E+02  0.72505073601E+02  0.00000000000E+00 0.  1.
</event>
<event>
 6    1  0.6447971E-006  0.9303991E+02  0.7561462E-02  0.1295653E+00
          2   -1    0    0  501    0  0.00000000000E+00  0.00000000000E+00  0.17146953676E+03  0.17146953676E+03  0.00000000000E+00 0. -1.
         -2   -1    0    0    0  501 -0.00000000000E+00 -0.00000000000E+00 -0.75483485182E+02  0.75483485182E+02  0.00000000000E+00 0.  1.
          5    1    1    2  502    0  0.63596321869E+02 -0.15634846122E+02 -0.21852506770E+02  0.69166068420E+02  0.41800000000E+01 0. -1.
         -5    1    1    2    0  502 -0.28188549512E+02  0.29713701545E+02  0.49695695631E+02  0.64533967392E+02  0.41800000000E+01 0. -1.
        -11    1    1    2    0    0  0.18618882920E+02 -0.16956839063E+02 -0.13060541482E+01  0.25217116601E+02  0.00000000000E+00 0.  1.
         11    1    1    2    0    0 -0.54026655277E+02  0.28779836406E+01  0.69448916865E+02  0.88035869530E+02  0.00000000000E+00 0. -1.
</event>
<event>
 6    1  0.6447971E-006  0.1160680E+03  0.7561462E-02  0.1249728E+00
          1   -1    0    0  501    0  0.00000000000E+00  0.00000000000E+00  0.24456996729E+03  0.24456996729E+03  0.00000000000E+00 0. -1.
         -1   -1    0    0    0  501 -0.00000000000E+00 -0.00000000000E+00 -0.58409991136E+02  0.58409991136E+02  0.00000000000E+00 0.  1.
          5    1    1    2  502    0 -0.53823301646E+02 -0.45064465327E+02  0.44117213020E+02  0.83015388453E+02  0.41800000000E+01 0. -1.
         -5    1    1    2    0  502  0.62799002476E+02  0.16585602970E+02  0.29237780894E+02  0.71352064928E+02  0.41800000000E+01 0.  1.
        -11    1    1    2    0    0  0.31741517020E+02 -0.16733810530E+02  0.43443010153E+02  0.56345713668E+02  0.00000000000E+00 0.  1.
         11    1    1    2    0    0 -0.40717217851E+02  0.45212672888E+02  0.69361972089E+02  0.92266791378E+02  0.00000000000E+00 0. -1.
</event>
<event>
 6    1  0.6447971E-006  0.1873576E+03  0.7561462E-02  0.1160866E+00
         -1   -1    0    0    0  501 -0.00000000000E+00  0.00000000000E+00  0.10389721098E+03  0.10389721098E+03  0.00000000000E+00 0.  1.
          1   -1    0    0  501    0  0.00000000000E+00 -0.00000000000E+00 -0.37284838328E+03  0.37284838328E+03  0.00000000000E+00 0. -1.
          5    1    1    2  502    0  0.92419134297E+02 -0.76308399704E+02 -0.32847367486E+02  0.12434102380E+03  0.41800000000E+01 0.  1.
         -5    1    1    2    0  502 -0.12897803906E+02 -0.66751478174E+02 -0.99252328356E+02  0.12037695073E+03  0.41800000000E+01 0.  1.
        -11    1    1    2    0    0 -0.96183988261E+02  0.13980971047E+03 -0.11820382917E+03  0.20680971924E+03  0.00000000000E+00 0.  1.
         11    1    1    2    0    0  0.16662657870E+02  0.32501674062E+01 -0.18647647286E+02  0.25217900483E+02  0.00000000000E+00 0. -1.
</event>
<event>
 6    1  0.6447971E-006  0.1003302E+03  0.7561462E-02  0.1279603E+00
         -1   -1    0    0    0  501 -0.00000000000E+00  0.00000000000E+00  0.60648102826E+02  0.60648102826E+02  0.00000000000E+00 0.  1.
          1   -1    0    0  501    0  0.00000000000E+00 -0.00000000000E+00 -0.22803511648E+03  0.22803511648E+03  0.00000000000E+00 0. -1.
          5    1    1    2  502    0 -0.29832950242E+02  0.69077531489E+02 -0.12122503143E+02  0.76329140957E+02  0.41800000000E+01 0.  1.
         -5    1    1    2    0  502  0.29762678827E+02 -0.26369251889E+02 -0.66170259680E+02  0.77311901815E+02  0.41800000000E+01 0.  1.
        -11    1    1    2    0    0 -0.33203737579E+02 -0.39923742086E+02 -0.15441455526E+02  0.54174089010E+02  0.00000000000E+00 0. -1.
         11    1    1    2    0    0  0.33274008994E+02 -0.27845375149E+01 -0.73652795305E+02  0.80868087525E+02  0.00000000000E+00 0.  1.
</event>
<event>
 6    1  0.6447971E-006  0.2123686E+03  0.7561462E-02  0.1139704E+00
          2   -1    0    0  501    0  0.00000000000E+00  0.00000000000E+00  0.15541393067E+04  0.15541393067E+04  0.00000000000E+00 0.  1.
         -2   -1    0    0    0  501 -0.00000000000E+00 -0.00000000000E+00 -0.35361597542E+02  0.35361597542E+02  0.00000000000E+00 0. -1.
          5    1    1    2  502    0  0.16117191971E+02 -0.23421725772E+02  0.78685280424E+02  0.83768650882E+02  0.41800000000E+01 0. -1.
         -5    1    1    2    0  502  0.10646335280E+03  0.16017924451E+03  0.38193875842E+03  0.42765233946E+03  0.41800000000E+01 0. -1.
        -11    1    1    2    0    0 -0.33661897897E+02 -0.10325162876E+03  0.65010638569E+03  0.65911481164E+03  0.00000000000E+00 0.  1.
         11    1    1    2    0    0 -0.88918646874E+02 -0.33505889970E+02  0.40804728467E+03  0.41896510231E+03  0.00000000000E+00 0. -1.
</event>
<event>
 6    1  0.6447971E-006  0.1107690E+03  0.7561462E-02  0.1259152E+00
          1   -1    0    0  501    0  0.00000000000E+00  0.00000000000E+00  0.12110255092E+04  0.12110255092E+04  0.00000000000E+00 0. -1.
         -1   -1    0    0    0  501 -0.00000000000E+00 -0.00000000000E+00 -0.13229891843E+02  0.13229891843E+02  0.00000000000E+00 0.  1.
          5    1    1    2  502    0  0.86345739084E+02  0.16890988524E+02  0.32070080581E+03  0.33257686540E+03  0.41800000000E+01 0. -1.
         -5    1    1    2    0  502 -0.25136386542E+02 -0.37080879299E+01  0.44873751293E+03  0.44947571209E+03  0.41800000000E+01 0. -1.
        -11    1    1    2    0    0 -0.62505809406E+02  0.26579983045E+02  0.22661576103E+03  0.23657593888E+03  0.00000000000E+00 0. -1.
         11    1    1    2    0    0  0.12964568632E+01 -0.39762883639E+02  0.20174153756E+03  0.20562688466E+03  0.00000000000E+00 0.  1.
</event>
<event>
 6    1  0.6447971E-006  0.1359645E+03  0.7561462E-02  0.1218864E+00
         -1   -1    0    0    0  501 -0.00000000000E+00  0.00000000000E+00  0.43048505544E+02  0.43048505544E+02  0.00000000000E+00 0. -1.
          1   -1    0    0  501    0  0.00000000000E+00 -0.00000000000E+00 -0.60903380916E+03  0.60903380916E+03  0.00000000000E+00 0.  1.
          5    1    1    2  502    0  0.84245503217E+00  0.90252229201E+02 -0.27814412794E+03  0.29245136846E+03  0.41800000000E+01 0. -1.
         -5    1    1    2    0  502  0.52890985788E+02  0.17402280505E+02 -0.35954903642E+02  0.66411770345E+02  0.41800000000E+01 0. -1.
        -11    1    1    2    0    0 -0.55545006795E+02 -0.76533219163E+02 -0.24307808119E+03  0.26082472078E+03  0.00000000000E+00 0.  1.
         11    1    1    2    0    0  0.18115659746E+01 -0.31121290543E+02 -0.88081908393E+01  0.32394455115E+02  0.00000000000E+00 0. -1.
</event>
<event>
 6    1  0.6447971E-006  0.1107286E+03  0.7561462E-02  0.1259227E+00
         -2   -1    0    0    0  501 -0.00000000000E+00  0.00000000000E+00  0.31647175068E+03  0.31647175068E+03  0.00000000000E+00 0.  1.
          2   -1    0    0  501    0  0.00000000000E+00 -0.00000000000E+00 -0.78331347130E+02  0.78331347130E+02  0.00000000000E+00 0. -1.
          5    1    1    2  502    0 -0.74896337142E+02  0.94505152074E+01  0.19886260763E+03  0.21275004740E+03  0.41800000000E+01 0. -1.
         -5    1    1    2    0  502 -0.19627231978E+02 -0.39418032023E+02  0.26282479043E+01  0.44310152005E+02  0.41800000000E+01 0. -1.
        -11    1    1    2    0    0  0.58869523798E+02  0.71814022296E+01  0.64083075701E+02  0.87314569011E+02  0.00000000000E+00 0.  1.
         11    1    1    2    0    0  0.35654045321E+02  0.22786114586E+02 -0.27433527676E+02  0.50428329404E+02  0.00000000000E+00 0. -1.
</event>
<event>
 6    1  0.6447971E-006  0.1031698E+03  0.7561462E-02  0.1273768E+00
          2   -1    0    0  501    0  0.00000000000E+00  0.00000000000E+00  0.24505860743E+02  0.24505860743E+02  0.00000000000E+00 0. -1.
         -2   -1    0    0    0  501 -0.00000000000E+00 -0.00000000000E+00 -0.74593357727E+03  0.74593357727E+03  0.00000000000E+00 0.  1.
          5    1    1    2  502    0  0.32629917467E+02 -0.13483844549E+02 -0.40501901991E+03  0.40657644357E+03  0.41800000000E+01 0.  1.
         -5    1    1    2    0  502  0.32291019710E+02  0.48539680483E+02 -0.75931966417E+02  0.95822473665E+02  0.41800000000E+01 0.  1.
        -11    1    1    2    0    0 -0.34222140243E+02  0.26678212992E+02 -0.54302415899E+02  0.69509958306E+02  0.00000000000E+00 0. -1.
         11    1    1    2    0    0 -0.30698796934E+02 -0.61734048926E+02 -0.18617431430E+03  0.19853056247E+03  0.00000000000E+00 0.  1.
</event>
<event>
 6    1  0.6447971E-006  0.7900067E+02  0.7561462E-02  0.1331912E+00
          1   -1    0    0  501    0  0.00000000000E+00  0.00000000000E+00  0.17072420111E+03  0.17072420111E+03  0.00000000000E+00 0. -1.
         -1   -1    0    0    0  501 -0.00000000000E+00 -0.00000000000E+00 -0.86429614578E+02  0.86429614578E+02  0.00000000000E+00 0.  1.
          5    1    1    2  502    0  0.93942446086E+01  0.38563756801E+02  0.34538860971E+02  0.52780872365E+02  0.41800000000E+01 0. -1.
         -5    1    1    2    0  502 -0.27435785337E+02 -0.60461818815E+02 -0.35677289317E+02  0.75489702771E+02  0.41800000000E+01 0. -1.
        -11    1    1    2    0    0  0.32300709229E+02  0.13446272798E+02 -0.63983168504E+01  0.35567914296E+02  0.00000000000E+00 0.  1.
         11    1    1    2    0    0 -0.14259168501E+02  0.84517892157E+01  0.91831331724E+02  0.93315326252E+02  0.00000000000E+00 0. -1.
</event>
<event>
 6    1  0.6447971E-006  0.1556338E+03  0.7561462E-02  0.1193716E+00
          1   -1    0    0  501    0  0.00000000000E+00  0.00000000000E+00  0.77428748892E+02  0.77428748892E+02  0.00000000000E+00 0. -1.
         -1   -1    0    0    0  501 -0.00000000000E+00 -0.00000000000E+00 -0.34334804903E+03  0.34334804903E+03  0.00000000000E+00 0.  1.
          5    1    1    2  502    0 -0.65692898775E+02 -0.60431151766E+02 -0.59850758034E+02  0.10755029842E+03  0.41800000000E+01 0. -1.
         -5    1    1    2    0  502  0.49260461486E+02 -0.57908995338E+02 -0.11893138443E+03  0.14121682410E+03  0.41800000000E+01 0. -1.
        -11    1    1    2    0    0  0.25183006765E+02 -0.18578666457E+01 -0.28202417383E+02  0.37855142906E+02  0.00000000000E+00 0.  1.
         11    1    1    2    0    0 -0.87505694764E+01  0.12019801375E+03 -0.58934740292E+02  0.13415453249E+03  0.00000000000E+00 0. -1.
</event>
<event>
 6    1  0.6447971E-006  0.1410228E+03  0.7561462E-02  0.1211959E+00
         -3   -1    0    0    0  501 -0.00000000000E+00  0.00000000000E+00  0.10468194113E+04  0.10468194113E+04  0.00000000000E+00 0.  1.
          3   -1    0    0  501    0  0.00000000000E+00 -0.00000000000E+00 -0.19668651765E+02  0.19668651765E+02  0.00000000000E+00 0. -1.
          5    1    1    2  502    0 -0.90259295085E+01 -0.42576329608E+02  0.21758955400E+03  0.22193895029E+03  0.41800000000E+01 0.  1.
         -5    1    1    2    0  502  0.10054680637E+03  0.42773074542E+02  0.37931593454E+03  0.39476226614E+03  0.41800000000E+01 0.  1.
        -11    1    1    2    0    0 -0.66767559754E+02 -0.43081599714E+02  0.30302700531E+03  0.31327192216E+03  0.00000000000E+00 0.  1.
         11    1    1    2    0    0 -0.24753317106E+02  0.42884854779E+02  0.12721826567E+03  0.13651492444E+03  0.00000000000E+00 0. -1.
</event>
<event>
 6    1  0.6447971E-006  0.9972996E+02  0.7561462E-02  0.1280865E+00
         -1   -1    0    0    0  501 -0.00000000000E+00  0.00000000000E+00  0.38029274608E+03  0.38029274608E+03  0.00000000000E+00 0. -1.
          1   -1    0    0  501    0  0.00000000000E+00 -0.00000000000E+00 -0.45627211634E+02  0.45627211634E+02  0.00000000000E+00 0.  1.
          5    1    1    2  502    0  0.38127573906E+02  0.32324382744E+02  0.14909897585E+03  0.15731037668E+03  0.41800000000E+01 0. -1.
         -5    1    1    2    0  502 -0.51066098437E+02 -0.55289485331E+02  0.14683968907E+03  0.16505768775E+03  0.41800000000E+01 0. -1.
        -11    1    1    2    0    0  0.88209758876E+01  0.47870380784E+02 -0.90553793732E+01  0.49511441784E+02  0.00000000000E+00 0.  1.
         11    1    1    2    0    0  0.41175486433E+01 -0.24905278197E+02  0.47782248902E+02  0.54040451506E+02  0.00000000000E+00 0. -1.
</event>
<event>
 6    1  0.6447971E-006  0.1100088E+03  0.7561462E-02  0.1260554E+00
          4   -1    0    0  501    0  0.00000000000E+00  0.00000000000E+00  0.43552611247E+03  0.43552611247E+03  0.00000000000E+00 0. -1.
         -4   -1    0    0    0  501 -0.00000000000E+00 -0.00000000000E+00 -0.40710499779E+02  0.40710499779E+02  0.00000000000E+00 0.  1.
          5    1    1    2  502    0  0.12971763996E+01 -0.51460454549E+02  0.40561837690E+02  0.65670359568E+02  0.41800000000E+01 0. -1.
         -5    1    1    2    0  502 -0.29016016291E+02  0.72353097925E+02  0.53274350790E+02  0.94512056548E+02  0.41800000000E+01 0. -1.
        -11    1    1    2    0    0 -0.96350567762E+01  0.27519324377E+02  0.51407823650E+02  0.59100861802E+02  0.00000000000E+00 0.  1.
         11    1    1    2    0    0  0.37353896667E+02 -0.48411967753E+02  0.24957160056E+03  0.25695333433E+03  0.00000000000E+00 0. -1.
</event>
<event>
 6    1  0.6447971E-006  0.1022989E+03  0.7561462E-02  0.1275535E+00
          1   -1    0    0  501    0  0.00000000000E+00  0.00000000000E+00  0.53998181889E+03  0.53998181889E+03  0.00000000000E+00 0. -1.
         -1   -1    0    0    0  501 -0.00000000000E+00 -0.00000000000E+00 -0.35048840821E+02  0.35048840821E+02  0.00000000000E+00 0.  1.
          5    1    1    2  502    0  0.43733864747E+02 -0.76203959497E+01  0.10837348693E+02  0.45887273692E+02  0.41800000000E+01 0.  1.
         -5    1    1    2    0  502  0.42333991883E+01  0.68790443078E+02  0.19767327316E+03  0.20938539120E+03  0.41800000000E+01 0.  1.
        -11    1    1    2    0    0  0.96433477459E+01 -0.73830495448E+01 -0.88842796570E+00  0.12177556429E+02  0.00000000000E+00 0.  1.
         11    1    1    2    0    0 -0.57610611681E+02 -0.53786997584E+02  0.29731078419E+03  0.30758043839E+03  0.00000000000E+00 0. -1.
</event>
<event>
 6    1  0.6447971E-006  0.1007490E+03  0.7561462E-02  0.1278729E+00
          2   -1    0    0  501    0  0.00000000000E+00  0.00000000000E+00  0.37843889621E+03  0.37843889621E+03  0.00000000000E+00 0. -1.
         -2   -1    0    0    0  501 -0.00000000000E+00 -0.00000000000E+00 -0.57007519850E+02  0.57007519850E+02  0.00000000000E+00 0.  1.
          5    1    1    2  502    0 -0.22194713554E+02  0.47489528202E+02  0.13104676127E+03  0.14120406028E+03  0.41800000000E+01 0.  1.
         -5    1    1    2    0  502  0.88930386661E+01  0.38063684282E+02 -0.22857775946E+02  0.45473954293E+02  0.41800000000E+01 0.  1.
        -11    1    1    2    0    0 -0.21483610970E+02 -0.66614734271E+02  0.19082750582E+03  0.20325896127E+03  0.00000000000E+00 0. -1.
         11    1    1    2    0    0  0.34785285858E+02 -0.18938478213E+02  0.22414885213E+02  0.45509440212E+02  0.00000000000E+00 0.  1.
</event>
<event>
 6    1  0.6447971E-006  0.8165490E+02  0.7561462E-02  0.1324420E+00
          1   -1    0    0  501    0  0.00000000000E+00  0.00000000000E+00  0.24856883098E+03  0.24856883098E+03  0.00000000000E+00 0.  1.
         -1   -1    0    0    0  501 -0.00000000000E+00 -0.00000000000E+00 -0.50895983313E+02  0.50895983313E+02  0.00000000000E+00 0. -1.
          5    1    1    2  502    0  0.15973467673E+02 -0.48844324593E+02  0.10730196442E+03  0.11904664499E+03  0.41800000000E+01 0. -1.
         -5    1    1    2    0  502  0.16513985960E+02  0.52586853646E+02  0.11334878780E+02  0.56427305320E+02  0.41800000000E+01 0. -1.
        -11    1    1    2    0    0 -0.34469083850E+02  0.15024834861E+02  0.93131773211E+02  0.10043600244E+03  0.00000000000E+00 0.  1.
         11    1    1    2    0    0  0.19816302168E+01 -0.18767363914E+02 -0.14095768737E+02  0.23554861555E+02  0.00000000000E+00 0. -1.
</event>
<event>
 6    1  0.6447971E-006  0.7943262E+02  0.7561462E-02  0.1330669E+00
         -2   -1    0    0    0  501 -0.00000000000E+00  0.00000000000E+00  0.52702108739E+02  0.52702108739E+02  0.00000000000E+00 0.  1.
          2   -1    0    0  501    0  0.00000000000E+00 -0.00000000000E+00 -0.24242582405E+03  0.24242582405E+03  0.00000000000E+00 0. -1.
          5    1    1    2  502    0 -0.31037087566E+02 -0.31642656207E+02  0.14717277668E+02  0.46889542100E+02  0.41800000000E+01 0.  1.
         -5    1    1    2    0  502  0.15556503327E+02  0.43314669937E+02 -0.87949688038E+02  0.99351826624E+02  0.41800000000E+01 0.  1.
        -11    1    1    2    0    0 -0.11125091452E+02  0.22336144077E+02 -0.32550953942E+00  0.24955499364E+02  0.00000000000E+00 0.  1.
         11    1    1    2    0    0  0.26605675691E+02 -0.34008157807E+02 -0.11616579540E+03  0.12393106470E+03  0.00000000000E+00 0. -1.
</event>
<event>
 6    1  0.6447971E-006  0.1217363E+03  0.7561462E-02  0.1240260E+00
         -1   -1    0    0    0  501 -0.00000000000E+00  0.00000000000E+00  0.13358442901E+03  0.13358442901E+03  0.00000000000E+00 0.  1.
          1   -1    0    0  501    0  0.00000000000E+00 -0.00000000000E+00 -0.14119556987E+03  0.14119556987E+03  0.00000000000E+00 0. -1.
          5    1    1    2  502    0  0.65674977060E+02 -0.53451581560E+01  0.45482724036E+02  0.80174334505E+02  0.41800000000E+01 0.  1.
         -5    1    1    2    0  502 -0.12341751874E+02  0.65176365973E+02 -0.22472204493E+02  0.70162311076E+02  0.41800000000E+01 0.  1.
        -11    1    1    2    0    0 -0.72679882290E+02 -0.38734611890E+02 -0.43403704222E+02  0.93094666809E+02  0.00000000000E+00 0. -1.
         11    1    1    2    0    0  0.19346657104E+02 -0.21096595926E+02  0.12782043820E+02  0.31348686495E+02  0.00000000000E+00 0.  1.
</event>
<event>
 6    1  0.6447971E-006  0.8714045E+02  0.7561462E-02  0.1309928E+00
         -2   -1    0    0    0  501 -0.00000000000E+00  0.00000000000E+00  0.20556380038E+02  0.20556380038E+02  0.00000000000E+00 0.  1.
          2   -1    0    0  501    0  0.00000000000E+00 -0.00000000000E+00 -0.75816118552E+03  0.75816118552E+03  0.00000000000E+00 0. -1.
          5    1    1    2  502    0  0.37957665927E+02  0.10873035508E+02 -0.40345406487E+03  0.40540308603E+03  0.41800000000E+01 0.  1.
         -5    1    1    2    0  502  0.72215980092E+01  0.30154393113E+02 -0.13334918393E+02  0.34010753452E+02  0.41800000000E+01 0.  1.
        -11    1    1    2    0    0  0.14912558084E+02 -0.40538760475E+02 -0.19693866883E+03  0.20161997611E+03  0.00000000000E+00 0.  1.
         11    1    1    2    0    0 -0.60091822021E+02 -0.48866814607E+00 -0.12387715339E+03  0.13768374996E+03  0.00000000000E+00 0. -1.
</event>
<event>
 6    1  0.6447971E-006  0.1259919E+03  0.7561462E-02  0.1233527E+00
          1   -1    0    0  501    0  0.00000000000E+00  0.00000000000E+00  0.51434796149E+03  0.51434796149E+03  0.00000000000E+00 0. -1.
         -1   -1    0    0    0  501 -0.00000000000E+00 -0.00000000000E+00 -0.53743984864E+02  0.53743984864E+02  0.00000000000E+00 0.  1.
          5    1    1    2  502    0 -0.22809864234E+02  0.18167635908E+02  0.47116105749E+02  0.55567550979E+02  0.41800000000E+01 0. -1.
         -5    1    1    2    0  502  0.10160605003E+03 -0.42070350317E+02  0.36462792283E+02  0.11593408213E+03  0.41800000000E+01 0. -1.
        -11    1    1    2    0    0  0.15482961645E+02  0.53918183622E+01  0.15665762986E+02  0.22676197576E+02  0.00000000000E+00 0.  1.
         11    1    1    2    0    0 -0.94279147446E+02  0.18510896047E+02  0.36135931560E+03  0.37391411566E+03  0.00000000000E+00 0. -1.
</event>
<event>
 6    1  0.6447971E-006  0.8646799E+02  0.7561462E-02  0.1311638E+00
         -4   -1    0    0    0  501 -0.00000000000E+00  0.00000000000E+00  0.11121659401E+04  0.11121659401E+04  0.00000000000E+00 0.  1.
          4   -1    0    0  501    0  0.00000000000E+00 -0.00000000000E+00 -0.15085110972E+02  0.15085110972E+02  0.00000000000E+00 0. -1.
          5    1    1    2  502    0 -0.16147040954E+02 -0.60338564098E+01  0.13756581528E+02  0.22446609768E+02  0.41800000000E+01 0.  1.
         -5    1    1    2    0  502  0.78061678028E+02  0.12524255860E+02  0.73326877713E+03  0.73753037529E+03  0.41800000000E+01 0.  1.
        -11    1    1    2    0    0 -0.63332561414E+02 -0.16879213619E+02  0.35069706190E+03  0.35676932381E+03  0.00000000000E+00 0.  1.
         11    1    1    2    0    0  0.14179243406E+01  0.10388814169E+02 -0.64159142489E+00  0.10504742207E+02  0.00000000000E+00 0. -1.
</event>
<event>
 6    1  0.6447971E-006  0.9275730E+02  0.7561462E-02  0.1296309E+00
         -3   -1    0    0    0  501 -0.00000000000E+00  0.00000000000E+00  0.67458951594E+03  0.67458951594E+03  0.00000000000E+00 0.  1.
          3   -1    0    0  501    0  0.00000000000E+00 -0.00000000000E+00 -0.18802308869E+02  0.18802308869E+02  0.00000000000E+00 0. -1.
          5    1    1    2  502    0 -0.12358827531E+02 -0.36829849982E+02  0.46095194574E+02  0.60426962777E+02  0.41800000000E+01 0.  1.
         -5    1    1    2    0  502  0.86297230115E+01  0.69306575982E+02  0.32800649453E+03  0.33538575767E+03  0.41800000000E+01 0.  1.
        -11    1    1    2    0    0 -0.83199963018E+01 -0.52473566120E+02  0.26110844480E+03  0.26645884753E+03  0.00000000000E+00 0.  1.
         11    1    1    2    0    0  0.12049100821E+02  0.19996840121E+02  0.20577073170E+02  0.31120256838E+02  0.00000000000E+00 0. -1.
</event>
<event>
 6    1  0.6447971E-006  0.1579274E+03  0.7561462E-02  0.1191057E+00
          2   -1    0    0  501    0  0.00000000000E+00  0.00000000000E+00  0.75506585357E+02  0.75506585357E+02  0.00000000000E+00 0. -1.
         -2   -1    0    0    0  501 -0.00000000000E+00 -0.00000000000E+00 -0.47646396688E+03  0.47646396688E+03  0.00000000000E+00 0.  1.
          5    1    1    2  502    0 -0.51486942182E+01 -0.13020166963E+03 -0.17554011412E+03  0.21865678103E+03  0.41800000000E+01 0. -1.
         -5    1    1    2    0  502 -0.47077441912E+02  0.25920733280E+01 -0.13916399131E+03  0.14699351434E+03  0.41800000000E+01 0. -1.
        -11    1    1    2    0    0  0.48905861573E+02  0.11233060406E+03 -0.27555479415E+02  0.12557568376E+03  0.00000000000E+00 0. -1.
         11    1    1    2    0    0  0.33202745565E+01  0.15278992235E+02 -0.58697796679E+02  0.60744573106E+02  0.00000000000E+00 0.  1.
</event>
<event>
 6    1  0.6447971E-006  0.2004417E+03  0.7561462E-02  0.1149367E+00
         -2   -1    0    0    0  501 -0.00000000000E+00  0.00000000000E+00  0.41689906055E+02  0.41689906055E+02  0.00000000000E+00 0. -1.
          2   -1    0    0  501    0  0.00000000000E+00 -0.00000000000E+00 -0.11237706334E+04  0.11237706334E+04  0.00000000000E+00 0.  1.
          5    1    1    2  502    0  0.70188992319E+02 -0.37793161658E+02 -0.21900027422E+03  0.23309528142E+03  0.41800000000E+01 0. -1.
         -5    1    1    2    0  502 -0.79984937739E+01 -0.12641080271E+03 -0.17558897506E+03  0.21654705610E+03  0.41800000000E+01 0. -1.
        -11    1    1    2    0    0 -0.57046184252E+02  0.39204352512E+02 -0.17297842854E+03  0.18631367403E+03  0.00000000000E+00 0.  1.
         11    1    1    2    0    0 -0.51443142935E+01  0.12499961185E+03 -0.51451304954E+03  0.52950452791E+03  0.00000000000E+00 0. -1.
</event>
<event>
 6    1  0.6447971E-006  0.9285270E+02  0.7561462E-02  0.1296087E+00
         -2   -1    0    0    0  501 -0.00000000000E+00  0.00000000000E+00  0.15000847582E+02  0.15000847582E+02  0.00000000000E+00 0.  1.
          2   -1    0    0  501    0  0.00000000000E+00 -0.00000000000E+00 -0.87227162064E+03  0.87227162064E+03  0.00000000000E+00 0. -1.
          5    1    1    2  502    0  0.35833819399E+02 -0.19786095657E+02 -0.42317378759E+03  0.42516947104E+03  0.41800000000E+01 0.  1.
         -5    1    1    2    0  502 -0.52218069233E+02 -0.11374608838E+02 -0.95365277148E+02  0.10939888924E+03  0.41800000000E+01 0.  1.
        -11    1    1    2    0    0 -0.45338442495E+01  0.57297380366E+02 -0.14279980375E+03  0.15393287333E+03  0.00000000000E+00 0.  1.
         11    1    1    2    0    0  0.20918094084E+02 -0.26136675872E+02 -0.19593190457E+03  0.19877123463E+03  0.00000000000E+00 0. -1.
</event>
<event>
 6    1  0.6447971E-006  0.1388929E+03  0.7561462E-02  0.1214826E+00
          2   -1    0    0  501    0  0.00000000000E+00  0.00000000000E+00  0.78610699912E+02  0.78610699912E+02  0.00000000000E+00 0. -1.
         -2   -1    0    0    0  501 -0.00000000000E+00 -0.00000000000E+00 -0.29317869258E+03  0.29317869258E+03  0.00000000000E+00 0.  1.
          5    1    1    2  502    0 -0.76037246039E+01  0.15795982135E+02  0.11722149198E+02  0.21499089778E+02  0.41800000000E+01 0.  1.
         -5    1    1    2    0  502  0.11078005673E+03 -0.75631058893E+02 -0.13850462933E+03  0.19285560086E+03  0.41800000000E+01 0.  1.
        -11    1    1    2    0    0 -0.32860647541E+02 -0.56818562323E+00 -0.51797031806E+01  0.33271223553E+02  0.00000000000E+00 0.  1.
         11    1    1    2    0    0 -0.70315684581E+02  0.60403262381E+02 -0.82605809359E+02  0.12416347830E+03  0.00000000000E+00 0. -1.
</event>
<event>
 6    1  0.6447971E-006  0.1151128E+03  0.7561462E-02  0.1251384E+00
         -1   -1    0    0    0  501 -0.00000000000E+00  0.00000000000E+00  0.21170669820E+03  0.21170669820E+03  0.00000000000E+00 0.  1.
          1   -1    0    0  501    0  0.00000000000E+00 -0.00000000000E+00 -0.86044243619E+02  0.86044243619E+02  0.00000000000E+00 0. -1.
          5    1    1    2  502    0  0.28611885560E+02  0.34549609052E+02  0.54886342587E+02  0.71009143662E+02  0.41800000000E+01 0. -1.
         -5    1    1    2    0  502 -0.54936755257E+02 -0.66816236559E+02  0.90802828760E+02  0.12547941129E+03  0.41800000000E+01 0. -1.
        -11    1    1    2    0    0  0.26318306060E+02  0.62771418710E+02 -0.19300518146E+02  0.70748952229E+02  0.00000000000E+00 0. -1.
         11    1    1    2    0    0  0.65636374600E-02 -0.30504791203E+02 -0.72619861580E+00  0.30513434646E+02  0.00000000000E+00 0.  1.
</event>
<event>
 6    1  0.6447971E-006  0.1081318E+03  0.7561462E-02  0.1264069E+00
         -3   -1    0    0    0  501 -0.00000000000E+00  0.00000000000E+00  0.21782247922E+03  0.21782247922E+03  0.00000000000E+00 0.  1.
          3   -1    0    0  501    0  0.00000000000E+00 -0.00000000000E+00 -0.59084750186E+02  0.59084750186E+02  0.00000000000E+00 0. -1.
          5    1    1    2  502    0 -0.14149137518E+02  0.62703157423E+02  0.69543415526E+02  0.94792632026E+02  0.41800000000E+01 0.  1.
         -5    1    1    2    0  502  0.31774271105E+02 -0.49707200528E+02  0.28225302175E+02  0.65532817515E+02  0.41800000000E+01 0.  1.
        -11    1    1    2    0    0  0.34760008853E+02 -0.19600397407E+02  0.59853147002E+01  0.40351676372E+02  0.00000000000E+00 0. -1.
         11    1    1    2    0    0 -0.52385142440E+02  0.66044405130E+01  0.54983696631E+02  0.76230103490E+02  0.00000000000E+00 0.  1.
</event>
<event>
 6    1  0.6447971E-006  0.2090350E+03  0.7561462E-02  0.1142332E+00
          2   -1    0    0  501    0  0.00000000000E+00  0.00000000000E+00  0.37679562664E+03  0.37679562664E+03  0.00000000000E+00 0. -1.
         -2   -1    0    0    0  501 -0.00000000000E+00 -0.00000000000E+00 -0.12966634943E+03  0.12966634943E+03  0.00000000000E+00 0.  1.
          5    1    1    2  502    0  0.46665153015E+02 -0.76768109422E+02  0.55435437133E+01  0.90106505908E+02  0.41800000000E+01 0. -1.
         -5    1    1    2    0  502  0.10136206909E+03  0.33723262017E+02  0.35228576721E+02  0.11256132759E+03  0.41800000000E+01 0. -1.
        -11    1    1    2    0    0 -0.17875583093E+03  0.14594003873E+02  0.18115078292E+03  0.25491613953E+03  0.00000000000E+00 0. -1.
         11    1    1    2    0    0  0.30728608823E+02  0.28450843532E+02  0.25206373860E+02  0.48878003038E+02  0.00000000000E+00 0.  1.
</event>
<event>
 6    1  0.6447971E-006  0.1280951E+03  0.7561462E-02  0.1230310E+00
          3   -1    0    0  501    0  0.00000000000E+00  0.00000000000E+00  0.18973845831E+02  0.18973845831E+02  0.00000000000E+00 0. -1.
         -3   -1    0    0    0  501 -0.00000000000E+00 -0.00000000000E+00 -0.10095034902E+04  0.10095034902E+04  0.00000000000E+00 0.  1.
          5    1    1    2  502    0  0.27684070381E+02 -0.10848240114E+03 -0.53366343153E+03  0.54529713887E+03  0.41800000000E+01 0. -1.
         -5    1    1    2    0  502 -0.21773944862E+02  0.24736690145E+02 -0.80767636145E+02  0.87332078658E+02  0.41800000000E+01 0. -1.
        -11    1    1    2    0    0  0.32685927944E+02  0.27476560413E+02 -0.23813579670E+03  0.24193385238E+03  0.00000000000E+00 0.  1.
         11    1    1    2    0    0 -0.38596053463E+02  0.56269150587E+02 -0.13796277997E+03  0.15391426609E+03  0.00000000000E+00 0. -1.
</event>
<event>
 6    1  0.6447971E-006  0.1172848E+03  0.7561462E-02  0.1247645E+00
         -4   -1    0    0    0  501 -0.00000000000E+00  0.00000000000E+00  0.10901570437E+03  0.10901570437E+03  0.00000000000E+00 0.  1.
          4   -1    0    0  501    0  0.00000000000E+00 -0.00000000000E+00 -0.19080627804E+03  0.19080627804E+03  0.00000000000E+00 0. -1.
          5    1    1    2  502    0  0.71995950994E+02  0.19029842737E+02 -0.68167693574E+02  0.10104384554E+03  0.41800000000E+01 0. -1.
         -5    1    1    2    0  502 -0.50079546286E+02 -0.41768027576E+02  0.49377567954E+02  0.81903270391E+02  0.41800000000E+01 0.  1.
        -11    1    1    2    0    0  0.34628522232E+02  0.14310897732E+02 -0.41199577029E+02  0.55689689290E+02  0.00000000000E+00 0. -1.
         11    1    1    2    0    0 -0.56544926940E+02  0.84272871069E+01 -0.21800871024E+02  0.61185177192E+02  0.00000000000E+00 0.  1.
</event>
<event>
 6    1  0.6447971E-006  0.8858043E+02  0.7561462E-02  0.1306326E+00
         -2   -1    0    0    0  501 -0.00000000000E+00  0.00000000000E+00  0.83358258835E+02  0.83358258835E+02  0.00000000000E+00 0.  1.
          2   -1    0    0  501    0  0.00000000000E+00 -0.00000000000E+00 -0.17838607071E+03  0.17838607071E+03  0.00000000000E+00 0. -1.
          5    1    1    2  502    0 -0.25376583059E+02  0.34864028345E+01  0.37771647005E+02  0.45828983078E+02  0.41800000000E+01 0.  1.
         -5    1    1    2    0  502 -0.19810401722E+02 -0.42737676069E+02 -0.91290502654E+02  0.10281239831E+03  0.41800000000E+01 0.  1.
        -11    1    1    2    0    0  0.26523148504E+02 -0.25340061834E+02 -0.23264719194E+02  0.43437809561E+02  0.00000000000E+00 0. -1.
         11    1    1    2    0    0  0.18663836277E+02  0.64591335069E+02 -0.18244237036E+02  0.69665138596E+02  0.00000000000E+00 0.  1.
</event>
<event>
 6    1  0.6447971E-006  0.9717256E+02  0.7561462E-02  0.1286357E+00
          2   -1    0    0  501    0  0.00000000000E+00  0.00000000000E+00  0.10017119942E+03  0.10017119942E+03  0.00000000000E+00 0.  1.
         -2   -1    0    0    0  501 -0.00000000000E+00 -0.00000000000E+00 -0.21432891694E+03  0.21432891694E+03  0.00000000000E+00 0. -1.
          5    1    1    2  502    0 -0.31217777549E+02 -0.28807504010E+02 -0.90941379812E+00  0.42693340884E+02  0.41800000000E+01 0. -1.
         -5    1    1    2    0  502 -0.27477280556E+02  0.72801659782E+02 -0.13595266397E+03  0.15670252664E+03  0.41800000000E+01 0. -1.
        -11    1    1    2    0    0  0.28779663580E+02 -0.16906876020E+02  0.54376286580E+02  0.63803542494E+02  0.00000000000E+00 0.  1.
         11    1    1    2    0    0  0.29915394526E+02 -0.27087279752E+02 -0.31671926326E+02  0.51300706342E+02  0.00000000000E+00 0. -1.
</event>
<event>
 6    1  0.6447971E-006  0.1057484E+03  0.7561462E-02  0.1268652E+00
          1   -1    0    0  501    0  0.00000000000E+00  0.00000000000E+00  0.44530149505E+02  0.44530149505E+02  0.00000000000E+00 0. -1.
         -1   -1    0    0    0  501 -0.00000000000E+00 -0.00000000000E+00 -0.33018794265E+03  0.33018794265E+03  0.00000000000E+00 0.  1.
          5    1    1    2  502    0  0.56952853826E+02 -0.40525193173E+02 -0.12238681493E+03  0.14100327552E+03  0.41800000000E+01 0. -1.
         -5    1    1    2    0  502 -0.61044926577E+02  0.20005065605E+00 -0.91986836598E+02  0.11047883774E+03  0.41800000000E+01 0. -1.
        -11    1    1    2    0    0 -0.24066876238E+02  0.45669408209E+02 -0.78246125183E+02  0.93740948812E+02  0.00000000000E+00 0.  1.
         11    1    1    2    0    0  0.28158948990E+02 -0.53442656927E+01  0.69619835653E+01  0.29495030076E+02  0.00000000000E+00 0. -1.
</event>
<event>
 6    1  0.6447971E-006  0.1250473E+03  0.7561462E-02  0.1234995E+00
          3   -1    0    0  501    0  0.00000000000E+00  0.00000000000E+00  0.33053092573E+03  0.33053092573E+03  0.00000000000E+00 0. -1.
         -3   -1    0    0    0  501 -0.00000000000E+00 -0.00000000000E+00 -0.66305533546E+02  0.66305533546E+02  0.00000000000E+00 0.  1.
          5    1    1    2  502    0  0.18737110766E+01  0.13680793274E+02 -0.18852473867E+02  0.23739483328E+02  0.41800000000E+01 0. -1.
         -5    1    1    2    0  502  0.46335486740E+02 -0.98775139628E+02  0.13163879551E+03  0.17102558412E+03  0.41800000000E+01 0. -1.
        -11    1    1    2    0    0  0.22685049586E+02  0.20475082045E+02  0.12015553793E+02  0.32836168967E+02  0.00000000000E+00 0. -1.
         11    1    1    2    0    0 -0.70894247402E+02  0.64619264309E+02  0.13942351674E+03  0.16923522286E+03  0.00000000000E+00 0.  1.
</event>
<event>
 6    1  0.6447971E-006  0.9228391E+02  0.7561462E-02  0.1297413E+00
         -2   -1    0    0    0  501 -0.00000000000E+00  0.00000000000E+00  0.98092019947E+02  0.98092019947E+02  0.00000000000E+00 0.  1.
          2   -1    0    0  501    0  0.00000000000E+00 -0.00000000000E+00 -0.13181211879E+03  0.13181211879E+03  0.00000000000E+00 0. -1.
          5    1    1    2  502    0 -0.31223280979E+02  0.11888056600E+02 -0.62642264894E+02  0.71117824178E+02  0.41800000000E+01 0.  1.
         -5    1    1    2    0  502  0.52463765758E+02  0.14097917421E+02  0.30341143006E+02  0.62363894619E+02  0.41800000000E+01 0.  1.
        -11    1    1    2    0    0  0.34441672270E+02  0.11684166708E+01 -0.50929280706E+00  0.34465248664E+02  0.00000000000E+00 0.  1.
         11    1    1    2    0    0 -0.55682157049E+02 -0.27154390692E+02 -0.90968414949E+00  0.61957171278E+02  0.00000000000E+00 0. -1.
</event>
<event>
 6    1  0.6447971E-006  0.2370465E+03  0.7561462E-02  0.1121776E+00
          3   -1    0    0  501    0  0.00000000000E+00  0.00000000000E+00  0.26022852934E+03  0.26022852934E+03  0.00000000000E+00 0. -1.
         -3   -1    0    0    0  501 -0.00000000000E+00 -0.00000000000E+00 -0.25434324242E+03  0.25434324242E+03  0.00000000000E+00 0.  1.
          5    1    1    2  502    0  0.14645660841E+03 -0.90824925042E+02  0.34934668198E+02  0.17588805701E+03  0.41800000000E+01 0.  1.
         -5    1    1    2    0  502  0.38341869825E+02 -0.47278406962E+02 -0.63551133063E+02  0.88099748355E+02  0.41800000000E+01 0.  1.
        -11    1    1    2    0    0 -0.18114168774E+03  0.10909611439E+03  0.50291703310E+02  0.21735576513E+03  0.00000000000E+00 0. -1.
         11    1    1    2    0    0 -0.36567904988E+01  0.29007217613E+02 -0.15789951524E+02  0.33228201269E+02  0.00000000000E+00 0.  1.
</event>
<event>
 6    1  0.6447971E-006  0.7246765E+02  0.7561462E-02  0.1351897E+00
         -1   -1    0    0    0  501 -0.00000000000E+00  0.00000000000E+00  0.45552755753E+02  0.45552755753E+02  0.00000000000E+00 0.  1.
          1   -1    0    0  501    0  0.00000000000E+00 -0.00000000000E+00 -0.28311924172E+03  0.28311924172E+03  0.00000000000E+00 0. -1.
          5    1    1    2  502    0 -0.29108737527E+02  0.60058627469E+02 -0.11538869065E+03  0.13336558651E+03  0.41800000000E+01 0.  1.
         -5    1    1    2    0  502  0.24284228091E+02 -0.30024574952E+02  0.99183059998E+00  0.38854278567E+02  0.41800000000E+01 0.  1.
        -11    1    1    2    0    0  0.15024908210E+02 -0.17905200291E+02 -0.13478921961E+03  0.13680086911E+03  0.00000000000E+00 0. -1.
         11    1    1    2    0    0 -0.10200398773E+02 -0.12128852225E+02  0.11619593696E+02  0.19651263295E+02  0.00000000000E+00 0.  1.
</event>
<event>
 6    1  0.6447971E-006  0.1094917E+03  0.7561462E-02  0.1261514E+00
          1   -1    0    0  501    0  0.00000000000E+00  0.00000000000E+00  0.51476336959E+03  0.51476336959E+03  0.00000000000E+00 0. -1.
         -1   -1    0    0    0  501 -0.00000000000E+00 -0.00000000000E+00 -0.24845759928E+02  0.24845759928E+02  0.00000000000E+00 0.  1.
          5    1    1    2  502    0  0.41032963178E+02 -0.64207839974E+02  0.16912931525E+03  0.18554931544E+03  0.41800000000E+01 0. -1.
         -5    1    1    2    0  502 -0.20944338668E+02  0.44442195099E+02  0.67521798427E+02  0.83608849354E+02  0.41800000000E+01 0. -1.
        -11    1    1    2    0    0  0.19142913522E+02  0.43488600225E+02  0.15281766432E+03  0.16003420889E+03  0.00000000000E+00 0.  1.
         11    1    1    2    0    0 -0.39231538032E+02 -0.23722955351E+02  0.10044883167E+03  0.11041675584E+03  0.00000000000E+00 0. -1.
</event>
<event>
 6    1  0.6447971E-006  0.1192761E+03  0.7561462E-02  0.1244296E+00
         -1   -1    0    0    0  501 -0.00000000000E+00  0.00000000000E+00  0.16073710081E+03  0.16073710081E+03  0.00000000000E+00 0.  1.
          1   -1    0    0  501    0  0.00000000000E+00 -0.00000000000E+00 -0.18978730513E+03  0.18978730513E+03  0.00000000000E+00 0. -1.
          5    1    1    2  502    0 -0.70473781396E+02 -0.76595375198E+02  0.10700951532E+03  0.14933825409E+03  0.41800000000E+01 0.  1.
         -5    1    1    2    0  502  0.12184655636E+02  0.16675607093E+02 -0.16035698023E+02  0.26479382848E+02  0.41800000000E+01 0.  1.
        -11    1    1    2    0    0  0.38797890120E+02  0.77752451941E+02 -0.50896937613E+02  0.10070361622E+03  0.00000000000E+00 0. -1.
         11    1    1    2    0    0  0.19491235640E+02 -0.17832683836E+02 -0.69127084002E+02  0.74003152785E+02  0.00000000000E+00 0.  1.
</event>
<event>
 6    1  0.6447971E-006  0.1521508E+03  0.7561462E-02  0.1197855E+00
          1   -1    0    0  501    0  0.00000000000E+00  0.00000000000E+00  0.11138805934E+04  0.11138805934E+04  0.00000000000E+00 0. -1.
         -1   -1    0    0    0  501 -0.00000000000E+00 -0.00000000000E+00 -0.24415772820E+02  0.24415772820E+02  0.00000000000E+00 0.  1.
          5    1    1    2  502    0  0.11272315375E+03  0.13348134557E+02  0.29606463996E+03  0.31710633157E+03  0.41800000000E+01 0.  1.
         -5    1    1    2    0  502 -0.19214493504E+02  0.50995180347E+02  0.11576115025E+03  0.12801492681E+03  0.41800000000E+01 0.  1.
        -11    1    1    2    0    0 -0.30607997429E+02  0.15585783076E+02  0.81822650013E+02  0.88739575139E+02  0.00000000000E+00 0.  1.
         11    1    1    2    0    0 -0.62900662820E+02 -0.79929097980E+02  0.59581638031E+03  0.60443553266E+03  0.00000000000E+00 0. -1.
</event>
<event>
 6    1  0.6447971E-006  0.1499240E+03  0.7561462E-02  0.1200566E+00
          2   -1    0    0  501    0  0.00000000000E+00  0.00000000000E+00  0.81083793648E+03  0.81083793648E+03  0.00000000000E+00 0. -1.
         -2   -1    0    0    0  501 -0.00000000000E+00 -0.00000000000E+00 -0.42824695797E+02  0.42824695797E+02  0.00000000000E+00 0.  1.
          5    1    1    2  502    0  0.31301119794E+02  0.45409347633E+01  0.21967181890E+02  0.38735121906E+02  0.41800000000E+01 0. -1.
         -5    1    1    2    0  502 -0.94302218074E+02 -0.94115454757E+02  0.14225219478E+03  0.19494559876E+03  0.41800000000E+01 0. -1.
        -11    1    1    2    0    0  0.86054987689E+01 -0.14702143369E+02  0.32359119279E+02  0.36569389237E+02  0.00000000000E+00 0. -1.
         11    1    1    2    0    0  0.54395599510E+02  0.10427666336E+03  0.57143474473E+03  0.58341252237E+03  0.00000000000E+00 0.  1.
</event>
<event>
 6    1  0.6447971E-006  0.1604787E+03  0.7561462E-02  0.1188157E+00
         -2   -1    0    0    0  501 -0.00000000000E+00  0.00000000000E+00  0.53397173027E+03  0.53397173027E+03  0.00000000000E+00 0.  1.
          2   -1    0    0  501    0  0.00000000000E+00 -0.00000000000E+00 -0.58008042404E+02  0.58008042404E+02  0.00000000000E+00 0. -1.
          5    1    1    2  502    0  0.12175890174E+02  0.75189318858E+02  0.15512306146E+03  0.17286504149E+03  0.41800000000E+01 0. -1.
         -5    1    1    2    0  502 -0.96790896831E+02  0.34294265166E+02  0.10203633698E+03  0.14482216956E+03  0.41800000000E+01 0. -1.
        -11    1    1    2    0    0  0.26344658019E+02 -0.13466715777E+02  0.12349052963E+03  0.12698544935E+03  0.00000000000E+00 0.  1.
         11    1    1    2    0    0  0.58270348639E+02 -0.96016868247E+02  0.95313759804E+02  0.14730711227E+03  0.00000000000E+00 0. -1.
</event>
<event>
 6    1  0.6447971E-006  0.1162826E+03  0.7561462E-02  0.1249359E+00
          1   -1    0    0  501    0  0.00000000000E+00  0.00000000000E+00  0.93803190876E+02  0.93803190876E+02  0.00000000000E+00 0. -1.
         -1   -1    0    0    0  501 -0.00000000000E+00 -0.00000000000E+00 -0.14647744547E+03  0.14647744547E+03  0.00000000000E+00 0.  1.
          5    1    1    2  502    0 -0.38873097769E+02 -0.33013269548E+02 -0.94463350964E+01  0.52035558449E+02  0.41800000000E+01 0.  1.
         -5    1    1    2    0  502  0.75999384344E+02  0.23368986948E+02 -0.10390642014E+02  0.80296038589E+02  0.41800000000E+01 0.  1.
        -11    1    1    2    0    0 -0.58204804085E+02  0.35683123278E+02 -0.14638042096E+02  0.69823755140E+02  0.00000000000E+00 0. -1.
         11    1    1    2    0    0  0.21078517510E+02 -0.26038840679E+02 -0.18199235392E+02  0.38125284172E+02  0.00000000000E+00 0.  1.
</event>
<event>
 6    1  0.6447971E-006  0.8237992E+02  0.7561462E-02  0.1322430E+00
          2   -1    0    0  501    0  0.00000000000E+00  0.00000000000E+00  0.45172733956E+02  0.45172733956E+02  0.00000000000E+00 0. -1.
         -2   -1    0    0    0  501 -0.00000000000E+00 -0.00000000000E+00 -0.33912272967E+03  0.33912272967E+03  0.00000000000E+00 0.  1.
          5    1    1    2  502    0  0.56924857306E+02  0.40552497992E+02 -0.44759530786E+02  0.83101338550E+02  0.41800000000E+01 0.  1.
         -5    1    1    2    0  502 -0.16465126477E+02 -0.90664850472E+01 -0.16716448847E+03  0.16826984324E+03  0.41800000000E+01 0.  1.
        -11    1    1    2    0    0 -0.53732813168E+02 -0.31357433629E+02 -0.14202227729E+02  0.63813847456E+02  0.00000000000E+00 0. -1.
         11    1    1    2    0    0  0.13273082339E+02 -0.12857931552E+00 -0.67823748734E+02  0.69110434377E+02  0.00000000000E+00 0.  1.
</event>
<event>
 6    1  0.6447971E-006  0.1556825E+03  0.7561462E-02  0.1193659E+00
         -1   -1    0    0    0  501 -0.00000000000E+00  0.00000000000E+00  0.14340651485E+03  0.14340651485E+03  0.00000000000E+00 0.  1.
          1   -1    0    0  501    0  0.00000000000E+00 -0.00000000000E+00 -0.22475258699E+03  0.22475258699E+03  0.00000000000E+00 0. -1.
          5    1    1    2  502    0 -0.59211767238E+02  0.62996430376E+02 -0.92342575180E+02  0.12656700680E+03  0.41800000000E+01 0. -1.
         -5    1    1    2    0  502 -0.42062916867E+02  0.37957216943E+02  0.41205085965E+02  0.70180986049E+02  0.41800000000E+01 0. -1.
        -11    1    1    2    0    0  0.55968941272E+02  0.14832387344E+01 -0.25938723421E+01  0.56048644569E+02  0.00000000000E+00 0.  1.
         11    1    1    2    0    0  0.45305742833E+02 -0.10243688605E+03 -0.27614710579E+02  0.11536246443E+03  0.00000000000E+00 0. -1.
</event>
<event>
 6    1  0.6447971E-006  0.3020559E+03  0.7561462E-02  0.1084217E+00
         -2   -1    0    0    0  501 -0.00000000000E+00  0.00000000000E+00  0.14983952077E+03  0.14983952077E+03  0.00000000000E+00 0.  1.
          2   -1    0    0  501    0  0.00000000000E+00 -0.00000000000E+00 -0.75882751213E+03  0.75882751213E+03  0.00000000000E+00 0. -1.
          5    1    1    2  502    0 -0.11180534064E+03  0.11873328727E+03 -0.11198584900E+03  0.19787958580E+03  0.41800000000E+01 0. -1.
         -5    1    1    2    0  502 -0.13679720590E+03  0.26894531056E+02 -0.12667662250E+02  0.14005260944E+03  0.41800000000E+01 0. -1.
        -11    1    1    2    0    0  0.20118634456E+03 -0.15397409812E+03 -0.39530145901E+03  0.46951806315E+03  0.00000000000E+00 0.  1.
         11    1    1    2    0    0  0.47416201981E+02  0.83462797923E+01 -0.89033021098E+02  0.10121677451E+03  0.00000000000E+00 0. -1.
</event>
<event>
 6    1  0.6447971E-006  0.4641464E+02  0.7561462E-02  0.1465699E+00
          2   -1    0    0  501    0  0.00000000000E+00  0.00000000000E+00  0.23547545662E+03  0.23547545662E+03  0.00000000000E+00 0. -1.
         -2   -1    0    0    0  501 -0.00000000000E+00 -0.00000000000E+00 -0.54342081081E+02  0.54342081081E+02  0.00000000000E+00 0.  1.
          5    1    1    2  502    0  0.24863181672E+02 -0.31559355777E+02 -0.24379967693E+02  0.47180779610E+02  0.41800000000E+01 0. -1.
         -5    1    1    2    0  502 -0.77969421346E+01  0.12484125785E+02  0.10005340242E+03  0.10121660653E+03  0.41800000000E+01 0. -1.
        -11    1    1    2    0    0 -0.17254708811E+02 -0.78602632796E+00 -0.12803424108E+02  0.21500476331E+02  0.00000000000E+00 0.  1.
         11    1    1    2    0    0  0.18846927385E+00  0.19861256320E+02  0.11826336493E+03  0.11991967523E+03  0.00000000000E+00 0. -1.
</event>
<event>
 6    1  0.6447971E-006  0.9984585E+02  0.7561462E-02  0.1280620E+00
         -1   -1    0    0    0  501 -0.00000000000E+00  0.00000000000E+00  0.82419314673E+02  0.82419314673E+02  0.00000000000E+00 0.  1.
          1   -1    0    0  501    0  0.00000000000E+00 -0.00000000000E+00 -0.24397359038E+03  0.24397359038E+03  0.00000000000E+00 0. -1.
          5    1    1    2  502    0  0.24765592504E+01  0.92585002921E+02 -0.22433077715E+02  0.95387795274E+02  0.41800000000E+01 0.  1.
         -5    1    1    2    0  502 -0.20803913088E+02 -0.36201844243E+02  0.11383972700E+02  0.43479231373E+02  0.41800000000E+01 0.  1.
        -11    1    1    2    0    0  0.15870564457E+02 -0.10414426378E+02  0.93600158609E+01  0.21164710957E+02  0.00000000000E+00 0.  1.
         11    1    1    2    0    0  0.24567893810E+01 -0.45968732300E+02 -0.15986518656E+03  0.16636116745E+03  0.00000000000E+00 0. -1.
</event>
<event>
 6    1  0.6447971E-006  0.1099220E+03  0.7561462E-02  0.1260714E+00
          1   -1    0    0  501    0  0.00000000000E+00  0.00000000000E+00  0.56665432606E+02  0.56665432606E+02  0.00000000000E+00 0. -1.
         -1   -1    0    0    0  501 -0.00000000000E+00 -0.00000000000E+00 -0.25064603464E+03  0.25064603464E+03  0.00000000000E+00 0.  1.
          5    1    1    2  502    0  0.29068028251E+02 -0.57848294343E+02 -0.70566309395E+02  0.95856412651E+02  0.41800000000E+01 0. -1.
         -5    1    1    2    0  502 -0.60399595740E+02  0.29207739226E+02 -0.72055511219E+02  0.98542743484E+02  0.41800000000E+01 0. -1.
        -11    1    1    2    0    0 -0.14374575335E+02 -0.17603976662E+02 -0.41270092806E+02  0.47114211981E+02  0.00000000000E+00 0.  1.
         11    1    1    2    0    0  0.45706142825E+02  0.46244531779E+02 -0.10088688614E+02  0.65798099131E+02  0.00000000000E+00 0. -1.
</event>
<event>
 6    1  0.6447971E-006  0.9801559E+02  0.7561462E-02  0.1284525E+00
          2   -1    0    0  501    0  0.00000000000E+00  0.00000000000E+00  0.27356804792E+03  0.27356804792E+03  0.00000000000E+00 0.  1.
         -2   -1    0    0    0  501 -0.00000000000E+00 -0.00000000000E+00 -0.45561019732E+02  0.45561019732E+02  0.00000000000E+00 0. -1.
          5    1    1    2  502    0  0.39656341251E+02  0.35267928869E+02  0.26930295402E+02  0.59658741343E+02  0.41800000000E+01 0.  1.
         -5    1    1    2    0  502 -0.56583151586E+02 -0.41789665636E+02  0.73087899647E+02  0.10152508396E+03  0.41800000000E+01 0.  1.
        -11    1    1    2    0    0  0.55837338733E+01  0.38239594932E+02  0.11587303223E+03  0.12214746949E+03  0.00000000000E+00 0.  1.
         11    1    1    2    0    0  0.11343076462E+02 -0.31717858166E+02  0.12115800908E+02  0.35797772862E+02  0.00000000000E+00 0. -1.
</event>
<event>
 6    1  0.6447971E-006  0.8734870E+02  0.7561462E-02  0.1309402E+00
         -3   -1    0    0    0  501 -0.00000000000E+00  0.00000000000E+00  0.97036460744E+03  0.97036460744E+03  0.00000000000E+00 0.  1.
          3   -1    0    0  501    0  0.00000000000E+00 -0.00000000000E+00 -0.14528152243E+02  0.14528152243E+02  0.00000000000E+00 0. -1.
          5    1    1    2  502    0 -0.60834023502E+01 -0.17891969225E+02  0.53372591748E+03  0.53407673394E+03  0.41800000000E+01 0. -1.
         -5    1    1    2    0  502  0.47267249038E+02  0.32474221487E+02  0.12158414048E+03  0.13449514307E+03  0.41800000000E+01 0. -1.
        -11    1    1    2    0    0  0.25913502958E+01  0.33049454257E+02  0.82895369602E+02  0.89278350256E+02  0.00000000000E+00 0. -1.
         11    1    1    2    0    0 -0.43775196984E+02 -0.47631706518E+02  0.21763102763E+03  0.22704253241E+03  0.00000000000E+00 0.  1.
</event>
<event>
 6    1  0.6447971E-006  0.7352192E+02  0.7561462E-02  0.1348510E+00
         -2   -1    0    0    0  501 -0.00000000000E+00  0.00000000000E+00  0.22056115832E+03  0.22056115832E+03  0.00000000000E+00 0.  1.
          2   -1    0    0  501    0  0.00000000000E+00 -0.00000000000E+00 -0.10519976849E+03  0.10519976849E+03  0.00000000000E+00 0. -1.
          5    1    1    2  502    0  0.27501175906E+01  0.28339368891E+00  0.14745156109E+03  0.14753670298E+03  0.41800000000E+01 0. -1.
         -5    1    1    2    0  502  0.59426073841E+02  0.19532687011E+02  0.93332114842E+01  0.63384267375E+02  0.41800000000E+01 0. -1.
        -11    1    1    2    0    0 -0.39885962700E+02 -0.34425380693E+02  0.12976727371E+02  0.54262254926E+02  0.00000000000E+00 0. -1.
         11    1    1    2    0    0 -0.22290228732E+02  0.14609299993E+02 -0.54400110105E+02  0.60577701530E+02  0.00000000000E+00 0.  1.
</event>
<event>
 6    1  0.6447971E-006  0.1013379E+03  0.7561462E-02  0.1277507E+00
          1   -1    0    0  501    0  0.00000000000E+00  0.00000000000E+00  0.97213529608E+02  0.97213529608E+02  0.00000000000E+00 0. -1.
         -1   -1    0    0    0  501 -0.00000000000E+00 -0.00000000000E+00 -0.21375813452E+03  0.21375813452E+03  0.00000000000E+00 0.  1.
          5    1    1    2  502    0 -0.19706066833E+02 -0.82777007071E+02 -0.96772994261E+02  0.12892961951E+03  0.41800000000E+01 0. -1.
         -5    1    1    2    0  502  0.15341484138E+02  0.43238454214E+02 -0.54247868421E+02  0.71170420026E+02  0.41800000000E+01 0. -1.
        -11    1    1    2    0    0  0.10303981435E+02 -0.14090751395E+02  0.51431498203E+02  0.54313168898E+02  0.00000000000E+00 0. -1.
         11    1    1    2    0    0 -0.59393987405E+01  0.53629304252E+02 -0.16955240431E+02  0.56558455690E+02  0.00000000000E+00 0.  1.
</event>
<event>
 6    1  0.6447971E-006  0.7927942E+02  0.7561462E-02  0.1331109E+00
          3   -1    0    0  501    0  0.00000000000E+00  0.00000000000E+00  0.24998468315E+03  0.24998468315E+03  0.00000000000E+00 0. -1.
         -3   -1    0    0    0  501 -0.00000000000E+00 -0.00000000000E+00 -0.61736423940E+02  0.61736423940E+02  0.00000000000E+00 0.  1.
          5    1    1    2  502    0  0.17782158221E+02 -0.21139102832E+02  0.11068361391E+03  0.11415516461E+03  0.41800000000E+01 0.  1.
         -5    1    1    2    0  502  0.13346016416E+02 -0.24683329838E+02 -0.32724917600E+02  0.43310224636E+02  0.41800000000E+01 0.  1.
        -11    1    1    2    0    0 -0.23718428946E+01  0.66682784192E+02  0.93744221328E+02  0.11506606093E+03  0.00000000000E+00 0. -1.
         11    1    1    2    0    0 -0.28756331742E+02 -0.20860351523E+02  0.16545341574E+02  0.39189656910E+02  0.00000000000E+00 0.  1.
</event>
<event>
 6    1  0.6447971E-006  0.1080330E+03  0.7561462E-02  0.1264257E+00
          2   -1    0    0  501    0  0.00000000000E+00  0.00000000000E+00  0.46005666161E+03  0.46005666161E+03  0.00000000000E+00 0. -1.
         -2   -1    0    0    0  501 -0.00000000000E+00 -0.00000000000E+00 -0.30886136193E+02  0.30886136193E+02  0.00000000000E+00 0.  1.
          5    1    1    2  502    0 -0.84628459834E+02 -0.13025376342E+02  0.10554270016E+03  0.13597194784E+03  0.41800000000E+01 0.  1.
         -5    1    1    2    0  502  0.42388586320E+02 -0.57582685105E+01  0.10247458460E+03  0.11112363743E+03  0.41800000000E+01 0.  1.
        -11    1    1    2    0    0  0.52810238987E+02  0.38249294221E+02  0.20823326983E+03  0.21820408913E+03  0.00000000000E+00 0. -1.
         11    1    1    2    0    0 -0.10570365473E+02 -0.19465649369E+02  0.12919970830E+02  0.25643123403E+02  0.00000000000E+00 0.  1.
</event>
<event>
 6    1  0.6447971E-006  0.1862275E+03  0.7561462E-02  0.1161909E+00
         -3   -1    0    0    0  501 -0.00000000000E+00  0.00000000000E+00  0.22864617590E+03  0.22864617590E+03  0.00000000000E+00 0.  1.
          3   -1    0    0  501    0  0.00000000000E+00 -0.00000000000E+00 -0.17212071700E+03  0.17212071700E+03  0.00000000000E+00 0. -1.
          5    1    1    2  502    0  0.17355241279E+02  0.11676369263E+02  0.69274090084E+01  0.22427737170E+02  0.41800000000E+01 0. -1.
         -5    1    1    2    0  502 -0.14976472582E+03 -0.10811488157E+03  0.50573795621E+02  0.19155542781E+03  0.41800000000E+01 0. -1.
        -11    1    1    2    0    0  0.52018730096E+02  0.20922526330E+02 -0.40988852154E+02  0.69453483640E+02  0.00000000000E+00 0. -1.
         11    1    1    2    0    0  0.80390754448E+02  0.75515985981E+02  0.40013106419E+02  0.11733024429E+03  0.00000000000E+00 0.  1.
</event>
<event>
 6    1  0.6447971E-006  0.7817390E+02  0.7561462E-02  0.1334315E+00
          1   -1    0    0  501    0  0.00000000000E+00  0.00000000000E+00  0.11693098890E+03  0.11693098890E+03  0.00000000000E+00 0. -1.
         -1   -1    0    0    0  501 -0.00000000000E+00 -0.00000000000E+00 -0.21112408113E+03  0.21112408113E+03  0.00000000000E+00 0.  1.
          5    1    1    2  502    0  0.22286584270E+02 -0.70698465966E+02 -0.10653918428E+03  0.12985774954E+03  0.41800000000E+01 0. -1.
         -5    1    1    2    0  502 -0.20975517107E+02  0.47845618937E+02 -0.59440566560E+02  0.79245371614E+02  0.41800000000E+01 0. -1.
        -11    1    1    2    0    0 -0.97583527511E+01  0.80507346599E+01 -0.21052684754E+02  0.24561256327E+02  0.00000000000E+00 0.  1.
         11    1    1    2    0    0  0.84472855877E+01  0.14802112370E+02  0.92839343366E+02  0.94390692555E+02  0.00000000000E+00 0. -1.
</event>
<event>
 6    1  0.6447971E-006  0.1751738E+03  0.7561462E-02  0.1172557E+00
          2   -1    0    0  501    0  0.00000000000E+00  0.00000000000E+00  0.12146267539E+03  0.12146267539E+03  0.00000000000E+00 0. -1.
         -2   -1    0    0    0  501 -0.00000000000E+00 -0.00000000000E+00 -0.40815579249E+03  0.40815579249E+03  0.00000000000E+00 0.  1.
          5    1    1    2  502    0  0.65032472203E+02  0.94030513649E+02 -0.47565591899E+02  0.12389882110E+03  0.41800000000E+01 0. -1.
         -5    1    1    2    0  502  0.22187683125E+02 -0.10714972269E+03 -0.25400281745E+03  0.27660126541E+03  0.41800000000E+01 0.  1.
        -11    1    1    2    0    0  0.19059956293E+02  0.57340990271E+01  0.10473155365E+02  0.22491082874E+02  0.00000000000E+00 0.  1.
         11    1    1    2    0    0 -0.10628011162E+03  0.73851100122E+01  0.44021368806E+01  0.10662729850E+03  0.00000000000E+00 0. -1.
</event>
<event>
 6    1  0.6447971E-006  0.1242516E+03  0.7561462E-02  0.1236244E+00
         -2   -1    0    0    0  501 -0.00000000000E+00  0.00000000000E+00  0.69659541223E+03  0.69659541223E+03  0.00000000000E+00 0.  1.
          2   -1    0    0  501    0  0.00000000000E+00 -0.00000000000E+00 -0.31133845601E+02  0.31133845601E+02  0.00000000000E+00 0. -1.
          5    1    1    2  502    0 -0.30897476491E+02  0.67692808273E+02  0.30234968565E+03  0.31139970321E+03  0.41800000000E+01 0. -1.
         -5    1    1    2    0  502  0.66597841039E+02  0.25112939177E+02  0.11282169265E+03  0.13346212526E+03  0.41800000000E+01 0. -1.
        -11    1    1    2    0    0 -0.31552811843E+01 -0.43404904609E+02  0.20161567633E+03  0.20625911492E+03  0.00000000000E+00 0.  1.
         11    1    1    2    0    0 -0.32545083365E+02 -0.49400842840E+02  0.48674511991E+02  0.76608314445E+02  0.00000000000E+00 0. -1.
</event>
<event>
 6    1  0.6447971E-006  0.1088272E+03  0.7561462E-02  0.1262757E+00
         -1   -1    0    0    0  501 -0.00000000000E+00  0.00000000000E+00  0.12146913878E+03  0.12146913878E+03  0.00000000000E+00 0.  1.
          1   -1    0    0  501    0  0.00000000000E+00 -0.00000000000E+00 -0.11079665601E+03  0.11079665601E+03  0.00000000000E+00 0. -1.
          5    1    1    2  502    0 -0.37367729246E+02  0.62026894842E+02  0.18722881004E+02  0.74911291177E+02  0.41800000000E+01 0. -1.
         -5    1    1    2    0  502  0.35174281775E+02 -0.40810769333E+02  0.22150049239E+02  0.58402449206E+02  0.41800000000E+01 0. -1.
        -11    1    1    2    0    0  0.17785930635E+02 -0.52877602884E+02 -0.30655500156E+02  0.63656420769E+02  0.00000000000E+00 0. -1.
         11    1    1    2    0    0 -0.15592483164E+02  0.31661477375E+02  0.45505268471E+00  0.35295633635E+02  0.00000000000E+00 0.  1.
</event>
<event>
 6    1  0.6447971E-006  0.1121759E+03  0.7561462E-02  0.1256593E+00
          1   -1    0    0  501    0  0.00000000000E+00  0.00000000000E+00  0.20441762979E+03  0.20441762979E+03  0.00000000000E+00 0.  1.
         -1   -1    0    0    0  501 -0.00000000000E+00 -0.00000000000E+00 -0.69053602774E+02  0.69053602774E+02  0.00000000000E+00 0. -1.
          5    1    1    2  502    0 -0.73768048309E+02  0.28886289134E+02  0.16978762098E+02  0.81128869175E+02  0.41800000000E+01 0.  1.
         -5    1    1    2    0  502  0.50401099366E+02 -0.15150518725E+01  0.17321005849E+02  0.53479489929E+02  0.41800000000E+01 0.  1.
        -11    1    1    2    0    0 -0.21727814076E+02 -0.41771421412E+02  0.59424947366E+02  0.75817372157E+02  0.00000000000E+00 0.  1.
         11    1    1    2    0    0  0.45094763019E+02  0.14400184151E+02  0.41639311704E+02  0.63045501302E+02  0.00000000000E+00 0. -1.
</event>
<event>
 6    1  0.6447971E-006  0.1979519E+03  0.7561462E-02  0.1151479E+00
         -1   -1    0    0    0  501 -0.00000000000E+00  0.00000000000E+00  0.11326116936E+03  0.11326116936E+03  0.00000000000E+00 0.  1.
          1   -1    0    0  501    0  0.00000000000E+00 -0.00000000000E+00 -0.11641989457E+04  0.11641989457E+04  0.00000000000E+00 0. -1.
          5    1    1    2  502    0 -0.76106001063E+01 -0.12949677943E+03 -0.53152448554E+03  0.54714083036E+03  0.41800000000E+01 0. -1.
         -5    1    1    2    0  502 -0.90739691577E+02  0.17606070013E+02  0.69561587483E+02  0.11575816249E+03  0.41800000000E+01 0.  1.
        -11    1    1    2    0    0  0.10147382437E+03  0.12449108481E+03 -0.51522689684E+03  0.53967927740E+03  0.00000000000E+00 0.  1.
         11    1    1    2    0    0 -0.31235326873E+01 -0.12600375395E+02 -0.73747981478E+02  0.74881844853E+02  0.00000000000E+00 0. -1.
</event>
<event>
 6    1  0.6447971E-006  0.1142933E+03  0.7561462E-02  0.1252820E+00
         -2   -1    0    0    0  501 -0.00000000000E+00  0.00000000000E+00  0.53011050417E+02  0.53011050417E+02  0.00000000000E+00 0.  1.
          2   -1    0    0  501    0  0.00000000000E+00 -0.00000000000E+00 -0.35407986287E+03  0.35407986287E+03  0.00000000000E+00 0. -1.
          5    1    1    2  502    0  0.21804812941E+02  0.63323844916E+01 -0.11558224554E+03  0.11786550320E+03  0.41800000000E+01 0.  1.
         -5    1    1    2    0  502 -0.21987165672E+02 -0.85846955122E+02 -0.40959772270E+02  0.97715456825E+02  0.41800000000E+01 0.  1.
        -11    1    1    2    0    0 -0.41699293951E+02  0.52074265198E+02 -0.46135908276E+02  0.81111541992E+02  0.00000000000E+00 0.  1.
         11    1    1    2    0    0  0.41881646682E+02  0.27440305433E+02 -0.98390886368E+02  0.11039841127E+03  0.00000000000E+00 0. -1.
</event>
<event>
 6    1  0.6447971E-006  0.7147255E+02  0.7561462E-02  0.1355156E+00
         -2   -1    0    0    0  501 -0.00000000000E+00  0.00000000000E+00  0.35291670887E+03  0.35291670887E+03  0.00000000000E+00 0.  1.
          2   -1    0    0  501    0  0.00000000000E+00 -0.00000000000E+00 -0.31732077029E+02  0.31732077029E+02  0.00000000000E+00 0. -1.
          5    1    1    2  502    0 -0.42912399251E+02 -0.14249981662E+02  0.29160561416E+02  0.53966162814E+02  0.41800000000E+01 0. -1.
         -5    1    1    2    0  502  0.67001569167E+02 -0.14681854256E+01  0.29072421572E+03  0.29837796139E+03  0.41800000000E+01 0.  1.
        -11    1    1    2    0    0 -0.14905115515E+02  0.38743153618E+01  0.61041271050E+01  0.16566024138E+02  0.00000000000E+00 0. -1.
         11    1    1    2    0    0 -0.91840544012E+01  0.11843851726E+02 -0.48042723938E+01  0.15738637558E+02  0.00000000000E+00 0.  1.
</event>
<event>
 6    1  0.6447971E-006  0.1279617E+03  0.7561462E-02  0.1230512E+00
         -1   -1    0    0    0  501 -0.00000000000E+00  0.00000000000E+00  0.90542352756E+02  0.90542352756E+02  0.00000000000E+00 0.  1.
          1   -1    0    0  501    0  0.00000000000E+00 -0.00000000000E+00 -0.26387736608E+03  0.26387736608E+03  0.00000000000E+00 0. -1.
          5    1    1    2  502    0 -0.80524479365E+02  0.54358397110E+02  0.24105075681E+02  0.10018759498E+03  0.41800000000E+01 0. -1.
         -5    1    1    2    0  502  0.13185487932E+02 -0.30405809537E+02 -0.28564015964E+02  0.43951629703E+02  0.41800000000E+01 0. -1.
        -11    1    1    2    0    0  0.22241190127E+02  0.40739160317E+02 -0.64396894891E+02  0.79380789825E+02  0.00000000000E+00 0. -1.
         11    1    1    2    0    0  0.45097801306E+02 -0.64691747889E+02 -0.10447917814E+03  0.13089970433E+03  0.00000000000E+00 0.  1.
</event>
<event>
 6    1  0.6447971E-006  0.1047717E+03  0.7561462E-02  0.1270570E+00
          1   -1    0    0  501    0  0.00000000000E+00  0.00000000000E+00  0.28565592227E+03  0.28565592227E+03  0.00000000000E+00 0. -1.
         -1   -1    0    0    0  501 -0.00000000000E+00 -0.00000000000E+00 -0.68474340505E+02  0.68474340505E+02  0.00000000000E+00 0.  1.
          5    1    1    2  502    0  0.13897560047E+02  0.19893134728E+02  0.11405120324E+03  0.11667916843E+03  0.41800000000E+01 0.  1.
         -5    1    1    2    0  502  0.72540004628E+02 -0.14149411266E+02  0.92117129394E+00  0.74030933177E+02  0.41800000000E+01 0.  1.
        -11    1    1    2    0    0 -0.43218374855E+02  0.31790486152E+02  0.95341974531E+01  0.54491869631E+02  0.00000000000E+00 0. -1.
         11    1    1    2    0    0 -0.43219189820E+02 -0.37534209614E+02  0.92675009774E+02  0.10892829153E+03  0.00000000000E+00 0.  1.
</event>
<event>
 6    1  0.1743985E-005  0.4338415E+03  0.7561462E-02  0.1032653E+00
          1   -1    0    0  501    0  0.00000000000E+00  0.00000000000E+00  0.33023806922E+03  0.33023806922E+03  0.00000000000E+00 0. -1.
         -1   -1    0    0    0  501 -0.00000000000E+00 -0.00000000000E+00 -0.59659704033E+03  0.59659704033E+03  0.00000000000E+00 0.  1.
          5    1    1    2  502    0  0.10576411614E+02  0.56315411311E+01 -0.71747889593E+01  0.14578228107E+02  0.41800000000E+01 0. -1.
         -5    1    1    2    0  502 -0.35244365283E+03  0.24360309761E+03 -0.20885777725E+03  0.47665295667E+03  0.41800000000E+01 0. -1.
        -11    1    1    2    0    0  0.11757293248E+03 -0.54887757018E+02 -0.49350233448E+02  0.13882184938E+03  0.00000000000E+00 0. -1.
         11    1    1    2    0    0  0.22429430874E+03 -0.19434688172E+03 -0.97617145884E+00  0.29678207540E+03  0.00000000000E+00 0.  1.
</event>
<event>
 6    1  0.6447971E-006  0.8285348E+02  0.7561462E-02  0.1321143E+00
          2   -1    0    0  501    0  0.00000000000E+00  0.00000000000E+00  0.10970313442E+03  0.10970313442E+03  0.00000000000E+00 0.  1.
         -2   -1    0    0    0  501 -0.00000000000E+00 -0.00000000000E+00 -0.14646250345E+03  0.14646250345E+03  0.00000000000E+00 0. -1.
          5    1    1    2  502    0 -0.28284234881E+02 -0.50218330567E+02 -0.95936271101E+02  0.11199606770E+03  0.41800000000E+01 0.  1.
         -5    1    1    2    0  502  0.43240010923E+01  0.39863413870E+02  0.10572715344E+02  0.41677853358E+02  0.41800000000E+01 0.  1.
        -11    1    1    2    0    0  0.25239462687E+00 -0.25019709497E+02  0.54050084070E+02  0.59560567109E+02  0.00000000000E+00 0.  1.
         11    1    1    2    0    0  0.23707839162E+02  0.35374626194E+02 -0.54458973439E+01  0.42931149693E+02  0.00000000000E+00 0. -1.
</event>
<event>
 6    1  0.6447971E-006  0.1691628E+03  0.7561462E-02  0.1178724E+00
          3   -1    0    0  501    0  0.00000000000E+00  0.00000000000E+00  0.34829051900E+02  0.34829051900E+02  0.00000000000E+00 0. -1.
         -3   -1    0    0    0  501 -0.00000000000E+00 -0.00000000000E+00 -0.11181201687E+04  0.11181201687E+04  0.00000000000E+00 0.  1.
          5    1    1    2  502    0 -0.99008679105E+02  0.13483025043E+03 -0.67917343519E+03  0.69948262482E+03  0.41800000000E+01 0.  1.
         -5    1    1    2    0  502  0.72924472309E+01 -0.59472318067E+01 -0.14605493058E+01  0.10399757548E+02  0.41800000000E+01 0.  1.
        -11    1    1    2    0    0  0.16105936834E+02 -0.44863865820E+02 -0.37011603956E+02  0.60349204510E+02  0.00000000000E+00 0. -1.
         11    1    1    2    0    0  0.75610295040E+02 -0.84019152808E+02 -0.36564552838E+03  0.38271763375E+03  0.00000000000E+00 0.  1.
</event>
<event>
 6    1  0.6447971E-006  0.2558941E+03  0.7561462E-02  0.1109636E+00
          2   -1    0    0  501    0  0.00000000000E+00  0.00000000000E+00  0.20392066333E+03  0.20392066333E+03  0.00000000000E+00 0. -1.
         -2   -1    0    0    0  501 -0.00000000000E+00 -0.00000000000E+00 -0.40559098691E+03  0.40559098691E+03  0.00000000000E+00 0.  1.
          5    1    1    2  502    0  0.11089143494E+03  0.19259213232E+02 -0.17464238627E+02  0.11397499580E+03  0.41800000000E+01 0.  1.
         -5    1    1    2    0  502  0.12209426243E+03  0.77452487541E+02 -0.17522923388E+03  0.22721939519E+03  0.41800000000E+01 0.  1.
        -11    1    1    2    0    0 -0.40598477287E+02 -0.31450177558E+02 -0.36920884315E+02  0.63249519564E+02  0.00000000000E+00 0.  1.
         11    1    1    2    0    0 -0.19238722008E+03 -0.65261523215E+02  0.27944033244E+02  0.20506773968E+03  0.00000000000E+00 0. -1.
</event>
<event>
 6    1  0.6447971E-006  0.3595575E+03  0.7561462E-02  0.1058759E+00
          1   -1    0    0  501    0  0.00000000000E+00  0.00000000000E+00  0.66082662686E+03  0.66082662686E+03  0.00000000000E+00 0. -1.
         -1   -1    0    0    0  501 -0.00000000000E+00 -0.00000000000E+00 -0.22340473216E+03  0.22340473216E+03  0.00000000000E+00 0.  1.
          5    1    1    2  502    0 -0.17550998364E+03  0.14281311066E+03  0.12632468541E+03  0.25918089721E+03  0.41800000000E+01 0. -1.
         -5    1    1    2    0  502 -0.11288062631E+03  0.69209263313E+02 -0.13558672862E+02  0.13316631681E+03  0.41800000000E+01 0.  1.
        -11    1    1    2    0    0  0.26470948129E+02 -0.36291359528E+02  0.83609877760E+02  0.94912515141E+02  0.00000000000E+00 0.  1.
         11    1    1    2    0    0  0.26191966182E+03 -0.17573101444E+03  0.24104600439E+03  0.39697162986E+03  0.00000000000E+00 0. -1.
</event>
<event>
 6    1  0.6447971E-006  0.1519133E+03  0.7561462E-02  0.1198141E+00
          2   -1    0    0  501    0  0.00000000000E+00  0.00000000000E+00  0.80072114044E+03  0.80072114044E+03  0.00000000000E+00 0. -1.
         -2   -1    0    0    0  501 -0.00000000000E+00 -0.00000000000E+00 -0.11043754454E+03  0.11043754454E+03  0.00000000000E+00 0.  1.
          5    1    1    2  502    0  0.76479389683E+01 -0.52146527093E+02  0.45801210996E+03  0.46105348554E+03  0.41800000000E+01 0. -1.
         -5    1    1    2    0  502 -0.84007955203E+02  0.12169984731E+01 -0.64373202719E+02  0.10592544194E+03  0.41800000000E+01 0.  1.
        -11    1    1    2    0    0  0.11696721186E+03  0.28272190173E+02  0.16250719526E+03  0.20221086494E+03  0.00000000000E+00 0.  1.
         11    1    1    2    0    0 -0.40607195622E+02  0.22657338446E+02  0.13413749339E+03  0.14196889256E+03  0.00000000000E+00 0. -1.
</event>
<event>
 6    1  0.6447971E-006  0.8635267E+02  0.7561462E-02  0.1311933E+00
         -2   -1    0    0    0  501 -0.00000000000E+00  0.00000000000E+00  0.87069326259E+02  0.87069326259E+02  0.00000000000E+00 0.  1.
          2   -1    0    0  501    0  0.00000000000E+00 -0.00000000000E+00 -0.19331796105E+03  0.19331796105E+03  0.00000000000E+00 0. -1.
          5    1    1    2  502    0 -0.18361130484E+01  0.51148468690E+00 -0.62689992701E+02  0.62858098226E+02  0.41800000000E+01 0. -1.
         -5    1    1    2    0  502  0.36547152498E+02 -0.52139917217E+02  0.44882082511E+02  0.78013710677E+02  0.41800000000E+01 0. -1.
        -11    1    1    2    0    0 -0.25013006906E+02 -0.19995890746E+02 -0.44853912090E+02  0.55112245381E+02  0.00000000000E+00 0. -1.
         11    1    1    2    0    0 -0.96980325440E+01  0.71624323276E+02 -0.43586812507E+02  0.84403233021E+02  0.00000000000E+00 0.  1.
</event>
<event>
 6    1  0.6447971E-006  0.1329496E+03  0.7561462E-02  0.1223144E+00
         -2   -1    0    0    0  501 -0.00000000000E+00  0.00000000000E+00  0.54766613775E+02  0.54766613775E+02  0.00000000000E+00 0.  1.
          2   -1    0    0  501    0  0.00000000000E+00 -0.00000000000E+00 -0.48800468801E+03  0.48800468801E+03  0.00000000000E+00 0. -1.
          5    1    1    2  502    0  0.46644784505E+02 -0.19094497143E+02 -0.36953306635E+01  0.50709600781E+02  0.41800000000E+01 0.  1.
         -5    1    1    2    0  502 -0.44454696330E+01  0.90751205931E+02 -0.80639416465E+02  0.12155546662E+03  0.41800000000E+01 0.  1.
        -11    1    1    2    0    0 -0.22161748123E+02  0.20420908830E+02 -0.74015702291E+02  0.79915460225E+02  0.00000000000E+00 0.  1.
         11    1    1    2    0    0 -0.20037566749E+02 -0.92077617618E+02 -0.27488762482E+03  0.29059077416E+03  0.00000000000E+00 0. -1.
</event>
<event>
 6    1  0.6447971E-006  0.1219933E+03  0.7561462E-02  0.1239844E+00
          1   -1    0    0  501    0  0.00000000000E+00  0.00000000000E+00  0.60019295263E+03  0.60019295263E+03  0.00000000000E+00 0. -1.
         -1   -1    0    0    0  501 -0.00000000000E+00 -0.00000000000E+00 -0.63543218097E+02  0.63543218097E+02  0.00000000000E+00 0.  1.
          5    1    1    2  502    0  0.56970107197E+02 -0.47880656587E+02 -0.16361673185E+02  0.76310727547E+02  0.41800000000E+01 0. -1.
         -5    1    1    2    0  502  0.31862469698E+02 -0.33069258376E+02  0.11348268167E+03  0.12249320089E+03  0.41800000000E+01 0. -1.
        -11    1    1    2    0    0 -0.27027460979E+02  0.43074688489E+02  0.60492215715E+02  0.79026708128E+02  0.00000000000E+00 0.  1.
         11    1    1    2    0    0 -0.61805115916E+02  0.37875226474E+02  0.37903651033E+03  0.38590553416E+03  0.00000000000E+00 0. -1.
</event>
<event>
 6    1  0.6447971E-006  0.1080719E+03  0.7561462E-02  0.1264183E+00
         -1   -1    0    0    0  501 -0.00000000000E+00  0.00000000000E+00  0.34218773040E+02  0.34218773040E+02  0.00000000000E+00 0.  1.
          1   -1    0    0  501    0  0.00000000000E+00 -0.00000000000E+00 -0.52597843830E+03  0.52597843830E+03  0.00000000000E+00 0. -1.
          5    1    1    2  502    0 -0.25236807465E+02  0.62252716084E+02 -0.73239110207E+02  0.99467264840E+02  0.41800000000E+01 0.  1.
         -5    1    1    2    0  502  0.70589890717E+02  0.12940881341E+01 -0.18268972119E+03  0.19590205196E+03  0.41800000000E+01 0.  1.
        -11    1    1    2    0    0 -0.23020600255E+02 -0.30006186182E+02 -0.15549585613E+02  0.40891427684E+02  0.00000000000E+00 0.  1.
         11    1    1    2    0    0 -0.22332482996E+02 -0.33540618036E+02 -0.22028124825E+03  0.22393646685E+03  0.00000000000E+00 0. -1.
</event>
<event>
 6    1  0.6447971E-006  0.1268925E+03  0.7561462E-02  0.1232141E+00
         -1   -1    0    0    0  501 -0.00000000000E+00  0.00000000000E+00  0.88730002382E+02  0.88730002382E+02  0.00000000000E+00 0.  1.
          1   -1    0    0  501    0  0.00000000000E+00 -0.00000000000E+00 -0.28933016588E+03  0.28933016588E+03  0.00000000000E+00 0. -1.
          5    1    1    2  502    0  0.17556318243E+02  0.34783455090E+02 -0.32559161201E+01  0.39321577385E+02  0.41800000000E+01 0.  1.
         -5    1    1    2    0  502 -0.11238963114E+03 -0.34435583390E+02 -0.22655757048E+02  0.11978311366E+03  0.41800000000E+01 0.  1.
        -11    1    1    2    0    0  0.41480049959E+02  0.99090641570E+01 -0.76815753021E+01  0.43333482391E+02  0.00000000000E+00 0.  1.
         11    1    1    2    0    0  0.53353262936E+02 -0.10256935858E+02 -0.16700691503E+03  0.17562199483E+03  0.00000000000E+00 0. -1.
</event>
<event>
 6    1  0.6447971E-006  0.8274598E+02  0.7561462E-02  0.1321435E+00
          4   -1    0    0  501    0  0.00000000000E+00  0.00000000000E+00  0.83184541487E+02  0.83184541487E+02  0.00000000000E+00 0. -1.
         -4   -1    0    0    0  501 -0.00000000000E+00 -0.00000000000E+00 -0.16652607381E+03  0.16652607381E+03  0.00000000000E+00 0.  1.
          5    1    1    2  502    0 -0.28483764166E+02 -0.14517328509E+02  0.15572955673E+02  0.35805963142E+02  0.41800000000E+01 0. -1.
         -5    1    1    2    0  502  0.64499562637E+02  0.25853869782E+02 -0.92683922409E+02  0.11591547798E+03  0.41800000000E+01 0. -1.
        -11    1    1    2    0    0  0.12169132008E+02 -0.94617171850E+01  0.32610675171E+02  0.36070320223E+02  0.00000000000E+00 0.  1.
         11    1    1    2    0    0 -0.48184930479E+02 -0.18748240880E+01 -0.38841240758E+02  0.61918853948E+02  0.00000000000E+00 0. -1.
</event>
<event>
 6    1  0.6447971E-006  0.9588229E+02  0.7561462E-02  0.1289201E+00
         -1   -1    0    0    0  501 -0.00000000000E+00  0.00000000000E+00  0.34452460564E+02  0.34452460564E+02  0.00000000000E+00 0.  1.
          1   -1    0    0  501    0  0.00000000000E+00 -0.00000000000E+00 -0.45055814071E+03  0.45055814071E+03  0.00000000000E+00 0. -1.
          5    1    1    2  502    0 -0.11670980869E+02  0.50306806829E+02 -0.22108110470E+02  0.56331408258E+02  0.41800000000E+01 0. -1.
         -5    1    1    2    0  502  0.45757503154E+02  0.10310054396E+01 -0.20566056886E+03  0.21073337194E+03  0.41800000000E+01 0. -1.
        -11    1    1    2    0    0 -0.39517917858E+02 -0.66795010037E+02 -0.92623406484E+02  0.12084012010E+03  0.00000000000E+00 0.  1.
         11    1    1    2    0    0  0.54313955732E+01  0.15457197768E+02 -0.95713594335E+02  0.97105700972E+02  0.00000000000E+00 0. -1.
</event>
<event>
 6    1  0.6447971E-006  0.1442698E+03  0.7561462E-02  0.1207696E+00
          2   -1    0    0  501    0  0.00000000000E+00  0.00000000000E+00  0.25105368146E+02  0.25105368146E+02  0.00000000000E+00 0. -1.
         -2   -1    0    0    0  501 -0.00000000000E+00 -0.00000000000E+00 -0.86679339971E+03  0.86679339971E+03  0.00000000000E+00 0.  1.
          5    1    1    2  502    0 -0.61860699089E+02 -0.51101397412E+02 -0.26077051071E+03  0.27286778954E+03  0.41800000000E+01 0.  1.
         -5    1    1    2    0  502 -0.33670043779E+02  0.70370026911E+02 -0.27328011519E+03  0.28422720893E+03  0.41800000000E+01 0.  1.
        -11    1    1    2    0    0  0.30846024993E+02  0.34267094258E+02 -0.13848067249E+03  0.14595412862E+03  0.00000000000E+00 0.  1.
         11    1    1    2    0    0  0.64684717874E+02 -0.53535723756E+02 -0.16915673316E+03  0.18884964077E+03  0.00000000000E+00 0. -1.
</event>
<event>
 6    1  0.6447971E-006  0.8213628E+02  0.7561462E-02  0.1323096E+00
         -2   -1    0    0    0  501 -0.00000000000E+00  0.00000000000E+00  0.12467526183E+02  0.12467526183E+02  0.00000000000E+00 0.  1.
          2   -1    0    0  501    0  0.00000000000E+00 -0.00000000000E+00 -0.10229789824E+04  0.10229789824E+04  0.00000000000E+00 0. -1.
          5    1    1    2  502    0  0.29323706014E+02 -0.64595461914E+01 -0.58080489088E+03  0.58159556320E+03  0.41800000000E+01 0.  1.
         -5    1    1    2    0  502 -0.26011354650E+02  0.37743901758E+02 -0.85731050994E+02  0.97306105642E+02  0.41800000000E+01 0.  1.
        -11    1    1    2    0    0 -0.89815875215E+01  0.27469500854E+02 -0.61285426102E+02  0.67757994688E+02  0.00000000000E+00 0.  1.
         11    1    1    2    0    0  0.56692361571E+01 -0.58753856420E+02 -0.28269008825E+03  0.28878684506E+03  0.00000000000E+00 0. -1.
</event>
<event>
 6    1  0.6447971E-006  0.1415276E+03  0.7561462E-02  0.1211288E+00
          1   -1    0    0  501    0  0.00000000000E+00  0.00000000000E+00  0.38454775042E+02  0.38454775042E+02  0.00000000000E+00 0. -1.
         -1   -1    0    0    0  501 -0.00000000000E+00 -0.00000000000E+00 -0.60999031306E+03  0.60999031306E+03  0.00000000000E+00 0.  1.
          5    1    1    2  502    0  0.20316956309E+02  0.92128517959E+02 -0.20527331235E+03  0.22595364060E+03  0.41800000000E+01 0.  1.
         -5    1    1    2    0  502  0.57156965221E+02 -0.29156153594E+02 -0.18532085139E+03  0.19615883953E+03  0.41800000000E+01 0.  1.
        -11    1    1    2    0    0 -0.71699971696E+02 -0.11608944836E+02 -0.57938759157E+02  0.92911535097E+02  0.00000000000E+00 0. -1.
         11    1    1    2    0    0 -0.57739498331E+01 -0.51363419529E+02 -0.12300261513E+03  0.13342107289E+03  0.00000000000E+00 0.  1.
</event>
<event>
 6    1  0.6447971E-006  0.1579354E+03  0.7561462E-02  0.1191048E+00
          2   -1    0    0  501    0  0.00000000000E+00  0.00000000000E+00  0.94191678924E+02  0.94191678924E+02  0.00000000000E+00 0. -1.
         -2   -1    0    0    0  501 -0.00000000000E+00 -0.00000000000E+00 -0.45268593491E+03  0.45268593491E+03  0.00000000000E+00 0.  1.
          5    1    1    2  502    0 -0.22657088879E+02 -0.10470040380E+03 -0.28601691657E+03  0.30544830528E+03  0.41800000000E+01 0. -1.
         -5    1    1    2    0  502  0.32972254132E+02 -0.44199676238E+02 -0.23174448071E+02  0.59960890299E+02  0.41800000000E+01 0. -1.
        -11    1    1    2    0    0 -0.14887881974E+01  0.14238668795E+03 -0.12358344072E+02  0.14292975220E+03  0.00000000000E+00 0. -1.
         11    1    1    2    0    0 -0.88263770561E+01  0.65133920889E+01 -0.36944547275E+02  0.38538666061E+02  0.00000000000E+00 0.  1.
</event>
<event>
 6    1  0.6447971E-006  0.7835175E+02  0.7561462E-02  0.1333795E+00
          1   -1    0    0  501    0  0.00000000000E+00  0.00000000000E+00  0.14621129664E+03  0.14621129664E+03  0.00000000000E+00 0. -1.
         -1   -1    0    0    0  501 -0.00000000000E+00 -0.00000000000E+00 -0.14419256911E+03  0.14419256911E+03  0.00000000000E+00 0.  1.
          5    1    1    2  502    0  0.30948523320E+02  0.83567092131E+00 -0.11007072255E+03  0.11441829314E+03  0.41800000000E+01 0.  1.
         -5    1    1    2    0  502 -0.34383861493E+02  0.16617152297E+02  0.17494266049E+02  0.42212574266E+02  0.41800000000E+01 0.  1.
        -11    1    1    2    0    0 -0.37233436366E+02  0.92867080139E+01  0.68576456299E+02  0.78583090343E+02  0.00000000000E+00 0. -1.
         11    1    1    2    0    0  0.40668774539E+02 -0.26739531232E+02  0.26018727735E+02  0.55189908008E+02  0.00000000000E+00 0.  1.
</event>
<event>
 6    1  0.6447971E-006  0.9163624E+02  0.7561462E-02  0.1298937E+00
         -1   -1    0    0    0  501 -0.00000000000E+00  0.00000000000E+00  0.99390498168E+02  0.99390498168E+02  0.00000000000E+00 0.  1.
          1   -1    0    0  501    0  0.00000000000E+00 -0.00000000000E+00 -0.11598259815E+03  0.11598259815E+03  0.00000000000E+00 0. -1.
          5    1    1    2  502    0 -0.41135836771E+02  0.26386543352E+02  0.42907677330E+02  0.65168611392E+02  0.41800000000E+01 0.  1.
         -5    1    1    2    0  502  0.30719985117E+02 -0.36724443974E+02 -0.37396835056E+02  0.60896616844E+02  0.41800000000E+01 0.  1.
        -11    1    1    2    0    0  0.46245926379E+02  0.17816745107E+02 -0.16766480433E+02  0.52318610254E+02  0.00000000000E+00 0. -1.
         11    1    1    2    0    0 -0.35830074725E+02 -0.74788444846E+01 -0.53364618196E+01  0.36989257824E+02  0.00000000000E+00 0.  1.
</event>
<event>
 6    1  0.6447971E-006  0.1207049E+03  0.7561462E-02  0.1241939E+00
          1   -1    0    0  501    0  0.00000000000E+00  0.00000000000E+00  0.12387325730E+03  0.12387325730E+03  0.00000000000E+00 0. -1.
         -1   -1    0    0    0  501 -0.00000000000E+00 -0.00000000000E+00 -0.16464942165E+03  0.16464942165E+03  0.00000000000E+00 0.  1.
          5    1    1    2  502    0  0.97055105112E+02 -0.10461355783E+02  0.14145400577E+02  0.98725367310E+02  0.41800000000E+01 0.  1.
         -5    1    1    2    0  502 -0.97158609746E+01  0.19486058512E+02 -0.55257481668E+02  0.59539617996E+02  0.41800000000E+01 0.  1.
        -11    1    1    2    0    0 -0.72359996509E+02  0.31056225150E+02 -0.22314673747E+02  0.81843771173E+02  0.00000000000E+00 0.  1.
         11    1    1    2    0    0 -0.14979247628E+02 -0.40080927880E+02  0.22650590493E+02  0.48413922470E+02  0.00000000000E+00 0. -1.
</event>
<event>
 6    1  0.6447971E-006  0.9300022E+02  0.7561462E-02  0.1295745E+00
          2   -1    0    0  501    0  0.00000000000E+00  0.00000000000E+00  0.31342017432E+03  0.31342017432E+03  0.00000000000E+00 0. -1.
         -2   -1    0    0    0  501 -0.00000000000E+00 -0.00000000000E+00 -0.41477162539E+02  0.41477162539E+02  0.00000000000E+00 0.  1.
          5    1    1    2  502    0 -0.67996926735E+02  0.31398021363E+02  0.13530068759E+03  0.15470347848E+03  0.41800000000E+01 0.  1.
         -5    1    1    2    0  502  0.36888190457E+02 -0.32293344252E+02  0.43369613433E+02  0.65589591000E+02  0.41800000000E+01 0.  1.
        -11    1    1    2    0    0  0.43973654195E+02 -0.98010902354E+01  0.56581809519E+01  0.45406592525E+02  0.00000000000E+00 0.  1.
         11    1    1    2    0    0 -0.12864917917E+02  0.10696413125E+02  0.87614529798E+02  0.89197674849E+02  0.00000000000E+00 0. -1.
</event>
<event>
 6    1  0.6447971E-006  0.1035256E+03  0.7561462E-02  0.1273052E+00
          2   -1    0    0  501    0  0.00000000000E+00  0.00000000000E+00  0.16217038248E+03  0.16217038248E+03  0.00000000000E+00 0.  1.
         -2   -1    0    0    0  501 -0.00000000000E+00 -0.00000000000E+00 -0.87101902792E+02  0.87101902792E+02  0.00000000000E+00 0. -1.
          5    1    1    2  502    0  0.64825939579E+02 -0.32988586178E+02  0.34016084767E+02  0.80406564926E+02  0.41800000000E+01 0.  1.
         -5    1    1    2    0  502 -0.19055348587E+02  0.58998773631E+02  0.15375805828E+02  0.64014446843E+02  0.41800000000E+01 0.  1.
        -11    1    1    2    0    0  0.32500919785E+01 -0.22689175992E+02  0.46224021345E+02  0.51594786116E+02  0.00000000000E+00 0.  1.
         11    1    1    2    0    0 -0.49020682970E+02 -0.33210114605E+01 -0.20547432257E+02  0.53256487383E+02  0.00000000000E+00 0. -1.
</event>
<event>
 6    1  0.6447971E-006  0.1026678E+03  0.7561462E-02  0.1274784E+00
          2   -1    0    0  501    0  0.00000000000E+00  0.00000000000E+00  0.29784720158E+02  0.29784720158E+02  0.00000000000E+00 0. -1.
         -2   -1    0    0    0  501 -0.00000000000E+00 -0.00000000000E+00 -0.97204573196E+03  0.97204573196E+03  0.00000000000E+00 0.  1.
          5    1    1    2  502    0 -0.58085519864E+02  0.59995748295E+02 -0.10242938445E+03  0.13222204291E+03  0.41800000000E+01 0. -1.
         -5    1    1    2    0  502  0.24024026639E+02 -0.31408601575E+02 -0.67106996181E+03  0.67224699341E+03  0.41800000000E+01 0.  1.
        -11    1    1    2    0    0  0.44199761006E+01 -0.46907040091E+02 -0.15113982010E+03  0.15831314481E+03  0.00000000000E+00 0. -1.
         11    1    1    2    0    0  0.29641517124E+02  0.18319893372E+02 -0.17621845439E+02  0.39048270989E+02  0.00000000000E+00 0.  1.
</event>
<event>
 6    1  0.6447971E-006  0.1870802E+03  0.7561462E-02  0.1161121E+00
         -2   -1    0    0    0  501 -0.00000000000E+00  0.00000000000E+00  0.69774015348E+02  0.69774015348E+02  0.00000000000E+00 0.  1.
          2   -1    0    0  501    0  0.00000000000E+00 -0.00000000000E+00 -0.56578433238E+03  0.56578433238E+03  0.00000000000E+00 0. -1.
          5    1    1    2  502    0  0.89158024762E+02  0.26436996592E+02 -0.15201099424E+03  0.17824949632E+03  0.41800000000E+01 0. -1.
         -5    1    1    2    0  502  0.13872753701E+02  0.10146263375E+03 -0.65486568702E+02  0.12162681621E+03  0.41800000000E+01 0. -1.
        -11    1    1    2    0    0 -0.10485896265E+03 -0.83237382178E+02 -0.24713507309E+03  0.28106868945E+03  0.00000000000E+00 0. -1.
         11    1    1    2    0    0  0.18281841837E+01 -0.44662248160E+02 -0.31377680996E+02  0.54613345739E+02  0.00000000000E+00 0.  1.
</event>
<event>
 6    1  0.6447971E-006  0.1143486E+03  0.7561462E-02  0.1252722E+00
          2   -1    0    0  501    0  0.00000000000E+00  0.00000000000E+00  0.73581693281E+02  0.73581693281E+02  0.00000000000E+00 0. -1.
         -2   -1    0    0    0  501 -0.00000000000E+00 -0.00000000000E+00 -0.24192683005E+03  0.24192683005E+03  0.00000000000E+00 0.  1.
          5    1    1    2  502    0  0.52575015384E+02  0.93588281147E+02 -0.84378712791E+02  0.13660211632E+03  0.41800000000E+01 0.  1.
         -5    1    1    2    0  502 -0.48832309766E+01 -0.37024557626E+02 -0.37247204912E+02  0.52910211547E+02  0.41800000000E+01 0.  1.
        -11    1    1    2    0    0 -0.17344575789E+02  0.22707773125E+01 -0.56437822040E+02  0.59086533961E+02  0.00000000000E+00 0.  1.
         11    1    1    2    0    0 -0.30347208618E+02 -0.58834500833E+02  0.97186029712E+01  0.66909661506E+02  0.00000000000E+00 0. -1.
</event>
<event>
 6    1  0.6447971E-006  0.2589629E+03  0.7561462E-02  0.1107768E+00
         -3   -1    0    0    0  501 -0.00000000000E+00  0.00000000000E+00  0.93320408015E+03  0.93320408015E+03  0.00000000000E+00 0.  1.
          3   -1    0    0  501    0  0.00000000000E+00 -0.00000000000E+00 -0.88902728839E+02  0.88902728839E+02  0.00000000000E+00 0. -1.
          5    1    1    2  502    0 -0.23587472918E+03 -0.48072953012E+01  0.41036470528E+03  0.47336736441E+03  0.41800000000E+01 0. -1.
         -5    1    1    2    0  502 -0.17635599724E+02  0.11834005464E+02  0.16775912969E+03  0.16914980360E+03  0.41800000000E+01 0.  1.
        -11    1    1    2    0    0  0.24883061367E+03  0.34397525325E+01  0.27029564368E+03  0.36740745935E+03  0.00000000000E+00 0.  1.
         11    1    1    2    0    0  0.46797152338E+01 -0.10466462696E+02 -0.41181273473E+01  0.12182181614E+02  0.00000000000E+00 0. -1.
</event>
<event>
 6    1  0.6447971E-006  0.1304382E+03  0.7561462E-02  0.1226807E+00
          2   -1    0    0  501    0  0.00000000000E+00  0.00000000000E+00  0.41838420330E+02  0.41838420330E+02  0.00000000000E+00 0. -1.
         -2   -1    0    0    0  501 -0.00000000000E+00 -0.00000000000E+00 -0.51755291078E+03  0.51755291078E+03  0.00000000000E+00 0.  1.
          5    1    1    2  502    0  0.10028820384E+02  0.81007279761E+02 -0.21343350527E+03  0.22854778534E+03  0.41800000000E+01 0.  1.
         -5    1    1    2    0  502  0.64389333120E+02 -0.26701351742E+02 -0.11058904837E+03  0.13079127809E+03  0.41800000000E+01 0.  1.
        -11    1    1    2    0    0 -0.33048947909E+01 -0.35636188602E+02 -0.10968246518E+03  0.11537375541E+03  0.00000000000E+00 0.  1.
         11    1    1    2    0    0 -0.71113258714E+02 -0.18669739416E+02 -0.42009471625E+02  0.84678512274E+02  0.00000000000E+00 0. -1.
</event>
<event>
 6    1  0.6447971E-006  0.1822129E+03  0.7561462E-02  0.1165678E+00
          2   -1    0    0  501    0  0.00000000000E+00  0.00000000000E+00  0.51174328456E+03  0.51174328456E+03  0.00000000000E+00 0. -1.
         -2   -1    0    0    0  501 -0.00000000000E+00 -0.00000000000E+00 -0.82906573253E+02  0.82906573253E+02  0.00000000000E+00 0.  1.
          5    1    1    2  502    0 -0.16309449850E+02  0.73309117370E+01  0.30956102432E+01  0.18622449466E+02  0.41800000000E+01 0. -1.
         -5    1    1    2    0  502  0.11905875598E+03 -0.12289805211E+03  0.85607978306E+02  0.19137689761E+03  0.41800000000E+01 0.  1.
        -11    1    1    2    0    0 -0.11682598087E+03  0.98754928987E+02  0.26090252256E+03  0.30244168378E+03  0.00000000000E+00 0. -1.
         11    1    1    2    0    0  0.14076674750E+02  0.16812211388E+02  0.79230600193E+02  0.82208826963E+02  0.00000000000E+00 0.  1.
</event>
<event>
 6    1  0.6447971E-006  0.1109087E+03  0.7561462E-02  0.1258896E+00
          2   -1    0    0  501    0  0.00000000000E+00  0.00000000000E+00  0.13151021596E+03  0.13151021596E+03  0.00000000000E+00 0. -1.
         -2   -1    0    0    0  501 -0.00000000000E+00 -0.00000000000E+00 -0.13133229027E+03  0.13133229027E+03  0.00000000000E+00 0.  1.
          5    1    1    2  502    0  0.19438929533E+02 -0.30123743727E+02  0.46153678343E+01  0.36387991670E+02  0.41800000000E+01 0. -1.
         -5    1    1    2    0  502 -0.40974409867E+02  0.98471378690E+02 -0.19950729873E+02  0.10858645729E+03  0.41800000000E+01 0. -1.
        -11    1    1    2    0    0  0.26787893974E+02 -0.29754712316E+02 -0.35621370934E+02  0.53589329495E+02  0.00000000000E+00 0.  1.
         11    1    1    2    0    0 -0.52524136393E+01 -0.38592922647E+02  0.51134658660E+02  0.64278727770E+02  0.00000000000E+00 0. -1.
</event>
<event>
 6    1  0.6447971E-006  0.1011044E+03  0.7561462E-02  0.1277991E+00
          1   -1    0    0  501    0  0.00000000000E+00  0.00000000000E+00  0.32894108281E+02  0.32894108281E+02  0.00000000000E+00 0. -1.
         -1   -1    0    0    0  501 -0.00000000000E+00 -0.00000000000E+00 -0.46635170673E+03  0.46635170673E+03  0.00000000000E+00 0.  1.
          5    1    1    2  502    0  0.84465759770E+02 -0.21482592990E+02 -0.18304634497E+03  0.20277919810E+03  0.41800000000E+01 0.  1.
         -5    1    1    2    0  502 -0.45186758631E+02 -0.44269185904E+01 -0.12283965415E+03  0.13102859915E+03  0.41800000000E+01 0.  1.
        -11    1    1    2    0    0  0.75836131784E+01  0.20894806282E+02 -0.11434714451E+03  0.11648765418E+03  0.00000000000E+00 0.  1.
         11    1    1    2    0    0 -0.46862614317E+02  0.50147052990E+01 -0.13224454824E+02  0.48950363586E+02  0.00000000000E+00 0. -1.
</event>
<event>
 6    1  0.6447971E-006  0.8920140E+02  0.7561462E-02  0.1304797E+00
         -2   -1    0    0    0  501 -0.00000000000E+00  0.00000000000E+00  0.61155140771E+02  0.61155140771E+02  0.00000000000E+00 0.  1.
          2   -1    0    0  501    0  0.00000000000E+00 -0.00000000000E+00 -0.20563714193E+03  0.20563714193E+03  0.00000000000E+00 0. -1.
          5    1    1    2  502    0 -0.47952080671E+02  0.27837730474E+02 -0.14568590965E+02  0.57480931806E+02  0.41800000000E+01 0. -1.
         -5    1    1    2    0  502  0.67148170243E+02 -0.17305443885E+02 -0.45279300606E+02  0.82921906746E+02  0.41800000000E+01 0. -1.
        -11    1    1    2    0    0 -0.29551766026E+02  0.92804196995E+01 -0.96309863905E+02  0.10116829024E+03  0.00000000000E+00 0. -1.
         11    1    1    2    0    0  0.10355676455E+02 -0.19812706288E+02  0.11675754320E+02  0.25221153903E+02  0.00000000000E+00 0.  1.
</event>
<event>
 6    1  0.6447971E-006  0.3331422E+03  0.7561462E-02  0.1069755E+00
          2   -1    0    0  501    0  0.00000000000E+00  0.00000000000E+00  0.10825343799E+03  0.10825343799E+03  0.00000000000E+00 0. -1.
         -2   -1    0    0    0  501 -0.00000000000E+00 -0.00000000000E+00 -0.12033229871E+04  0.12033229871E+04  0.00000000000E+00 0.  1.
          5    1    1    2  502    0 -0.25832923787E+02  0.53981525151E+02 -0.28257697955E+03  0.28887465583E+03  0.41800000000E+01 0. -1.
         -5    1    1    2    0  502 -0.16013160258E+03  0.21440335983E+03 -0.46724747806E+03  0.53846876326E+03  0.41800000000E+01 0. -1.
        -11    1    1    2    0    0  0.28786465921E+02 -0.11680050688E+03 -0.10620997247E+03  0.16047297990E+03  0.00000000000E+00 0.  1.
         11    1    1    2    0    0  0.15717806045E+03 -0.15158437811E+03 -0.23903511903E+03  0.32376002610E+03  0.00000000000E+00 0. -1.
</event>
<event>
 6    1  0.6447971E-006  0.1004866E+03  0.7561462E-02  0.1279276E+00
          1   -1    0    0  501    0  0.00000000000E+00  0.00000000000E+00  0.18964131060E+03  0.18964131060E+03  0.00000000000E+00 0. -1.
         -1   -1    0    0    0  501 -0.00000000000E+00 -0.00000000000E+00 -0.91539966271E+02  0.91539966271E+02  0.00000000000E+00 0.  1.
          5    1    1    2  502    0  0.53049153066E+02  0.50089856689E+02  0.36708943583E+02  0.81781570804E+02  0.41800000000E+01 0. -1.
         -5    1    1    2    0  502 -0.68843515063E+01 -0.33016142596E+02 -0.40266382227E+02  0.52690738325E+02  0.41800000000E+01 0. -1.
        -11    1    1    2    0    0 -0.10337068385E+02 -0.46444589243E+02  0.17605277806E+02  0.50733624544E+02  0.00000000000E+00 0.  1.
         11    1    1    2    0    0 -0.35827733175E+02  0.29370875149E+02  0.84053505167E+02  0.95975343200E+02  0.00000000000E+00 0. -1.
</event>
<event>
 6    1  0.6447971E-006  0.1281078E+03  0.7561462E-02  0.1230291E+00
         -1   -1    0    0    0  501 -0.00000000000E+00  0.00000000000E+00  0.42508620745E+02  0.42508620745E+02  0.00000000000E+00 0.  1.
          1   -1    0    0  501    0  0.00000000000E+00 -0.00000000000E+00 -0.56606452934E+03  0.56606452934E+03  0.00000000000E+00 0. -1.
          5    1    1    2  502    0 -0.29412397486E+01  0.64973013907E+02 -0.36108386685E+02  0.74507928548E+02  0.41800000000E+01 0.  1.
         -5    1    1    2    0  502 -0.80125118888E+02 -0.59073727905E+01 -0.16305254493E+03  0.18182006638E+03  0.41800000000E+01 0.  1.
        -11    1    1    2    0    0  0.37737798577E+02 -0.52698173899E+02 -0.76990138537E+02  0.10064154413E+03  0.00000000000E+00 0.  1.
         11    1    1    2    0    0  0.45328560059E+02 -0.63674672181E+01 -0.24740483844E+03  0.25160361102E+03  0.00000000000E+00 0. -1.
</event>
<event>
 6    1  0.6447971E-006  0.1460056E+03  0.7561462E-02  0.1205469E+00
         -2   -1    0    0    0  501 -0.00000000000E+00  0.00000000000E+00  0.44436769752E+03  0.44436769752E+03  0.00000000000E+00 0.  1.
          2   -1    0    0  501    0  0.00000000000E+00 -0.00000000000E+00 -0.74027693700E+02  0.74027693700E+02  0.00000000000E+00 0. -1.
          5    1    1    2  502    0 -0.41814548600E+02  0.91710077805E+02  0.17980613558E+03  0.20617204863E+03  0.41800000000E+01 0. -1.
         -5    1    1    2    0  502 -0.40975799642E+02 -0.36462851155E+02  0.16400930854E+03  0.17298867407E+03  0.41800000000E+01 0. -1.
        -11    1    1    2    0    0  0.75748423660E+02  0.45757096064E+01  0.85075300808E+01  0.76361894119E+02  0.00000000000E+00 0.  1.
         11    1    1    2    0    0  0.70419245822E+01 -0.59822936256E+02  0.18017029627E+02  0.62872774400E+02  0.00000000000E+00 0. -1.
</event>
<event>
 6    1  0.6447971E-006  0.1147250E+03  0.7561462E-02  0.1252062E+00
          1   -1    0    0  501    0  0.00000000000E+00  0.00000000000E+00  0.13268224278E+03  0.13268224278E+03  0.00000000000E+00 0. -1.
         -1   -1    0    0    0  501 -0.00000000000E+00 -0.00000000000E+00 -0.26013466205E+03  0.26013466205E+03  0.00000000000E+00 0.  1.
          5    1    1    2  502    0  0.82241027963E+02  0.29695444808E+02 -0.39124767309E+02  0.95883397623E+02  0.41800000000E+01 0. -1.
         -5    1    1    2    0  502  0.20552436837E+01  0.20222438425E+02 -0.14865758184E+03  0.15009903425E+03  0.41800000000E+01 0. -1.
        -11    1    1    2    0    0 -0.50931522934E+02  0.10629183965E+02 -0.42884287722E+01  0.52205269863E+02  0.00000000000E+00 0.  1.
         11    1    1    2    0    0 -0.33364748713E+02 -0.60547067198E+02  0.64618358657E+02  0.94629203095E+02  0.00000000000E+00 0. -1.
</event>
<event>
 6    1  0.6447971E-006  0.1161016E+03  0.7561462E-02  0.1249670E+00
         -1   -1    0    0    0  501 -0.00000000000E+00  0.00000000000E+00  0.25456431661E+02  0.25456431661E+02  0.00000000000E+00 0.  1.
          1   -1    0    0  501    0  0.00000000000E+00 -0.00000000000E+00 -0.92041836480E+03  0.92041836480E+03  0.00000000000E+00 0. -1.
          5    1    1    2  502    0 -0.16825949336E+02 -0.52973842288E+02 -0.40126856711E+02  0.68680256023E+02  0.41800000000E+01 0.  1.
         -5    1    1    2    0  502 -0.41362371675E+02 -0.33027263011E+02 -0.34940088316E+03  0.35341207597E+03  0.41800000000E+01 0.  1.
        -11    1    1    2    0    0 -0.13586941718E+02  0.35290801010E+01 -0.12269203012E+02  0.18643839040E+02  0.00000000000E+00 0.  1.
         11    1    1    2    0    0  0.71775262729E+02  0.82472025198E+02 -0.49316499026E+03  0.50513862543E+03  0.00000000000E+00 0. -1.
</event>
<event>
 6    1  0.6447971E-006  0.8165175E+02  0.7561462E-02  0.1324428E+00
         -2   -1    0    0    0  501 -0.00000000000E+00  0.00000000000E+00  0.32835385467E+02  0.32835385467E+02  0.00000000000E+00 0.  1.
          2   -1    0    0  501    0  0.00000000000E+00 -0.00000000000E+00 -0.44258332766E+03  0.44258332766E+03  0.00000000000E+00 0. -1.
          5    1    1    2  502    0 -0.10705987938E+02  0.32415424475E+02 -0.12859784626E+03  0.13311745334E+03  0.41800000000E+01 0. -1.
         -5    1    1    2    0  502 -0.81880377851E+01 -0.69696621536E+02 -0.39813310261E+02  0.80791305784E+02  0.41800000000E+01 0. -1.
        -11    1    1    2    0    0  0.11528394551E+01  0.40553724598E+02 -0.24001658253E+03  0.24342122649E+03  0.00000000000E+00 0. -1.
         11    1    1    2    0    0  0.17741186268E+02 -0.32725275369E+01 -0.13202031462E+01  0.18088727513E+02  0.00000000000E+00 0.  1.
</event>
<event>
 6    1  0.6447971E-006  0.7915130E+02  0.7561462E-02  0.1331477E+00
          2   -1    0    0  501    0  0.00000000000E+00  0.00000000000E+00  0.44866249741E+02  0.44866249741E+02  0.00000000000E+00 0. -1.
         -2   -1    0    0    0  501 -0.00000000000E+00 -0.00000000000E+00 -0.35533286100E+03  0.35533286100E+03  0.00000000000E+00 0.  1.
          5    1    1    2  502    0  0.10738902722E+02 -0.13496441185E+02  0.82895193393E+01  0.19587406342E+02  0.41800000000E+01 0.  1.
         -5    1    1    2    0  502  0.16599842575E+01  0.62970787491E+02 -0.24454698372E+03  0.25256439827E+03  0.41800000000E+01 0.  1.
        -11    1    1    2    0    0 -0.25449812322E+02  0.82147789595E+00  0.11403380292E+02  0.27899907800E+02  0.00000000000E+00 0. -1.
         11    1    1    2    0    0  0.13050925343E+02 -0.50295824202E+02 -0.85612527169E+02  0.10014739833E+03  0.00000000000E+00 0.  1.
</event>
<event>
 6    1  0.6447971E-006  0.1465871E+03  0.7561462E-02  0.1204731E+00
          1   -1    0    0  501    0  0.00000000000E+00  0.00000000000E+00  0.12242431892E+03  0.12242431892E+03  0.00000000000E+00 0. -1.
         -1   -1    0    0    0  501 -0.00000000000E+00 -0.00000000000E+00 -0.20506175816E+03  0.20506175816E+03  0.00000000000E+00 0.  1.
          5    1    1    2  502    0 -0.54436933325E+02  0.82159042216E+02 -0.73687972346E+02  0.12312951554E+03  0.41800000000E+01 0. -1.
         -5    1    1    2    0  502 -0.38686148671E+02 -0.46379547364E+02 -0.30390645211E+02  0.67740270364E+02  0.41800000000E+01 0. -1.
        -11    1    1    2    0    0  0.10058373353E+03 -0.32737074559E+01  0.22989252892E+02  0.10322940647E+03  0.00000000000E+00 0. -1.
         11    1    1    2    0    0 -0.74606515368E+01 -0.32505787396E+02 -0.15480745713E+01  0.33386884708E+02  0.00000000000E+00 0.  1.
</event>
<event>
 6    1  0.6447971E-006  0.1016489E+03  0.7561462E-02  0.1276866E+00
          1   -1    0    0  501    0  0.00000000000E+00  0.00000000000E+00  0.51819769385E+02  0.51819769385E+02  0.00000000000E+00 0. -1.
         -1   -1    0    0    0  501 -0.00000000000E+00 -0.00000000000E+00 -0.27352777924E+03  0.27352777924E+03  0.00000000000E+00 0.  1.
          5    1    1    2  502    0 -0.49540279752E+02  0.37977593352E+02 -0.14870702668E+03  0.16133130229E+03  0.41800000000E+01 0. -1.
         -5    1    1    2    0  502  0.29459645329E+02 -0.39452877754E+02 -0.30261902492E+02  0.57945279431E+02  0.41800000000E+01 0. -1.
        -11    1    1    2    0    0 -0.22696984014E+02  0.31667364890E+02 -0.36418202016E+02  0.53331609018E+02  0.00000000000E+00 0.  1.
         11    1    1    2    0    0  0.42777618437E+02 -0.30192080488E+02 -0.63208786693E+01  0.52739357888E+02  0.00000000000E+00 0. -1.
</event>
<event>
 6    1  0.6447971E-006  0.1888948E+03  0.7561462E-02  0.1159462E+00
         -1   -1    0    0    0  501 -0.00000000000E+00  0.00000000000E+00  0.56052726653E+03  0.56052726653E+03  0.00000000000E+00 0.  1.
          1   -1    0    0  501    0  0.00000000000E+00 -0.00000000000E+00 -0.70055304076E+02  0.70055304076E+02  0.00000000000E+00 0. -1.
          5    1    1    2  502    0 -0.13129295215E+03  0.27367016277E+02  0.21603251137E+03  0.25431144534E+03  0.41800000000E+01 0. -1.
         -5    1    1    2    0  502  0.34711734583E+01  0.73601764670E+02  0.90746376271E+02  0.11696856849E+03  0.41800000000E+01 0.  1.
        -11    1    1    2    0    0  0.10978487315E+03 -0.60153627434E+02  0.17278130545E+03  0.21336484429E+03  0.00000000000E+00 0.  1.
         11    1    1    2    0    0  0.18036905544E+02 -0.40815153513E+02  0.10911769365E+02  0.45937712487E+02  0.00000000000E+00 0. -1.
</event>
<event>
 6    1  0.6447971E-006  0.1367483E+03  0.7561462E-02  0.1217773E+00
          2   -1    0    0  501    0  0.00000000000E+00  0.00000000000E+00  0.49295248762E+03  0.49295248762E+03  0.00000000000E+00 0. -1.
         -2   -1    0    0    0  501 -0.00000000000E+00 -0.00000000000E+00 -0.67626524499E+02  0.67626524499E+02  0.00000000000E+00 0.  1.
          5    1    1    2  502    0  0.35470931886E+02 -0.14130243012E+02  0.40771863830E+01  0.38625724915E+02  0.41800000000E+01 0. -1.
         -5    1    1    2    0  502 -0.40278196213E+02  0.11163030269E+03  0.52393074036E+02  0.12979277397E+03  0.41800000000E+01 0. -1.
        -11    1    1    2    0    0 -0.29274606851E+02 -0.48522783405E+02  0.27620357355E+03  0.28195722576E+03  0.00000000000E+00 0. -1.
         11    1    1    2    0    0  0.34081871179E+02 -0.48977276270E+02  0.92652129153E+02  0.11020328748E+03  0.00000000000E+00 0.  1.
</event>
<event>
 6    1  0.6447971E-006  0.1099634E+03  0.7561462E-02  0.1260638E+00
          1   -1    0    0  501    0  0.00000000000E+00  0.00000000000E+00  0.41363418257E+03  0.41363418257E+03  0.00000000000E+00 0. -1.
         -1   -1    0    0    0  501 -0.00000000000E+00 -0.00000000000E+00 -0.38499558845E+02  0.38499558845E+02  0.00000000000E+00 0.  1.
          5    1    1    2  502    0 -0.23830782478E+02 -0.44842713684E+02  0.34851298531E+02  0.61732168060E+02  0.41800000000E+01 0. -1.
         -5    1    1    2    0  502  0.61759025266E+01  0.78568059147E+02  0.78149617363E+02  0.11106717240E+03  0.41800000000E+01 0. -1.
        -11    1    1    2    0    0  0.48679809235E+02 -0.33380818293E+02  0.11848745174E+03  0.13237552295E+03  0.00000000000E+00 0.  1.
         11    1    1    2    0    0 -0.31024929284E+02 -0.34452717055E+00  0.14364625609E+03  0.14695887800E+03  0.00000000000E+00 0. -1.
</event>
<event>
 6    1  0.6447971E-006  0.5389901E+02  0.7561462E-02  0.1425378E+00
         -1   -1    0    0    0  501 -0.00000000000E+00  0.00000000000E+00  0.24396178946E+03  0.24396178946E+03  0.00000000000E+00 0. -1.
          1   -1    0    0  501    0  0.00000000000E+00 -0.00000000000E+00 -0.78174755945E+02  0.78174755945E+02  0.00000000000E+00 0.  1.
          5    1    1    2  502    0  0.26302592185E+02 -0.33884897570E+01 -0.12039959221E+02  0.29423481040E+02  0.41800000000E+01 0. -1.
         -5    1    1    2    0  502 -0.19954306994E+02  0.31944336980E+01  0.17447883536E+03  0.17569494916E+03  0.41800000000E+01 0. -1.
        -11    1    1    2    0    0  0.14731778686E+02 -0.24040156408E+02 -0.48457538050E+02  0.56063244798E+02  0.00000000000E+00 0.  1.
         11    1    1    2    0    0 -0.21080063876E+02  0.24234212467E+02  0.51805695425E+02  0.60954870399E+02  0.00000000000E+00 0. -1.
</event>
<event>
 6    1  0.6447971E-006  0.1204303E+03  0.7561462E-02  0.1242389E+00
         -2   -1    0    0    0  501 -0.00000000000E+00  0.00000000000E+00  0.12926890036E+04  0.12926890036E+04  0.00000000000E+00 0.  1.
          2   -1    0    0  501    0  0.00000000000E+00 -0.00000000000E+00 -0.20292119558E+02  0.20292119558E+02  0.00000000000E+00 0. -1.
          5    1    1    2  502    0 -0.19720414854E+02 -0.49142560569E+02  0.11412698458E+03  0.12588219505E+03  0.41800000000E+01 0. -1.
         -5    1    1    2    0  502 -0.72991772170E+02 -0.58317943651E+01  0.77374755471E+03  0.77721590272E+03  0.41800000000E+01 0. -1.
        -11    1    1    2    0    0  0.49848931268E+02  0.74511935946E+01  0.29817394380E+03  0.30240393019E+03  0.00000000000E+00 0.  1.
         11    1    1    2    0    0  0.42863255755E+02  0.47523161340E+02  0.86348401000E+02  0.10747909524E+03  0.00000000000E+00 0. -1.
</event>
<event>
 6    1  0.6447971E-006  0.1107100E+03  0.7561462E-02  0.1259261E+00
          1   -1    0    0  501    0  0.00000000000E+00  0.00000000000E+00  0.27718751158E+03  0.27718751158E+03  0.00000000000E+00 0. -1.
         -1   -1    0    0    0  501 -0.00000000000E+00 -0.00000000000E+00 -0.82089659155E+02  0.82089659155E+02  0.00000000000E+00 0.  1.
          5    1    1    2  502    0 -0.66892102497E+02 -0.36899111952E+02  0.67631204634E+02  0.10211537631E+03  0.41800000000E+01 0. -1.
         -5    1    1    2    0  502  0.13739252292E+02  0.41161856651E+02 -0.39455726629E+02  0.58798743697E+02  0.41800000000E+01 0.  1.
        -11    1    1    2    0    0  0.81909121068E+01  0.38442585096E+02  0.35153962501E+02  0.52732575032E+02  0.00000000000E+00 0.  1.
         11    1    1    2    0    0  0.44961938098E+02 -0.42705329795E+02  0.13176841192E+03  0.14563047569E+03  0.00000000000E+00 0. -1.
</event>
<event>
 6    1  0.6447971E-006  0.7834924E+02  0.7561462E-02  0.1333802E+00
         -1   -1    0    0    0  501 -0.00000000000E+00  0.00000000000E+00  0.45979103703E+03  0.45979103703E+03  0.00000000000E+00 0.  1.
          1   -1    0    0  501    0  0.00000000000E+00 -0.00000000000E+00 -0.36491406850E+02  0.36491406850E+02  0.00000000000E+00 0. -1.
          5    1    1    2  502    0 -0.13413742596E+01 -0.43772672242E+02  0.31579696358E+02  0.54153446263E+02  0.41800000000E+01 0.  1.
         -5    1    1    2    0  502  0.13567836112E+02  0.11342903131E+02  0.32216007537E+03  0.32267217759E+03  0.41800000000E+01 0.  1.
        -11    1    1    2    0    0 -0.32606710630E+02 -0.20021276420E+02  0.41943092139E+02  0.56773867807E+02  0.00000000000E+00 0.  1.
         11    1    1    2    0    0  0.20380248778E+02  0.52451045531E+02  0.27616766315E+02  0.62682952222E+02  0.00000000000E+00 0. -1.
</event>
<event>
 6    1  0.6447971E-006  0.1389115E+03  0.7561462E-02  0.1214801E+00
          2   -1    0    0  501    0  0.00000000000E+00  0.00000000000E+00  0.22305616633E+03  0.22305616633E+03  0.00000000000E+00 0. -1.
         -2   -1    0    0    0  501 -0.00000000000E+00 -0.00000000000E+00 -0.12688857359E+03  0.12688857359E+03  0.00000000000E+00 0.  1.
          5    1    1    2  502    0 -0.47256478729E+02  0.50191132766E+02  0.79663032204E+01  0.69521643948E+02  0.41800000000E+01 0.  1.
         -5    1    1    2    0  502 -0.58723022875E+02 -0.71695600492E+02 -0.28761276102E+02  0.97125362025E+02  0.41800000000E+01 0.  1.
        -11    1    1    2    0    0  0.84974804933E+02 -0.13019711720E+01  0.12510556690E+03  0.15124091864E+03  0.00000000000E+00 0.  1.
         11    1    1    2    0    0  0.21004696671E+02  0.22806438898E+02 -0.81430012770E+01  0.32056815300E+02  0.00000000000E+00 0. -1.
</event>
<event>
 6    1  0.6447971E-006  0.8797296E+02  0.7561462E-02  0.1307836E+00
          2   -1    0    0  501    0  0.00000000000E+00  0.00000000000E+00  0.29036918080E+03  0.29036918080E+03  0.00000000000E+00 0. -1.
         -2   -1    0    0    0  501 -0.00000000000E+00 -0.00000000000E+00 -0.68711206475E+02  0.68711206475E+02  0.00000000000E+00 0.  1.
          5    1    1    2  502    0  0.49803190342E+00  0.46231132362E+02 -0.36071429069E+02  0.58789336025E+02  0.41800000000E+01 0.  1.
         -5    1    1    2    0  502 -0.42636715864E+02  0.34004860528E+01  0.76779489490E+02  0.87988722297E+02  0.41800000000E+01 0.  1.
        -11    1    1    2    0    0  0.45012818684E+02 -0.91114891888E+01  0.16026836648E+03  0.16671869234E+03  0.00000000000E+00 0. -1.
         11    1    1    2    0    0 -0.28741347227E+01 -0.40520129226E+02  0.20681547420E+02  0.45583636609E+02  0.00000000000E+00 0.  1.
</event>
<event>
 6    1  0.6447971E-006  0.1266991E+03  0.7561462E-02  0.1232437E+00
         -1   -1    0    0    0  501 -0.00000000000E+00  0.00000000000E+00  0.23667619386E+02  0.23667619386E+02  0.00000000000E+00 0.  1.
          1   -1    0    0  501    0  0.00000000000E+00 -0.00000000000E+00 -0.89116208995E+03  0.89116208995E+03  0.00000000000E+00 0. -1.
          5    1    1    2  502    0  0.28280659259E+01  0.44792742980E+02 -0.15103458536E+03  0.15761759469E+03  0.41800000000E+01 0. -1.
         -5    1    1    2    0  502  0.79146208228E+02 -0.28721028167E+02 -0.11423181188E+03  0.14196971149E+03  0.41800000000E+01 0.  1.
        -11    1    1    2    0    0 -0.58593876096E+01 -0.42914493350E+02 -0.16275591168E+03  0.16842052413E+03  0.00000000000E+00 0.  1.
         11    1    1    2    0    0 -0.76114886544E+02  0.26842778537E+02 -0.43947216164E+03  0.44682187902E+03  0.00000000000E+00 0. -1.
</event>
<event>
 6    1  0.6447971E-006  0.1308014E+03  0.7561462E-02  0.1226271E+00
         -1   -1    0    0    0  501 -0.00000000000E+00  0.00000000000E+00  0.40609903763E+02  0.40609903763E+02  0.00000000000E+00 0.  1.
          1   -1    0    0  501    0  0.00000000000E+00 -0.00000000000E+00 -0.47056955647E+03  0.47056955647E+03  0.00000000000E+00 0. -1.
          5    1    1    2  502    0  0.20283757626E+02  0.18634916267E+02 -0.94565456942E+01  0.29420903864E+02  0.41800000000E+01 0. -1.
         -5    1    1    2    0  502 -0.10367900207E+03 -0.36380035672E+02 -0.21224398533E+03  0.23903519442E+03  0.41800000000E+01 0. -1.
        -11    1    1    2    0    0  0.96006721120E+01  0.44324110377E+02 -0.90598491075E+02  0.10131577494E+03  0.00000000000E+00 0. -1.
         11    1    1    2    0    0  0.73794572336E+02 -0.26578990973E+02 -0.11766063061E+03  0.14140758701E+03  0.00000000000E+00 0.  1.
</event>
<event>
 6    1  0.6447971E-006  0.2616917E+03  0.7561462E-02  0.1106131E+00
          1   -1    0    0  501    0  0.00000000000E+00  0.00000000000E+00  0.72857112545E+03  0.72857112545E+03  0.00000000000E+00 0. -1.
         -1   -1    0    0    0  501 -0.00000000000E+00 -0.00000000000E+00 -0.98079745196E+02  0.98079745196E+02  0.00000000000E+00 0.  1.
          5    1    1    2  502    0  0.64492288211E+02 -0.12624158119E+03  0.11009224965E+03  0.17953820733E+03  0.41800000000E+01 0.  1.
         -5    1    1    2    0  502  0.11492735968E+03 -0.38578783856E+02  0.20257261929E+03  0.23611386883E+03  0.41800000000E+01 0.  1.
        -11    1    1    2    0    0 -0.63573175932E+02  0.62503341432E+01  0.69320241419E+02  0.94265111496E+02  0.00000000000E+00 0.  1.
         11    1    1    2    0    0 -0.11584647195E+03  0.15857003090E+03  0.24850626989E+03  0.31673368299E+03  0.00000000000E+00 0. -1.
</event>
<event>
 6    1  0.6447971E-006  0.8657318E+02  0.7561462E-02  0.1311369E+00
         -1   -1    0    0    0  501 -0.00000000000E+00  0.00000000000E+00  0.35389660388E+02  0.35389660388E+02  0.00000000000E+00 0.  1.
          1   -1    0    0  501    0  0.00000000000E+00 -0.00000000000E+00 -0.31921888708E+03  0.31921888708E+03  0.00000000000E+00 0. -1.
          5    1    1    2  502    0  0.36941244326E+02  0.11176181547E+02 -0.32094317903E+01  0.38952989856E+02  0.41800000000E+01 0.  1.
         -5    1    1    2    0  502 -0.48006620435E+02 -0.17196965984E+02 -0.15440613305E+03  0.16266252662E+03  0.41800000000E+01 0.  1.
        -11    1    1    2    0    0  0.15844664496E+02 -0.36804266067E+02 -0.40041207767E+02  0.56647203931E+02  0.00000000000E+00 0.  1.
         11    1    1    2    0    0 -0.47792883880E+01  0.42825050504E+02 -0.86172454093E+02  0.96345827064E+02  0.00000000000E+00 0. -1.
</event>
<event>
 6    1  0.6447971E-006  0.1623352E+03  0.7561462E-02  0.1186085E+00
         -1   -1    0    0    0  501 -0.00000000000E+00  0.00000000000E+00  0.19594814260E+03  0.19594814260E+03  0.00000000000E+00 0.  1.
          1   -1    0    0  501    0  0.00000000000E+00 -0.00000000000E+00 -0.15601536407E+03  0.15601536407E+03  0.00000000000E+00 0. -1.
          5    1    1    2  502    0  0.15836341248E+02  0.70554507886E+02  0.80199631380E+01  0.72873318134E+02  0.41800000000E+01 0. -1.
         -5    1    1    2    0  502 -0.99617314374E+02  0.27426630285E+02 -0.32633215347E+02  0.10843536561E+03  0.41800000000E+01 0. -1.
        -11    1    1    2    0    0  0.25194841349E+02 -0.85226900066E+02  0.65966485194E+02  0.11067963541E+03  0.00000000000E+00 0.  1.
         11    1    1    2    0    0  0.58586131777E+02 -0.12754238105E+02 -0.14204544602E+01  0.59975187512E+02  0.00000000000E+00 0. -1.
</event>
<event>
 6    1  0.6447971E-006  0.1047544E+03  0.7561462E-02  0.1270604E+00
          2   -1    0    0  501    0  0.00000000000E+00  0.00000000000E+00  0.52380453231E+03  0.52380453231E+03  0.00000000000E+00 0. -1.
         -2   -1    0    0    0  501 -0.00000000000E+00 -0.00000000000E+00 -0.28517501335E+02  0.28517501335E+02  0.00000000000E+00 0.  1.
          5    1    1    2  502    0  0.41974033118E+01 -0.78916255011E+02  0.90721703633E+02  0.12038809497E+03  0.41800000000E+01 0. -1.
         -5    1    1    2    0  502  0.25219198508E+02  0.41493650034E+02  0.11668207970E+03  0.12645122020E+03  0.41800000000E+01 0. -1.
        -11    1    1    2    0    0  0.21164416704E+02  0.56622108733E+01  0.16032424941E+02  0.27148329891E+02  0.00000000000E+00 0.  1.
         11    1    1    2    0    0 -0.50581018524E+02  0.31760394104E+02  0.27185082270E+03  0.27833438858E+03  0.00000000000E+00 0. -1.
</event>
<event>
 6    1  0.6447971E-006  0.1334456E+03  0.7561462E-02  0.1222431E+00
         -2   -1    0    0    0  501 -0.00000000000E+00  0.00000000000E+00  0.44248678327E+02  0.44248678327E+02  0.00000000000E+00 0.  1.
          2   -1    0    0  501    0  0.00000000000E+00 -0.00000000000E+00 -0.42669177366E+03  0.42669177366E+03  0.00000000000E+00 0. -1.
          5    1    1    2  502    0  0.11536889017E+03 -0.44076433807E+01 -0.21179836977E+03  0.24125801536E+03  0.41800000000E+01 0. -1.
         -5    1    1    2    0  502 -0.28997095678E+02  0.12046321079E+02 -0.25540765954E+02  0.40690890071E+02  0.41800000000E+01 0. -1.
        -11    1    1    2    0    0 -0.14446421107E+02 -0.38723551224E+02 -0.64285167015E+02  0.76425095357E+02  0.00000000000E+00 0. -1.
         11    1    1    2    0    0 -0.71925373385E+02  0.31084873526E+02 -0.80818792594E+02  0.11256645120E+03  0.00000000000E+00 0.  1.
</event>
<event>
 6    1  0.6447971E-006  0.1018811E+03  0.7561462E-02  0.1276389E+00
         -2   -1    0    0    0  501 -0.00000000000E+00  0.00000000000E+00  0.34337382701E+02  0.34337382701E+02  0.00000000000E+00 0.  1.
          2   -1    0    0  501    0  0.00000000000E+00 -0.00000000000E+00 -0.47236408152E+03  0.47236408152E+03  0.00000000000E+00 0. -1.
          5    1    1    2  502    0 -0.33125485784E+02  0.91958416200E+01 -0.50495752934E+00  0.34635078947E+02  0.41800000000E+01 0. -1.
         -5    1    1    2    0  502  0.68716222329E+02 -0.23198926996E+02 -0.13761504114E+03  0.15561324292E+03  0.41800000000E+01 0. -1.
        -11    1    1    2    0    0  0.20656241057E+02 -0.21622874754E+02 -0.14145834147E+03  0.14458454751E+03  0.00000000000E+00 0.  1.
         11    1    1    2    0    0 -0.56246977602E+02  0.35625960131E+02 -0.15844835868E+03  0.17186859484E+03  0.00000000000E+00 0. -1.
</event>
<event>
 6    1  0.6447971E-006  0.9330801E+02  0.7561462E-02  0.1295033E+00
          2   -1    0    0  501    0  0.00000000000E+00  0.00000000000E+00  0.32941679538E+03  0.32941679538E+03  0.00000000000E+00 0. -1.
         -2   -1    0    0    0  501 -0.00000000000E+00 -0.00000000000E+00 -0.52180829371E+02  0.52180829371E+02  0.00000000000E+00 0.  1.
          5    1    1    2  502    0  0.10525883398E+01 -0.39792495121E+02 -0.12929479979E+02  0.42061793385E+02  0.41800000000E+01 0. -1.
         -5    1    1    2    0  502  0.29717704354E+02  0.64776608228E+02  0.73476293450E+02  0.10244700593E+03  0.41800000000E+01 0. -1.
        -11    1    1    2    0    0 -0.12066526714E+02  0.21744018518E+02  0.14623222861E+02  0.28848605774E+02  0.00000000000E+00 0.  1.
         11    1    1    2    0    0 -0.18703765980E+02 -0.46728131625E+02  0.20206592967E+03  0.20824021965E+03  0.00000000000E+00 0. -1.
</event>
<event>
 6    1  0.6447971E-006  0.8663828E+02  0.7561462E-02  0.1311203E+00
         -2   -1    0    0    0  501 -0.00000000000E+00  0.00000000000E+00  0.24910362420E+02  0.24910362420E+02  0.00000000000E+00 0.  1.
          2   -1    0    0  501    0  0.00000000000E+00 -0.00000000000E+00 -0.68881494413E+03  0.68881494413E+03  0.00000000000E+00 0. -1.
          5    1    1    2  502    0 -0.32990106289E+02  0.46325928739E+01 -0.18967807435E+03  0.19262671756E+03  0.41800000000E+01 0.  1.
         -5    1    1    2    0  502  0.31117364581E+02  0.29114369722E+02 -0.77323704038E+01  0.43510905010E+02  0.41800000000E+01 0.  1.
        -11    1    1    2    0    0  0.36841159792E+02 -0.46797379417E+02 -0.35630974829E+03  0.36125323874E+03  0.00000000000E+00 0. -1.
         11    1    1    2    0    0 -0.34968418084E+02  0.13050416822E+02 -0.11018438867E+03  0.11633444524E+03  0.00000000000E+00 0.  1.
</event>
<event>
 6    1  0.6447971E-006  0.1070379E+03  0.7561462E-02  0.1266156E+00
         -2   -1    0    0    0  501 -0.00000000000E+00  0.00000000000E+00  0.42766339705E+02  0.42766339705E+02  0.00000000000E+00 0.  1.
          2   -1    0    0  501    0  0.00000000000E+00 -0.00000000000E+00 -0.32352127300E+03  0.32352127300E+03  0.00000000000E+00 0. -1.
          5    1    1    2  502    0  0.76404344380E+02  0.16806420199E+02 -0.10673420779E+03  0.13239993622E+03  0.41800000000E+01 0.  1.
         -5    1    1    2    0  502 -0.39466879498E+02 -0.34580110433E+02 -0.54964921055E+02  0.76105410855E+02  0.41800000000E+01 0.  1.
        -11    1    1    2    0    0  0.69092521138E+01  0.35229377010E+02 -0.75293970441E+01  0.36681583788E+02  0.00000000000E+00 0.  1.
         11    1    1    2    0    0 -0.43846716996E+02 -0.17455686776E+02 -0.11152640741E+03  0.12110068184E+03  0.00000000000E+00 0. -1.
</event>
<event>
 6    1  0.6447971E-006  0.1030706E+03  0.7561462E-02  0.1273968E+00
         -1   -1    0    0    0  501 -0.00000000000E+00  0.00000000000E+00  0.38189161854E+02  0.38189161854E+02  0.00000000000E+00 0.  1.
          1   -1    0    0  501    0  0.00000000000E+00 -0.00000000000E+00 -0.32562710206E+03  0.32562710206E+03  0.00000000000E+00 0. -1.
          5    1    1    2  502    0  0.62003728424E+02 -0.13020372479E+02 -0.85304810136E+02  0.10634084573E+03  0.41800000000E+01 0. -1.
         -5    1    1    2    0  502 -0.55429037395E+02  0.15236895155E+02 -0.35391289175E+02  0.67635470797E+02  0.41800000000E+01 0. -1.
        -11    1    1    2    0    0  0.58943332155E+00  0.41100600795E+02 -0.11417765912E+03  0.12135132739E+03  0.00000000000E+00 0. -1.
         11    1    1    2    0    0 -0.71641243509E+01 -0.43317123471E+02 -0.52564181774E+02  0.68488619997E+02  0.00000000000E+00 0.  1.
</event>
<event>
 6    1  0.6447971E-006  0.1225182E+03  0.7561462E-02  0.1239000E+00
         -1   -1    0    0    0  501 -0.00000000000E+00  0.00000000000E+00  0.32616637999E+03  0.32616637999E+03  0.00000000000E+00 0.  1.
          1   -1    0    0  501    0  0.00000000000E+00 -0.00000000000E+00 -0.83076364859E+02  0.83076364859E+02  0.00000000000E+00 0. -1.
          5    1    1    2  502    0  0.78390331013E+02 -0.39723748143E+02  0.31128956306E+02  0.93324726003E+02  0.41800000000E+01 0. -1.
         -5    1    1    2    0  502  0.31538745387E+02  0.43397712708E+01  0.15764669367E+03  0.16088343141E+03  0.41800000000E+01 0. -1.
        -11    1    1    2    0    0 -0.51966877046E+02 -0.79572527743E+01  0.63097546216E+02  0.82129011440E+02  0.00000000000E+00 0.  1.
         11    1    1    2    0    0 -0.57962199354E+02  0.43341229647E+02 -0.87831810680E+01  0.72905575993E+02  0.00000000000E+00 0. -1.
</event>
<event>
 6    1  0.6447971E-006  0.8377815E+02  0.7561462E-02  0.1318659E+00
         -2   -1    0    0    0  501 -0.00000000000E+00  0.00000000000E+00  0.23125230315E+03  0.23125230315E+03  0.00000000000E+00 0.  1.
          2   -1    0    0  501    0  0.00000000000E+00 -0.00000000000E+00 -0.56446634711E+02  0.56446634711E+02  0.00000000000E+00 0. -1.
          5    1    1    2  502    0 -0.31823075947E+02 -0.10258955741E+02  0.13805906353E+03  0.14211168762E+03  0.41800000000E+01 0. -1.
         -5    1    1    2    0  502  0.33608971446E+02  0.47184650941E+02  0.17003522699E+02  0.60518975787E+02  0.41800000000E+01 0. -1.
        -11    1    1    2    0    0 -0.29347144427E+02 -0.38220005658E+02  0.28666547249E+02  0.56069551894E+02  0.00000000000E+00 0.  1.
         11    1    1    2    0    0  0.27561248927E+02  0.12943104570E+01 -0.89234650362E+01  0.28998722562E+02  0.00000000000E+00 0. -1.
</event>
<event>
 6    1  0.6447971E-006  0.8525444E+02  0.7561462E-02  0.1314768E+00
         -1   -1    0    0    0  501 -0.00000000000E+00  0.00000000000E+00  0.41894031785E+02  0.41894031785E+02  0.00000000000E+00 0.  1.
          1   -1    0    0  501    0  0.00000000000E+00 -0.00000000000E+00 -0.28315190359E+03  0.28315190359E+03  0.00000000000E+00 0. -1.
          5    1    1    2  502    0  0.10470775710E+02  0.34820269824E+02 -0.13326888316E+03  0.13820331383E+03  0.41800000000E+01 0.  1.
         -5    1    1    2    0  502 -0.19611759010E+02 -0.38821763773E+02  0.15521415278E+01  0.43722213773E+02  0.41800000000E+01 0.  1.
        -11    1    1    2    0    0 -0.11067673723E+02 -0.40155380370E+02 -0.65148912328E+02  0.77326119467E+02  0.00000000000E+00 0. -1.
         11    1    1    2    0    0  0.20208657024E+02  0.44156874319E+02 -0.44392217845E+02  0.65794288305E+02  0.00000000000E+00 0.  1.
</event>
<event>
 6    1  0.6447971E-006  0.1109044E+03  0.7561462E-02  0.1258904E+00
         -1   -1    0    0    0  501 -0.00000000000E+00  0.00000000000E+00  0.63436083887E+03  0.63436083887E+03  0.00000000000E+00 0.  1.
          1   -1    0    0  501    0  0.00000000000E+00 -0.00000000000E+00 -0.39056922190E+02  0.39056922190E+02  0.00000000000E+00 0. -1.
          5    1    1    2  502    0 -0.46092066027E+02 -0.10322264176E+02  0.35386448348E+02  0.59166720502E+02  0.41800000000E+01 0. -1.
         -5    1    1    2    0  502 -0.46087595693E+02 -0.16240454191E+02  0.41721748321E+03  0.42009013262E+03  0.41800000000E+01 0. -1.
        -11    1    1    2    0    0 -0.14517607983E+02  0.93552504637E+01  0.29900414327E+01  0.17527749443E+02  0.00000000000E+00 0.  1.
         11    1    1    2    0    0  0.10669726970E+03  0.17207467903E+02  0.13970994368E+03  0.17663315849E+03  0.00000000000E+00 0. -1.
</event>
<event>
 6    1  0.6447971E-006  0.1478356E+03  0.7561462E-02  0.1203158E+00
         -1   -1    0    0    0  501 -0.00000000000E+00  0.00000000000E+00  0.10835195290E+04  0.10835195290E+04  0.00000000000E+00 0.  1.
          1   -1    0    0  501    0  0.00000000000E+00 -0.00000000000E+00 -0.21310514132E+02  0.21310514132E+02  0.00000000000E+00 0. -1.
          5    1    1    2  502    0 -0.53353087024E+02  0.12058061809E+03  0.41670884070E+03  0.43709263054E+03  0.41800000000E+01 0.  1.
         -5    1    1    2    0  502  0.47514831709E+00 -0.28651005056E+02  0.15416494427E+03  0.15686111149E+03  0.41800000000E+01 0.  1.
        -11    1    1    2    0    0  0.24252750449E+02 -0.10169327025E+03  0.42950158443E+03  0.44204222439E+03  0.00000000000E+00 0.  1.
         11    1    1    2    0    0  0.28625188258E+02  0.97636572100E+01  0.61833645500E+02  0.68834076741E+02  0.00000000000E+00 0. -1.
</event>
<event>
 6    1  0.6447971E-006  0.1035467E+03  0.7561462E-02  0.1273010E+00
          3   -1    0    0  501    0  0.00000000000E+00  0.00000000000E+00  0.86561951561E+03  0.86561951561E+03  0.00000000000E+00 0. -1.
         -3   -1    0    0    0  501 -0.00000000000E+00 -0.00000000000E+00 -0.17179041681E+02  0.17179041681E+02  0.00000000000E+00 0.  1.
          5    1    1    2  502    0  0.39401134955E+02  0.54848110735E+02  0.11521009035E+03  0.13360988738E+03  0.41800000000E+01 0.  1.
         -5    1    1    2    0  502 -0.34875498831E+02  0.47629984789E+01  0.35081540027E+03  0.35260162229E+03  0.41800000000E+01 0.  1.
        -11    1    1    2    0    0  0.36652500779E+02 -0.49482544935E+02  0.19775824900E+03  0.20712376279E+03  0.00000000000E+00 0.  1.
         11    1    1    2    0    0 -0.41178136903E+02 -0.10128564279E+02  0.18465673431E+03  0.18946328483E+03  0.00000000000E+00 0. -1.
</event>
<event>
 6    1  0.6447971E-006  0.9751025E+02  0.7561462E-02  0.1285620E+00
         -3   -1    0    0    0  501 -0.00000000000E+00  0.00000000000E+00  0.29165354084E+02  0.29165354084E+02  0.00000000000E+00 0.  1.
          3   -1    0    0  501    0  0.00000000000E+00 -0.00000000000E+00 -0.64432045213E+03  0.64432045213E+03  0.00000000000E+00 0. -1.
          5    1    1    2  502    0  0.73337948800E+02 -0.14140148612E+01 -0.24642488154E+03  0.25714421793E+03  0.41800000000E+01 0. -1.
         -5    1    1    2    0  502 -0.18136475992E+01 -0.35605195469E+01  0.14681981632E+02  0.15779721217E+02  0.41800000000E+01 0. -1.
        -11    1    1    2    0    0 -0.31475115663E+02 -0.42990249652E+02 -0.18777954165E+03  0.19519221484E+03  0.00000000000E+00 0.  1.
         11    1    1    2    0    0 -0.40049185538E+02  0.47964784060E+02 -0.19563265648E+03  0.20536965222E+03  0.00000000000E+00 0. -1.
</event>
<event>
 6    1  0.6447971E-006  0.1787914E+03  0.7561462E-02  0.1168978E+00
          1   -1    0    0  501    0  0.00000000000E+00  0.00000000000E+00  0.71782369708E+02  0.71782369708E+02  0.00000000000E+00 0. -1.
         -1   -1    0    0    0  501 -0.00000000000E+00 -0.00000000000E+00 -0.59621903601E+03  0.59621903601E+03  0.00000000000E+00 0.  1.
          5    1    1    2  502    0  0.14869015790E+03 -0.75677990632E+02 -0.40555563556E+03  0.43855303813E+03  0.41800000000E+01 0.  1.
         -5    1    1    2    0  502 -0.92442733544E+01  0.74086047102E+01  0.86081225074E+00  0.12591958201E+02  0.41800000000E+01 0.  1.
        -11    1    1    2    0    0 -0.71583874963E+02  0.82042103020E+02 -0.54678297052E+02  0.12183954199E+03  0.00000000000E+00 0. -1.
         11    1    1    2    0    0 -0.67862009578E+02 -0.13772717099E+02 -0.65063545947E+02  0.95016867404E+02  0.00000000000E+00 0.  1.
</event>
<event>
 6    1  0.6447971E-006  0.1065854E+03  0.7561462E-02  0.1267027E+00
         -1   -1    0    0    0  501 -0.00000000000E+00  0.00000000000E+00  0.13866164492E+03  0.13866164492E+03  0.00000000000E+00 0.  1.
          1   -1    0    0  501    0  0.00000000000E+00 -0.00000000000E+00 -0.24420624360E+03  0.24420624360E+03  0.00000000000E+00 0. -1.
          5    1    1    2  502    0 -0.49914684008E+01  0.22645957131E+02 -0.24508144948E+02  0.33998172010E+02  0.41800000000E+01 0. -1.
         -5    1    1    2    0  502  0.76863121566E+02 -0.18872598191E+02  0.10390224211E+03  0.13068000128E+03  0.41800000000E+01 0.  1.
        -11    1    1    2    0    0 -0.50553371179E+02  0.38140550772E+02 -0.13755881100E+03  0.15143570066E+03  0.00000000000E+00 0. -1.
         11    1    1    2    0    0 -0.21318281986E+02 -0.41913909712E+02 -0.47379884841E+02  0.66754014574E+02  0.00000000000E+00 0.  1.
</event>
<event>
 6    1  0.6447971E-006  0.1116780E+03  0.7561462E-02  0.1257494E+00
         -2   -1    0    0    0  501 -0.00000000000E+00  0.00000000000E+00  0.12288552318E+03  0.12288552318E+03  0.00000000000E+00 0.  1.
          2   -1    0    0  501    0  0.00000000000E+00 -0.00000000000E+00 -0.16200270706E+03  0.16200270706E+03  0.00000000000E+00 0. -1.
          5    1    1    2  502    0 -0.16236794661E+02  0.91801455765E+02  0.31521291147E+02  0.98499771457E+02  0.41800000000E+01 0. -1.
         -5    1    1    2    0  502  0.18620583920E+02 -0.18580693402E+01 -0.53890351665E+02  0.57199833652E+02  0.41800000000E+01 0. -1.
        -11    1    1    2    0    0 -0.31790461405E+02 -0.64773702559E+02  0.20973227431E+02  0.75140816128E+02  0.00000000000E+00 0.  1.
         11    1    1    2    0    0  0.29406672147E+02 -0.25169683866E+02 -0.37721350793E+02  0.54047809005E+02  0.00000000000E+00 0. -1.
</event>
<event>
 6    1  0.6447971E-006  0.8707700E+02  0.7561462E-02  0.1310089E+00
         -2   -1    0    0    0  501 -0.00000000000E+00  0.00000000000E+00  0.43956375589E+02  0.43956375589E+02  0.00000000000E+00 0.  1.
          2   -1    0    0  501    0  0.00000000000E+00 -0.00000000000E+00 -0.46593651479E+03  0.46593651479E+03  0.00000000000E+00 0. -1.
          5    1    1    2  502    0  0.80616307958E+01 -0.55321794598E+02 -0.21077205894E+03  0.21810049078E+03  0.41800000000E+01 0. -1.
         -5    1    1    2    0  502 -0.34677310634E+02  0.16234828118E+02  0.19460630844E+02  0.43154073616E+02  0.41800000000E+01 0.  1.
        -11    1    1    2    0    0 -0.16814505575E+02 -0.51467338896E+01 -0.11841127354E+02  0.21199735010E+02  0.00000000000E+00 0.  1.
         11    1    1    2    0    0  0.43430185414E+02  0.44233700369E+02 -0.21882758375E+03  0.22743859097E+03  0.00000000000E+00 0. -1.
</event>
<event>
 6    1  0.6447971E-006  0.8866294E+02  0.7561462E-02  0.1306122E+00
          4   -1    0    0  501    0  0.00000000000E+00  0.00000000000E+00  0.25191180475E+03  0.25191180475E+03  0.00000000000E+00 0. -1.
         -4   -1    0    0    0  501 -0.00000000000E+00 -0.00000000000E+00 -0.49137239613E+02  0.49137239613E+02  0.00000000000E+00 0.  1.
          5    1    1    2  502    0  0.15353616271E+02 -0.43058200715E+02  0.12137164126E+02  0.47481842155E+02  0.41800000000E+01 0.  1.
         -5    1    1    2    0  502 -0.30537065741E+02  0.62741929894E+02  0.10225874675E+03  0.12386842147E+03  0.41800000000E+01 0.  1.
        -11    1    1    2    0    0  0.27041613311E+02 -0.33667670804E+02  0.40188212889E+01  0.43369480425E+02  0.00000000000E+00 0.  1.
         11    1    1    2    0    0 -0.11858163841E+02  0.13983941625E+02  0.84359832971E+02  0.86329300309E+02  0.00000000000E+00 0. -1.
</event>
<event>
 6    1  0.6447971E-006  0.6704702E+02  0.7561462E-02  0.1370433E+00
         -1   -1    0    0    0  501 -0.00000000000E+00  0.00000000000E+00  0.38231227305E+03  0.38231227305E+03  0.00000000000E+00 0.  1.
          1   -1    0    0  501    0  0.00000000000E+00 -0.00000000000E+00 -0.66935180050E+02  0.66935180050E+02  0.00000000000E+00 0. -1.
          5    1    1    2  502    0 -0.14841289400E+02  0.10082568281E+02 -0.93511279161E+01  0.20660059233E+02  0.41800000000E+01 0. -1.
         -5    1    1    2    0  502  0.60644510701E+02  0.16110210807E+02  0.31477277784E+03  0.32099325482E+03  0.41800000000E+01 0.  1.
        -11    1    1    2    0    0 -0.19715723020E+02 -0.12122328040E+02  0.51556992792E+02  0.56513574272E+02  0.00000000000E+00 0.  1.
         11    1    1    2    0    0 -0.26087498280E+02 -0.14070451048E+02 -0.41601549714E+02  0.51080564776E+02  0.00000000000E+00 0. -1.
</event>
<event>
 6    1  0.6447971E-006  0.6065417E+02  0.7561462E-02  0.1395107E+00
          3   -1    0    0  501    0  0.00000000000E+00  0.00000000000E+00  0.24872962800E+02  0.24872962800E+02  0.00000000000E+00 0. -1.
         -3   -1    0    0    0  501 -0.00000000000E+00 -0.00000000000E+00 -0.49816898088E+03  0.49816898088E+03  0.00000000000E+00 0.  1.
          5    1    1    2  502    0 -0.29103809718E+02  0.15023327627E+02 -0.30788501817E+03  0.30965043021E+03  0.41800000000E+01 0. -1.
         -5    1    1    2    0  502  0.78584917612E+01 -0.16150650012E+01  0.10553036072E+02  0.13899758920E+02  0.41800000000E+01 0. -1.
        -11    1    1    2    0    0  0.44305405504E+02  0.11014965475E+02 -0.15069437533E+03  0.15745822677E+03  0.00000000000E+00 0.  1.
         11    1    1    2    0    0 -0.23060087547E+02 -0.24423228100E+02 -0.25269660651E+02  0.42033527784E+02  0.00000000000E+00 0. -1.
</event>
<event>
 6    1  0.6447971E-006  0.1088836E+03  0.7561462E-02  0.1262651E+00
         -4   -1    0    0    0  501 -0.00000000000E+00  0.00000000000E+00  0.17249902293E+03  0.17249902293E+03  0.00000000000E+00 0.  1.
          4   -1    0    0  501    0  0.00000000000E+00 -0.00000000000E+00 -0.69135088749E+02  0.69135088749E+02  0.00000000000E+00 0. -1.
          5    1    1    2  502    0  0.56401388880E+02  0.77625799808E+01  0.19666464251E+02  0.60378941128E+02  0.41800000000E+01 0. -1.
         -5    1    1    2    0  502 -0.64409486977E+02 -0.23317738343E+02  0.38330583061E+02  0.78606646868E+02  0.41800000000E+01 0. -1.
        -11    1    1    2    0    0  0.42989928644E+02 -0.15075012201E+02  0.21231111506E+02  0.50260820262E+02  0.00000000000E+00 0. -1.
         11    1    1    2    0    0 -0.34981830547E+02  0.30630170563E+02  0.24135775360E+02  0.52387703418E+02  0.00000000000E+00 0.  1.
</event>
<event>
 6    1  0.6447971E-006  0.1269897E+03  0.7561462E-02  0.1231992E+00
          1   -1    0    0  501    0  0.00000000000E+00  0.00000000000E+00  0.69988904955E+02  0.69988904955E+02  0.00000000000E+00 0. -1.
         -1   -1    0    0    0  501 -0.00000000000E+00 -0.00000000000E+00 -0.33392255293E+03  0.33392255293E+03  0.00000000000E+00 0.  1.
          5    1    1    2  502    0 -0.50335662598E+01  0.18435467300E+02 -0.83934731450E+02  0.86184191053E+02  0.41800000000E+01 0.  1.
         -5    1    1    2    0  502 -0.76935567664E+02 -0.88013240388E+02 -0.54004000454E+02  0.12883833482E+03  0.41800000000E+01 0.  1.
        -11    1    1    2    0    0  0.55769241716E+02  0.72067009661E+02 -0.13339630933E+03  0.16155010847E+03  0.00000000000E+00 0.  1.
         11    1    1    2    0    0  0.26199892208E+02 -0.24892365723E+01  0.74013932586E+01  0.27338823540E+02  0.00000000000E+00 0. -1.
</event>
<event>
 6    1  0.6447971E-006  0.1120353E+03  0.7561462E-02  0.1256847E+00
         -1   -1    0    0    0  501 -0.00000000000E+00  0.00000000000E+00  0.92567920192E+02  0.92567920192E+02  0.00000000000E+00 0.  1.
          1   -1    0    0  501    0  0.00000000000E+00 -0.00000000000E+00 -0.20162069526E+03  0.20162069526E+03  0.00000000000E+00 0. -1.
          5    1    1    2  502    0 -0.81893309839E+02  0.65431132576E+02 -0.10114341242E+03  0.14572305782E+03  0.41800000000E+01 0.  1.
         -5    1    1    2    0  502  0.28464497109E+02  0.21107689256E+01  0.11012651063E+02  0.30877723759E+02  0.41800000000E+01 0.  1.
        -11    1    1    2    0    0  0.41342332336E+02 -0.66345219328E+02 -0.44013754636E+02  0.89711131795E+02  0.00000000000E+00 0. -1.
         11    1    1    2    0    0  0.12086480394E+02 -0.11966821734E+01  0.25091740917E+02  0.27876702079E+02  0.00000000000E+00 0.  1.
</event>
<event>
 6    1  0.6447971E-006  0.1134295E+03  0.7561462E-02  0.1254348E+00
         -1   -1    0    0    0  501 -0.00000000000E+00  0.00000000000E+00  0.11845603772E+04  0.11845603772E+04  0.00000000000E+00 0.  1.
          1   -1    0    0  501    0  0.00000000000E+00 -0.00000000000E+00 -0.15199903920E+02  0.15199903920E+02  0.00000000000E+00 0. -1.
          5    1    1    2  502    0  0.73450799302E+02  0.72722730198E+02  0.46114719622E+03  0.47260747390E+03  0.41800000000E+01 0.  1.
         -5    1    1    2    0  502 -0.14749909931E+02 -0.29183743602E+02  0.33463984770E+03  0.33625964789E+03  0.41800000000E+01 0.  1.
        -11    1    1    2    0    0 -0.68619407890E+02 -0.33592782276E+02  0.36789157871E+03  0.37574101699E+03  0.00000000000E+00 0.  1.
         11    1    1    2    0    0  0.99185185193E+01 -0.99462043199E+01  0.56818506162E+01  0.15152142304E+02  0.00000000000E+00 0. -1.
</event>
<event>
 6    1  0.6447971E-006  0.8234455E+02  0.7561462E-02  0.1322527E+00
          1   -1    0    0  501    0  0.00000000000E+00  0.00000000000E+00  0.21287963676E+03  0.21287963676E+03  0.00000000000E+00 0. -1.
         -1   -1    0    0    0  501 -0.00000000000E+00 -0.00000000000E+00 -0.75794893849E+02  0.75794893849E+02  0.00000000000E+00 0.  1.
          5    1    1    2  502    0  0.23863416389E+02  0.13435480004E+02  0.12164239866E+03  0.12475704516E+03  0.41800000000E+01 0. -1.
         -5    1    1    2    0  502  0.39384701195E+02 -0.93933091603E+01 -0.22939657316E+02  0.46723540352E+02  0.41800000000E+01 0. -1.
        -11    1    1    2    0    0 -0.58122468599E+02  0.27518323011E+02 -0.36165787341E+01  0.64409309103E+02  0.00000000000E+00 0.  1.
         11    1    1    2    0    0 -0.51256489855E+01 -0.31560493855E+02  0.41998580298E+02  0.52784635994E+02  0.00000000000E+00 0. -1.
</event>
<event>
 6    1  0.6447971E-006  0.1011810E+03  0.7561462E-02  0.1277832E+00
          4   -1    0    0  501    0  0.00000000000E+00  0.00000000000E+00  0.12061102353E+03  0.12061102353E+03  0.00000000000E+00 0.  1.
         -4   -1    0    0    0  501 -0.00000000000E+00 -0.00000000000E+00 -0.10728754920E+03  0.10728754920E+03  0.00000000000E+00 0. -1.
          5    1    1    2  502    0  0.24971460850E+02 -0.65718854635E+02  0.23398566180E+02  0.74212579869E+02  0.41800000000E+01 0. -1.
         -5    1    1    2    0  502 -0.32864091746E+02  0.31823382806E+02 -0.31860231644E+02  0.55904588183E+02  0.41800000000E+01 0. -1.
        -11    1    1    2    0    0  0.65496922641E+01 -0.25631456328E+02 -0.12298665223E+02  0.29174084194E+02  0.00000000000E+00 0. -1.
         11    1    1    2    0    0  0.13429386318E+01  0.59526928158E+02  0.34083805010E+02  0.68607320484E+02  0.00000000000E+00 0.  1.
</event>
<event>
 6    1  0.6447971E-006  0.1675108E+03  0.7561462E-02  0.1180469E+00
          1   -1    0    0  501    0  0.00000000000E+00  0.00000000000E+00  0.26393876267E+03  0.26393876267E+03  0.00000000000E+00 0. -1.
         -1   -1    0    0    0  501 -0.00000000000E+00 -0.00000000000E+00 -0.13357263925E+03  0.13357263925E+03  0.00000000000E+00 0.  1.
          5    1    1    2  502    0 -0.24336313823E+02  0.26549101489E+02 -0.34891981577E+02  0.50319317749E+02  0.41800000000E+01 0. -1.
         -5    1    1    2    0  502 -0.12030618932E+03  0.25372558312E+02  0.99121095397E+02  0.15798673949E+03  0.41800000000E+01 0. -1.
        -11    1    1    2    0    0  0.11764617823E+03 -0.48178666891E+00  0.32404170430E+02  0.12202821653E+03  0.00000000000E+00 0.  1.
         11    1    1    2    0    0  0.26996324915E+02 -0.51439873132E+02  0.33732839176E+02  0.67177128144E+02  0.00000000000E+00 0. -1.
</event>
<event>
 6    1  0.6447971E-006  0.8530268E+02  0.7561462E-02  0.1314643E+00
         -1   -1    0    0    0  501 -0.00000000000E+00  0.00000000000E+00  0.42047507368E+02  0.42047507368E+02  0.00000000000E+00 0.  1.
          1   -1    0    0  501    0  0.00000000000E+00 -0.00000000000E+00 -0.38365345700E+03  0.38365345700E+03  0.00000000000E+00 0. -1.
          5    1    1    2  502    0  0.16339300864E+02  0.55177416293E+01 -0.16332018668E+03  0.16428138666E+03  0.41800000000E+01 0.  1.
         -5    1    1    2    0  502  0.41515838640E+02 -0.22838848304E+02  0.32201306445E+01  0.47676194177E+02  0.41800000000E+01 0.  1.
        -11    1    1    2    0    0 -0.15929286374E+01  0.43295150630E+02 -0.11476133728E+03  0.12266691495E+03  0.00000000000E+00 0. -1.
         11    1    1    2    0    0 -0.56262210867E+02 -0.25974043955E+02 -0.66744556316E+02  0.91076468579E+02  0.00000000000E+00 0.  1.
</event>
<event>
 6    1  0.6447971E-006  0.3606733E+03  0.7561462E-02  0.1058318E+00
         -1   -1    0    0    0  501 -0.00000000000E+00  0.00000000000E+00  0.13517796445E+03  0.13517796445E+03  0.00000000000E+00 0.  1.
          1   -1    0    0  501    0  0.00000000000E+00 -0.00000000000E+00 -0.11962393050E+04  0.11962393050E+04  0.00000000000E+00 0. -1.
          5    1    1    2  502    0 -0.16838535507E+02 -0.74105496773E+02 -0.12796049800E+03  0.14888425833E+03  0.41800000000E+01 0. -1.
         -5    1    1    2    0  502 -0.60529750370E+02 -0.27207930076E+03 -0.14688080588E+03  0.31509116160E+03  0.41800000000E+01 0.  1.
        -11    1    1    2    0    0 -0.14940289515E+02  0.10324942228E+02 -0.37401506434E+02  0.41577510343E+02  0.00000000000E+00 0.  1.
         11    1    1    2    0    0  0.92308575391E+02  0.33585985531E+03 -0.74881853025E+03  0.82586433919E+03  0.00000000000E+00 0. -1.
</event>
<event>
 6    1  0.6447971E-006  0.1664585E+03  0.7561462E-02  0.1181592E+00
          1   -1    0    0  501    0  0.00000000000E+00  0.00000000000E+00  0.83800927073E+03  0.83800927073E+03  0.00000000000E+00 0. -1.
         -1   -1    0    0    0  501 -0.00000000000E+00 -0.00000000000E+00 -0.39990084111E+02  0.39990084111E+02  0.00000000000E+00 0.  1.
          5    1    1    2  502    0  0.13113827326E+03 -0.26607805829E+02  0.30489883977E+03  0.33299549087E+03  0.41800000000E+01 0. -1.
         -5    1    1    2    0  502  0.11654971322E+02  0.52479299493E+02  0.19177804004E+03  0.19921396606E+03  0.41800000000E+01 0.  1.
        -11    1    1    2    0    0 -0.29791225688E+02 -0.50016778458E+01  0.16379571262E+03  0.16655800606E+03  0.00000000000E+00 0. -1.
         11    1    1    2    0    0 -0.11300201889E+03 -0.20869815819E+02  0.13754659419E+03  0.17923189186E+03  0.00000000000E+00 0.  1.
</event>
<event>
 6    1  0.6447971E-006  0.4050094E+02  0.7561462E-02  0.1504557E+00
          2   -1    0    0  501    0  0.00000000000E+00  0.00000000000E+00  0.13713934080E+03  0.13713934080E+03  0.00000000000E+00 0. -1.
         -2   -1    0    0    0  501 -0.00000000000E+00 -0.00000000000E+00 -0.88676782016E+02  0.88676782016E+02  0.00000000000E+00 0.  1.
          5    1    1    2  502    0 -0.84159945384E+01  0.89759492787E+00 -0.58246664322E+02  0.59006617810E+02  0.41800000000E+01 0.  1.
         -5    1    1    2    0  502  0.11110970909E+02  0.11450375942E+01  0.65267366005E+02  0.66348068931E+02  0.41800000000E+01 0.  1.
        -11    1    1    2    0    0  0.21185806673E+02 -0.20479621394E+02 -0.17482816275E+02  0.34262255643E+02  0.00000000000E+00 0.  1.
         11    1    1    2    0    0 -0.23880783044E+02  0.18436988872E+02  0.58924673373E+02  0.66199180430E+02  0.00000000000E+00 0. -1.
</event>
<event>
 6    1  0.6447971E-006  0.3236579E+03  0.7561462E-02  0.1073978E+00
          1   -1    0    0  501    0  0.00000000000E+00  0.00000000000E+00  0.45626994859E+03  0.45626994859E+03  0.00000000000E+00 0. -1.
         -1   -1    0    0    0  501 -0.00000000000E+00 -0.00000000000E+00 -0.32252619631E+03  0.32252619631E+03  0.00000000000E+00 0.  1.
          5    1    1    2  502    0 -0.15031083417E+03  0.15407273494E+03 -0.64094793668E+02  0.22462717889E+03  0.41800000000E+01 0. -1.
         -5    1    1    2    0  502 -0.11003431161E+01  0.11900426413E+03 -0.64917244692E+02  0.13562797166E+03  0.41800000000E+01 0. -1.
        -11    1    1    2    0    0  0.87975803487E+02 -0.13711150112E+03  0.78235970166E+02  0.18072125709E+03  0.00000000000E+00 0.  1.
         11    1    1    2    0    0  0.63435373801E+02 -0.13596549796E+03  0.18451982047E+03  0.23781973726E+03  0.00000000000E+00 0. -1.
</event>
<event>
 6    1  0.6447971E-006  0.1288116E+03  0.7561462E-02  0.1229230E+00
          3   -1    0    0  501    0  0.00000000000E+00  0.00000000000E+00  0.37601471154E+03  0.37601471154E+03  0.00000000000E+00 0. -1.
         -3   -1    0    0    0  501 -0.00000000000E+00 -0.00000000000E+00 -0.61649471118E+02  0.61649471118E+02  0.00000000000E+00 0.  1.
          5    1    1    2  502    0  0.27181866967E+02 -0.37133593792E+02  0.60256240450E+02  0.75934475654E+02  0.41800000000E+01 0. -1.
         -5    1    1    2    0  502 -0.43009432883E+02  0.11328511572E+03  0.63139387461E+02  0.13670180470E+03  0.41800000000E+01 0.  1.
        -11    1    1    2    0    0 -0.44713892173E+01 -0.68232532004E+02  0.19138647451E+03  0.20323497329E+03  0.00000000000E+00 0. -1.
         11    1    1    2    0    0  0.20298955133E+02 -0.79189899218E+01 -0.41686199451E+00  0.21792929009E+02  0.00000000000E+00 0.  1.
</event>
<event>
 6    1  0.6447971E-006  0.1450424E+03  0.7561462E-02  0.1206701E+00
          2   -1    0    0  501    0  0.00000000000E+00  0.00000000000E+00  0.88367648367E+02  0.88367648367E+02  0.00000000000E+00 0. -1.
         -2   -1    0    0    0  501 -0.00000000000E+00 -0.00000000000E+00 -0.24977291088E+03  0.24977291088E+03  0.00000000000E+00 0.  1.
          5    1    1    2  502    0  0.17154512617E+02 -0.66215868080E+02 -0.28313105138E+02  0.74147979145E+02  0.41800000000E+01 0. -1.
         -5    1    1    2    0  502  0.81795600436E+02  0.41023819338E+02 -0.65331537033E+02  0.11251291541E+03  0.41800000000E+01 0. -1.
        -11    1    1    2    0    0  0.13415891149E+02 -0.37299828217E+01 -0.23460645254E+02  0.27281876455E+02  0.00000000000E+00 0.  1.
         11    1    1    2    0    0 -0.11236600420E+03  0.28922031564E+02 -0.44299975093E+02  0.12419778824E+03  0.00000000000E+00 0. -1.
</event>
<event>
 6    1  0.6447971E-006  0.1095089E+03  0.7561462E-02  0.1261482E+00
          2   -1    0    0  501    0  0.00000000000E+00  0.00000000000E+00  0.24978344872E+02  0.24978344872E+02  0.00000000000E+00 0. -1.
         -2   -1    0    0    0  501 -0.00000000000E+00 -0.00000000000E+00 -0.94443500402E+03  0.94443500402E+03  0.00000000000E+00 0.  1.
          5    1    1    2  502    0 -0.65738868225E+02  0.70232210585E+01 -0.12063951797E+03  0.13763099260E+03  0.41800000000E+01 0.  1.
         -5    1    1    2    0  502 -0.27232630415E+02 -0.68918705276E+01 -0.55605756363E+03  0.55678236368E+03  0.41800000000E+01 0.  1.
        -11    1    1    2    0    0  0.95722660007E+02 -0.25335325538E+02 -0.15740770288E+03  0.18596206948E+03  0.00000000000E+00 0. -1.
         11    1    1    2    0    0 -0.27511613677E+01  0.25203975007E+02 -0.85351874671E+02  0.89037923127E+02  0.00000000000E+00 0.  1.
</event>
<event>
 6    1  0.6447971E-006  0.8539466E+02  0.7561462E-02  0.1314404E+00
         -1   -1    0    0    0  501 -0.00000000000E+00  0.00000000000E+00  0.22316363697E+03  0.22316363697E+03  0.00000000000E+00 0.  1.
          1   -1    0    0  501    0  0.00000000000E+00 -0.00000000000E+00 -0.68578669542E+02  0.68578669542E+02  0.00000000000E+00 0. -1.
          5    1    1    2  502    0  0.90345387041E+01 -0.40996317865E+02 -0.31675410054E+01  0.42306343308E+02  0.41800000000E+01 0. -1.
         -5    1    1    2    0  502 -0.50838284897E+02  0.19896595829E+02  0.13359835336E+03  0.14438281808E+03  0.41800000000E+01 0. -1.
        -11    1    1    2    0    0  0.25224469279E+02 -0.18259866244E+02 -0.25002045109E+02  0.39934932393E+02  0.00000000000E+00 0. -1.
         11    1    1    2    0    0  0.16579276914E+02  0.39359588280E+02  0.49156200182E+02  0.65118212728E+02  0.00000000000E+00 0.  1.
</event>
<event>
 6    1  0.6447971E-006  0.8221696E+02  0.7561462E-02  0.1322875E+00
          2   -1    0    0  501    0  0.00000000000E+00  0.00000000000E+00  0.14160493562E+03  0.14160493562E+03  0.00000000000E+00 0. -1.
         -2   -1    0    0    0  501 -0.00000000000E+00 -0.00000000000E+00 -0.11350687131E+03  0.11350687131E+03  0.00000000000E+00 0.  1.
          5    1    1    2  502    0 -0.76215334095E+01 -0.70299593908E+02 -0.62911557584E+02  0.94738889337E+02  0.41800000000E+01 0.  1.
         -5    1    1    2    0  502  0.14412758076E+01  0.25935068847E+02  0.32251444394E+02  0.41621306293E+02  0.41800000000E+01 0.  1.
        -11    1    1    2    0    0  0.28381014392E+02  0.24175634109E+02  0.75634414373E+02  0.84323827594E+02  0.00000000000E+00 0. -1.
         11    1    1    2    0    0 -0.22200756790E+02  0.20188890952E+02 -0.16876236872E+02  0.34427783705E+02  0.00000000000E+00 0.  1.
</event>
<event>
 6    1  0.6447971E-006  0.1221942E+03  0.7561462E-02  0.1239521E+00
         -2   -1    0    0    0  501 -0.00000000000E+00  0.00000000000E+00  0.39285528116E+02  0.39285528116E+02  0.00000000000E+00 0.  1.
          2   -1    0    0  501    0  0.00000000000E+00 -0.00000000000E+00 -0.56334714258E+03  0.56334714258E+03  0.00000000000E+00 0. -1.
          5    1    1    2  502    0  0.21313036404E+02  0.15717023747E+02 -0.15216623615E+03  0.15450989023E+03  0.41800000000E+01 0. -1.
         -5    1    1    2    0  502 -0.46680724422E+02  0.73873891844E+02 -0.49851753231E+02  0.10069315582E+03  0.41800000000E+01 0. -1.
        -11    1    1    2    0    0  0.45547966015E+02 -0.82545049406E+01 -0.10401520191E+03  0.11385041189E+03  0.00000000000E+00 0.  1.
         11    1    1    2    0    0 -0.20180277996E+02 -0.81336410650E+02 -0.21802842317E+03  0.23357921275E+03  0.00000000000E+00 0. -1.
</event>
<event>
 6    1  0.6447971E-006  0.9257492E+02  0.7561462E-02  0.1296733E+00
          1   -1    0    0  501    0  0.00000000000E+00  0.00000000000E+00  0.29540398413E+02  0.29540398413E+02  0.00000000000E+00 0. -1.
         -1   -1    0    0    0  501 -0.00000000000E+00 -0.00000000000E+00 -0.46792299257E+03  0.46792299257E+03  0.00000000000E+00 0.  1.
          5    1    1    2  502    0  0.22713816778E+02  0.44999387166E+02 -0.20223467040E+03  0.20846389767E+03  0.41800000000E+01 0. -1.
         -5    1    1    2    0  502 -0.60013179981E+02 -0.27238516686E+02 -0.85368746457E+02  0.10792967078E+03  0.41800000000E+01 0. -1.
        -11    1    1    2    0    0 -0.83019282510E+01 -0.21233463370E+02 -0.12793111760E+03  0.12994673074E+03  0.00000000000E+00 0.  1.
         11    1    1    2    0    0  0.45601291453E+02  0.34725928893E+01 -0.22848059705E+02  0.51123091807E+02  0.00000000000E+00 0. -1.
</event>
<event>
 6    1  0.6447971E-006  0.1254082E+03  0.7561462E-02  0.1234433E+00
         -2   -1    0    0    0  501 -0.00000000000E+00  0.00000000000E+00  0.62395749402E+02  0.62395749402E+02  0.00000000000E+00 0.  1.
          2   -1    0    0  501    0  0.00000000000E+00 -0.00000000000E+00 -0.41302162689E+03  0.41302162689E+03  0.00000000000E+00 0. -1.
          5    1    1    2  502    0  0.37202363378E+02  0.90929336610E+01 -0.84175656435E+02  0.92572732593E+02  0.41800000000E+01 0. -1.
         -5    1    1    2    0  502 -0.17464809135E+02  0.85116180346E+02 -0.14623265299E+01  0.87002267290E+02  0.41800000000E+01 0. -1.
        -11    1    1    2    0    0  0.37501376064E+01 -0.10082900402E+03 -0.24251894420E+03  0.26267087749E+03  0.00000000000E+00 0.  1.
         11    1    1    2    0    0 -0.23487691850E+02  0.66198900112E+01 -0.22468950328E+02  0.33171498926E+02  0.00000000000E+00 0. -1.
</event>
<event>
 6    1  0.6447971E-006  0.1217298E+03  0.7561462E-02  0.1240270E+00
          1   -1    0    0  501    0  0.00000000000E+00  0.00000000000E+00  0.14728312818E+03  0.14728312818E+03  0.00000000000E+00 0. -1.
         -1   -1    0    0    0  501 -0.00000000000E+00 -0.00000000000E+00 -0.18306109885E+03  0.18306109885E+03  0.00000000000E+00 0.  1.
          5    1    1    2  502    0 -0.59372397610E+01 -0.33477482796E+02 -0.58872606498E+02  0.68113499883E+02  0.41800000000E+01 0.  1.
         -5    1    1    2    0  502 -0.63319342052E+02  0.87549372785E+02 -0.47391491480E+02  0.11805785708E+03  0.41800000000E+01 0.  1.
        -11    1    1    2    0    0  0.41396198523E+02 -0.13185114093E+01 -0.11308385352E+02  0.42933242409E+02  0.00000000000E+00 0.  1.
         11    1    1    2    0    0  0.27860383290E+02 -0.52753378579E+02  0.81794512657E+02  0.10123962766E+03  0.00000000000E+00 0. -1.
</event>
<event>
 6    1  0.6447971E-006  0.1411849E+03  0.7561462E-02  0.1211743E+00
          2   -1    0    0  501    0  0.00000000000E+00  0.00000000000E+00  0.88483301000E+03  0.88483301000E+03  0.00000000000E+00 0. -1.
         -2   -1    0    0    0  501 -0.00000000000E+00 -0.00000000000E+00 -0.33220725312E+02  0.33220725312E+02  0.00000000000E+00 0.  1.
          5    1    1    2  502    0 -0.11267694028E+01  0.88181404136E+01  0.24825879404E+03  0.24845307490E+03  0.41800000000E+01 0. -1.
         -5    1    1    2    0  502  0.33230416080E+01  0.12386408814E+03  0.19800608499E+03  0.23361771557E+03  0.41800000000E+01 0. -1.
        -11    1    1    2    0    0  0.30020647470E+02 -0.91385278144E+02  0.33334117349E+03  0.34694213679E+03  0.00000000000E+00 0. -1.
         11    1    1    2    0    0 -0.32216919675E+02 -0.41296950412E+02  0.72006232168E+02  0.89040808048E+02  0.00000000000E+00 0.  1.
</event>
<event>
 6    1  0.6447971E-006  0.1963169E+03  0.7561462E-02  0.1152884E+00
          1   -1    0    0  501    0  0.00000000000E+00  0.00000000000E+00  0.22651066899E+03  0.22651066899E+03  0.00000000000E+00 0. -1.
         -1   -1    0    0    0  501 -0.00000000000E+00 -0.00000000000E+00 -0.18237246415E+03  0.18237246415E+03  0.00000000000E+00 0.  1.
          5    1    1    2  502    0  0.56121828013E+01 -0.45014489803E+02 -0.25148793712E-01  0.45555174464E+02  0.41800000000E+01 0. -1.
         -5    1    1    2    0  502  0.16131982565E+03  0.27141792406E+02 -0.16002647472E+02  0.16442116704E+03  0.41800000000E+01 0. -1.
        -11    1    1    2    0    0 -0.98854574598E+02  0.46917665593E+02  0.60204535619E+02  0.12489227507E+03  0.00000000000E+00 0.  1.
         11    1    1    2    0    0 -0.68077433857E+02 -0.29044968196E+02 -0.38534512696E-01  0.74014516569E+02  0.00000000000E+00 0. -1.
</event>
<event>
 6    1  0.6447971E-006  0.2213752E+03  0.7561462E-02  0.1132862E+00
          2   -1    0    0  501    0  0.00000000000E+00  0.00000000000E+00  0.52063602814E+03  0.52063602814E+03  0.00000000000E+00 0.  1.
         -2   -1    0    0    0  501 -0.00000000000E+00 -0.00000000000E+00 -0.15068038601E+03  0.15068038601E+03  0.00000000000E+00 0. -1.
          5    1    1    2  502    0 -0.71112756875E+02  0.95867544179E+02 -0.52806199300E+02  0.13058934605E+03  0.41800000000E+01 0. -1.
         -5    1    1    2    0  502 -0.25053126458E+02  0.92658960100E+02  0.64129198839E+02  0.11551349954E+03  0.41800000000E+01 0. -1.
        -11    1    1    2    0    0  0.12457904382E+02  0.71807234646E+01  0.13519280367E+02  0.19736593240E+02  0.00000000000E+00 0.  1.
         11    1    1    2    0    0  0.83707978950E+02 -0.19570722774E+03  0.34511336222E+03  0.40547697532E+03  0.00000000000E+00 0. -1.
</event>
<event>
 6    1  0.6447971E-006  0.9255370E+02  0.7561462E-02  0.1296783E+00
         -1   -1    0    0    0  501 -0.00000000000E+00  0.00000000000E+00  0.10190834132E+03  0.10190834132E+03  0.00000000000E+00 0.  1.
          1   -1    0    0  501    0  0.00000000000E+00 -0.00000000000E+00 -0.12128990397E+03  0.12128990397E+03  0.00000000000E+00 0. -1.
          5    1    1    2  502    0  0.57381533134E+01 -0.75261560636E+02  0.24975102271E+01  0.75636888289E+02  0.41800000000E+01 0.  1.
         -5    1    1    2    0  502 -0.12789273788E+02  0.50208234988E+02 -0.41375855759E+01  0.52144265255E+02  0.41800000000E+01 0.  1.
        -11    1    1    2    0    0  0.15111634749E+01 -0.16017747773E+02  0.28867277831E+02  0.33048019428E+02  0.00000000000E+00 0. -1.
         11    1    1    2    0    0  0.55399569993E+01  0.41071073420E+02 -0.46608765123E+02  0.62369072318E+02  0.00000000000E+00 0.  1.
</event>
<event>
 6    1  0.6447971E-006  0.1513643E+03  0.7561462E-02  0.1198806E+00
          1   -1    0    0  501    0  0.00000000000E+00  0.00000000000E+00  0.67776152699E+03  0.67776152699E+03  0.00000000000E+00 0. -1.
         -1   -1    0    0    0  501 -0.00000000000E+00 -0.00000000000E+00 -0.67966023251E+02  0.67966023251E+02  0.00000000000E+00 0.  1.
          5    1    1    2  502    0 -0.62107680207E+02  0.63303752804E+01  0.13220333425E+03  0.14626220147E+03  0.41800000000E+01 0.  1.
         -5    1    1    2    0  502 -0.88281830552E+02 -0.76830927413E+01 -0.19848234999E+01  0.88736257775E+02  0.41800000000E+01 0.  1.
        -11    1    1    2    0    0  0.31008306386E+02 -0.69437283829E+01  0.24343037382E+02  0.40028913273E+02  0.00000000000E+00 0.  1.
         11    1    1    2    0    0  0.11938120437E+03  0.82964458438E+01  0.45523395561E+03  0.47070017772E+03  0.00000000000E+00 0. -1.
</event>
<event>
 6    1  0.6447971E-006  0.1439804E+03  0.7561462E-02  0.1208071E+00
         -1   -1    0    0    0  501 -0.00000000000E+00  0.00000000000E+00  0.74961471480E+02  0.74961471480E+02  0.00000000000E+00 0.  1.
          1   -1    0    0  501    0  0.00000000000E+00 -0.00000000000E+00 -0.32833613610E+03  0.32833613610E+03  0.00000000000E+00 0. -1.
          5    1    1    2  502    0 -0.10992245931E+03 -0.65914398151E+02 -0.76097892162E+02  0.14911745886E+03  0.41800000000E+01 0.  1.
         -5    1    1    2    0  502  0.27683157175E+02  0.72963487191E+01 -0.40667774784E+00  0.28934956067E+02  0.41800000000E+01 0.  1.
        -11    1    1    2    0    0  0.54873120928E+02 -0.11019313901E+02 -0.11597983837E+03  0.12877813318E+03  0.00000000000E+00 0.  1.
         11    1    1    2    0    0  0.27366181207E+02  0.69637363333E+02 -0.60890256349E+02  0.96467059477E+02  0.00000000000E+00 0. -1.
</event>
<event>
 6    1  0.6447971E-006  0.1228404E+03  0.7561462E-02  0.1238484E+00
         -2   -1    0    0    0  501 -0.00000000000E+00  0.00000000000E+00  0.19115576295E+03  0.19115576295E+03  0.00000000000E+00 0.  1.
          2   -1    0    0  501    0  0.00000000000E+00 -0.00000000000E+00 -0.10605193986E+03  0.10605193986E+03  0.00000000000E+00 0. -1.
          5    1    1    2  502    0  0.72505673566E+02 -0.49923683553E+02  0.11246310977E+01  0.88137302398E+02  0.41800000000E+01 0.  1.
         -5    1    1    2    0  502  0.19599117190E+02  0.51311465463E+02  0.52807130007E+02  0.76308959252E+02  0.41800000000E+01 0.  1.
        -11    1    1    2    0    0 -0.32291035247E+02 -0.22141198330E+02 -0.26371949379E+02  0.47206178990E+02  0.00000000000E+00 0. -1.
         11    1    1    2    0    0 -0.59813755509E+02  0.20753416419E+02  0.57544011369E+02  0.85555262174E+02  0.00000000000E+00 0.  1.
</event>
<event>
 6    1  0.6447971E-006  0.3557728E+03  0.7561462E-02  0.1060270E+00
          1   -1    0    0  501    0  0.00000000000E+00  0.00000000000E+00  0.71757003548E+02  0.71757003548E+02  0.00000000000E+00 0. -1.
         -1   -1    0    0    0  501 -0.00000000000E+00 -0.00000000000E+00 -0.17840754119E+04  0.17840754119E+04  0.00000000000E+00 0.  1.
          5    1    1    2  502    0  0.32947633185E+02 -0.83363169674E+02 -0.28475782607E+03  0.29856231593E+03  0.41800000000E+01 0.  1.
         -5    1    1    2    0  502  0.24515976728E+03 -0.11297653107E+03 -0.62408349472E+03  0.67997403543E+03  0.41800000000E+01 0.  1.
        -11    1    1    2    0    0 -0.18848853568E+03  0.79452797380E+02 -0.48761397815E+03  0.52877979045E+03  0.00000000000E+00 0.  1.
         11    1    1    2    0    0 -0.89618864787E+02  0.11688690337E+03 -0.31586310941E+03  0.34851627363E+03  0.00000000000E+00 0. -1.
</event>
<event>
 6    1  0.6447971E-006  0.1472556E+03  0.7561462E-02  0.1203886E+00
         -2   -1    0    0    0  501 -0.00000000000E+00  0.00000000000E+00  0.84071221193E+02  0.84071221193E+02  0.00000000000E+00 0.  1.
          2   -1    0    0  501    0  0.00000000000E+00 -0.00000000000E+00 -0.45135674658E+03  0.45135674658E+03  0.00000000000E+00 0. -1.
          5    1    1    2  502    0 -0.27785617257E+02 -0.24926896274E+02 -0.37315121326E+02  0.52946023116E+02  0.41800000000E+01 0. -1.
         -5    1    1    2    0  502  0.90362474181E+02 -0.86851225370E+02 -0.90730771315E+01  0.12573108294E+03  0.41800000000E+01 0.  1.
        -11    1    1    2    0    0 -0.45044929868E+02  0.49860052707E+02 -0.25858906261E+03  0.26717667163E+03  0.00000000000E+00 0. -1.
         11    1    1    2    0    0 -0.17531927056E+02  0.61918068937E+02 -0.62308264323E+02  0.89574190089E+02  0.00000000000E+00 0.  1.
</event>
<event>
 6    1  0.6447971E-006  0.1010765E+03  0.7561462E-02  0.1278048E+00
         -2   -1    0    0    0  501 -0.00000000000E+00  0.00000000000E+00  0.65105227895E+02  0.65105227895E+02  0.00000000000E+00 0.  1.
          2   -1    0    0  501    0  0.00000000000E+00 -0.00000000000E+00 -0.19124824447E+03  0.19124824447E+03  0.00000000000E+00 0. -1.
          5    1    1    2  502    0  0.30927321522E+02  0.26520439024E+02  0.66453381969E+01  0.41490551000E+02  0.41800000000E+01 0. -1.
         -5    1    1    2    0  502 -0.64616110308E+02 -0.26770918124E+02 -0.84037925939E+02  0.10941558008E+03  0.41800000000E+01 0. -1.
        -11    1    1    2    0    0  0.11684008520E+02 -0.41945282630E+02 -0.11561246431E+02  0.45050917960E+02  0.00000000000E+00 0.  1.
         11    1    1    2    0    0  0.22004780266E+02  0.42195761731E+02 -0.37189182405E+02  0.60396423326E+02  0.00000000000E+00 0. -1.
</event>
<event>
 6    1  0.6447971E-006  0.1018366E+03  0.7561462E-02  0.1276481E+00
          1   -1    0    0  501    0  0.00000000000E+00  0.00000000000E+00  0.54783047279E+03  0.54783047279E+03  0.00000000000E+00 0. -1.
         -1   -1    0    0    0  501 -0.00000000000E+00 -0.00000000000E+00 -0.25304476855E+02  0.25304476855E+02  0.00000000000E+00 0.  1.
          5    1    1    2  502    0 -0.76744444899E+02 -0.23695785970E+02  0.11311467758E+03  0.13879338161E+03  0.41800000000E+01 0. -1.
         -5    1    1    2    0  502  0.46613346253E+02 -0.87738810236E-01  0.11544954414E+03  0.12457480238E+03  0.41800000000E+01 0. -1.
        -11    1    1    2    0    0  0.11599293540E+02 -0.23200222881E+02  0.24728224491E+02  0.35836839130E+02  0.00000000000E+00 0.  1.
         11    1    1    2    0    0  0.18531805106E+02  0.46983747662E+02  0.26923354972E+03  0.27392992652E+03  0.00000000000E+00 0. -1.
</event>
<event>
 6    1  0.6447971E-006  0.9223365E+02  0.7561462E-02  0.1297531E+00
          1   -1    0    0  501    0  0.00000000000E+00  0.00000000000E+00  0.60117825622E+03  0.60117825622E+03  0.00000000000E+00 0. -1.
         -1   -1    0    0    0  501 -0.00000000000E+00 -0.00000000000E+00 -0.31636781565E+02  0.31636781565E+02  0.00000000000E+00 0.  1.
          5    1    1    2  502    0 -0.56426733322E+02  0.45561690462E+02  0.20154838525E+03  0.21424067743E+03  0.41800000000E+01 0.  1.
         -5    1    1    2    0  502  0.66725563538E+01 -0.31515726783E+01 -0.16412315373E+02  0.18474087651E+02  0.41800000000E+01 0.  1.
        -11    1    1    2    0    0  0.66635854120E+02 -0.51454169727E+02  0.35615343846E+03  0.36596876965E+03  0.00000000000E+00 0. -1.
         11    1    1    2    0    0 -0.16881677151E+02  0.90440519439E+01  0.28251966321E+02  0.34131503043E+02  0.00000000000E+00 0.  1.
</event>
<event>
 6    1  0.6447971E-006  0.2088617E+03  0.7561462E-02  0.1142471E+00
         -2   -1    0    0    0  501 -0.00000000000E+00  0.00000000000E+00  0.77326026114E+03  0.77326026114E+03  0.00000000000E+00 0.  1.
          2   -1    0    0  501    0  0.00000000000E+00 -0.00000000000E+00 -0.62817897957E+02  0.62817897957E+02  0.00000000000E+00 0. -1.
          5    1    1    2  502    0 -0.13125941401E+02  0.57158930162E+02  0.15581619383E+03  0.16654006213E+03  0.41800000000E+01 0.  1.
         -5    1    1    2    0  502  0.13939883367E+03  0.86394736399E+02  0.24586622466E+03  0.29557360865E+03  0.41800000000E+01 0.  1.
        -11    1    1    2    0    0 -0.74389784924E+02 -0.56036564767E+02  0.22017646108E+03  0.23906403055E+03  0.00000000000E+00 0. -1.
         11    1    1    2    0    0 -0.51883107340E+02 -0.87517101795E+02  0.88583483621E+02  0.13490045776E+03  0.00000000000E+00 0.  1.
</event>
<event>
 6    1  0.6447971E-006  0.7760376E+02  0.7561462E-02  0.1335993E+00
          1   -1    0    0  501    0  0.00000000000E+00  0.00000000000E+00  0.11607037441E+03  0.11607037441E+03  0.00000000000E+00 0. -1.
         -1   -1    0    0    0  501 -0.00000000000E+00 -0.00000000000E+00 -0.10810457095E+03  0.10810457095E+03  0.00000000000E+00 0.  1.
          5    1    1    2  502    0 -0.58235918268E+02 -0.10957845968E+02 -0.25298289658E+02  0.64567580289E+02  0.41800000000E+01 0. -1.
         -5    1    1    2    0  502  0.49151023375E+02 -0.15639720520E+02  0.38139815378E+02  0.64284849489E+02  0.41800000000E+01 0. -1.
        -11    1    1    2    0    0  0.20719664189E+02  0.81939550640E+01 -0.44694129736E+02  0.49940070250E+02  0.00000000000E+00 0.  1.
         11    1    1    2    0    0 -0.11634769295E+02  0.18403611423E+02  0.39818407482E+02  0.45382445333E+02  0.00000000000E+00 0. -1.
</event>
<event>
 6    1  0.6447971E-006  0.1064838E+03  0.7561462E-02  0.1267224E+00
          1   -1    0    0  501    0  0.00000000000E+00  0.00000000000E+00  0.53359369409E+03  0.53359369409E+03  0.00000000000E+00 0. -1.
         -1   -1    0    0    0  501 -0.00000000000E+00 -0.00000000000E+00 -0.27333476298E+02  0.27333476298E+02  0.00000000000E+00 0.  1.
          5    1    1    2  502    0 -0.44452238032E+02  0.63848396273E+02  0.10929454677E+03  0.13422141978E+03  0.41800000000E+01 0.  1.
         -5    1    1    2    0  502  0.11369475741E+00 -0.37866534545E+02  0.19625672084E+03  0.19992013466E+03  0.41800000000E+01 0.  1.
        -11    1    1    2    0    0  0.47404084021E+01 -0.50278900203E+02  0.14873240905E+03  0.15707249529E+03  0.00000000000E+00 0.  1.
         11    1    1    2    0    0  0.39598134873E+02  0.24297038476E+02  0.51976541128E+02  0.69713120657E+02  0.00000000000E+00 0. -1.
</event>
<event>
 6    1  0.6447971E-006  0.9207400E+02  0.7561462E-02  0.1297906E+00
          2   -1    0    0  501    0  0.00000000000E+00  0.00000000000E+00  0.80220601749E+02  0.80220601749E+02  0.00000000000E+00 0. -1.
         -2   -1    0    0    0  501 -0.00000000000E+00 -0.00000000000E+00 -0.13683491495E+03  0.13683491495E+03  0.00000000000E+00 0.  1.
          5    1    1    2  502    0 -0.24773924487E+02  0.32704572499E+02  0.11568232350E+02  0.42832613702E+02  0.41800000000E+01 0. -1.
         -5    1    1    2    0  502  0.33528941757E+02 -0.58514268366E+02 -0.71980895061E+02  0.98726041101E+02  0.41800000000E+01 0. -1.
        -11    1    1    2    0    0 -0.39255482621E+02  0.20810826326E+02  0.71936554277E+00  0.44436481577E+02  0.00000000000E+00 0.  1.
         11    1    1    2    0    0  0.30500465352E+02  0.49988695409E+01  0.30789839665E+01  0.31060380320E+02  0.00000000000E+00 0. -1.
</event>
<event>
 6    1  0.6447971E-006  0.1457505E+03  0.7561462E-02  0.1205794E+00
          1   -1    0    0  501    0  0.00000000000E+00  0.00000000000E+00  0.88935193840E+02  0.88935193840E+02  0.00000000000E+00 0. -1.
         -1   -1    0    0    0  501 -0.00000000000E+00 -0.00000000000E+00 -0.26505815003E+03  0.26505815003E+03  0.00000000000E+00 0.  1.
          5    1    1    2  502    0  0.14504753044E+02  0.35682648016E+02 -0.39869115773E+02  0.55593686897E+02  0.41800000000E+01 0.  1.
         -5    1    1    2    0  502 -0.12057101681E+03 -0.29660445378E+02 -0.82736249505E+02  0.14926443480E+03  0.41800000000E+01 0.  1.
        -11    1    1    2    0    0  0.11420605113E+03 -0.16350442110E+02 -0.25456484677E+02  0.11814563760E+03  0.00000000000E+00 0. -1.
         11    1    1    2    0    0 -0.81397873584E+01  0.10328239473E+02 -0.28061106240E+02  0.30989584577E+02  0.00000000000E+00 0.  1.
</event>
<event>
 6    1  0.6447971E-006  0.1395425E+03  0.7561462E-02  0.1213946E+00
         -2   -1    0    0    0  501 -0.00000000000E+00  0.00000000000E+00  0.57149041976E+02  0.57149041976E+02  0.00000000000E+00 0.  1.
          2   -1    0    0  501    0  0.00000000000E+00 -0.00000000000E+00 -0.42598467443E+03  0.42598467443E+03  0.00000000000E+00 0. -1.
          5    1    1    2  502    0 -0.67019072874E+02 -0.49576318935E+02 -0.28907889705E+02  0.88331795041E+02  0.41800000000E+01 0.  1.
         -5    1    1    2    0  502 -0.39095314396E+02  0.44355323613E+02 -0.11747941487E+03  0.13158542343E+03  0.41800000000E+01 0.  1.
        -11    1    1    2    0    0  0.12102363655E+03  0.17502009035E+01 -0.21367043514E+03  0.24557043523E+03  0.00000000000E+00 0. -1.
         11    1    1    2    0    0 -0.14909249282E+02  0.34707944185E+01 -0.87778927391E+01  0.17646062705E+02  0.00000000000E+00 0.  1.
</event>
<event>
 6    1  0.6447971E-006  0.1040329E+03  0.7561462E-02  0.1272037E+00
          1   -1    0    0  501    0  0.00000000000E+00  0.00000000000E+00  0.34020378172E+03  0.34020378172E+03  0.00000000000E+00 0. -1.
         -1   -1    0    0    0  501 -0.00000000000E+00 -0.00000000000E+00 -0.35288924665E+02  0.35288924665E+02  0.00000000000E+00 0.  1.
          5    1    1    2  502    0 -0.39961852693E+02  0.43884041909E+02  0.13071415966E+03  0.14361901943E+03  0.41800000000E+01 0. -1.
         -5    1    1    2    0  502  0.26203316791E+02 -0.49575639766E+02  0.42225566590E+02  0.70319476270E+02  0.41800000000E+01 0. -1.
        -11    1    1    2    0    0 -0.37519268558E+02 -0.97833563113E+01  0.44904752653E+02  0.59328293290E+02  0.00000000000E+00 0.  1.
         11    1    1    2    0    0  0.51277804460E+02  0.15474954169E+02  0.87070378153E+02  0.10222591740E+03  0.00000000000E+00 0. -1.
</event>
<event>
 6    1  0.6447971E-006  0.2040157E+03  0.7561462E-02  0.1146395E+00
         -1   -1    0    0    0  501 -0.00000000000E+00  0.00000000000E+00  0.71985128287E+02  0.71985128287E+02  0.00000000000E+00 0.  1.
          1   -1    0    0  501    0  0.00000000000E+00 -0.00000000000E+00 -0.85000262301E+03  0.85000262301E+03  0.00000000000E+00 0. -1.
          5    1    1    2  502    0 -0.11206579730E+03  0.15690623835E+03 -0.17186090269E+03  0.25832528492E+03  0.41800000000E+01 0.  1.
         -5    1    1    2    0  502  0.28984486036E+01 -0.11919396515E+02  0.89647518224E+01  0.15757924762E+02  0.41800000000E+01 0.  1.
        -11    1    1    2    0    0  0.11521423099E+03 -0.88190664675E+02 -0.40705385519E+03  0.43213973826E+03  0.00000000000E+00 0.  1.
         11    1    1    2    0    0 -0.60468822976E+01 -0.56796177162E+02 -0.20806748866E+03  0.21576480335E+03  0.00000000000E+00 0. -1.
</event>
<event>
 6    1  0.6447971E-006  0.8777100E+02  0.7561462E-02  0.1308341E+00
          1   -1    0    0  501    0  0.00000000000E+00  0.00000000000E+00  0.26609792677E+03  0.26609792677E+03  0.00000000000E+00 0. -1.
         -1   -1    0    0    0  501 -0.00000000000E+00 -0.00000000000E+00 -0.53639975454E+02  0.53639975454E+02  0.00000000000E+00 0.  1.
          5    1    1    2  502    0 -0.22008485299E+02  0.36418083169E+02  0.83961360639E+02  0.94221190224E+02  0.41800000000E+01 0. -1.
         -5    1    1    2    0  502 -0.42309630320E+01 -0.80654638920E+02  0.44483437705E+02  0.92300164992E+02  0.41800000000E+01 0. -1.
        -11    1    1    2    0    0  0.20464368802E+02  0.28018456552E+02 -0.11200341020E+02  0.36459181793E+02  0.00000000000E+00 0.  1.
         11    1    1    2    0    0  0.57750795288E+01  0.16218099199E+02  0.95213493988E+02  0.96757365211E+02  0.00000000000E+00 0. -1.
</event>
<event>
 6    1  0.6447971E-006  0.1946049E+03  0.7561462E-02  0.1154372E+00
          1   -1    0    0  501    0  0.00000000000E+00  0.00000000000E+00  0.82185069143E+02  0.82185069143E+02  0.00000000000E+00 0. -1.
         -1   -1    0    0    0  501 -0.00000000000E+00 -0.00000000000E+00 -0.60265537087E+03  0.60265537087E+03  0.00000000000E+00 0.  1.
          5    1    1    2  502    0  0.30162344403E+02 -0.14081632051E+02 -0.19557403338E+02  0.38833282200E+02  0.41800000000E+01 0.  1.
         -5    1    1    2    0  502 -0.56038087385E+02 -0.16495429554E+03 -0.35659986458E+03  0.39690190561E+03  0.41800000000E+01 0.  1.
        -11    1    1    2    0    0  0.24927991238E+02  0.13090481537E+03 -0.48374212333E+02  0.14176579225E+03  0.00000000000E+00 0. -1.
         11    1    1    2    0    0  0.94775174443E+00  0.48131112228E+02 -0.95938821481E+02  0.10733945996E+03  0.00000000000E+00 0.  1.
</event>
<event>
 6    1  0.6447971E-006  0.1255058E+03  0.7561462E-02  0.1234281E+00
         -2   -1    0    0    0  501 -0.00000000000E+00  0.00000000000E+00  0.12849793787E+02  0.12849793787E+02  0.00000000000E+00 0.  1.
          2   -1    0    0  501    0  0.00000000000E+00 -0.00000000000E+00 -0.17276417912E+04  0.17276417912E+04  0.00000000000E+00 0. -1.
          5    1    1    2  502    0 -0.50948525891E+02 -0.77309806370E+01 -0.76315541950E+03  0.76490469149E+03  0.41800000000E+01 0. -1.
         -5    1    1    2    0  502 -0.57713898897E+02 -0.63476654012E+01 -0.13772501311E+03  0.14952203389E+03  0.41800000000E+01 0.  1.
        -11    1    1    2    0    0  0.55770667686E+02  0.51814138675E+02 -0.45286813590E+03  0.45922175564E+03  0.00000000000E+00 0. -1.
         11    1    1    2    0    0  0.52891757102E+02 -0.37735492636E+02 -0.36104342888E+03  0.36684310394E+03  0.00000000000E+00 0.  1.
</event>
<event>
 6    1  0.6447971E-006  0.8962137E+02  0.7561462E-02  0.1303771E+00
         -1   -1    0    0    0  501 -0.00000000000E+00  0.00000000000E+00  0.21070645059E+02  0.21070645059E+02  0.00000000000E+00 0.  1.
          1   -1    0    0  501    0  0.00000000000E+00 -0.00000000000E+00 -0.61111772359E+03  0.61111772359E+03  0.00000000000E+00 0. -1.
          5    1    1    2  502    0 -0.16831657974E+02  0.29680143676E+02 -0.25495786475E+03  0.25726484570E+03  0.41800000000E+01 0.  1.
         -5    1    1    2    0  502  0.43922720695E+02 -0.38982557201E+02 -0.66263412915E+02  0.88640608359E+02  0.41800000000E+01 0.  1.
        -11    1    1    2    0    0 -0.71924799156E+00  0.43109299455E+02 -0.20437319736E+03  0.20887157014E+03  0.00000000000E+00 0. -1.
         11    1    1    2    0    0 -0.26371814730E+02 -0.33806885930E+02 -0.64452603514E+02  0.77411344441E+02  0.00000000000E+00 0.  1.
</event>
<event>
 6    1  0.6447971E-006  0.1162949E+03  0.7561462E-02  0.1249338E+00
         -2   -1    0    0    0  501 -0.00000000000E+00  0.00000000000E+00  0.30319648798E+03  0.30319648798E+03  0.00000000000E+00 0.  1.
          2   -1    0    0  501    0  0.00000000000E+00 -0.00000000000E+00 -0.62575346703E+02  0.62575346703E+02  0.00000000000E+00 0. -1.
          5    1    1    2  502    0  0.18631059002E+02  0.32128746600E+02  0.38682930872E+02  0.53788607143E+02  0.41800000000E+01 0. -1.
         -5    1    1    2    0  502 -0.63260691875E+02 -0.79892613769E+02  0.16638995284E+03  0.19516104549E+03  0.41800000000E+01 0. -1.
        -11    1    1    2    0    0 -0.16456378590E+01 -0.15086333933E+02  0.35680443185E+02  0.38773697546E+02  0.00000000000E+00 0.  1.
         11    1    1    2    0    0  0.46275270732E+02  0.62850201102E+02 -0.13218562122E+00  0.78048484501E+02  0.00000000000E+00 0. -1.
</event>
<event>
 6    1  0.6447971E-006  0.1195898E+03  0.7561462E-02  0.1243775E+00
         -2   -1    0    0    0  501 -0.00000000000E+00  0.00000000000E+00  0.45381127997E+02  0.45381127997E+02  0.00000000000E+00 0.  1.
          2   -1    0    0  501    0  0.00000000000E+00 -0.00000000000E+00 -0.56941844656E+03  0.56941844656E+03  0.00000000000E+00 0. -1.
          5    1    1    2  502    0  0.66205649681E+02 -0.37457136420E+02 -0.14874554035E+03  0.16711951799E+03  0.41800000000E+01 0.  1.
         -5    1    1    2    0  502  0.32097448289E+02  0.42580616808E+02 -0.42329958312E+01  0.53653944572E+02  0.41800000000E+01 0.  1.
        -11    1    1    2    0    0 -0.70517050476E+02  0.18650981293E+02 -0.33433809080E+03  0.34220238525E+03  0.00000000000E+00 0. -1.
         11    1    1    2    0    0 -0.27786047494E+02 -0.23774461681E+02 -0.36720691578E+02  0.51823726743E+02  0.00000000000E+00 0.  1.
</event>
<event>
 6    1  0.6447971E-006  0.9084212E+02  0.7561462E-02  0.1300825E+00
         -1   -1    0    0    0  501 -0.00000000000E+00  0.00000000000E+00  0.29955733475E+02  0.29955733475E+02  0.00000000000E+00 0.  1.
          1   -1    0    0  501    0  0.00000000000E+00 -0.00000000000E+00 -0.49758910166E+03  0.49758910166E+03  0.00000000000E+00 0. -1.
          5    1    1    2  502    0 -0.65743877347E+02  0.57486358688E+01 -0.14156714401E+03  0.15624990524E+03  0.41800000000E+01 0. -1.
         -5    1    1    2    0  502  0.40021271101E+02 -0.14243766240E+02 -0.13403958543E+02  0.44740647311E+02  0.41800000000E+01 0. -1.
        -11    1    1    2    0    0  0.47640150603E+02 -0.37109992124E+01 -0.28592438478E+03  0.28988982266E+03  0.00000000000E+00 0.  1.
         11    1    1    2    0    0 -0.21917544356E+02  0.12206129584E+02 -0.26737880849E+02  0.36664459935E+02  0.00000000000E+00 0. -1.
</event>
<event>
 6    1  0.6447971E-006  0.1533263E+03  0.7561462E-02  0.1196444E+00
          1   -1    0    0  501    0  0.00000000000E+00  0.00000000000E+00  0.59915775963E+03  0.59915775963E+03  0.00000000000E+00 0. -1.
         -1   -1    0    0    0  501 -0.00000000000E+00 -0.00000000000E+00 -0.51943947236E+02  0.51943947236E+02  0.00000000000E+00 0.  1.
          5    1    1    2  502    0 -0.17023406997E+02 -0.11470896968E+03  0.71817459950E+02  0.13646671413E+03  0.41800000000E+01 0. -1.
         -5    1    1    2    0  502 -0.42410754679E+02  0.18404531926E+02  0.69569186232E+02  0.83634580054E+02  0.41800000000E+01 0. -1.
        -11    1    1    2    0    0 -0.11876927699E+02  0.65403468739E+02  0.16276957159E+03  0.17581981848E+03  0.00000000000E+00 0.  1.
         11    1    1    2    0    0  0.71311089375E+02  0.30900969019E+02  0.24305759462E+03  0.25518059420E+03  0.00000000000E+00 0. -1.
</event>
<event>
 6    1  0.6447971E-006  0.1675553E+03  0.7561462E-02  0.1180422E+00
         -1   -1    0    0    0  501 -0.00000000000E+00  0.00000000000E+00  0.25477341896E+02  0.25477341896E+02  0.00000000000E+00 0. -1.
          1   -1    0    0  501    0  0.00000000000E+00 -0.00000000000E+00 -0.11588728695E+04  0.11588728695E+04  0.00000000000E+00 0.  1.
          5    1    1    2  502    0 -0.48008451766E+02  0.12462284715E+03 -0.42757103223E+03  0.44796219201E+03  0.41800000000E+01 0. -1.
         -5    1    1    2    0  502  0.42569884687E+02  0.57495109884E+01 -0.81058739991E+02  0.91832694003E+02  0.41800000000E+01 0. -1.
        -11    1    1    2    0    0 -0.28140903465E+02 -0.11990436024E+03 -0.47378205036E+03  0.48952875023E+03  0.00000000000E+00 0.  1.
         11    1    1    2    0    0  0.33579470544E+02 -0.10467997900E+02 -0.15098370504E+03  0.15502657517E+03  0.00000000000E+00 0. -1.
</event>
<event>
 6    1  0.6447971E-006  0.1004167E+03  0.7561462E-02  0.1279422E+00
         -2   -1    0    0    0  501 -0.00000000000E+00  0.00000000000E+00  0.57926604893E+02  0.57926604893E+02  0.00000000000E+00 0.  1.
          2   -1    0    0  501    0  0.00000000000E+00 -0.00000000000E+00 -0.42210555111E+03  0.42210555111E+03  0.00000000000E+00 0. -1.
          5    1    1    2  502    0  0.41059463100E+02  0.61602339333E+01 -0.11843798785E+03  0.12557411102E+03  0.41800000000E+01 0. -1.
         -5    1    1    2    0  502  0.39345760828E+02  0.37753922418E+02  0.19833510089E+02  0.58174634296E+02  0.41800000000E+01 0. -1.
        -11    1    1    2    0    0 -0.36229903530E+02 -0.47902246943E+02 -0.23464447378E+03  0.24220912503E+03  0.00000000000E+00 0.  1.
         11    1    1    2    0    0 -0.44175320398E+02  0.39880905922E+01 -0.30929994675E+02  0.54074285658E+02  0.00000000000E+00 0. -1.
</event>
<event>
 6    1  0.6447971E-006  0.2060364E+03  0.7561462E-02  0.1144744E+00
          2   -1    0    0  501    0  0.00000000000E+00  0.00000000000E+00  0.80523900370E+03  0.80523900370E+03  0.00000000000E+00 0. -1.
         -2   -1    0    0    0  501 -0.00000000000E+00 -0.00000000000E+00 -0.56913383354E+02  0.56913383354E+02  0.00000000000E+00 0.  1.
          5    1    1    2  502    0  0.41676683049E+02  0.52076867799E+02  0.13110222016E+03  0.14715369721E+03  0.41800000000E+01 0.  1.
         -5    1    1    2    0  502  0.13764896572E+03 -0.53404010577E+02  0.17466210694E+03  0.22874341544E+03  0.41800000000E+01 0.  1.
        -11    1    1    2    0    0 -0.11381842244E+03  0.40970458612E+02  0.31564028810E+03  0.33802663096E+03  0.00000000000E+00 0.  1.
         11    1    1    2    0    0 -0.65507226320E+02 -0.39643315833E+02  0.12692100514E+03  0.14822864344E+03  0.00000000000E+00 0. -1.
</event>
<event>
 6    1  0.6447971E-006  0.1231932E+03  0.7561462E-02  0.1237920E+00
          2   -1    0    0  501    0  0.00000000000E+00  0.00000000000E+00  0.19258108301E+03  0.19258108301E+03  0.00000000000E+00 0. -1.
         -2   -1    0    0    0  501 -0.00000000000E+00 -0.00000000000E+00 -0.82851285286E+02  0.82851285286E+02  0.00000000000E+00 0.  1.
          5    1    1    2  502    0 -0.28574875552E+02 -0.82287734554E+02  0.44053288175E+02  0.97703425579E+02  0.41800000000E+01 0.  1.
         -5    1    1    2    0  502 -0.23564591715E+02  0.45379194692E+02  0.71437395505E+01  0.51798327274E+02  0.41800000000E+01 0.  1.
        -11    1    1    2    0    0  0.70469709012E+02  0.44647796185E+01  0.22536756717E+02  0.74120304563E+02  0.00000000000E+00 0.  1.
         11    1    1    2    0    0 -0.18330241745E+02  0.32443760243E+02  0.35996013277E+02  0.51810310875E+02  0.00000000000E+00 0. -1.
</event>
<event>
 6    1  0.6447971E-006  0.1229170E+03  0.7561462E-02  0.1238361E+00
          1   -1    0    0  501    0  0.00000000000E+00  0.00000000000E+00  0.70655807273E+02  0.70655807273E+02  0.00000000000E+00 0. -1.
         -1   -1    0    0    0  501 -0.00000000000E+00 -0.00000000000E+00 -0.22831158166E+03  0.22831158166E+03  0.00000000000E+00 0.  1.
          5    1    1    2  502    0  0.47960468641E+02  0.78874044841E+02 -0.51024003969E+02  0.10555682300E+03  0.41800000000E+01 0.  1.
         -5    1    1    2    0  502  0.54878056436E+01 -0.43405137432E+02 -0.55651607179E+02  0.70913297398E+02  0.41800000000E+01 0.  1.
        -11    1    1    2    0    0 -0.66597073731E+02  0.51387716810E+01 -0.19897457970E+02  0.69695667280E+02  0.00000000000E+00 0.  1.
         11    1    1    2    0    0  0.13148799447E+02 -0.40607679090E+02 -0.31082705272E+02  0.52801601254E+02  0.00000000000E+00 0. -1.
</event>
<event>
 6    1  0.6447971E-006  0.9081835E+02  0.7561462E-02  0.1300882E+00
         -2   -1    0    0    0  501 -0.00000000000E+00  0.00000000000E+00  0.18066161232E+03  0.18066161232E+03  0.00000000000E+00 0.  1.
          2   -1    0    0  501    0  0.00000000000E+00 -0.00000000000E+00 -0.10794928193E+03  0.10794928193E+03  0.00000000000E+00 0. -1.
          5    1    1    2  502    0 -0.53182880952E+02 -0.44860165883E+02  0.17997580729E+02  0.71987767166E+02  0.41800000000E+01 0.  1.
         -5    1    1    2    0  502 -0.46560753686E+00  0.45408697970E+02  0.93227109853E+02  0.10378310582E+03  0.41800000000E+01 0.  1.
        -11    1    1    2    0    0  0.48334570601E+02  0.14426864887E+02 -0.64802846485E+02  0.82120485009E+02  0.00000000000E+00 0. -1.
         11    1    1    2    0    0  0.53139178878E+01 -0.14975396975E+02  0.26290486299E+02  0.30719536254E+02  0.00000000000E+00 0.  1.
</event>
<event>
 6    1  0.6447971E-006  0.1102775E+03  0.7561462E-02  0.1260057E+00
         -2   -1    0    0    0  501 -0.00000000000E+00  0.00000000000E+00  0.27767258090E+03  0.27767258090E+03  0.00000000000E+00 0. -1.
          2   -1    0    0  501    0  0.00000000000E+00 -0.00000000000E+00 -0.68379151028E+02  0.68379151028E+02  0.00000000000E+00 0.  1.
          5    1    1    2  502    0 -0.23894408071E+02  0.65575095430E+02  0.66353152325E+02  0.96391125635E+02  0.41800000000E+01 0. -1.
         -5    1    1    2    0  502  0.73839699176E+02 -0.10056143777E+02  0.99045554460E+02  0.12401984301E+03  0.41800000000E+01 0. -1.
        -11    1    1    2    0    0 -0.36121306807E+02 -0.29912267491E+02 -0.23335044714E+02  0.52383364380E+02  0.00000000000E+00 0.  1.
         11    1    1    2    0    0 -0.13823984298E+02 -0.25606684161E+02  0.67229767799E+02  0.73257398902E+02  0.00000000000E+00 0. -1.
</event>
<event>
 6    1  0.6447971E-006  0.1639663E+03  0.7561462E-02  0.1184290E+00
          2   -1    0    0  501    0  0.00000000000E+00  0.00000000000E+00  0.11179647231E+04  0.11179647231E+04  0.00000000000E+00 0. -1.
         -2   -1    0    0    0  501 -0.00000000000E+00 -0.00000000000E+00 -0.25079370134E+02  0.25079370134E+02  0.00000000000E+00 0.  1.
          5    1    1    2  502    0 -0.77351599290E+01 -0.28323506037E+02  0.12577897520E+03  0.12922800276E+03  0.41800000000E+01 0.  1.
         -5    1    1    2    0  502 -0.69878539684E+02  0.12773706829E+03  0.39358448384E+03  0.41967366756E+03  0.41800000000E+01 0.  1.
        -11    1    1    2    0    0  0.77927845239E+02 -0.30474619008E+02  0.26008745642E+03  0.27321591545E+03  0.00000000000E+00 0.  1.
         11    1    1    2    0    0 -0.31414562672E+00 -0.68938943242E+02  0.31343443745E+03  0.32092650742E+03  0.00000000000E+00 0. -1.
</event>
<event>
 6    1  0.6447971E-006  0.1438790E+03  0.7561462E-02  0.1208203E+00
         -1   -1    0    0    0  501 -0.00000000000E+00  0.00000000000E+00  0.27023504674E+03  0.27023504674E+03  0.00000000000E+00 0.  1.
          1   -1    0    0  501    0  0.00000000000E+00 -0.00000000000E+00 -0.95669156887E+02  0.95669156887E+02  0.00000000000E+00 0. -1.
          5    1    1    2  502    0  0.36027386301E+02 -0.26606890707E+02  0.94489412821E+02  0.10464999155E+03  0.41800000000E+01 0. -1.
         -5    1    1    2    0  502 -0.30157795088E+02 -0.91267848446E+02  0.10359758556E+02  0.96768330366E+02  0.41800000000E+01 0. -1.
        -11    1    1    2    0    0  0.17040006015E+02  0.12208688571E+03  0.68809159604E+02  0.14117460789E+03  0.00000000000E+00 0. -1.
         11    1    1    2    0    0 -0.22909597228E+02 -0.42121465560E+01  0.90755886770E+00  0.23311273814E+02  0.00000000000E+00 0.  1.
</event>
<event>
 6    1  0.6447971E-006  0.1336971E+03  0.7561462E-02  0.1222071E+00
         -1   -1    0    0    0  501 -0.00000000000E+00  0.00000000000E+00  0.13335044264E+03  0.13335044264E+03  0.00000000000E+00 0.  1.
          1   -1    0    0  501    0  0.00000000000E+00 -0.00000000000E+00 -0.19309283906E+03  0.19309283906E+03  0.00000000000E+00 0. -1.
          5    1    1    2  502    0  0.72462054803E+02 -0.24367510052E+02  0.62630461210E+02  0.98916995525E+02  0.41800000000E+01 0. -1.
         -5    1    1    2    0  502  0.31643188565E+02  0.45281488733E+02 -0.37750411898E+02  0.67039321319E+02  0.41800000000E+01 0. -1.
        -11    1    1    2    0    0 -0.41458639243E+02 -0.51172224702E+02 -0.50537382317E+02  0.83014711710E+02  0.00000000000E+00 0. -1.
         11    1    1    2    0    0 -0.62646604125E+02  0.30258246022E+02 -0.34085063415E+02  0.77472253154E+02  0.00000000000E+00 0.  1.
</event>
<event>
 6    1  0.6447971E-006  0.1200464E+03  0.7561462E-02  0.1243020E+00
         -1   -1    0    0    0  501 -0.00000000000E+00  0.00000000000E+00  0.15109561397E+03  0.15109561397E+03  0.00000000000E+00 0.  1.
          1   -1    0    0  501    0  0.00000000000E+00 -0.00000000000E+00 -0.25760186784E+03  0.25760186784E+03  0.00000000000E+00 0. -1.
          5    1    1    2  502    0  0.49514780054E+00  0.78313777212E+02 -0.14273846836E+01  0.78439803032E+02  0.41800000000E+01 0.  1.
         -5    1    1    2    0  502  0.54805448077E+02  0.17148420646E+01  0.83588477908E+02  0.10005540396E+03  0.41800000000E+01 0.  1.
        -11    1    1    2    0    0  0.50243368461E+01 -0.23404737651E+02  0.27433584782E+00  0.23939527259E+02  0.00000000000E+00 0.  1.
         11    1    1    2    0    0 -0.60324932724E+02 -0.56623881626E+02 -0.18894168294E+03  0.20626274756E+03  0.00000000000E+00 0. -1.
</event>
<event>
 6    1  0.6447971E-006  0.9328009E+02  0.7561462E-02  0.1295097E+00
          2   -1    0    0  501    0  0.00000000000E+00  0.00000000000E+00  0.14939908844E+03  0.14939908844E+03  0.00000000000E+00 0. -1.
         -2   -1    0    0    0  501 -0.00000000000E+00 -0.00000000000E+00 -0.81162483092E+02  0.81162483092E+02  0.00000000000E+00 0.  1.
          5    1    1    2  502    0  0.18789964353E+02  0.58897871759E+02  0.27805099032E+02  0.67916257187E+02  0.41800000000E+01 0. -1.
         -5    1    1    2    0  502 -0.13602430334E+02 -0.57711827424E+02 -0.38246599424E+01  0.59563256789E+02  0.41800000000E+01 0. -1.
        -11    1    1    2    0    0  0.19474511677E+02 -0.24446612105E+02 -0.15111660515E+02  0.34716793227E+02  0.00000000000E+00 0.  1.
         11    1    1    2    0    0 -0.24662045695E+02  0.23260567770E+02  0.59367826770E+02  0.68365264325E+02  0.00000000000E+00 0. -1.
</event>
<event>
 6    1  0.6447971E-006  0.9541026E+02  0.7561462E-02  0.1290255E+00
         -2   -1    0    0    0  501 -0.00000000000E+00  0.00000000000E+00  0.19609821709E+02  0.19609821709E+02  0.00000000000E+00 0.  1.
          2   -1    0    0  501    0  0.00000000000E+00 -0.00000000000E+00 -0.70866319088E+03  0.70866319088E+03  0.00000000000E+00 0. -1.
          5    1    1    2  502    0  0.24910983729E+02  0.21330378401E+02 -0.24436810567E+03  0.24659437468E+03  0.41800000000E+01 0.  1.
         -5    1    1    2    0  502 -0.61216253880E+02 -0.55803854719E+02 -0.17320147636E+03  0.19203573562E+03  0.41800000000E+01 0.  1.
        -11    1    1    2    0    0 -0.14462668971E+02  0.21144089367E+01 -0.35672224358E+01  0.15045417735E+02  0.00000000000E+00 0.  1.
         11    1    1    2    0    0  0.50767939122E+02  0.32359067382E+02 -0.26791656470E+03  0.27459748456E+03  0.00000000000E+00 0. -1.
</event>
<event>
 6    1  0.6447971E-006  0.2734550E+03  0.7561462E-02  0.1099318E+00
         -2   -1    0    0    0  501 -0.00000000000E+00  0.00000000000E+00  0.11501256890E+04  0.11501256890E+04  0.00000000000E+00 0.  1.
          2   -1    0    0  501    0  0.00000000000E+00 -0.00000000000E+00 -0.17712466700E+03  0.17712466700E+03  0.00000000000E+00 0. -1.
          5    1    1    2  502    0 -0.17734505982E+02  0.67157713135E+02  0.15189084706E+03  0.16707175990E+03  0.41800000000E+01 0.  1.
         -5    1    1    2    0  502  0.11621551509E+03  0.16902717766E+03  0.86084043496E+03  0.88495195327E+03  0.41800000000E+01 0.  1.
        -11    1    1    2    0    0 -0.44705254270E+02 -0.19280302282E+02 -0.32148817462E+01  0.48791651746E+02  0.00000000000E+00 0. -1.
         11    1    1    2    0    0 -0.53775754843E+02 -0.21690458852E+03 -0.36515378287E+02  0.22643499107E+03  0.00000000000E+00 0.  1.
</event>
<event>
 6    1  0.6447971E-006  0.2095052E+03  0.7561462E-02  0.1141958E+00
          2   -1    0    0  501    0  0.00000000000E+00  0.00000000000E+00  0.18285430291E+04  0.18285430291E+04  0.00000000000E+00 0. -1.
         -2   -1    0    0    0  501 -0.00000000000E+00 -0.00000000000E+00 -0.25453861255E+02  0.25453861255E+02  0.00000000000E+00 0.  1.
          5    1    1    2  502    0 -0.40394520685E+01  0.38824551186E+02  0.11855350272E+03  0.12488421980E+03  0.41800000000E+01 0.  1.
         -5    1    1    2    0  502 -0.17707495655E+03 -0.12704801947E+02  0.94032074621E+03  0.95694175914E+03  0.41800000000E+01 0.  1.
        -11    1    1    2    0    0  0.15381840921E+03 -0.54128265455E+02  0.53374905195E+03  0.55810216142E+03  0.00000000000E+00 0.  1.
         11    1    1    2    0    0  0.27295999402E+02  0.28008516217E+02  0.21046586695E+03  0.21406874998E+03  0.00000000000E+00 0. -1.
</event>
<event>
 6    1  0.6447971E-006  0.3090098E+03  0.7561462E-02  0.1080821E+00
         -1   -1    0    0    0  501 -0.00000000000E+00  0.00000000000E+00  0.47504931256E+02  0.47504931256E+02  0.00000000000E+00 0.  1.
          1   -1    0    0  501    0  0.00000000000E+00 -0.00000000000E+00 -0.20251432303E+04  0.20251432303E+04  0.00000000000E+00 0. -1.
          5    1    1    2  502    0 -0.11719190575E+03 -0.16362410534E+03 -0.57819960463E+03  0.61224100305E+03  0.41800000000E+01 0. -1.
         -5    1    1    2    0  502  0.25272053573E+02 -0.11062025643E+03 -0.35316241845E+03  0.37096722771E+03  0.41800000000E+01 0. -1.
        -11    1    1    2    0    0  0.10920649455E+03  0.25439359770E+03 -0.97097207195E+03  0.10096677303E+04  0.00000000000E+00 0. -1.
         11    1    1    2    0    0 -0.17286642370E+02  0.19850764069E+02 -0.75304204053E+02  0.79772200588E+02  0.00000000000E+00 0.  1.
</event>
<event>
 6    1  0.6447971E-006  0.1011497E+03  0.7561462E-02  0.1277897E+00
         -1   -1    0    0    0  501 -0.00000000000E+00  0.00000000000E+00  0.80780716387E+02  0.80780716387E+02  0.00000000000E+00 0.  1.
          1   -1    0    0  501    0  0.00000000000E+00 -0.00000000000E+00 -0.27213857957E+03  0.27213857957E+03  0.00000000000E+00 0. -1.
          5    1    1    2  502    0  0.31979859442E+02  0.45649702237E+02 -0.52705665680E+02  0.76824256059E+02  0.41800000000E+01 0.  1.
         -5    1    1    2    0  502 -0.38302978709E+02  0.13767330473E+02  0.46505903978E+02  0.61942950133E+02  0.41800000000E+01 0.  1.
        -11    1    1    2    0    0  0.10545269433E+02 -0.81919152351E+02 -0.12538614657E+03  0.15014538281E+03  0.00000000000E+00 0.  1.
         11    1    1    2    0    0 -0.42221501653E+01  0.22502119641E+02 -0.59771954916E+02  0.64006706952E+02  0.00000000000E+00 0. -1.
</event>
<event>
 6    1  0.6447971E-006  0.6905890E+02  0.7561462E-02  0.1363323E+00
         -2   -1    0    0    0  501 -0.00000000000E+00  0.00000000000E+00  0.21772723930E+02  0.21772723930E+02  0.00000000000E+00 0.  1.
          2   -1    0    0  501    0  0.00000000000E+00 -0.00000000000E+00 -0.65022946502E+03  0.65022946502E+03  0.00000000000E+00 0. -1.
          5    1    1    2  502    0 -0.92304736223E+01  0.18689324132E+02 -0.38162746571E+03  0.38221916156E+03  0.41800000000E+01 0. -1.
         -5    1    1    2    0  502  0.16982230030E+01  0.29851086816E+02 -0.10577547033E+02  0.31989502132E+02  0.41800000000E+01 0.  1.
        -11    1    1    2    0    0  0.17478048915E+02 -0.65070363488E+02 -0.22623848117E+03  0.23605822324E+03  0.00000000000E+00 0.  1.
         11    1    1    2    0    0 -0.99457982960E+01  0.16529952541E+02 -0.10013247182E+02  0.21735302019E+02  0.00000000000E+00 0. -1.
</event>
<event>
 6    1  0.6447971E-006  0.1232197E+03  0.7561462E-02  0.1237878E+00
         -1   -1    0    0    0  501 -0.00000000000E+00  0.00000000000E+00  0.11451586334E+03  0.11451586334E+03  0.00000000000E+00 0.  1.
          1   -1    0    0  501    0  0.00000000000E+00 -0.00000000000E+00 -0.16333630817E+03  0.16333630817E+03  0.00000000000E+00 0. -1.
          5    1    1    2  502    0 -0.80389668446E+02  0.73445958713E+02 -0.21909930917E+02  0.11115001177E+03  0.41800000000E+01 0. -1.
         -5    1    1    2    0  502  0.18121092180E+02 -0.27586312747E+02  0.19199881561E+02  0.38412061709E+02  0.41800000000E+01 0.  1.
        -11    1    1    2    0    0  0.21673242269E+02  0.18240314864E+02 -0.44070266987E+02  0.52389187330E+02  0.00000000000E+00 0. -1.
         11    1    1    2    0    0  0.40595333997E+02 -0.64099960830E+02 -0.20401284802E+01  0.75900910699E+02  0.00000000000E+00 0.  1.
</event>
<event>
 6    1  0.6447971E-006  0.1632245E+03  0.7561462E-02  0.1185104E+00
          2   -1    0    0  501    0  0.00000000000E+00  0.00000000000E+00  0.73567476362E+03  0.73567476362E+03  0.00000000000E+00 0. -1.
         -2   -1    0    0    0  501 -0.00000000000E+00 -0.00000000000E+00 -0.41700814065E+02  0.41700814065E+02  0.00000000000E+00 0.  1.
          5    1    1    2  502    0  0.22910171869E+01 -0.13637242240E+03  0.19052562917E+03  0.23435053685E+03  0.41800000000E+01 0. -1.
         -5    1    1    2    0  502  0.30786961453E+02  0.20065536702E+02  0.40317492551E+02  0.54712296280E+02  0.41800000000E+01 0. -1.
        -11    1    1    2    0    0  0.31121110409E+02  0.60103851990E+02  0.24215443259E+03  0.25143541072E+03  0.00000000000E+00 0.  1.
         11    1    1    2    0    0 -0.64199089049E+02  0.56203033710E+02  0.22097639524E+03  0.23687733384E+03  0.00000000000E+00 0. -1.
</event>
<event>
 6    1  0.6447971E-006  0.1144757E+03  0.7561462E-02  0.1252499E+00
          1   -1    0    0  501    0  0.00000000000E+00  0.00000000000E+00  0.13601163314E+03  0.13601163314E+03  0.00000000000E+00 0. -1.
         -1   -1    0    0    0  501 -0.00000000000E+00 -0.00000000000E+00 -0.30001212512E+03  0.30001212512E+03  0.00000000000E+00 0.  1.
          5    1    1    2  502    0  0.12870218013E+01 -0.22338629838E+02  0.50938678259E+01  0.23325751812E+02  0.41800000000E+01 0.  1.
         -5    1    1    2    0  502  0.88761970541E+02  0.27055444226E+02 -0.24338908367E+03  0.26051180957E+03  0.41800000000E+01 0.  1.
        -11    1    1    2    0    0 -0.65612596804E+02  0.28937512069E+02  0.83007205628E+02  0.10969315681E+03  0.00000000000E+00 0.  1.
         11    1    1    2    0    0 -0.24436395538E+02 -0.33654326458E+02 -0.87124817595E+01  0.42493040072E+02  0.00000000000E+00 0. -1.
</event>
<event>
 6    1  0.6534186E-006  0.5335642E+03  0.7561462E-02  0.1005371E+00
         -1   -1    0    0    0  501 -0.00000000000E+00  0.00000000000E+00  0.70113513412E+03  0.70113513412E+03  0.00000000000E+00 0.  1.
          1   -1    0    0  501    0  0.00000000000E+00 -0.00000000000E+00 -0.47857063078E+03  0.47857063078E+03  0.00000000000E+00 0. -1.
          5    1    1    2  502    0 -0.51012402391E+02  0.15621306672E+02  0.28080285491E+02  0.60433974328E+02  0.41800000000E+01 0.  1.
         -5    1    1    2    0  502 -0.22678432831E+03  0.42837153697E+03  0.30997299590E+03  0.57535557340E+03  0.41800000000E+01 0.  1.
        -11    1    1    2    0    0  0.28516406545E+02 -0.13757525384E+02  0.55904744535E+01  0.32151335144E+02  0.00000000000E+00 0.  1.
         11    1    1    2    0    0  0.24928032416E+03 -0.43023531826E+03 -0.12107925250E+03  0.51176488203E+03  0.00000000000E+00 0. -1.
</event>
<event>
 6    1  0.6447971E-006  0.1135158E+03  0.7561462E-02  0.1254194E+00
          2   -1    0    0  501    0  0.00000000000E+00  0.00000000000E+00  0.35747310032E+03  0.35747310032E+03  0.00000000000E+00 0.  1.
         -2   -1    0    0    0  501 -0.00000000000E+00 -0.00000000000E+00 -0.45723079928E+02  0.45723079928E+02  0.00000000000E+00 0. -1.
          5    1    1    2  502    0  0.19911033195E+02  0.85945926181E+02  0.51196122233E+02  0.10208656524E+03  0.41800000000E+01 0. -1.
         -5    1    1    2    0  502  0.64057126836E+01 -0.43247636864E+02  0.49316912044E+02  0.66038030428E+02  0.41800000000E+01 0. -1.
        -11    1    1    2    0    0 -0.18639218946E+02 -0.66875617149E+02  0.18896551977E+03  0.20131501761E+03  0.00000000000E+00 0.  1.
         11    1    1    2    0    0 -0.76775269331E+01  0.24177327832E+02  0.22271466343E+02  0.33756566976E+02  0.00000000000E+00 0. -1.
</event>
<event>
 6    1  0.6447971E-006  0.1179518E+03  0.7561462E-02  0.1246515E+00
          1   -1    0    0  501    0  0.00000000000E+00  0.00000000000E+00  0.41382967085E+03  0.41382967085E+03  0.00000000000E+00 0. -1.
         -1   -1    0    0    0  501 -0.00000000000E+00 -0.00000000000E+00 -0.69124850128E+02  0.69124850128E+02  0.00000000000E+00 0.  1.
          5    1    1    2  502    0 -0.11212254794E+02  0.37136999062E+02 -0.60037480023E+01  0.39476432804E+02  0.41800000000E+01 0. -1.
         -5    1    1    2    0  502  0.98905552255E+02 -0.42510127564E+02  0.55576429199E+02  0.12122553813E+03  0.41800000000E+01 0. -1.
        -11    1    1    2    0    0 -0.35423526315E+02  0.96272374781E+01  0.19287512404E+02  0.41467071910E+02  0.00000000000E+00 0.  1.
         11    1    1    2    0    0 -0.52269771146E+02 -0.42541089757E+01  0.27584462712E+03  0.28078547814E+03  0.00000000000E+00 0. -1.
</event>
<event>
 6    1  0.6447971E-006  0.1153455E+03  0.7561462E-02  0.1250979E+00
          2   -1    0    0  501    0  0.00000000000E+00  0.00000000000E+00  0.21665115560E+03  0.21665115560E+03  0.00000000000E+00 0. -1.
         -2   -1    0    0    0  501 -0.00000000000E+00 -0.00000000000E+00 -0.96896668998E+02  0.96896668998E+02  0.00000000000E+00 0.  1.
          5    1    1    2  502    0  0.13498998972E+02  0.32665919207E+02 -0.43361343571E+02  0.56097805369E+02  0.41800000000E+01 0.  1.
         -5    1    1    2    0  502 -0.39468760172E+02  0.55216096844E+02  0.76709679969E+02  0.10251072032E+03  0.41800000000E+01 0.  1.
        -11    1    1    2    0    0  0.58677530689E+02 -0.62233207157E+02  0.68922000115E+02  0.10984656017E+03  0.00000000000E+00 0.  1.
         11    1    1    2    0    0 -0.32707769489E+02 -0.25648808893E+02  0.17484150088E+02  0.45092738738E+02  0.00000000000E+00 0. -1.
</event>
<event>
 6    1  0.6447971E-006  0.8490509E+02  0.7561462E-02  0.1315681E+00
          2   -1    0    0  501    0  0.00000000000E+00  0.00000000000E+00  0.36015489966E+03  0.36015489966E+03  0.00000000000E+00 0. -1.
         -2   -1    0    0    0  501 -0.00000000000E+00 -0.00000000000E+00 -0.36932911829E+02  0.36932911829E+02  0.00000000000E+00 0.  1.
          5    1    1    2  502    0  0.16680784032E+02  0.51761253898E+02  0.12622964095E+03  0.13750952918E+03  0.41800000000E+01 0.  1.
         -5    1    1    2    0  502  0.17489701019E+02 -0.65562950591E+02  0.65794418638E+02  0.94608498856E+02  0.41800000000E+01 0.  1.
        -11    1    1    2    0    0 -0.17486037991E+02  0.22477047468E+02  0.14094191163E+03  0.14379013054E+03  0.00000000000E+00 0. -1.
         11    1    1    2    0    0 -0.16684447059E+02 -0.86753507747E+01 -0.97439833935E+01  0.21179652903E+02  0.00000000000E+00 0.  1.
</event>
<event>
 6    1  0.6447971E-006  0.9593429E+02  0.7561462E-02  0.1289086E+00
         -2   -1    0    0    0  501 -0.00000000000E+00  0.00000000000E+00  0.22252835475E+02  0.22252835475E+02  0.00000000000E+00 0.  1.
          2   -1    0    0  501    0  0.00000000000E+00 -0.00000000000E+00 -0.51003261435E+03  0.51003261435E+03  0.00000000000E+00 0. -1.
          5    1    1    2  502    0  0.69966509241E+01  0.70873659601E+02 -0.16498782201E+03  0.17975116846E+03  0.41800000000E+01 0.  1.
         -5    1    1    2    0  502 -0.17508768822E+02 -0.46809803678E+02 -0.53155313051E+02  0.73079917977E+02  0.41800000000E+01 0.  1.
        -11    1    1    2    0    0 -0.25495743729E+02 -0.23024305605E+02 -0.92061465870E+02  0.98262226185E+02  0.00000000000E+00 0.  1.
         11    1    1    2    0    0  0.36007861627E+02 -0.10395503194E+01 -0.17757517795E+03  0.18119213721E+03  0.00000000000E+00 0. -1.
</event>
<event>
 6    1  0.6447971E-006  0.1034115E+03  0.7561462E-02  0.1273281E+00
         -2   -1    0    0    0  501 -0.00000000000E+00  0.00000000000E+00  0.34524570741E+02  0.34524570741E+02  0.00000000000E+00 0.  1.
          2   -1    0    0  501    0  0.00000000000E+00 -0.00000000000E+00 -0.41824225573E+03  0.41824225573E+03  0.00000000000E+00 0. -1.
          5    1    1    2  502    0  0.60700267038E+02 -0.46464799676E+02 -0.70383735836E+02  0.10399443590E+03  0.41800000000E+01 0. -1.
         -5    1    1    2    0  502 -0.46759359418E+02  0.19590815384E+02 -0.68941612903E+02  0.85677629112E+02  0.41800000000E+01 0. -1.
        -11    1    1    2    0    0  0.20367964900E+02  0.38179566607E+02 -0.20553144953E+03  0.21003740154E+03  0.00000000000E+00 0. -1.
         11    1    1    2    0    0 -0.34308872520E+02 -0.11305582315E+02 -0.38860886722E+02  0.53057359922E+02  0.00000000000E+00 0.  1.
</event>
<event>
 6    1  0.6447971E-006  0.9406154E+02  0.7561462E-02  0.1293304E+00
         -2   -1    0    0    0  501 -0.00000000000E+00  0.00000000000E+00  0.25824617461E+02  0.25824617461E+02  0.00000000000E+00 0.  1.
          2   -1    0    0  501    0  0.00000000000E+00 -0.00000000000E+00 -0.55010322479E+03  0.55010322479E+03  0.00000000000E+00 0. -1.
          5    1    1    2  502    0 -0.48072880627E+02  0.51777231877E+00 -0.24847018060E+03  0.25311296488E+03  0.41800000000E+01 0.  1.
         -5    1    1    2    0  502  0.35517826728E+02 -0.47725997591E+02 -0.66700956374E+02  0.89475006805E+02  0.41800000000E+01 0.  1.
        -11    1    1    2    0    0  0.26741543219E+02  0.57019457195E+02 -0.20650622487E+03  0.21589615453E+03  0.00000000000E+00 0. -1.
         11    1    1    2    0    0 -0.14186489320E+02 -0.98112319233E+01 -0.26012454838E+01  0.17443716036E+02  0.00000000000E+00 0.  1.
</event>
<event>
 6    1  0.6447971E-006  0.9516883E+02  0.7561462E-02  0.1290796E+00
         -2   -1    0    0    0  501 -0.00000000000E+00  0.00000000000E+00  0.51486442308E+03  0.51486442308E+03  0.00000000000E+00 0.  1.
          2   -1    0    0  501    0  0.00000000000E+00 -0.00000000000E+00 -0.45734201592E+02  0.45734201592E+02  0.00000000000E+00 0. -1.
          5    1    1    2  502    0 -0.34985431475E+02 -0.10221962599E+02  0.85463598699E+01  0.37669372200E+02  0.41800000000E+01 0. -1.
         -5    1    1    2    0  502  0.48217377330E+02 -0.26937124269E+02  0.40739076816E+03  0.41113894795E+03  0.41800000000E+01 0.  1.
        -11    1    1    2    0    0  0.23347955563E+02 -0.19769267731E+02  0.14725754432E+02  0.33952891176E+02  0.00000000000E+00 0.  1.
         11    1    1    2    0    0 -0.36579901418E+02  0.56928354599E+02  0.38467339030E+02  0.77837413350E+02  0.00000000000E+00 0. -1.
</event>
<event>
 6    1  0.6447971E-006  0.1462401E+03  0.7561462E-02  0.1205171E+00
          3   -1    0    0  501    0  0.00000000000E+00  0.00000000000E+00  0.82261885208E+03  0.82261885208E+03  0.00000000000E+00 0. -1.
         -3   -1    0    0    0  501 -0.00000000000E+00 -0.00000000000E+00 -0.49310176833E+02  0.49310176833E+02  0.00000000000E+00 0.  1.
          5    1    1    2  502    0  0.10637926793E+03 -0.45187514975E+02  0.16593191335E+03  0.20226055578E+03  0.41800000000E+01 0. -1.
         -5    1    1    2    0  502  0.22162214991E+02  0.35775390967E+02  0.39568386618E-01  0.42290854068E+02  0.41800000000E+01 0. -1.
        -11    1    1    2    0    0 -0.21103894714E+02 -0.12997384853E+02  0.26586202159E+02  0.36347386844E+02  0.00000000000E+00 0.  1.
         11    1    1    2    0    0 -0.10743758821E+03  0.22409508862E+02  0.58075099135E+03  0.59103023222E+03  0.00000000000E+00 0. -1.
</event>
<event>
 6    1  0.6447971E-006  0.1908187E+03  0.7561462E-02  0.1157725E+00
         -2   -1    0    0    0  501 -0.00000000000E+00  0.00000000000E+00  0.98240509173E+02  0.98240509173E+02  0.00000000000E+00 0.  1.
          2   -1    0    0  501    0  0.00000000000E+00 -0.00000000000E+00 -0.48526102118E+03  0.48526102118E+03  0.00000000000E+00 0. -1.
          5    1    1    2  502    0  0.10739327898E+03  0.10505384194E+03 -0.21340571546E+03  0.26101551269E+03  0.41800000000E+01 0. -1.
         -5    1    1    2    0  502  0.37283004349E+02  0.16883322577E+02  0.11428435165E+02  0.42698366770E+02  0.41800000000E+01 0. -1.
        -11    1    1    2    0    0 -0.92214480727E+01 -0.15084970353E+02 -0.70538886543E+02  0.72720876988E+02  0.00000000000E+00 0. -1.
         11    1    1    2    0    0 -0.13545483525E+03 -0.10685219416E+03 -0.11450434516E+03  0.20706677390E+03  0.00000000000E+00 0.  1.
</event>
<event>
 6    1  0.6447971E-006  0.1326675E+03  0.7561462E-02  0.1223551E+00
         -2   -1    0    0    0  501 -0.00000000000E+00  0.00000000000E+00  0.14523490925E+03  0.14523490925E+03  0.00000000000E+00 0.  1.
          2   -1    0    0  501    0  0.00000000000E+00 -0.00000000000E+00 -0.16366741276E+03  0.16366741276E+03  0.00000000000E+00 0. -1.
          5    1    1    2  502    0 -0.96964178902E+02 -0.73551430674E+02  0.40307752683E+02  0.12827334981E+03  0.41800000000E+01 0.  1.
         -5    1    1    2    0  502  0.31224256221E+02 -0.66296219848E+01 -0.16103710009E+02  0.35995943386E+02  0.41800000000E+01 0.  1.
        -11    1    1    2    0    0  0.13720655091E+02  0.48625668853E+02  0.22669513023E+02  0.55377060849E+02  0.00000000000E+00 0.  1.
         11    1    1    2    0    0  0.52019267591E+02  0.31555383805E+02 -0.65306059212E+02  0.89255967966E+02  0.00000000000E+00 0. -1.
</event>
<event>
 6    1  0.6447971E-006  0.2157580E+03  0.7561462E-02  0.1137086E+00
          1   -1    0    0  501    0  0.00000000000E+00  0.00000000000E+00  0.11101165790E+03  0.11101165790E+03  0.00000000000E+00 0. -1.
         -1   -1    0    0    0  501 -0.00000000000E+00 -0.00000000000E+00 -0.47927613587E+03  0.47927613587E+03  0.00000000000E+00 0.  1.
          5    1    1    2  502    0 -0.86611983659E+01 -0.90865448192E+02 -0.35068531118E+02  0.97871447864E+02  0.41800000000E+01 0. -1.
         -5    1    1    2    0  502  0.48656505253E+02 -0.10797815709E+03 -0.19650875597E+03  0.22947745310E+03  0.41800000000E+01 0.  1.
        -11    1    1    2    0    0 -0.29622021754E+02  0.82366762913E+01 -0.52889567391E+01  0.31197436954E+02  0.00000000000E+00 0.  1.
         11    1    1    2    0    0 -0.10373285133E+02  0.19060692899E+03 -0.13139823415E+03  0.23174145585E+03  0.00000000000E+00 0. -1.
</event>
<event>
 6    1  0.6447971E-006  0.8755601E+02  0.7561462E-02  0.1308880E+00
          2   -1    0    0  501    0  0.00000000000E+00  0.00000000000E+00  0.24010764038E+03  0.24010764038E+03  0.00000000000E+00 0. -1.
         -2   -1    0    0    0  501 -0.00000000000E+00 -0.00000000000E+00 -0.90924290634E+02  0.90924290634E+02  0.00000000000E+00 0.  1.
          5    1    1    2  502    0  0.74438258914E+01  0.54617338166E+02 -0.62741029934E+02  0.83620412636E+02  0.41800000000E+01 0.  1.
         -5    1    1    2    0  502  0.18239856294E+02 -0.39845679892E+01  0.50789109683E+02  0.54273153604E+02  0.41800000000E+01 0.  1.
        -11    1    1    2    0    0 -0.53073973184E+02 -0.50570257849E+02  0.14174189921E+03  0.15957745329E+03  0.00000000000E+00 0. -1.
         11    1    1    2    0    0  0.27390290999E+02 -0.62512328624E-01  0.19393370783E+02  0.33560911476E+02  0.00000000000E+00 0.  1.
</event>
<event>
 6    1  0.6447971E-006  0.6438404E+02  0.7561462E-02  0.1380304E+00
         -2   -1    0    0    0  501 -0.00000000000E+00  0.00000000000E+00  0.36599127910E+02  0.36599127910E+02  0.00000000000E+00 0.  1.
          2   -1    0    0  501    0  0.00000000000E+00 -0.00000000000E+00 -0.19995895781E+03  0.19995895781E+03  0.00000000000E+00 0. -1.
          5    1    1    2  502    0  0.14493544487E+02  0.39629116822E+02 -0.10165704170E+03  0.11014606784E+03  0.41800000000E+01 0. -1.
         -5    1    1    2    0  502  0.10479128779E+02 -0.43231043124E+02  0.47820611264E+01  0.44934126654E+02  0.41800000000E+01 0.  1.
        -11    1    1    2    0    0  0.57548880249E+01  0.88074309615E+01 -0.33021452388E+01  0.11026955133E+02  0.00000000000E+00 0. -1.
         11    1    1    2    0    0 -0.30727561291E+02 -0.52055046600E+01 -0.63182704084E+02  0.70450936098E+02  0.00000000000E+00 0.  1.
</event>
<event>
 6    1  0.6447971E-006  0.1547236E+03  0.7561462E-02  0.1194786E+00
          2   -1    0    0  501    0  0.00000000000E+00  0.00000000000E+00  0.10844456821E+04  0.10844456821E+04  0.00000000000E+00 0. -1.
         -2   -1    0    0    0  501 -0.00000000000E+00 -0.00000000000E+00 -0.22754151233E+02  0.22754151233E+02  0.00000000000E+00 0.  1.
          5    1    1    2  502    0 -0.52327609103E+02 -0.35104262553E+02  0.17448565424E+03  0.18556185993E+03  0.41800000000E+01 0. -1.
         -5    1    1    2    0  502 -0.45642660181E+02  0.94804053009E+02  0.38004164979E+03  0.39436048087E+03  0.41800000000E+01 0. -1.
        -11    1    1    2    0    0  0.89344456066E+02 -0.92603970390E+01  0.26640330499E+03  0.28113859161E+03  0.00000000000E+00 0. -1.
         11    1    1    2    0    0  0.86258132181E+01 -0.50439393417E+02  0.24076092184E+03  0.24613890093E+03  0.00000000000E+00 0.  1.
</event>
<event>
 6    1  0.6447971E-006  0.2597504E+03  0.7561462E-02  0.1107293E+00
          2   -1    0    0  501    0  0.00000000000E+00  0.00000000000E+00  0.45677433215E+03  0.45677433215E+03  0.00000000000E+00 0. -1.
         -2   -1    0    0    0  501 -0.00000000000E+00 -0.00000000000E+00 -0.14956508899E+03  0.14956508899E+03  0.00000000000E+00 0.  1.
          5    1    1    2  502    0  0.83519585160E+02  0.25378846778E+02  0.68039924258E+02  0.11075428056E+03  0.41800000000E+01 0. -1.
         -5    1    1    2    0  502  0.13066024865E+03 -0.12138342478E+03  0.12138795809E+03  0.21577429216E+03  0.41800000000E+01 0. -1.
        -11    1    1    2    0    0 -0.73414655657E+02  0.85307085737E+02  0.56061791663E+02  0.12573756410E+03  0.00000000000E+00 0.  1.
         11    1    1    2    0    0 -0.14076517815E+03  0.10697492269E+02  0.61719569151E+02  0.15407328431E+03  0.00000000000E+00 0. -1.
</event>
<event>
 6    1  0.7289763E-006  0.4919418E+03  0.7561462E-02  0.1015904E+00
         -1   -1    0    0    0  501 -0.00000000000E+00  0.00000000000E+00  0.92649945635E+03  0.92649945635E+03  0.00000000000E+00 0.  1.
          1   -1    0    0  501    0  0.00000000000E+00 -0.00000000000E+00 -0.26968298402E+03  0.26968298402E+03  0.00000000000E+00 0. -1.
          5    1    1    2  502    0  0.17547262549E+03  0.15402127783E+03  0.93706125851E+02  0.25161777906E+03  0.41800000000E+01 0. -1.
         -5    1    1    2    0  502  0.21904333463E+03  0.13260921449E+03  0.25052281475E+03  0.35825178203E+03  0.41800000000E+01 0. -1.
        -11    1    1    2    0    0 -0.32493006485E+03 -0.19406901250E+03  0.21782453922E+03  0.43668049939E+03  0.00000000000E+00 0. -1.
         11    1    1    2    0    0 -0.69585895265E+02 -0.92561479815E+02  0.94762992498E+02  0.14963237989E+03  0.00000000000E+00 0.  1.
</event>
<event>
 6    1  0.6447971E-006  0.1978924E+03  0.7561462E-02  0.1151529E+00
          4   -1    0    0  501    0  0.00000000000E+00  0.00000000000E+00  0.16062113553E+03  0.16062113553E+03  0.00000000000E+00 0. -1.
         -4   -1    0    0    0  501 -0.00000000000E+00 -0.00000000000E+00 -0.26968739505E+03  0.26968739505E+03  0.00000000000E+00 0.  1.
          5    1    1    2  502    0  0.15256496176E+03  0.11128829912E+03 -0.96519848253E+02  0.21211955729E+03  0.41800000000E+01 0.  1.
         -5    1    1    2    0  502 -0.21752748011E+02 -0.76925956425E+00 -0.38240248335E+01  0.22491540015E+02  0.41800000000E+01 0.  1.
        -11    1    1    2    0    0 -0.11116530484E+03 -0.51472887265E+02 -0.36100171255E+02  0.12771219789E+03  0.00000000000E+00 0. -1.
         11    1    1    2    0    0 -0.19646908909E+02 -0.59046152288E+02  0.27377784818E+02  0.67985235392E+02  0.00000000000E+00 0.  1.
</event>
<event>
 6    1  0.6447971E-006  0.9828408E+02  0.7561462E-02  0.1283946E+00
          3   -1    0    0  501    0  0.00000000000E+00  0.00000000000E+00  0.71361818435E+02  0.71361818435E+02  0.00000000000E+00 0. -1.
         -3   -1    0    0    0  501 -0.00000000000E+00 -0.00000000000E+00 -0.46852241959E+03  0.46852241959E+03  0.00000000000E+00 0.  1.
          5    1    1    2  502    0  0.44973635884E+02  0.56861211245E+02 -0.12715407604E+03  0.14642901598E+03  0.41800000000E+01 0. -1.
         -5    1    1    2    0  502 -0.45277631061E+02 -0.63773110645E+02 -0.29283272941E+03  0.30312629930E+03  0.41800000000E+01 0.  1.
        -11    1    1    2    0    0  0.22659784105E+02  0.48807805552E+01  0.49982564091E+02  0.55095776132E+02  0.00000000000E+00 0.  1.
         11    1    1    2    0    0 -0.22355788928E+02  0.20311188449E+01 -0.27156359802E+02  0.35233146610E+02  0.00000000000E+00 0. -1.
</event>
<event>
 6    1  0.6447971E-006  0.9958863E+02  0.7561462E-02  0.1281163E+00
          3   -1    0    0  501    0  0.00000000000E+00  0.00000000000E+00  0.14835741592E+03  0.14835741592E+03  0.00000000000E+00 0. -1.
         -3   -1    0    0    0  501 -0.00000000000E+00 -0.00000000000E+00 -0.12625799038E+03  0.12625799038E+03  0.00000000000E+00 0.  1.
          5    1    1    2  502    0 -0.24688883059E+02 -0.37036411674E+02 -0.42681243174E+02  0.61809365434E+02  0.41800000000E+01 0.  1.
         -5    1    1    2    0  502  0.66745724485E+02  0.47115136853E+02 -0.17972413224E+02  0.83757434863E+02  0.41800000000E+01 0.  1.
        -11    1    1    2    0    0 -0.41556490302E+02  0.17492551821E+02  0.89890066855E+02  0.10056418535E+03  0.00000000000E+00 0. -1.
         11    1    1    2    0    0 -0.50035112443E+00 -0.27571277000E+02 -0.71369849108E+01  0.28484420659E+02  0.00000000000E+00 0.  1.
</event>
<event>
 6    1  0.6447971E-006  0.9308528E+02  0.7561462E-02  0.1295548E+00
         -1   -1    0    0    0  501 -0.00000000000E+00  0.00000000000E+00  0.62388846806E+02  0.62388846806E+02  0.00000000000E+00 0.  1.
          1   -1    0    0  501    0  0.00000000000E+00 -0.00000000000E+00 -0.24932591962E+03  0.24932591962E+03  0.00000000000E+00 0. -1.
          5    1    1    2  502    0  0.28609088231E+02  0.43380011851E+02 -0.89436230251E+02  0.10352109466E+03  0.41800000000E+01 0. -1.
         -5    1    1    2    0  502  0.29638246945E+02 -0.46349509880E+02  0.94836445229E+01  0.55983164090E+02  0.41800000000E+01 0. -1.
        -11    1    1    2    0    0 -0.28696182548E+01  0.20560414389E+02 -0.88996017672E+02  0.91385209472E+02  0.00000000000E+00 0. -1.
         11    1    1    2    0    0 -0.55377716921E+02 -0.17590916360E+02 -0.17988469411E+02  0.60825298203E+02  0.00000000000E+00 0.  1.
</event>
<event>
 6    1  0.6447971E-006  0.1007108E+03  0.7561462E-02  0.1278808E+00
          1   -1    0    0  501    0  0.00000000000E+00  0.00000000000E+00  0.30907309992E+03  0.30907309992E+03  0.00000000000E+00 0. -1.
         -1   -1    0    0    0  501 -0.00000000000E+00 -0.00000000000E+00 -0.39953684602E+02  0.39953684602E+02  0.00000000000E+00 0.  1.
          5    1    1    2  502    0 -0.42286250471E+02  0.41413596367E+02  0.23476213219E+02  0.63810797911E+02  0.41800000000E+01 0.  1.
         -5    1    1    2    0  502  0.43179032223E+02 -0.21982467734E+02  0.10984787807E+03  0.12013195423E+03  0.41800000000E+01 0.  1.
        -11    1    1    2    0    0 -0.44135407915E+01 -0.56272049548E+02  0.89527983404E+02  0.10583611253E+03  0.00000000000E+00 0. -1.
         11    1    1    2    0    0  0.35207590402E+01  0.36840920915E+02  0.46267340629E+02  0.59247919853E+02  0.00000000000E+00 0.  1.
</event>
<event>
 6    1  0.6447971E-006  0.9769310E+02  0.7561462E-02  0.1285223E+00
         -1   -1    0    0    0  501 -0.00000000000E+00  0.00000000000E+00  0.67141504512E+02  0.67141504512E+02  0.00000000000E+00 0.  1.
          1   -1    0    0  501    0  0.00000000000E+00 -0.00000000000E+00 -0.34759377899E+03  0.34759377899E+03  0.00000000000E+00 0. -1.
          5    1    1    2  502    0  0.56927274018E+02  0.14360382170E+02  0.29061050458E+02  0.65642609309E+02  0.41800000000E+01 0.  1.
         -5    1    1    2    0  502 -0.48236033204E+02  0.15120471968E+01 -0.37092505706E+02  0.61010880715E+02  0.41800000000E+01 0.  1.
        -11    1    1    2    0    0 -0.38637256262E+02  0.18213199174E+02 -0.18163022194E+03  0.18658535772E+03  0.00000000000E+00 0.  1.
         11    1    1    2    0    0  0.29946015449E+02 -0.34085628540E+02 -0.90790597297E+02  0.10149643576E+03  0.00000000000E+00 0. -1.
</event>
<event>
 6    1  0.6447971E-006  0.1274162E+03  0.7561462E-02  0.1231341E+00
          1   -1    0    0  501    0  0.00000000000E+00  0.00000000000E+00  0.39833313061E+03  0.39833313061E+03  0.00000000000E+00 0. -1.
         -1   -1    0    0    0  501 -0.00000000000E+00 -0.00000000000E+00 -0.46989718827E+02  0.46989718827E+02  0.00000000000E+00 0.  1.
          5    1    1    2  502    0 -0.14417113188E+02 -0.49267779954E+02  0.58363701188E+02  0.77839330101E+02  0.41800000000E+01 0. -1.
         -5    1    1    2    0  502 -0.60198326354E+02  0.74709016659E+02  0.13004662387E+03  0.16166283570E+03  0.41800000000E+01 0. -1.
        -11    1    1    2    0    0  0.67265418025E+02 -0.48607089439E+02  0.16137852697E+03  0.18146711706E+03  0.00000000000E+00 0. -1.
         11    1    1    2    0    0  0.73500215179E+01  0.23165852733E+02  0.15545597549E+01  0.24353566580E+02  0.00000000000E+00 0.  1.
</event>
<event>
 6    1  0.6447971E-006  0.1053675E+03  0.7561462E-02  0.1269397E+00
         -2   -1    0    0    0  501 -0.00000000000E+00  0.00000000000E+00  0.16885028618E+02  0.16885028618E+02  0.00000000000E+00 0.  1.
          2   -1    0    0  501    0  0.00000000000E+00 -0.00000000000E+00 -0.89998095849E+03  0.89998095849E+03  0.00000000000E+00 0. -1.
          5    1    1    2  502    0  0.14732710816E+02  0.17227408835E+02 -0.33169034455E+03  0.33249029076E+03  0.41800000000E+01 0. -1.
         -5    1    1    2    0  502 -0.40159721804E+02 -0.68838178670E+02 -0.17077599112E+03  0.18850307594E+03  0.41800000000E+01 0. -1.
        -11    1    1    2    0    0  0.35746867211E+02 -0.16229257668E+02 -0.16405817663E+03  0.16868998975E+03  0.00000000000E+00 0.  1.
         11    1    1    2    0    0 -0.10319856223E+02  0.67840027503E+02 -0.21657141757E+03  0.22718263065E+03  0.00000000000E+00 0. -1.
</event>
<event>
 6    1  0.6447971E-006  0.9540201E+02  0.7561462E-02  0.1290273E+00
          1   -1    0    0  501    0  0.00000000000E+00  0.00000000000E+00  0.30001844473E+03  0.30001844473E+03  0.00000000000E+00 0. -1.
         -1   -1    0    0    0  501 -0.00000000000E+00 -0.00000000000E+00 -0.72096168924E+02  0.72096168924E+02  0.00000000000E+00 0.  1.
          5    1    1    2  502    0  0.15079000313E+02 -0.58821617277E+02 -0.22955595106E+02  0.65052214845E+02  0.41800000000E+01 0.  1.
         -5    1    1    2    0  502 -0.57498729835E+02  0.15308601221E+02  0.47323257679E+02  0.76140792755E+02  0.41800000000E+01 0.  1.
        -11    1    1    2    0    0  0.17129225152E+02 -0.29565029457E+01 -0.30522929083E+01  0.17648449110E+02  0.00000000000E+00 0.  1.
         11    1    1    2    0    0  0.25290504371E+02  0.46469519002E+02  0.20660690614E+03  0.21327315694E+03  0.00000000000E+00 0. -1.
</event>
<event>
 6    1  0.6447971E-006  0.1295279E+03  0.7561462E-02  0.1228158E+00
          1   -1    0    0  501    0  0.00000000000E+00  0.00000000000E+00  0.72386900663E+03  0.72386900663E+03  0.00000000000E+00 0. -1.
         -1   -1    0    0    0  501 -0.00000000000E+00 -0.00000000000E+00 -0.36829448094E+02  0.36829448094E+02  0.00000000000E+00 0.  1.
          5    1    1    2  502    0 -0.39332576656E+01  0.95956917434E+02  0.67288307320E+02  0.11733877970E+03  0.41800000000E+01 0.  1.
         -5    1    1    2    0  502  0.37699130490E+02 -0.16069919166E+02  0.10372584960E+03  0.11160641118E+03  0.41800000000E+01 0.  1.
        -11    1    1    2    0    0 -0.58862513651E+02 -0.76323629935E+02  0.46369856311E+03  0.47361001830E+03  0.00000000000E+00 0. -1.
         11    1    1    2    0    0  0.25096640826E+02 -0.35633683333E+01  0.52326838502E+02  0.58143245543E+02  0.00000000000E+00 0.  1.
</event>
<event>
 6    1  0.6447971E-006  0.1184840E+03  0.7561462E-02  0.1245619E+00
         -3   -1    0    0    0  501 -0.00000000000E+00  0.00000000000E+00  0.70054923443E+03  0.70054923443E+03  0.00000000000E+00 0.  1.
          3   -1    0    0  501    0  0.00000000000E+00 -0.00000000000E+00 -0.21448105616E+02  0.21448105616E+02  0.00000000000E+00 0. -1.
          5    1    1    2  502    0 -0.88679131100E+01  0.83204432414E+02  0.32474987671E+03  0.33538272507E+03  0.41800000000E+01 0. -1.
         -5    1    1    2    0  502 -0.21399074816E+02 -0.44173992457E+02  0.13884351846E+03  0.14732364723E+03  0.41800000000E+01 0. -1.
        -11    1    1    2    0    0  0.44604444598E+02  0.15747745921E+02  0.93529779068E+02  0.10481110414E+03  0.00000000000E+00 0.  1.
         11    1    1    2    0    0 -0.14337456671E+02 -0.54778185877E+02  0.12197795457E+03  0.13447986360E+03  0.00000000000E+00 0. -1.
</event>
<event>
 6    1  0.6447971E-006  0.2134457E+03  0.7561462E-02  0.1138866E+00
         -2   -1    0    0    0  501 -0.00000000000E+00  0.00000000000E+00  0.61160477256E+02  0.61160477256E+02  0.00000000000E+00 0.  1.
          2   -1    0    0  501    0  0.00000000000E+00 -0.00000000000E+00 -0.97147083125E+03  0.97147083125E+03  0.00000000000E+00 0. -1.
          5    1    1    2  502    0 -0.24702901590E+02  0.69741372824E+02 -0.62815177444E+02  0.97145825169E+02  0.41800000000E+01 0.  1.
         -5    1    1    2    0  502  0.11780949915E+03  0.91237637054E+02 -0.16729403452E+03  0.22407175389E+03  0.41800000000E+01 0.  1.
        -11    1    1    2    0    0 -0.13841513317E+02 -0.10683381741E+03 -0.28387521745E+03  0.30362837666E+03  0.00000000000E+00 0. -1.
         11    1    1    2    0    0 -0.79265084247E+02 -0.54145192466E+02 -0.39632592458E+03  0.40778535278E+03  0.00000000000E+00 0.  1.
</event>
<event>
 6    1  0.6447971E-006  0.1026172E+03  0.7561462E-02  0.1274887E+00
          2   -1    0    0  501    0  0.00000000000E+00  0.00000000000E+00  0.60157571166E+03  0.60157571166E+03  0.00000000000E+00 0. -1.
         -2   -1    0    0    0  501 -0.00000000000E+00 -0.00000000000E+00 -0.33841222626E+02  0.33841222626E+02  0.00000000000E+00 0.  1.
          5    1    1    2  502    0 -0.29046252578E+01  0.55488160019E+01  0.14850962349E+03  0.14870039300E+03  0.41800000000E+01 0. -1.
         -5    1    1    2    0  502  0.58183725237E+02 -0.58193679666E+02  0.44523247057E+02  0.93657045458E+02  0.41800000000E+01 0. -1.
        -11    1    1    2    0    0  0.21004744213E+02  0.28279279163E+02  0.16191830236E+03  0.16570592490E+03  0.00000000000E+00 0.  1.
         11    1    1    2    0    0 -0.76283844192E+02  0.24365584501E+02  0.21278331613E+03  0.22735357093E+03  0.00000000000E+00 0. -1.
</event>
<event>
 6    1  0.6447971E-006  0.1245245E+03  0.7561462E-02  0.1235814E+00
          1   -1    0    0  501    0  0.00000000000E+00  0.00000000000E+00  0.20131697559E+03  0.20131697559E+03  0.00000000000E+00 0. -1.
         -1   -1    0    0    0  501 -0.00000000000E+00 -0.00000000000E+00 -0.13108097819E+03  0.13108097819E+03  0.00000000000E+00 0.  1.
          5    1    1    2  502    0 -0.79887745560E+02 -0.33435436826E+02 -0.69677009539E+02  0.11123101359E+03  0.41800000000E+01 0.  1.
         -5    1    1    2    0  502 -0.21716558954E+02  0.46522529418E+01  0.48819567633E+02  0.53796607459E+02  0.41800000000E+01 0.  1.
        -11    1    1    2    0    0  0.69644961904E+02 -0.27616971053E+02  0.56907531165E+02  0.94082861946E+02  0.00000000000E+00 0. -1.
         11    1    1    2    0    0  0.31959342611E+02  0.56400154937E+02  0.34185908143E+02  0.73287470776E+02  0.00000000000E+00 0.  1.
</event>
<event>
 6    1  0.6447971E-006  0.1200791E+03  0.7561462E-02  0.1242967E+00
         -1   -1    0    0    0  501 -0.00000000000E+00  0.00000000000E+00  0.35479411560E+03  0.35479411560E+03  0.00000000000E+00 0.  1.
          1   -1    0    0  501    0  0.00000000000E+00 -0.00000000000E+00 -0.79110365055E+02  0.79110365055E+02  0.00000000000E+00 0. -1.
          5    1    1    2  502    0 -0.49204417304E+02 -0.80924321722E+02  0.23013812170E+03  0.24889927278E+03  0.41800000000E+01 0. -1.
         -5    1    1    2    0  502  0.25954040709E+02  0.30093433291E+02  0.62866355114E+02  0.74490791120E+02  0.41800000000E+01 0. -1.
        -11    1    1    2    0    0 -0.28293372037E+02  0.45500016220E+02  0.55634513767E+01  0.53867600360E+02  0.00000000000E+00 0.  1.
         11    1    1    2    0    0  0.51543748632E+02  0.53308722113E+01 -0.22884177646E+02  0.56646816399E+02  0.00000000000E+00 0. -1.
</event>
<event>
 6    1  0.6447971E-006  0.9865119E+02  0.7561462E-02  0.1283158E+00
          2   -1    0    0  501    0  0.00000000000E+00  0.00000000000E+00  0.68795254591E+03  0.68795254591E+03  0.00000000000E+00 0. -1.
         -2   -1    0    0    0  501 -0.00000000000E+00 -0.00000000000E+00 -0.30107996266E+02  0.30107996266E+02  0.00000000000E+00 0.  1.
          5    1    1    2  502    0 -0.13465604577E+02 -0.20660381080E+02 -0.19602684049E+01  0.25089617478E+02  0.41800000000E+01 0.  1.
         -5    1    1    2    0  502  0.32977530326E+02 -0.70897510384E+02  0.31744191592E+03  0.32695690369E+03  0.41800000000E+01 0.  1.
        -11    1    1    2    0    0 -0.19151704267E+02  0.74438417151E+02  0.34017625653E+03  0.34875170427E+03  0.00000000000E+00 0. -1.
         11    1    1    2    0    0 -0.36022148218E+00  0.17119474312E+02  0.21866455971E+01  0.17262316739E+02  0.00000000000E+00 0.  1.
</event>
<event>
 6    1  0.6447971E-006  0.1103542E+03  0.7561462E-02  0.1259915E+00
         -2   -1    0    0    0  501 -0.00000000000E+00  0.00000000000E+00  0.12282980236E+03  0.12282980236E+03  0.00000000000E+00 0.  1.
          2   -1    0    0  501    0  0.00000000000E+00 -0.00000000000E+00 -0.17368208981E+03  0.17368208981E+03  0.00000000000E+00 0. -1.
          5    1    1    2  502    0  0.71306919963E+02  0.16545885249E+02  0.35471415952E+02  0.81450211191E+02  0.41800000000E+01 0. -1.
         -5    1    1    2    0  502  0.20848391447E+02 -0.45676491364E+02 -0.60279470695E+02  0.78562613733E+02  0.41800000000E+01 0. -1.
        -11    1    1    2    0    0 -0.69589928500E+02  0.18195993401E+02  0.27790215808E+02  0.77111272971E+02  0.00000000000E+00 0.  1.
         11    1    1    2    0    0 -0.22565382910E+02  0.10934612714E+02 -0.53834448519E+02  0.59387794271E+02  0.00000000000E+00 0. -1.
</event>
<event>
 6    1  0.6447971E-006  0.1308904E+03  0.7561462E-02  0.1226141E+00
         -2   -1    0    0    0  501 -0.00000000000E+00  0.00000000000E+00  0.28670815893E+03  0.28670815893E+03  0.00000000000E+00 0.  1.
          2   -1    0    0  501    0  0.00000000000E+00 -0.00000000000E+00 -0.79764640365E+02  0.79764640365E+02  0.00000000000E+00 0. -1.
          5    1    1    2  502    0 -0.65023463446E+02  0.83344340926E+02  0.11290852611E+03  0.15472600826E+03  0.41800000000E+01 0.  1.
         -5    1    1    2    0  502 -0.24359259546E+02 -0.33262893313E+02 -0.17769682136E+01  0.41477989503E+02  0.41800000000E+01 0.  1.
        -11    1    1    2    0    0  0.38373097876E+02 -0.50640226060E+02  0.20995235663E+01  0.63571496248E+02  0.00000000000E+00 0. -1.
         11    1    1    2    0    0  0.51009625116E+02  0.55877844641E+00  0.93712437101E+02  0.10669730529E+03  0.00000000000E+00 0.  1.
</event>
<event>
 6    1  0.6447971E-006  0.1250902E+03  0.7561462E-02  0.1234928E+00
         -2   -1    0    0    0  501 -0.00000000000E+00  0.00000000000E+00  0.96620594120E+01  0.96620594120E+01  0.00000000000E+00 0.  1.
          2   -1    0    0  501    0  0.00000000000E+00 -0.00000000000E+00 -0.16442269395E+04  0.16442269395E+04  0.00000000000E+00 0. -1.
          5    1    1    2  502    0 -0.26762814526E+02  0.72416240739E+02 -0.58795712243E+03  0.59301889547E+03  0.41800000000E+01 0. -1.
         -5    1    1    2    0  502  0.53200102301E+02 -0.70097738029E+02 -0.57175520043E+03  0.57850274448E+03  0.41800000000E+01 0.  1.
        -11    1    1    2    0    0  0.21228271925E+02  0.22576955215E+02 -0.18152538416E+03  0.18415163190E+03  0.00000000000E+00 0. -1.
         11    1    1    2    0    0 -0.47665559700E+02 -0.24895457925E+02 -0.29332717311E+03  0.29821572710E+03  0.00000000000E+00 0.  1.
</event>
<event>
 6    1  0.6447971E-006  0.1169824E+03  0.7561462E-02  0.1248160E+00
          2   -1    0    0  501    0  0.00000000000E+00  0.00000000000E+00  0.51411126165E+02  0.51411126165E+02  0.00000000000E+00 0. -1.
         -2   -1    0    0    0  501 -0.00000000000E+00 -0.00000000000E+00 -0.37863217056E+03  0.37863217056E+03  0.00000000000E+00 0.  1.
          5    1    1    2  502    0 -0.95247255335E+02 -0.41367301518E+02 -0.16351322864E+03  0.19374555898E+03  0.41800000000E+01 0.  1.
         -5    1    1    2    0  502  0.34758054907E+02  0.72526676447E+01 -0.98456410098E+02  0.10474664987E+03  0.41800000000E+01 0.  1.
        -11    1    1    2    0    0 -0.13329485443E+02  0.96055001936E+00 -0.46639215419E+02  0.48516123644E+02  0.00000000000E+00 0.  1.
         11    1    1    2    0    0  0.73818685871E+02  0.33154083854E+02 -0.18612190236E+02  0.83034964234E+02  0.00000000000E+00 0. -1.
</event>
<event>
 6    1  0.6447971E-006  0.1228787E+03  0.7561462E-02  0.1238422E+00
         -1   -1    0    0    0  501 -0.00000000000E+00  0.00000000000E+00  0.15135747808E+03  0.15135747808E+03  0.00000000000E+00 0.  1.
          1   -1    0    0  501    0  0.00000000000E+00 -0.00000000000E+00 -0.18004010342E+03  0.18004010342E+03  0.00000000000E+00 0. -1.
          5    1    1    2  502    0 -0.39009088548E+02 -0.37432996005E+02 -0.25869488640E+02  0.60080288129E+02  0.41800000000E+01 0.  1.
         -5    1    1    2    0  502  0.24345721543E+02 -0.55158148961E+02  0.91065274481E+02  0.10929543527E+03  0.41800000000E+01 0.  1.
        -11    1    1    2    0    0  0.49664251344E+02  0.26461273210E+02 -0.30751743636E+02  0.64128048295E+02  0.00000000000E+00 0.  1.
         11    1    1    2    0    0 -0.35000884339E+02  0.66129871755E+02 -0.63126667551E+02  0.97893809809E+02  0.00000000000E+00 0. -1.
</event>
<event>
 6    1  0.6447971E-006  0.1387767E+03  0.7561462E-02  0.1214985E+00
          3   -1    0    0  501    0  0.00000000000E+00  0.00000000000E+00  0.90056347671E+02  0.90056347671E+02  0.00000000000E+00 0. -1.
         -3   -1    0    0    0  501 -0.00000000000E+00 -0.00000000000E+00 -0.23036116461E+03  0.23036116461E+03  0.00000000000E+00 0.  1.
          5    1    1    2  502    0 -0.99693520295E+02 -0.12907518308E+02 -0.50669792588E+02  0.11265124189E+03  0.41800000000E+01 0. -1.
         -5    1    1    2    0  502  0.28031173682E+02 -0.47834381554E+02 -0.35152839538E+02  0.65780462785E+02  0.41800000000E+01 0. -1.
        -11    1    1    2    0    0  0.38350270809E+02  0.75672840007E+02 -0.61538258940E+02  0.10480495837E+03  0.00000000000E+00 0.  1.
         11    1    1    2    0    0  0.33312075803E+02 -0.14930940145E+02  0.70560741279E+01  0.37180849238E+02  0.00000000000E+00 0. -1.
</event>
<event>
 6    1  0.6447971E-006  0.1022765E+03  0.7561462E-02  0.1275580E+00
          1   -1    0    0  501    0  0.00000000000E+00  0.00000000000E+00  0.34922108444E+03  0.34922108444E+03  0.00000000000E+00 0. -1.
         -1   -1    0    0    0  501 -0.00000000000E+00 -0.00000000000E+00 -0.37988770168E+02  0.37988770168E+02  0.00000000000E+00 0.  1.
          5    1    1    2  502    0  0.37312907310E+02  0.66659835777E+02  0.10246926111E+03  0.12787966465E+03  0.41800000000E+01 0.  1.
         -5    1    1    2    0  502 -0.41336699490E+01 -0.51028487300E+02  0.39022833158E+02  0.64507733265E+02  0.41800000000E+01 0.  1.
        -11    1    1    2    0    0 -0.40725219981E+02  0.16302561878E+02  0.34926854407E+02  0.56073186328E+02  0.00000000000E+00 0.  1.
         11    1    1    2    0    0  0.75459826197E+01 -0.31933910355E+02  0.13481336560E+03  0.13874927037E+03  0.00000000000E+00 0. -1.
</event>
<event>
 6    1  0.6447971E-006  0.1943552E+03  0.7561462E-02  0.1154591E+00
         -3   -1    0    0    0  501 -0.00000000000E+00  0.00000000000E+00  0.36971225321E+03  0.36971225321E+03  0.00000000000E+00 0.  1.
          3   -1    0    0  501    0  0.00000000000E+00 -0.00000000000E+00 -0.16223076934E+03  0.16223076934E+03  0.00000000000E+00 0. -1.
          5    1    1    2  502    0 -0.17588602863E+00  0.29900647558E+02 -0.11294583674E+02  0.32235379331E+02  0.41800000000E+01 0. -1.
         -5    1    1    2    0  502  0.77198274697E+02  0.14540457798E+03  0.24124562790E+03  0.29209414628E+03  0.41800000000E+01 0. -1.
        -11    1    1    2    0    0 -0.31945435994E+02 -0.10957283412E+03 -0.48149040869E+02  0.12387512662E+03  0.00000000000E+00 0. -1.
         11    1    1    2    0    0 -0.45076952674E+02 -0.65732391414E+02  0.25679480517E+02  0.83738370315E+02  0.00000000000E+00 0.  1.
</event>
<event>
 6    1  0.6447971E-006  0.1368142E+03  0.7561462E-02  0.1217681E+00
          1   -1    0    0  501    0  0.00000000000E+00  0.00000000000E+00  0.44627746192E+02  0.44627746192E+02  0.00000000000E+00 0. -1.
         -1   -1    0    0    0  501 -0.00000000000E+00 -0.00000000000E+00 -0.56820671922E+03  0.56820671922E+03  0.00000000000E+00 0.  1.
          5    1    1    2  502    0 -0.70696136865E+02  0.41562086234E+02 -0.18174052488E+03  0.19943029249E+03  0.41800000000E+01 0.  1.
         -5    1    1    2    0  502  0.52032519739E+02  0.60357605614E+02 -0.20991104755E+03  0.22456745969E+03  0.41800000000E+01 0.  1.
        -11    1    1    2    0    0  0.18588014711E+02 -0.12739953243E+02 -0.85253342162E+02  0.88181364524E+02  0.00000000000E+00 0.  1.
         11    1    1    2    0    0  0.75602414718E-01 -0.89179738605E+02 -0.46674058438E+02  0.10065534871E+03  0.00000000000E+00 0. -1.
</event>
<event>
 6    1  0.6447971E-006  0.1031559E+03  0.7561462E-02  0.1273796E+00
         -2   -1    0    0    0  501 -0.00000000000E+00  0.00000000000E+00  0.32821648991E+03  0.32821648991E+03  0.00000000000E+00 0. -1.
          2   -1    0    0  501    0  0.00000000000E+00 -0.00000000000E+00 -0.34351092541E+02  0.34351092541E+02  0.00000000000E+00 0.  1.
          5    1    1    2  502    0  0.32735330743E+02  0.41019948060E+02  0.10700096696E+03  0.11925148782E+03  0.41800000000E+01 0. -1.
         -5    1    1    2    0  502 -0.64691304050E+02 -0.37947799616E+02  0.10802671660E+03  0.13157600166E+03  0.41800000000E+01 0. -1.
        -11    1    1    2    0    0  0.28190486826E+02 -0.35821226902E+02  0.52636308216E+02  0.69630774711E+02  0.00000000000E+00 0.  1.
         11    1    1    2    0    0  0.37654864809E+01  0.32749078458E+02  0.26201405594E+02  0.42109318249E+02  0.00000000000E+00 0. -1.
</event>
<event>
 6    1  0.6447971E-006  0.8419876E+02  0.7561462E-02  0.1317541E+00
         -2   -1    0    0    0  501 -0.00000000000E+00  0.00000000000E+00  0.13455150746E+03  0.13455150746E+03  0.00000000000E+00 0.  1.
          2   -1    0    0  501    0  0.00000000000E+00 -0.00000000000E+00 -0.10194546623E+03  0.10194546623E+03  0.00000000000E+00 0. -1.
          5    1    1    2  502    0 -0.21726133905E+02  0.55306228806E+02 -0.55792379967E+01  0.59828121614E+02  0.41800000000E+01 0. -1.
         -5    1    1    2    0  502  0.41407791451E+02 -0.33688933620E+02  0.57942536684E+02  0.78894609440E+02  0.41800000000E+01 0. -1.
        -11    1    1    2    0    0  0.96582683964E+00  0.14044538777E+02  0.30017858190E+02  0.33154995118E+02  0.00000000000E+00 0.  1.
         11    1    1    2    0    0 -0.20647484385E+02 -0.35661833964E+02 -0.49775115642E+02  0.64619247522E+02  0.00000000000E+00 0. -1.
</event>
<event>
 6    1  0.6447971E-006  0.9062677E+02  0.7561462E-02  0.1301341E+00
         -1   -1    0    0    0  501 -0.00000000000E+00  0.00000000000E+00  0.23844318053E+03  0.23844318053E+03  0.00000000000E+00 0.  1.
          1   -1    0    0  501    0  0.00000000000E+00 -0.00000000000E+00 -0.71836414550E+02  0.71836414550E+02  0.00000000000E+00 0. -1.
          5    1    1    2  502    0 -0.21444851106E+02  0.37903260903E+02  0.16543678289E+03  0.17112375744E+03  0.41800000000E+01 0.  1.
         -5    1    1    2    0  502  0.24099445883E+02  0.30769155631E+02 -0.93253059978E+01  0.40397499453E+02  0.41800000000E+01 0.  1.
        -11    1    1    2    0    0 -0.34307688383E+02 -0.18779728617E+02  0.39234954360E+01  0.39307626557E+02  0.00000000000E+00 0. -1.
         11    1    1    2    0    0  0.31653093606E+02 -0.49892687917E+02  0.65717936571E+01  0.59450711638E+02  0.00000000000E+00 0.  1.
</event>
<event>
 6    1  0.6447971E-006  0.1224234E+03  0.7561462E-02  0.1239152E+00
          2   -1    0    0  501    0  0.00000000000E+00  0.00000000000E+00  0.31379450886E+02  0.31379450886E+02  0.00000000000E+00 0.  1.
         -2   -1    0    0    0  501 -0.00000000000E+00 -0.00000000000E+00 -0.65040462178E+03  0.65040462178E+03  0.00000000000E+00 0. -1.
          5    1    1    2  502    0 -0.51312057199E+02 -0.90713398577E+02 -0.19581438678E+03  0.22186165592E+03  0.41800000000E+01 0. -1.
         -5    1    1    2    0  502  0.39371900069E+02  0.58803232420E+00 -0.18430780564E+03  0.18851347940E+03  0.41800000000E+01 0. -1.
        -11    1    1    2    0    0 -0.16192758256E+02  0.22676305644E+02 -0.76678156085E+01  0.28900097817E+02  0.00000000000E+00 0.  1.
         11    1    1    2    0    0  0.28132915386E+02  0.67449060609E+02 -0.23123516286E+03  0.24250883953E+03  0.00000000000E+00 0. -1.
</event>
<event>
 6    1  0.6447971E-006  0.6161350E+02  0.7561462E-02  0.1391183E+00
         -2   -1    0    0    0  501 -0.00000000000E+00  0.00000000000E+00  0.19654340843E+02  0.19654340843E+02  0.00000000000E+00 0.  1.
          2   -1    0    0  501    0  0.00000000000E+00 -0.00000000000E+00 -0.66780577074E+03  0.66780577074E+03  0.00000000000E+00 0. -1.
          5    1    1    2  502    0 -0.38706489470E+02 -0.33093941230E+02 -0.46213949510E+03  0.46495568241E+03  0.41800000000E+01 0. -1.
         -5    1    1    2    0  502  0.25189116030E+02 -0.45466312870E+01  0.41957952296E+01  0.26272428895E+02  0.41800000000E+01 0.  1.
        -11    1    1    2    0    0 -0.35931170566E+01  0.24123354322E+02 -0.71694801178E+02  0.75729724877E+02  0.00000000000E+00 0.  1.
         11    1    1    2    0    0  0.17110490497E+02  0.13517218195E+02 -0.11851292885E+03  0.12050227541E+03  0.00000000000E+00 0. -1.
</event>
<event>
 6    1  0.6447971E-006  0.1413983E+03  0.7561462E-02  0.1211460E+00
          2   -1    0    0  501    0  0.00000000000E+00  0.00000000000E+00  0.84807457592E+03  0.84807457592E+03  0.00000000000E+00 0. -1.
         -2   -1    0    0    0  501 -0.00000000000E+00 -0.00000000000E+00 -0.29515270509E+02  0.29515270509E+02  0.00000000000E+00 0.  1.
          5    1    1    2  502    0 -0.10843215547E+02  0.24957451996E+02  0.13674116654E+02  0.30739284309E+02  0.41800000000E+01 0.  1.
         -5    1    1    2    0  502 -0.89413427450E+02 -0.78966692956E+02  0.36442612705E+03  0.38347669301E+03  0.41800000000E+01 0.  1.
        -11    1    1    2    0    0  0.48773445573E+02  0.66935441663E+02  0.18862289733E+03  0.20600436825E+03  0.00000000000E+00 0.  1.
         11    1    1    2    0    0  0.51483197424E+02 -0.12926200703E+02  0.25183616438E+03  0.25736950086E+03  0.00000000000E+00 0. -1.
</event>
<event>
 6    1  0.6447971E-006  0.8547707E+02  0.7561462E-02  0.1314190E+00
         -1   -1    0    0    0  501 -0.00000000000E+00  0.00000000000E+00  0.82981179875E+02  0.82981179875E+02  0.00000000000E+00 0.  1.
          1   -1    0    0  501    0  0.00000000000E+00 -0.00000000000E+00 -0.15497021839E+03  0.15497021839E+03  0.00000000000E+00 0. -1.
          5    1    1    2  502    0 -0.56838019535E+01 -0.41613496482E+02  0.28662393499E+02  0.51019544247E+02  0.41800000000E+01 0. -1.
         -5    1    1    2    0  502  0.32163851257E+02  0.51650223023E+02 -0.50276484912E+02  0.79040851470E+02  0.41800000000E+01 0. -1.
        -11    1    1    2    0    0  0.41208863969E+01 -0.30608222224E+02  0.13839215952E+02  0.33843298755E+02  0.00000000000E+00 0.  1.
         11    1    1    2    0    0 -0.30600935700E+02  0.20571495683E+02 -0.64214163055E+02  0.74047703794E+02  0.00000000000E+00 0. -1.
</event>
<event>
 6    1  0.6447971E-006  0.1226346E+03  0.7561462E-02  0.1238813E+00
         -1   -1    0    0    0  501 -0.00000000000E+00  0.00000000000E+00  0.31345335265E+02  0.31345335265E+02  0.00000000000E+00 0.  1.
          1   -1    0    0  501    0  0.00000000000E+00 -0.00000000000E+00 -0.65079119712E+03  0.65079119712E+03  0.00000000000E+00 0. -1.
          5    1    1    2  502    0 -0.72181920103E+02  0.34059722997E+02 -0.89191426528E+02  0.11976175219E+03  0.41800000000E+01 0.  1.
         -5    1    1    2    0  502  0.10191872202E+02  0.33454898063E+02 -0.25924245186E+03  0.26162420704E+03  0.41800000000E+01 0.  1.
        -11    1    1    2    0    0  0.49106765783E+02  0.11195181058E+02 -0.11450679835E+03  0.12509441791E+03  0.00000000000E+00 0. -1.
         11    1    1    2    0    0  0.12883282118E+02 -0.78709802118E+02 -0.15650518512E+03  0.17565615525E+03  0.00000000000E+00 0.  1.
</event>
<event>
 6    1  0.6447971E-006  0.1069296E+03  0.7561462E-02  0.1266364E+00
          4   -1    0    0  501    0  0.00000000000E+00  0.00000000000E+00  0.39804017991E+02  0.39804017991E+02  0.00000000000E+00 0. -1.
         -4   -1    0    0    0  501 -0.00000000000E+00 -0.00000000000E+00 -0.38444598495E+03  0.38444598495E+03  0.00000000000E+00 0.  1.
          5    1    1    2  502    0 -0.92112630044E+01 -0.34409374968E+02 -0.21717987748E+02  0.41928461021E+02  0.41800000000E+01 0. -1.
         -5    1    1    2    0  502 -0.18385688791E+02  0.77165612290E+02 -0.23631392284E+03  0.24930765692E+03  0.41800000000E+01 0. -1.
        -11    1    1    2    0    0 -0.30062088589E+01  0.24490980500E+02 -0.35269316073E+02  0.43043815745E+02  0.00000000000E+00 0.  1.
         11    1    1    2    0    0  0.30603160654E+02 -0.67247217823E+02 -0.51340740297E+02  0.89970069252E+02  0.00000000000E+00 0. -1.
</event>
<event>
 6    1  0.6447971E-006  0.1168214E+03  0.7561462E-02  0.1248435E+00
          1   -1    0    0  501    0  0.00000000000E+00  0.00000000000E+00  0.41052941888E+02  0.41052941888E+02  0.00000000000E+00 0. -1.
         -1   -1    0    0    0  501 -0.00000000000E+00 -0.00000000000E+00 -0.36358168587E+03  0.36358168587E+03  0.00000000000E+00 0.  1.
          5    1    1    2  502    0 -0.55026107840E+02 -0.74432237086E+02 -0.15290019253E+03  0.17878470778E+03  0.41800000000E+01 0. -1.
         -5    1    1    2    0  502  0.34374853444E+02  0.25661144358E+02 -0.65165960534E+02  0.78129377903E+02  0.41800000000E+01 0. -1.
        -11    1    1    2    0    0  0.51722965936E+02  0.19741348550E+02 -0.83818384450E+02  0.10045151875E+03  0.00000000000E+00 0.  1.
         11    1    1    2    0    0 -0.31071711540E+02  0.29029744178E+02 -0.20644206471E+02  0.47269023323E+02  0.00000000000E+00 0. -1.
</event>
<event>
 6    1  0.6447971E-006  0.1450583E+03  0.7561462E-02  0.1206680E+00
         -2   -1    0    0    0  501 -0.00000000000E+00  0.00000000000E+00  0.31386043678E+02  0.31386043678E+02  0.00000000000E+00 0. -1.
          2   -1    0    0  501    0  0.00000000000E+00 -0.00000000000E+00 -0.75189787577E+03  0.75189787577E+03  0.00000000000E+00 0.  1.
          5    1    1    2  502    0 -0.60610204460E+02  0.98561202850E+01 -0.68192537076E+02  0.91860952013E+02  0.41800000000E+01 0.  1.
         -5    1    1    2    0  502  0.18136316015E+02  0.85648746371E+02 -0.26407050065E+03  0.27823611453E+03  0.41800000000E+01 0.  1.
        -11    1    1    2    0    0  0.73007459332E+02 -0.64777463936E+02 -0.25318104981E+03  0.27134268542E+03  0.00000000000E+00 0. -1.
         11    1    1    2    0    0 -0.30533570886E+02 -0.30727402720E+02 -0.13506774455E+03  0.14184416748E+03  0.00000000000E+00 0.  1.
</event>
<event>
 6    1  0.6447971E-006  0.1223100E+03  0.7561462E-02  0.1239334E+00
          2   -1    0    0  501    0  0.00000000000E+00  0.00000000000E+00  0.39023918632E+03  0.39023918632E+03  0.00000000000E+00 0. -1.
         -2   -1    0    0    0  501 -0.00000000000E+00 -0.00000000000E+00 -0.23105657756E+03  0.23105657756E+03  0.00000000000E+00 0.  1.
          5    1    1    2  502    0  0.48042800496E+02  0.48474128139E+02  0.24594402702E+03  0.25527198947E+03  0.41800000000E+01 0. -1.
         -5    1    1    2    0  502  0.95060281143E+01  0.42773943936E+02 -0.18755473951E+03  0.19265053222E+03  0.41800000000E+01 0.  1.
        -11    1    1    2    0    0 -0.41058268724E+02 -0.16152943331E+01  0.61871312541E+02  0.74272807420E+02  0.00000000000E+00 0.  1.
         11    1    1    2    0    0 -0.16490559885E+02 -0.89632777742E+02  0.38922008701E+02  0.99100434774E+02  0.00000000000E+00 0. -1.
</event>
<event>
 6    1  0.6447971E-006  0.1268937E+03  0.7561462E-02  0.1232139E+00
         -1   -1    0    0    0  501 -0.00000000000E+00  0.00000000000E+00  0.30177585328E+02  0.30177585328E+02  0.00000000000E+00 0.  1.
          1   -1    0    0  501    0  0.00000000000E+00 -0.00000000000E+00 -0.65713621069E+03  0.65713621069E+03  0.00000000000E+00 0. -1.
          5    1    1    2  502    0  0.10333463826E+03 -0.17072781453E+02 -0.36323451133E+03  0.37805596140E+03  0.41800000000E+01 0. -1.
         -5    1    1    2    0  502 -0.15653626463E+02  0.24771546159E+02 -0.23389576051E+02  0.37725458094E+02  0.41800000000E+01 0. -1.
        -11    1    1    2    0    0 -0.55598019432E+02 -0.44014400496E+02 -0.18418667704E+03  0.19736549652E+03  0.00000000000E+00 0. -1.
         11    1    1    2    0    0 -0.32082992360E+02  0.36315635791E+02 -0.56147860943E+02  0.74166880009E+02  0.00000000000E+00 0.  1.
</event>
<event>
 6    1  0.6447971E-006  0.9719430E+02  0.7561462E-02  0.1286309E+00
          2   -1    0    0  501    0  0.00000000000E+00  0.00000000000E+00  0.10378918385E+03  0.10378918385E+03  0.00000000000E+00 0. -1.
         -2   -1    0    0    0  501 -0.00000000000E+00 -0.00000000000E+00 -0.13901585539E+03  0.13901585539E+03  0.00000000000E+00 0.  1.
          5    1    1    2  502    0  0.27473949028E+01  0.38551136828E+02  0.15136081928E+02  0.41717043347E+02  0.41800000000E+01 0. -1.
         -5    1    1    2    0  502 -0.41794642173E+01 -0.60513559644E+02 -0.81220415627E+02  0.10145731682E+03  0.41800000000E+01 0. -1.
        -11    1    1    2    0    0  0.39156075809E+02 -0.14969575802E+02  0.14645917546E+02  0.44404835021E+02  0.00000000000E+00 0.  1.
         11    1    1    2    0    0 -0.37724006495E+02  0.36931998618E+02  0.16211744618E+02  0.55225844054E+02  0.00000000000E+00 0. -1.
</event>
<event>
 6    1  0.6447971E-006  0.1441332E+03  0.7561462E-02  0.1207873E+00
         -1   -1    0    0    0  501 -0.00000000000E+00  0.00000000000E+00  0.13259543671E+03  0.13259543671E+03  0.00000000000E+00 0.  1.
          1   -1    0    0  501    0  0.00000000000E+00 -0.00000000000E+00 -0.23478857783E+03  0.23478857783E+03  0.00000000000E+00 0. -1.
          5    1    1    2  502    0 -0.10416653411E+03 -0.81554795458E+02  0.35995316803E+02  0.13716773207E+03  0.41800000000E+01 0. -1.
         -5    1    1    2    0  502  0.28850257038E+02  0.90132580963E+01  0.12020183465E+02  0.32795325325E+02  0.41800000000E+01 0. -1.
        -11    1    1    2    0    0  0.70764320414E+02  0.21230973620E+02 -0.10785482849E+03  0.13073257939E+03  0.00000000000E+00 0.  1.
         11    1    1    2    0    0  0.45519566535E+01  0.51310563742E+02 -0.42353812897E+02  0.66688377757E+02  0.00000000000E+00 0. -1.
</event>
<event>
 6    1  0.6447971E-006  0.9080056E+02  0.7561462E-02  0.1300925E+00
          4   -1    0    0  501    0  0.00000000000E+00  0.00000000000E+00  0.46495286701E+02  0.46495286701E+02  0.00000000000E+00 0. -1.
         -4   -1    0    0    0  501 -0.00000000000E+00 -0.00000000000E+00 -0.31733396980E+03  0.31733396980E+03  0.00000000000E+00 0.  1.
          5    1    1    2  502    0 -0.19268676851E+01 -0.44394342575E+02 -0.17261684999E+03  0.17829363357E+03  0.41800000000E+01 0.  1.
         -5    1    1    2    0  502  0.21961423923E+02  0.12397808003E+02  0.12428756981E+02  0.28424570078E+02  0.41800000000E+01 0.  1.
        -11    1    1    2    0    0 -0.23272140694E+02  0.69741530581E+02 -0.69379616162E+02  0.10108909318E+03  0.00000000000E+00 0. -1.
         11    1    1    2    0    0  0.32375844565E+01 -0.37744996010E+02 -0.41270973924E+02  0.56021959673E+02  0.00000000000E+00 0.  1.
</event>
<event>
 6    1  0.6447971E-006  0.1395621E+03  0.7561462E-02  0.1213919E+00
         -2   -1    0    0    0  501 -0.00000000000E+00  0.00000000000E+00  0.18817765933E+02  0.18817765933E+02  0.00000000000E+00 0. -1.
          2   -1    0    0  501    0  0.00000000000E+00 -0.00000000000E+00 -0.13643051370E+04  0.13643051370E+04  0.00000000000E+00 0.  1.
          5    1    1    2  502    0 -0.52782037632E+00 -0.10403136265E+02 -0.34030370110E+03  0.34048874464E+03  0.41800000000E+01 0. -1.
         -5    1    1    2    0  502  0.11583103746E+03  0.31676881368E+02 -0.32336090438E+03  0.34496376757E+03  0.41800000000E+01 0. -1.
        -11    1    1    2    0    0 -0.12096745848E+03 -0.40603994440E+02 -0.59788010726E+03  0.61134477427E+03  0.00000000000E+00 0.  1.
         11    1    1    2    0    0  0.56642413942E+01  0.19330249337E+02 -0.83942658306E+02  0.86325616439E+02  0.00000000000E+00 0. -1.
</event>
<event>
 6    1  0.6447971E-006  0.1166284E+03  0.7561462E-02  0.1248765E+00
         -1   -1    0    0    0  501 -0.00000000000E+00  0.00000000000E+00  0.20091163484E+03  0.20091163484E+03  0.00000000000E+00 0.  1.
          1   -1    0    0  501    0  0.00000000000E+00 -0.00000000000E+00 -0.18985661444E+03  0.18985661444E+03  0.00000000000E+00 0. -1.
          5    1    1    2  502    0  0.48053306077E+02 -0.11438863964E+02 -0.73003841385E+01  0.50107243412E+02  0.41800000000E+01 0. -1.
         -5    1    1    2    0  502  0.40463549989E+02  0.67417027942E+02  0.13821724461E+03  0.15907178770E+03  0.41800000000E+01 0. -1.
        -11    1    1    2    0    0 -0.35497299903E+02 -0.18604130796E+02  0.54862665792E+01  0.40450848002E+02  0.00000000000E+00 0.  1.
         11    1    1    2    0    0 -0.53019556163E+02 -0.37374033182E+02 -0.12534810665E+03  0.14113837016E+03  0.00000000000E+00 0. -1.
</event>
<event>
 6    1  0.6447971E-006  0.1189278E+03  0.7561462E-02  0.1244876E+00
         -1   -1    0    0    0  501 -0.00000000000E+00  0.00000000000E+00  0.36747914848E+02  0.36747914848E+02  0.00000000000E+00 0.  1.
          1   -1    0    0  501    0  0.00000000000E+00 -0.00000000000E+00 -0.47251179560E+03  0.47251179560E+03  0.00000000000E+00 0. -1.
          5    1    1    2  502    0 -0.30202967640E+02 -0.31601662408E+02 -0.60647946974E+02  0.74876766713E+02  0.41800000000E+01 0. -1.
         -5    1    1    2    0  502  0.19049426607E+02  0.93316826109E+02 -0.99665650409E+02  0.13791890719E+03  0.41800000000E+01 0. -1.
        -11    1    1    2    0    0 -0.32850013884E+02 -0.24525387020E+02 -0.54928118002E+02  0.68539887422E+02  0.00000000000E+00 0.  1.
         11    1    1    2    0    0  0.44003554917E+02 -0.37189776681E+02 -0.22052216537E+03  0.22792414913E+03  0.00000000000E+00 0. -1.
</event>
<event>
 6    1  0.6447971E-006  0.8766301E+02  0.7561462E-02  0.1308612E+00
          1   -1    0    0  501    0  0.00000000000E+00  0.00000000000E+00  0.27609912601E+03  0.27609912601E+03  0.00000000000E+00 0. -1.
         -1   -1    0    0    0  501 -0.00000000000E+00 -0.00000000000E+00 -0.45876051541E+02  0.45876051541E+02  0.00000000000E+00 0.  1.
          5    1    1    2  502    0  0.27634699667E+02 -0.51140703748E+02  0.42468066869E+02  0.72111422875E+02  0.41800000000E+01 0. -1.
         -5    1    1    2    0  502 -0.52655853424E+02  0.29782054620E+02  0.37447454453E+02  0.71269866859E+02  0.41800000000E+01 0.  1.
        -11    1    1    2    0    0  0.85984696831E+01  0.34386239410E+02  0.15336680910E+03  0.15740941927E+03  0.00000000000E+00 0. -1.
         11    1    1    2    0    0  0.16422684073E+02 -0.13027590282E+02 -0.30592559486E+01  0.21184468549E+02  0.00000000000E+00 0.  1.
</event>
<event>
 6    1  0.6447971E-006  0.1219504E+03  0.7561462E-02  0.1239914E+00
          2   -1    0    0  501    0  0.00000000000E+00  0.00000000000E+00  0.16393393392E+02  0.16393393392E+02  0.00000000000E+00 0. -1.
         -2   -1    0    0    0  501 -0.00000000000E+00 -0.00000000000E+00 -0.17478726652E+04  0.17478726652E+04  0.00000000000E+00 0.  1.
          5    1    1    2  502    0  0.10378561052E+01  0.25455392207E+02 -0.33644528211E+02  0.42408499340E+02  0.41800000000E+01 0. -1.
         -5    1    1    2    0  502 -0.81556501800E+02  0.29245478361E+02 -0.12998473207E+04  0.13027383814E+04  0.41800000000E+01 0.  1.
        -11    1    1    2    0    0  0.51917425194E+02 -0.78512320849E+02 -0.27931914612E+03  0.29475208049E+03  0.00000000000E+00 0.  1.
         11    1    1    2    0    0  0.28601220500E+02  0.23811450281E+02 -0.11866827676E+03  0.12436709728E+03  0.00000000000E+00 0. -1.
</event>
<event>
 6    1  0.6447971E-006  0.1342372E+03  0.7561462E-02  0.1221301E+00
          1   -1    0    0  501    0  0.00000000000E+00  0.00000000000E+00  0.42167319371E+03  0.42167319371E+03  0.00000000000E+00 0. -1.
         -1   -1    0    0    0  501 -0.00000000000E+00 -0.00000000000E+00 -0.67446564794E+02  0.67446564794E+02  0.00000000000E+00 0.  1.
          5    1    1    2  502    0 -0.46050795706E+02  0.13056834982E+02  0.27642792255E+02  0.55432419112E+02  0.41800000000E+01 0.  1.
         -5    1    1    2    0  502  0.76299118487E+02  0.65703263194E+02  0.19534013575E+02  0.10265244450E+03  0.41800000000E+01 0.  1.
        -11    1    1    2    0    0 -0.40093634836E+02  0.18384611730E+00  0.14602903715E+03  0.15143319664E+03  0.00000000000E+00 0. -1.
         11    1    1    2    0    0  0.98453120550E+01 -0.78943944294E+02  0.16102078594E+03  0.17960169825E+03  0.00000000000E+00 0.  1.
</event>
<event>
 6    1  0.6447971E-006  0.1131752E+03  0.7561462E-02  0.1254800E+00
         -2   -1    0    0    0  501 -0.00000000000E+00  0.00000000000E+00  0.64579959638E+02  0.64579959638E+02  0.00000000000E+00 0.  1.
          2   -1    0    0  501    0  0.00000000000E+00 -0.00000000000E+00 -0.26940566060E+03  0.26940566060E+03  0.00000000000E+00 0. -1.
          5    1    1    2  502    0 -0.21225628932E+02 -0.17739201565E+02 -0.81911074527E+02  0.86556935747E+02  0.41800000000E+01 0.  1.
         -5    1    1    2    0  502  0.80040943883E+02 -0.23564872737E+02 -0.91404380892E+01  0.84040918208E+02  0.41800000000E+01 0.  1.
        -11    1    1    2    0    0 -0.31247524210E+02  0.69005214755E+02 -0.90031814930E+02  0.11765991302E+03  0.00000000000E+00 0. -1.
         11    1    1    2    0    0 -0.27567790742E+02 -0.27701140452E+02 -0.23742373419E+02  0.45727853266E+02  0.00000000000E+00 0.  1.
</event>
<event>
 6    1  0.6447971E-006  0.1271767E+03  0.7561462E-02  0.1231706E+00
         -2   -1    0    0    0  501 -0.00000000000E+00  0.00000000000E+00  0.94816324443E+02  0.94816324443E+02  0.00000000000E+00 0. -1.
          2   -1    0    0  501    0  0.00000000000E+00 -0.00000000000E+00 -0.26086559730E+03  0.26086559730E+03  0.00000000000E+00 0.  1.
          5    1    1    2  502    0 -0.13573898518E+01  0.45001981998E+02  0.32935884818E+02  0.55939840898E+02  0.41800000000E+01 0.  1.
         -5    1    1    2    0  502 -0.76860414842E+02  0.29326376595E+02 -0.82381767979E+02  0.11649801642E+03  0.41800000000E+01 0.  1.
        -11    1    1    2    0    0  0.53370560703E+02 -0.84478909321E+02 -0.50630774446E+02  0.11202043649E+03  0.00000000000E+00 0. -1.
         11    1    1    2    0    0  0.24847243991E+02  0.10150550727E+02 -0.65972615248E+02  0.71223627938E+02  0.00000000000E+00 0.  1.
</event>
<event>
 6    1  0.6447971E-006  0.2073318E+03  0.7561462E-02  0.1143696E+00
         -2   -1    0    0    0  501 -0.00000000000E+00  0.00000000000E+00  0.10184117432E+03  0.10184117432E+03  0.00000000000E+00 0. -1.
          2   -1    0    0  501    0  0.00000000000E+00 -0.00000000000E+00 -0.71324996005E+03  0.71324996005E+03  0.00000000000E+00 0.  1.
          5    1    1    2  502    0 -0.93969276629E+02 -0.55460606274E+02 -0.10403179795E+03  0.15081840465E+03  0.41800000000E+01 0. -1.
         -5    1    1    2    0  502 -0.95271734435E+02  0.59660181933E+01  0.17173250924E+02  0.97080841069E+02  0.41800000000E+01 0. -1.
        -11    1    1    2    0    0  0.15525199448E+03  0.68730942708E+01 -0.43954200656E+03  0.46620553058E+03  0.00000000000E+00 0.  1.
         11    1    1    2    0    0  0.33989016579E+02  0.42621493810E+02 -0.85008232149E+02  0.10098635807E+03  0.00000000000E+00 0. -1.
</event>
<event>
 6    1  0.6447971E-006  0.1181881E+03  0.7561462E-02  0.1246116E+00
         -2   -1    0    0    0  501 -0.00000000000E+00  0.00000000000E+00  0.10192192823E+03  0.10192192823E+03  0.00000000000E+00 0.  1.
          2   -1    0    0  501    0  0.00000000000E+00 -0.00000000000E+00 -0.23468462850E+03  0.23468462850E+03  0.00000000000E+00 0. -1.
          5    1    1    2  502    0 -0.23153661854E+02 -0.58957482919E+02 -0.11830721784E+02  0.64571783523E+02  0.41800000000E+01 0. -1.
         -5    1    1    2    0  502  0.66287793010E+02  0.24489849186E+01  0.36859087417E+02  0.76000879959E+02  0.41800000000E+01 0.  1.
        -11    1    1    2    0    0 -0.66550285856E+02  0.38423684091E+02 -0.72082307112E+02  0.10536213288E+03  0.00000000000E+00 0. -1.
         11    1    1    2    0    0  0.23416154700E+02  0.18084813910E+02 -0.85708758786E+02  0.90671760365E+02  0.00000000000E+00 0.  1.
</event>
<event>
 6    1  0.6447971E-006  0.1004713E+03  0.7561462E-02  0.1279308E+00
         -1   -1    0    0    0  501 -0.00000000000E+00  0.00000000000E+00  0.49164818516E+02  0.49164818516E+02  0.00000000000E+00 0.  1.
          1   -1    0    0  501    0  0.00000000000E+00 -0.00000000000E+00 -0.41427556515E+03  0.41427556515E+03  0.00000000000E+00 0. -1.
          5    1    1    2  502    0  0.74130913457E+02  0.74915586951E+00 -0.14929403192E+03  0.16673971912E+03  0.41800000000E+01 0. -1.
         -5    1    1    2    0  502  0.60338227953E+01  0.41339553643E+01  0.25408336680E+02  0.26768499721E+02  0.41800000000E+01 0. -1.
        -11    1    1    2    0    0 -0.97879601515E+02  0.49503631360E+01 -0.21858252518E+03  0.23954799686E+03  0.00000000000E+00 0.  1.
         11    1    1    2    0    0  0.17714865263E+02 -0.98334743698E+01 -0.22642526215E+02  0.30384167964E+02  0.00000000000E+00 0. -1.
</event>
<event>
 6    1  0.6447971E-006  0.7133091E+02  0.7561462E-02  0.1355625E+00
         -1   -1    0    0    0  501 -0.00000000000E+00  0.00000000000E+00  0.17524732627E+03  0.17524732627E+03  0.00000000000E+00 0.  1.
          1   -1    0    0  501    0  0.00000000000E+00 -0.00000000000E+00 -0.70645883444E+02  0.70645883444E+02  0.00000000000E+00 0. -1.
          5    1    1    2  502    0 -0.45885285737E+02  0.44424849300E+02  0.12298251071E+01  0.64015713323E+02  0.41800000000E+01 0.  1.
         -5    1    1    2    0  502  0.26523983757E+02 -0.35093477702E+02  0.66553576682E+02  0.79886950504E+02  0.41800000000E+01 0.  1.
        -11    1    1    2    0    0  0.20847969926E+02  0.38541422888E+01  0.66328327750E+02  0.69634325766E+02  0.00000000000E+00 0.  1.
         11    1    1    2    0    0 -0.14866679460E+01 -0.13185513886E+02 -0.29510286718E+02  0.32356220116E+02  0.00000000000E+00 0. -1.
</event>
<event>
 6    1  0.6447971E-006  0.2258219E+03  0.7561462E-02  0.1129616E+00
         -1   -1    0    0    0  501 -0.00000000000E+00  0.00000000000E+00  0.29091068646E+03  0.29091068646E+03  0.00000000000E+00 0.  1.
          1   -1    0    0  501    0  0.00000000000E+00 -0.00000000000E+00 -0.20242827886E+03  0.20242827886E+03  0.00000000000E+00 0. -1.
          5    1    1    2  502    0  0.60977691292E+02  0.17322808538E+03 -0.13432462102E+02  0.18418510211E+03  0.41800000000E+01 0.  1.
         -5    1    1    2    0  502  0.22621553205E+01  0.34262543066E+02  0.61828777888E+02  0.70847084479E+02  0.41800000000E+01 0.  1.
        -11    1    1    2    0    0  0.36676733049E+01 -0.13370257456E+03  0.36468459338E+02  0.13863541682E+03  0.00000000000E+00 0.  1.
         11    1    1    2    0    0 -0.66907519918E+02 -0.73788053892E+02  0.36176324764E+01  0.99671361902E+02  0.00000000000E+00 0. -1.
</event>
<event>
 6    1  0.6447971E-006  0.1083752E+03  0.7561462E-02  0.1263609E+00
          1   -1    0    0  501    0  0.00000000000E+00  0.00000000000E+00  0.22519262397E+02  0.22519262397E+02  0.00000000000E+00 0. -1.
         -1   -1    0    0    0  501 -0.00000000000E+00 -0.00000000000E+00 -0.53552125632E+03  0.53552125632E+03  0.00000000000E+00 0.  1.
          5    1    1    2  502    0  0.19863471324E+02  0.67539852344E+02 -0.19956514269E+03  0.21165988690E+03  0.41800000000E+01 0. -1.
         -5    1    1    2    0  502 -0.20748584224E+02 -0.51268856477E+02 -0.14098161057E+03  0.15150011984E+03  0.41800000000E+01 0. -1.
        -11    1    1    2    0    0 -0.37510133040E+02  0.15829902487E+02 -0.77829105457E+02  0.87834876613E+02  0.00000000000E+00 0.  1.
         11    1    1    2    0    0  0.38395245940E+02 -0.32100898354E+02 -0.94626135200E+02  0.10704563536E+03  0.00000000000E+00 0. -1.
</event>
<event>
 6    1  0.6447971E-006  0.1105569E+03  0.7561462E-02  0.1259542E+00
         -1   -1    0    0    0  501 -0.00000000000E+00  0.00000000000E+00  0.41782174877E+03  0.41782174877E+03  0.00000000000E+00 0.  1.
          1   -1    0    0  501    0  0.00000000000E+00 -0.00000000000E+00 -0.52484756351E+02  0.52484756351E+02  0.00000000000E+00 0. -1.
          5    1    1    2  502    0 -0.28961593366E+02 -0.16032849028E+02  0.24098965373E+03  0.24328853599E+03  0.41800000000E+01 0. -1.
         -5    1    1    2    0  502 -0.58233373552E+02  0.30116065959E+02  0.40544999826E+02  0.77197620656E+02  0.41800000000E+01 0. -1.
        -11    1    1    2    0    0  0.70938873658E+02 -0.47170130264E+02  0.70668423558E+02  0.11068591181E+03  0.00000000000E+00 0.  1.
         11    1    1    2    0    0  0.16256093260E+02  0.33086913333E+02  0.13133915305E+02  0.39134436666E+02  0.00000000000E+00 0. -1.
</event>
<event>
 6    1  0.6447971E-006  0.1709280E+03  0.7561462E-02  0.1176884E+00
         -2   -1    0    0    0  501 -0.00000000000E+00  0.00000000000E+00  0.75738859538E+02  0.75738859538E+02  0.00000000000E+00 0.  1.
          2   -1    0    0  501    0  0.00000000000E+00 -0.00000000000E+00 -0.59175258590E+03  0.59175258590E+03  0.00000000000E+00 0. -1.
          5    1    1    2  502    0 -0.11532430080E+02 -0.60188285306E+02 -0.46338963669E+00  0.61427304691E+02  0.41800000000E+01 0. -1.
         -5    1    1    2    0  502 -0.12032173266E+03 -0.20915161695E+02 -0.12027925638E+03  0.17146234355E+03  0.41800000000E+01 0. -1.
        -11    1    1    2    0    0  0.37594522797E+02  0.67912511495E+01 -0.21273212682E+03  0.21613520541E+03  0.00000000000E+00 0. -1.
         11    1    1    2    0    0  0.94259639943E+02  0.74312195851E+02 -0.18253895352E+03  0.21846659179E+03  0.00000000000E+00 0.  1.
</event>
<event>
 6    1  0.6447971E-006  0.1041151E+03  0.7561462E-02  0.1271873E+00
          2   -1    0    0  501    0  0.00000000000E+00  0.00000000000E+00  0.15410825136E+03  0.15410825136E+03  0.00000000000E+00 0. -1.
         -2   -1    0    0    0  501 -0.00000000000E+00 -0.00000000000E+00 -0.10861388589E+03  0.10861388589E+03  0.00000000000E+00 0.  1.
          5    1    1    2  502    0  0.70385327209E+01 -0.55756602413E+02 -0.12953351998E+02  0.57823882466E+02  0.41800000000E+01 0.  1.
         -5    1    1    2    0  502  0.61612104943E+02  0.54591783252E+02  0.21208280260E+02  0.85109211168E+02  0.41800000000E+01 0.  1.
        -11    1    1    2    0    0 -0.28837367824E+02 -0.46691392131E+01  0.64756975768E+02  0.71041259523E+02  0.00000000000E+00 0. -1.
         11    1    1    2    0    0 -0.39813269840E+02  0.58339583739E+01 -0.27517538558E+02  0.48747784093E+02  0.00000000000E+00 0.  1.
</event>
<event>
 6    1  0.7826757E-006  0.1799309E+03  0.7561462E-02  0.1167870E+00
         -2   -1    0    0    0  501 -0.00000000000E+00  0.00000000000E+00  0.41570615857E+02  0.41570615857E+02  0.00000000000E+00 0.  1.
          2   -1    0    0  501    0  0.00000000000E+00 -0.00000000000E+00 -0.92700133462E+03  0.92700133462E+03  0.00000000000E+00 0. -1.
          5    1    1    2  502    0 -0.10246591835E+02  0.24927647044E+02 -0.58963477357E+01  0.27903755088E+02  0.41800000000E+01 0.  1.
         -5    1    1    2    0  502 -0.14807375895E+03 -0.21733974831E+02 -0.36125083605E+03  0.39104711059E+03  0.41800000000E+01 0.  1.
        -11    1    1    2    0    0  0.72812187398E+02  0.44127934138E+02 -0.24869555782E+03  0.26286568754E+03  0.00000000000E+00 0.  1.
         11    1    1    2    0    0  0.85508163385E+02 -0.47321606351E+02 -0.26958797715E+03  0.28675539725E+03  0.00000000000E+00 0. -1.
</event>
<event>
 6    1  0.6447971E-006  0.9939441E+02  0.7561462E-02  0.1281575E+00
         -4   -1    0    0    0  501 -0.00000000000E+00  0.00000000000E+00  0.51855120651E+02  0.51855120651E+02  0.00000000000E+00 0.  1.
          4   -1    0    0  501    0  0.00000000000E+00 -0.00000000000E+00 -0.38750736373E+03  0.38750736373E+03  0.00000000000E+00 0. -1.
          5    1    1    2  502    0 -0.36012101924E+02  0.11403549072E+02 -0.11841770793E+03  0.12436695047E+03  0.41800000000E+01 0.  1.
         -5    1    1    2    0  502 -0.33668074923E+02 -0.35196728539E+02  0.18044825950E+02  0.52109856193E+02  0.41800000000E+01 0.  1.
        -11    1    1    2    0    0 -0.13486413265E+02 -0.14963427198E+02 -0.80243184873E+02  0.82733041857E+02  0.00000000000E+00 0. -1.
         11    1    1    2    0    0  0.83166590113E+02  0.38756606666E+02 -0.15503617622E+03  0.18015263587E+03  0.00000000000E+00 0.  1.
</event>
<event>
 6    1  0.6447971E-006  0.1197732E+03  0.7561462E-02  0.1243472E+00
          2   -1    0    0  501    0  0.00000000000E+00  0.00000000000E+00  0.25767075620E+03  0.25767075620E+03  0.00000000000E+00 0. -1.
         -2   -1    0    0    0  501 -0.00000000000E+00 -0.00000000000E+00 -0.62944729716E+02  0.62944729716E+02  0.00000000000E+00 0.  1.
          5    1    1    2  502    0  0.77644900410E+02  0.31487518110E+02  0.37953100467E+02  0.92076623480E+02  0.41800000000E+01 0. -1.
         -5    1    1    2    0  502 -0.26228967002E+02 -0.44563469450E+02  0.17307330355E+02  0.54688916642E+02  0.41800000000E+01 0. -1.
        -11    1    1    2    0    0  0.22004493268E+02  0.20383088677E+02  0.38927112060E+02  0.49142528235E+02  0.00000000000E+00 0.  1.
         11    1    1    2    0    0 -0.73420426676E+02 -0.73071373368E+01  0.10053848360E+03  0.12470741756E+03  0.00000000000E+00 0. -1.
</event>
<event>
 6    1  0.6447971E-006  0.1239080E+03  0.7561462E-02  0.1236786E+00
          1   -1    0    0  501    0  0.00000000000E+00  0.00000000000E+00  0.93831433255E+02  0.93831433255E+02  0.00000000000E+00 0. -1.
         -1   -1    0    0    0  501 -0.00000000000E+00 -0.00000000000E+00 -0.23573533558E+03  0.23573533558E+03  0.00000000000E+00 0.  1.
          5    1    1    2  502    0  0.10700227321E+02 -0.28312312709E+02 -0.92684379398E+02  0.97590719333E+02  0.41800000000E+01 0. -1.
         -5    1    1    2    0  502  0.90451605765E+02  0.19577892827E+02 -0.93550704351E+01  0.93111635234E+02  0.41800000000E+01 0. -1.
        -11    1    1    2    0    0  0.96265820702E+01  0.99386671360E+01 -0.22946206764E+02  0.26795085214E+02  0.00000000000E+00 0.  1.
         11    1    1    2    0    0 -0.11077841516E+03 -0.12042472538E+01 -0.16918245729E+02  0.11206932905E+03  0.00000000000E+00 0. -1.
</event>
<event>
 6    1  0.6447971E-006  0.1058503E+03  0.7561462E-02  0.1268453E+00
         -1   -1    0    0    0  501 -0.00000000000E+00  0.00000000000E+00  0.10749501767E+03  0.10749501767E+03  0.00000000000E+00 0.  1.
          1   -1    0    0  501    0  0.00000000000E+00 -0.00000000000E+00 -0.20014297323E+03  0.20014297323E+03  0.00000000000E+00 0. -1.
          5    1    1    2  502    0 -0.69360219004E+02 -0.72332821649E+01  0.58596489318E+02  0.91182132633E+02  0.41800000000E+01 0.  1.
         -5    1    1    2    0  502  0.39402563301E+02  0.21420752119E+02 -0.11568940163E+02  0.46505089964E+02  0.41800000000E+01 0.  1.
        -11    1    1    2    0    0 -0.23105322954E+02 -0.33183663505E+02 -0.60198789343E+02  0.72518312934E+02  0.00000000000E+00 0.  1.
         11    1    1    2    0    0  0.53062978657E+02  0.18996193551E+02 -0.79476715374E+02  0.97432455373E+02  0.00000000000E+00 0. -1.
</event>
<event>
 6    1  0.6447971E-006  0.1158279E+03  0.7561462E-02  0.1250143E+00
          2   -1    0    0  501    0  0.00000000000E+00  0.00000000000E+00  0.20374549099E+03  0.20374549099E+03  0.00000000000E+00 0. -1.
         -2   -1    0    0    0  501 -0.00000000000E+00 -0.00000000000E+00 -0.12770001806E+03  0.12770001806E+03  0.00000000000E+00 0.  1.
          5    1    1    2  502    0  0.10769413359E+03 -0.21001246541E+02 -0.39839667351E+02  0.11680646498E+03  0.41800000000E+01 0. -1.
         -5    1    1    2    0  502 -0.29896131527E+02  0.22227596751E+02 -0.12002662970E+02  0.39362177988E+02  0.41800000000E+01 0. -1.
        -11    1    1    2    0    0 -0.48092883771E+02  0.15179313640E+02  0.13179879230E+03  0.14111788931E+03  0.00000000000E+00 0. -1.
         11    1    1    2    0    0 -0.29705118289E+02 -0.16405663850E+02 -0.39109890557E+01  0.34158976775E+02  0.00000000000E+00 0.  1.
</event>
<event>
 6    1  0.6447971E-006  0.1657634E+03  0.7561462E-02  0.1182339E+00
         -2   -1    0    0    0  501 -0.00000000000E+00  0.00000000000E+00  0.23211747233E+03  0.23211747233E+03  0.00000000000E+00 0.  1.
          2   -1    0    0  501    0  0.00000000000E+00 -0.00000000000E+00 -0.14831562872E+03  0.14831562872E+03  0.00000000000E+00 0. -1.
          5    1    1    2  502    0 -0.13383903021E+02  0.21377343664E+02  0.14260491434E+02  0.29273771505E+02  0.41800000000E+01 0. -1.
         -5    1    1    2    0  502  0.85028123357E+01 -0.16349007211E+03  0.78042947022E+02  0.18140968958E+03  0.41800000000E+01 0. -1.
        -11    1    1    2    0    0  0.25164384135E+01  0.67810359978E+02  0.42068888697E+02  0.79839644155E+02  0.00000000000E+00 0.  1.
         11    1    1    2    0    0  0.23646522715E+01  0.74302368464E+02 -0.50570483541E+02  0.89909995803E+02  0.00000000000E+00 0. -1.
</event>
<event>
 6    1  0.6447971E-006  0.1110629E+03  0.7561462E-02  0.1258614E+00
         -2   -1    0    0    0  501 -0.00000000000E+00  0.00000000000E+00  0.62088708690E+02  0.62088708690E+02  0.00000000000E+00 0. -1.
          2   -1    0    0  501    0  0.00000000000E+00 -0.00000000000E+00 -0.20679337160E+03  0.20679337160E+03  0.00000000000E+00 0.  1.
          5    1    1    2  502    0 -0.26634753422E+02  0.44028462288E+02 -0.14990030322E+02  0.53759547899E+02  0.41800000000E+01 0.  1.
         -5    1    1    2    0  502  0.18238130417E+02 -0.72410644348E+02 -0.52931074152E+02  0.91624788277E+02  0.41800000000E+01 0.  1.
        -11    1    1    2    0    0 -0.34155051769E+02 -0.12817184292E+02 -0.20778107764E+02  0.41983062499E+02  0.00000000000E+00 0.  1.
         11    1    1    2    0    0  0.42551674774E+02  0.41199366351E+02 -0.56005450669E+02  0.81514681613E+02  0.00000000000E+00 0. -1.
</event>
<event>
 6    1  0.6447971E-006  0.1402285E+03  0.7561462E-02  0.1213022E+00
         -3   -1    0    0    0  501 -0.00000000000E+00  0.00000000000E+00  0.31724011716E+03  0.31724011716E+03  0.00000000000E+00 0.  1.
          3   -1    0    0  501    0  0.00000000000E+00 -0.00000000000E+00 -0.74723599851E+02  0.74723599851E+02  0.00000000000E+00 0. -1.
          5    1    1    2  502    0  0.83990819852E+02 -0.40069264016E+02  0.32416445482E+02  0.98632155385E+02  0.41800000000E+01 0. -1.
         -5    1    1    2    0  502  0.20167555363E+02  0.60611447235E+02  0.69618509244E+02  0.94576355685E+02  0.41800000000E+01 0. -1.
        -11    1    1    2    0    0 -0.79356046718E+02 -0.42625854832E+02  0.13884459135E+03  0.16550578902E+03  0.00000000000E+00 0.  1.
         11    1    1    2    0    0 -0.24802328498E+02  0.22083671612E+02  0.16369712299E+01  0.33249416921E+02  0.00000000000E+00 0. -1.
</event>
<event>
 6    1  0.6447971E-006  0.1281330E+03  0.7561462E-02  0.1230253E+00
         -1   -1    0    0    0  501 -0.00000000000E+00  0.00000000000E+00  0.58052723048E+02  0.58052723048E+02  0.00000000000E+00 0.  1.
          1   -1    0    0  501    0  0.00000000000E+00 -0.00000000000E+00 -0.44088621987E+03  0.44088621987E+03  0.00000000000E+00 0. -1.
          5    1    1    2  502    0 -0.27783476037E+02 -0.40235179360E+01 -0.13062198133E+03  0.13367005889E+03  0.41800000000E+01 0. -1.
         -5    1    1    2    0  502 -0.64423667261E+02 -0.53085284345E+02 -0.11198829601E+02  0.84328776238E+02  0.41800000000E+01 0. -1.
        -11    1    1    2    0    0  0.32986147413E+02 -0.26174461458E+02 -0.66687720840E+02  0.78869769016E+02  0.00000000000E+00 0.  1.
         11    1    1    2    0    0  0.59220995884E+02  0.83283263739E+02 -0.17432496506E+03  0.20207033878E+03  0.00000000000E+00 0. -1.
</event>
<event>
 6    1  0.6447971E-006  0.1070507E+03  0.7561462E-02  0.1266131E+00
         -1   -1    0    0    0  501 -0.00000000000E+00  0.00000000000E+00  0.13806530870E+03  0.13806530870E+03  0.00000000000E+00 0.  1.
          1   -1    0    0  501    0  0.00000000000E+00 -0.00000000000E+00 -0.13834698583E+03  0.13834698583E+03  0.00000000000E+00 0. -1.
          5    1    1    2  502    0 -0.96506375364E+01  0.23465700334E+02  0.67906065312E+02  0.72611844786E+02  0.41800000000E+01 0. -1.
         -5    1    1    2    0  502  0.72105708210E+02 -0.27601788759E+02 -0.11571970357E+02  0.78182317675E+02  0.41800000000E+01 0. -1.
        -11    1    1    2    0    0 -0.32882022670E+02 -0.43782968759E+02 -0.19260397987E+02  0.58044282223E+02  0.00000000000E+00 0.  1.
         11    1    1    2    0    0 -0.29573048004E+02  0.47919057184E+02 -0.37355374092E+02  0.67573849847E+02  0.00000000000E+00 0. -1.
</event>
<event>
 6    1  0.6447971E-006  0.9492836E+02  0.7561462E-02  0.1291338E+00
         -1   -1    0    0    0  501 -0.00000000000E+00  0.00000000000E+00  0.64444170486E+02  0.64444170486E+02  0.00000000000E+00 0.  1.
          1   -1    0    0  501    0  0.00000000000E+00 -0.00000000000E+00 -0.24487491664E+03  0.24487491664E+03  0.00000000000E+00 0. -1.
          5    1    1    2  502    0  0.28348224556E+02  0.60191292286E+02 -0.99067688806E+02  0.11940893127E+03  0.41800000000E+01 0. -1.
         -5    1    1    2    0  502  0.14662169838E+02 -0.27023317767E+02  0.21247323496E+02  0.37605319879E+02  0.41800000000E+01 0. -1.
        -11    1    1    2    0    0  0.42450051958E+01 -0.43571750332E+02 -0.93258008798E+02  0.10302220004E+03  0.00000000000E+00 0. -1.
         11    1    1    2    0    0 -0.47255399589E+02  0.10403775813E+02 -0.93523720445E+01  0.49282635932E+02  0.00000000000E+00 0.  1.
</event>
<event>
 6    1  0.6447971E-006  0.7837045E+02  0.7561462E-02  0.1333741E+00
         -2   -1    0    0    0  501 -0.00000000000E+00  0.00000000000E+00  0.33143294260E+02  0.33143294260E+02  0.00000000000E+00 0. -1.
          2   -1    0    0  501    0  0.00000000000E+00 -0.00000000000E+00 -0.38901478481E+03  0.38901478481E+03  0.00000000000E+00 0.  1.
          5    1    1    2  502    0  0.58070470818E+02  0.32293342490E+02 -0.15823891934E+03  0.17167430659E+03  0.41800000000E+01 0.  1.
         -5    1    1    2    0  502 -0.45123981051E+02  0.79072929483E+00 -0.21488872751E+02  0.50160173154E+02  0.41800000000E+01 0.  1.
        -11    1    1    2    0    0 -0.14159980316E+02 -0.26799089146E+01  0.60330124832E+01  0.15623194103E+02  0.00000000000E+00 0. -1.
         11    1    1    2    0    0  0.12134905494E+01 -0.30404162870E+02 -0.18217671094E+03  0.18470040522E+03  0.00000000000E+00 0.  1.
</event>
<event>
 6    1  0.6447971E-006  0.1647308E+03  0.7561462E-02  0.1183457E+00
         -2   -1    0    0    0  501 -0.00000000000E+00  0.00000000000E+00  0.14078917945E+03  0.14078917945E+03  0.00000000000E+00 0. -1.
          2   -1    0    0  501    0  0.00000000000E+00 -0.00000000000E+00 -0.26815284368E+03  0.26815284368E+03  0.00000000000E+00 0.  1.
          5    1    1    2  502    0  0.61295187970E+02 -0.13706711160E+01 -0.27990659601E+02  0.67527240670E+02  0.41800000000E+01 0.  1.
         -5    1    1    2    0  502  0.29717205887E+02  0.10251590377E+03  0.52187772901E+02  0.11888506589E+03  0.41800000000E+01 0.  1.
        -11    1    1    2    0    0 -0.12381336692E+02 -0.78349752698E+02 -0.58359393402E+02  0.98477408803E+02  0.00000000000E+00 0. -1.
         11    1    1    2    0    0 -0.78631057165E+02 -0.22795479958E+02 -0.93201384134E+02  0.12405230777E+03  0.00000000000E+00 0.  1.
</event>
<event>
 6    1  0.6447971E-006  0.2249741E+03  0.7561462E-02  0.1130228E+00
          1   -1    0    0  501    0  0.00000000000E+00  0.00000000000E+00  0.13921223458E+04  0.13921223458E+04  0.00000000000E+00 0. -1.
         -1   -1    0    0    0  501 -0.00000000000E+00 -0.00000000000E+00 -0.44679117012E+02  0.44679117012E+02  0.00000000000E+00 0.  1.
          5    1    1    2  502    0  0.15962251122E+02 -0.22442224495E+02  0.14118082730E+02  0.31228825805E+02  0.41800000000E+01 0.  1.
         -5    1    1    2    0  502 -0.14337874010E+03 -0.13932512464E+03  0.42352065431E+03  0.46835474856E+03  0.41800000000E+01 0.  1.
        -11    1    1    2    0    0  0.86752655746E+01 -0.10046672134E+02  0.27566049185E+02  0.30595472237E+02  0.00000000000E+00 0.  1.
         11    1    1    2    0    0  0.11874122340E+03  0.17181402127E+03  0.88223844253E+03  0.90662241618E+03  0.00000000000E+00 0. -1.
</event>
<event>
 6    1  0.6447971E-006  0.1068856E+03  0.7561462E-02  0.1266448E+00
         -1   -1    0    0    0  501 -0.00000000000E+00  0.00000000000E+00  0.21254943305E+02  0.21254943305E+02  0.00000000000E+00 0.  1.
          1   -1    0    0  501    0  0.00000000000E+00 -0.00000000000E+00 -0.65910846311E+03  0.65910846311E+03  0.00000000000E+00 0. -1.
          5    1    1    2  502    0 -0.43732467374E+02  0.37787168057E+02 -0.24720570795E+03  0.25390654425E+03  0.41800000000E+01 0. -1.
         -5    1    1    2    0  502  0.28086992801E+01 -0.60623002850E+02 -0.88441923174E+02  0.10734283134E+03  0.41800000000E+01 0. -1.
        -11    1    1    2    0    0 -0.15826243273E+02  0.33682212297E+02 -0.64301682715E+02  0.74294466829E+02  0.00000000000E+00 0.  1.
         11    1    1    2    0    0  0.56750011367E+02 -0.10846377505E+02 -0.23790420597E+03  0.24481956399E+03  0.00000000000E+00 0. -1.
</event>
<event>
 6    1  0.6447971E-006  0.1367839E+03  0.7561462E-02  0.1217723E+00
          3   -1    0    0  501    0  0.00000000000E+00  0.00000000000E+00  0.11975305887E+03  0.11975305887E+03  0.00000000000E+00 0. -1.
         -3   -1    0    0    0  501 -0.00000000000E+00 -0.00000000000E+00 -0.21171615614E+03  0.21171615614E+03  0.00000000000E+00 0.  1.
          5    1    1    2  502    0  0.12115042802E+03  0.32305386116E+02 -0.71048013965E+02  0.14417474422E+03  0.41800000000E+01 0.  1.
         -5    1    1    2    0  502 -0.28447481266E+02  0.66860464167E-01 -0.42157379126E+02  0.51029213942E+02  0.41800000000E+01 0.  1.
        -11    1    1    2    0    0 -0.26657982122E+01 -0.29144742458E+02  0.34454590856E+02  0.45206651326E+02  0.00000000000E+00 0. -1.
         11    1    1    2    0    0 -0.90037148541E+02 -0.32275041228E+01 -0.13212295040E+02  0.91058605526E+02  0.00000000000E+00 0.  1.
</event>
<event>
 6    1  0.6447971E-006  0.8766241E+02  0.7561462E-02  0.1308613E+00
          2   -1    0    0  501    0  0.00000000000E+00  0.00000000000E+00  0.20778349138E+02  0.20778349138E+02  0.00000000000E+00 0. -1.
         -2   -1    0    0    0  501 -0.00000000000E+00 -0.00000000000E+00 -0.60720244389E+03  0.60720244389E+03  0.00000000000E+00 0.  1.
          5    1    1    2  502    0 -0.93731546221E+00 -0.45615584446E+02 -0.66237775359E+02  0.80539278549E+02  0.41800000000E+01 0. -1.
         -5    1    1    2    0  502 -0.27921073216E+02  0.25836092377E+02 -0.35513429217E+03  0.35719032444E+03  0.41800000000E+01 0.  1.
        -11    1    1    2    0    0  0.58956574232E+02  0.13869269016E+02 -0.83747132812E+02  0.10335287380E+03  0.00000000000E+00 0. -1.
         11    1    1    2    0    0 -0.30098185553E+02  0.59102230536E+01 -0.81304894412E+02  0.86898316241E+02  0.00000000000E+00 0.  1.
</event>
<event>
 6    1  0.6447971E-006  0.1126263E+03  0.7561462E-02  0.1255782E+00
         -1   -1    0    0    0  501 -0.00000000000E+00  0.00000000000E+00  0.96554312061E+02  0.96554312061E+02  0.00000000000E+00 0.  1.
          1   -1    0    0  501    0  0.00000000000E+00 -0.00000000000E+00 -0.19971245368E+03  0.19971245368E+03  0.00000000000E+00 0. -1.
          5    1    1    2  502    0 -0.14784808487E+02 -0.66124391905E+02  0.31317710968E+02  0.74761602358E+02  0.41800000000E+01 0.  1.
         -5    1    1    2    0  502 -0.33147042707E+02  0.48457053189E+02 -0.16610017853E+02  0.61156990909E+02  0.41800000000E+01 0.  1.
        -11    1    1    2    0    0  0.56132058448E+02 -0.20281532536E+02 -0.35891288328E+02  0.69644333047E+02  0.00000000000E+00 0.  1.
         11    1    1    2    0    0 -0.82002072541E+01  0.37948871252E+02 -0.81974546410E+02  0.90703839430E+02  0.00000000000E+00 0. -1.
</event>
<event>
 6    1  0.6447971E-006  0.1207490E+03  0.7561462E-02  0.1241866E+00
         -1   -1    0    0    0  501 -0.00000000000E+00  0.00000000000E+00  0.13336527247E+03  0.13336527247E+03  0.00000000000E+00 0.  1.
          1   -1    0    0  501    0  0.00000000000E+00 -0.00000000000E+00 -0.13724078716E+03  0.13724078716E+03  0.00000000000E+00 0. -1.
          5    1    1    2  502    0 -0.75764772906E+02 -0.60961101076E+02 -0.26082498953E+02  0.10076867474E+03  0.41800000000E+01 0.  1.
         -5    1    1    2    0  502  0.10127278294E+02  0.20095777796E+02  0.41112162599E+02  0.47054057896E+02  0.41800000000E+01 0.  1.
        -11    1    1    2    0    0 -0.24270031202E+02  0.82172559020E+01 -0.53486649552E+01  0.26175674316E+02  0.00000000000E+00 0.  1.
         11    1    1    2    0    0  0.89907525813E+02  0.32648067377E+02 -0.13556513375E+02  0.96607652679E+02  0.00000000000E+00 0. -1.
</event>
<event>
 6    1  0.6447971E-006  0.1796386E+03  0.7561462E-02  0.1168153E+00
          2   -1    0    0  501    0  0.00000000000E+00  0.00000000000E+00  0.11651177931E+04  0.11651177931E+04  0.00000000000E+00 0. -1.
         -2   -1    0    0    0  501 -0.00000000000E+00 -0.00000000000E+00 -0.33277421213E+02  0.33277421213E+02  0.00000000000E+00 0.  1.
          5    1    1    2  502    0  0.61651516112E+02  0.58496028776E+02  0.15178131386E+03  0.17400498401E+03  0.41800000000E+01 0. -1.
         -5    1    1    2    0  502  0.95400556989E+02 -0.60181379689E+02  0.29342720030E+03  0.31438838880E+03  0.41800000000E+01 0. -1.
        -11    1    1    2    0    0 -0.38110549912E+02 -0.15491009226E+02  0.65472951019E+02  0.77324593090E+02  0.00000000000E+00 0.  1.
         11    1    1    2    0    0 -0.11894152319E+03  0.17176360139E+02  0.62115890673E+03  0.63267724844E+03  0.00000000000E+00 0. -1.
</event>
<event>
 6    1  0.6447971E-006  0.9174930E+02  0.7561462E-02  0.1298670E+00
          1   -1    0    0  501    0  0.00000000000E+00  0.00000000000E+00  0.19220196273E+02  0.19220196273E+02  0.00000000000E+00 0. -1.
         -1   -1    0    0    0  501 -0.00000000000E+00 -0.00000000000E+00 -0.63455306249E+03  0.63455306249E+03  0.00000000000E+00 0.  1.
          5    1    1    2  502    0 -0.51104688807E+02 -0.11520993593E+02 -0.30328769542E+03  0.30780727916E+03  0.41800000000E+01 0.  1.
         -5    1    1    2    0  502  0.36527413812E+02  0.27489278381E+02 -0.51411164046E+02  0.68923817177E+02  0.41800000000E+01 0.  1.
        -11    1    1    2    0    0  0.45754587657E+01 -0.49671923059E+02 -0.20690674852E+03  0.21283476536E+03  0.00000000000E+00 0.  1.
         11    1    1    2    0    0  0.10001816229E+02  0.33703638271E+02 -0.53727258227E+02  0.64207397060E+02  0.00000000000E+00 0. -1.
</event>
<event>
 6    1  0.6447971E-006  0.6341194E+02  0.7561462E-02  0.1384047E+00
         -1   -1    0    0    0  501 -0.00000000000E+00  0.00000000000E+00  0.20792557049E+03  0.20792557049E+03  0.00000000000E+00 0.  1.
          1   -1    0    0  501    0  0.00000000000E+00 -0.00000000000E+00 -0.74225389954E+02  0.74225389954E+02  0.00000000000E+00 0. -1.
          5    1    1    2  502    0  0.62451338796E+01 -0.33101532260E+02 -0.64501739811E+01  0.34551270302E+02  0.41800000000E+01 0.  1.
         -5    1    1    2    0  502 -0.91683200622E+01  0.51190758042E+02  0.13972257373E+03  0.14914563960E+03  0.41800000000E+01 0.  1.
        -11    1    1    2    0    0  0.10978582410E+02 -0.26728199022E+02  0.44371506052E+02  0.52950509384E+02  0.00000000000E+00 0.  1.
         11    1    1    2    0    0 -0.80553962271E+01  0.86389732392E+01 -0.43943725270E+02  0.45503541154E+02  0.00000000000E+00 0. -1.
</event>
<event>
 6    1  0.6447971E-006  0.1643045E+03  0.7561462E-02  0.1183921E+00
          1   -1    0    0  501    0  0.00000000000E+00  0.00000000000E+00  0.36375821478E+03  0.36375821478E+03  0.00000000000E+00 0. -1.
         -1   -1    0    0    0  501 -0.00000000000E+00 -0.00000000000E+00 -0.93231443059E+02  0.93231443059E+02  0.00000000000E+00 0.  1.
          5    1    1    2  502    0 -0.45677055365E+02 -0.10573107302E+03  0.32765635926E+02  0.11981866501E+03  0.41800000000E+01 0.  1.
         -5    1    1    2    0  502  0.49922604411E+02 -0.41939712258E+02  0.83394907202E+02  0.10594049671E+03  0.41800000000E+01 0.  1.
        -11    1    1    2    0    0 -0.71334983916E+01  0.11641694794E+03  0.58753323924E+02  0.13059764791E+03  0.00000000000E+00 0.  1.
         11    1    1    2    0    0  0.28879493457E+01  0.31253837331E+02  0.95612904671E+02  0.10063284821E+03  0.00000000000E+00 0. -1.
</event>
<event>
 6    1  0.6447971E-006  0.1020252E+03  0.7561462E-02  0.1276094E+00
          2   -1    0    0  501    0  0.00000000000E+00  0.00000000000E+00  0.31284806000E+03  0.31284806000E+03  0.00000000000E+00 0. -1.
         -2   -1    0    0    0  501 -0.00000000000E+00 -0.00000000000E+00 -0.47432339943E+02  0.47432339943E+02  0.00000000000E+00 0.  1.
          5    1    1    2  502    0  0.34983657320E+02  0.46533413080E+02  0.18032977109E+02  0.61089078204E+02  0.41800000000E+01 0.  1.
         -5    1    1    2    0  502 -0.61762238873E+01 -0.65090127451E+02  0.68729428246E+02  0.94953025966E+02  0.41800000000E+01 0.  1.
        -11    1    1    2    0    0 -0.22939597981E+02 -0.26317261285E+02  0.22202876569E+02  0.41373797565E+02  0.00000000000E+00 0.  1.
         11    1    1    2    0    0 -0.58678354526E+01  0.44873975656E+02  0.15645043813E+03  0.16286449820E+03  0.00000000000E+00 0. -1.
</event>
<event>
 6    1  0.6447971E-006  0.1627312E+03  0.7561462E-02  0.1185647E+00
          1   -1    0    0  501    0  0.00000000000E+00  0.00000000000E+00  0.29767269790E+02  0.29767269790E+02  0.00000000000E+00 0. -1.
         -1   -1    0    0    0  501 -0.00000000000E+00 -0.00000000000E+00 -0.10500590756E+04  0.10500590756E+04  0.00000000000E+00 0.  1.
          5    1    1    2  502    0  0.14882166490E+03  0.35687976019E+02 -0.48649554819E+03  0.51001657854E+03  0.41800000000E+01 0. -1.
         -5    1    1    2    0  502 -0.78093230783E+01 -0.14630726300E+02 -0.66548285608E+01  0.18352188485E+02  0.41800000000E+01 0. -1.
        -11    1    1    2    0    0 -0.72245818703E+02 -0.41759122489E+02 -0.35993233037E+03  0.36947877486E+03  0.00000000000E+00 0.  1.
         11    1    1    2    0    0 -0.68766523123E+02  0.20701872770E+02 -0.16720909871E+03  0.18197880352E+03  0.00000000000E+00 0. -1.
</event>
<event>
 6    1  0.6447971E-006  0.1632193E+03  0.7561462E-02  0.1185109E+00
          1   -1    0    0  501    0  0.00000000000E+00  0.00000000000E+00  0.33783244226E+03  0.33783244226E+03  0.00000000000E+00 0. -1.
         -1   -1    0    0    0  501 -0.00000000000E+00 -0.00000000000E+00 -0.91865279720E+02  0.91865279720E+02  0.00000000000E+00 0.  1.
          5    1    1    2  502    0  0.12428357353E+03 -0.17260517961E+02  0.15487701063E+03  0.19937074247E+03  0.41800000000E+01 0.  1.
         -5    1    1    2    0  502 -0.16578770687E+01 -0.39367825492E+02 -0.23667375327E+01  0.39694433953E+02  0.41800000000E+01 0.  1.
        -11    1    1    2    0    0 -0.35560848694E+02 -0.23759484734E+02  0.56377287434E+01  0.43137814734E+02  0.00000000000E+00 0. -1.
         11    1    1    2    0    0 -0.87064847764E+02  0.80387828186E+02  0.87819160700E+02  0.14749473083E+03  0.00000000000E+00 0.  1.
</event>
<event>
 6    1  0.6447971E-006  0.3335540E+03  0.7561462E-02  0.1069575E+00
         -2   -1    0    0    0  501 -0.00000000000E+00  0.00000000000E+00  0.12830811874E+03  0.12830811874E+03  0.00000000000E+00 0.  1.
          2   -1    0    0  501    0  0.00000000000E+00 -0.00000000000E+00 -0.96103822161E+03  0.96103822161E+03  0.00000000000E+00 0. -1.
          5    1    1    2  502    0  0.88188679293E+02  0.16902306206E+03 -0.12335596823E+03  0.22711276045E+03  0.41800000000E+01 0.  1.
         -5    1    1    2    0  502 -0.17301131221E+02  0.14924559686E+03 -0.18857930935E+03  0.24114975771E+03  0.41800000000E+01 0.  1.
        -11    1    1    2    0    0 -0.41033688303E+02 -0.19637656347E+03 -0.39697218777E+03  0.44478583174E+03  0.00000000000E+00 0. -1.
         11    1    1    2    0    0 -0.29853859768E+02 -0.12189209545E+03 -0.12382263751E+03  0.17629799045E+03  0.00000000000E+00 0.  1.
</event>
<event>
 6    1  0.6447971E-006  0.1349228E+03  0.7561462E-02  0.1220329E+00
         -4   -1    0    0    0  501 -0.00000000000E+00  0.00000000000E+00  0.70668943354E+02  0.70668943354E+02  0.00000000000E+00 0.  1.
          4   -1    0    0  501    0  0.00000000000E+00 -0.00000000000E+00 -0.37150438053E+03  0.37150438053E+03  0.00000000000E+00 0. -1.
          5    1    1    2  502    0  0.20819511724E+02 -0.34472365147E+02 -0.80071303432E+02  0.89725593119E+02  0.41800000000E+01 0. -1.
         -5    1    1    2    0  502  0.90080415757E+02  0.61529804680E+02 -0.33564434746E+02  0.11421226662E+03  0.41800000000E+01 0. -1.
        -11    1    1    2    0    0 -0.21506607826E+02 -0.21827422051E+02  0.86757367836E-01  0.30642748904E+02  0.00000000000E+00 0.  1.
         11    1    1    2    0    0 -0.89393319656E+02 -0.52300174826E+01 -0.18728645636E+03  0.20759271524E+03  0.00000000000E+00 0. -1.
</event>
<event>
 6    1  0.6447971E-006  0.1028450E+03  0.7561462E-02  0.1274425E+00
          2   -1    0    0  501    0  0.00000000000E+00  0.00000000000E+00  0.41919354080E+03  0.41919354080E+03  0.00000000000E+00 0.  1.
         -2   -1    0    0    0  501 -0.00000000000E+00 -0.00000000000E+00 -0.39109041844E+02  0.39109041844E+02  0.00000000000E+00 0. -1.
          5    1    1    2  502    0 -0.12771503223E+02  0.58847558788E+02  0.86269868848E+02  0.10529059379E+03  0.41800000000E+01 0.  1.
         -5    1    1    2    0  502 -0.35821988346E+02 -0.57890199074E+02  0.40523328689E+02  0.79335380291E+02  0.41800000000E+01 0.  1.
        -11    1    1    2    0    0 -0.37307465857E+01  0.20303643387E+02  0.82837147139E+01  0.22243568382E+02  0.00000000000E+00 0. -1.
         11    1    1    2    0    0  0.52324238154E+02 -0.21261003101E+02  0.24500758671E+03  0.25143304018E+03  0.00000000000E+00 0.  1.
</event>
<event>
 6    1  0.6447971E-006  0.1176244E+03  0.7561462E-02  0.1247068E+00
          1   -1    0    0  501    0  0.00000000000E+00  0.00000000000E+00  0.86020894425E+03  0.86020894425E+03  0.00000000000E+00 0. -1.
         -1   -1    0    0    0  501 -0.00000000000E+00 -0.00000000000E+00 -0.20336487303E+02  0.20336487303E+02  0.00000000000E+00 0.  1.
          5    1    1    2  502    0 -0.29574083714E+02  0.43985564016E+02  0.37545754050E+03  0.37920336680E+03  0.41800000000E+01 0.  1.
         -5    1    1    2    0  502  0.74999044888E+02  0.28344201874E+01  0.21255962296E+03  0.22545943401E+03  0.41800000000E+01 0.  1.
        -11    1    1    2    0    0 -0.13461937014E+02  0.24947915012E+02  0.11137562999E+03  0.11492672956E+03  0.00000000000E+00 0. -1.
         11    1    1    2    0    0 -0.31963024160E+02 -0.71767899215E+02  0.14047966351E+03  0.16095590120E+03  0.00000000000E+00 0.  1.
</event>
<event>
 6    1  0.6447971E-006  0.1301952E+03  0.7561462E-02  0.1227166E+00
          1   -1    0    0  501    0  0.00000000000E+00  0.00000000000E+00  0.33688913919E+03  0.33688913919E+03  0.00000000000E+00 0.  1.
         -1   -1    0    0    0  501 -0.00000000000E+00 -0.00000000000E+00 -0.76735828541E+02  0.76735828541E+02  0.00000000000E+00 0. -1.
          5    1    1    2  502    0 -0.97780804682E+01 -0.79834181975E+02  0.10223119750E+03  0.13014529423E+03  0.41800000000E+01 0. -1.
         -5    1    1    2    0  502  0.32761975249E+02 -0.28338142721E+02 -0.28872127286E+02  0.52225180604E+02  0.41800000000E+01 0. -1.
        -11    1    1    2    0    0  0.26780834095E+00  0.11265271076E+03  0.15442035220E+03  0.19114484073E+03  0.00000000000E+00 0. -1.
         11    1    1    2    0    0 -0.23251703122E+02 -0.44803860623E+01  0.32373888235E+02  0.40109652165E+02  0.00000000000E+00 0.  1.
</event>
<event>
 6    1  0.6447971E-006  0.1156663E+03  0.7561462E-02  0.1250422E+00
          1   -1    0    0  501    0  0.00000000000E+00  0.00000000000E+00  0.39947905331E+03  0.39947905331E+03  0.00000000000E+00 0. -1.
         -1   -1    0    0    0  501 -0.00000000000E+00 -0.00000000000E+00 -0.40083899937E+02  0.40083899937E+02  0.00000000000E+00 0.  1.
          5    1    1    2  502    0  0.73260206361E+02  0.64073985592E+01  0.15688034818E+03  0.17331194026E+03  0.41800000000E+01 0. -1.
         -5    1    1    2    0  502 -0.27940334334E+02  0.38981945168E+02  0.18786815135E+02  0.51678536693E+02  0.41800000000E+01 0. -1.
        -11    1    1    2    0    0  0.17973745939E+02 -0.42531314179E+02  0.94024321716E+02  0.10474989882E+03  0.00000000000E+00 0. -1.
         11    1    1    2    0    0 -0.63293617966E+02 -0.28580295480E+01  0.89703668346E+02  0.10982257747E+03  0.00000000000E+00 0.  1.
</event>
<event>
 6    1  0.6447971E-006  0.1195060E+03  0.7561462E-02  0.1243914E+00
         -1   -1    0    0    0  501 -0.00000000000E+00  0.00000000000E+00  0.77434034168E+02  0.77434034168E+02  0.00000000000E+00 0.  1.
          1   -1    0    0  501    0  0.00000000000E+00 -0.00000000000E+00 -0.22202194338E+03  0.22202194338E+03  0.00000000000E+00 0. -1.
          5    1    1    2  502    0 -0.51086996755E+01  0.79622826531E+02 -0.17065417301E+02  0.81698189606E+02  0.41800000000E+01 0.  1.
         -5    1    1    2    0  502  0.34626089199E+02 -0.41007748227E+02 -0.21826388229E+01  0.53877989755E+02  0.41800000000E+01 0.  1.
        -11    1    1    2    0    0 -0.27529208005E+01 -0.66543141163E+02 -0.73294689605E+02  0.99033730279E+02  0.00000000000E+00 0. -1.
         11    1    1    2    0    0 -0.26764468723E+02  0.27928062859E+02 -0.52045163485E+02  0.64846067909E+02  0.00000000000E+00 0.  1.
</event>
<event>
 6    1  0.6447971E-006  0.1034499E+03  0.7561462E-02  0.1273204E+00
          1   -1    0    0  501    0  0.00000000000E+00  0.00000000000E+00  0.59836136172E+02  0.59836136172E+02  0.00000000000E+00 0. -1.
         -1   -1    0    0    0  501 -0.00000000000E+00 -0.00000000000E+00 -0.20503408377E+03  0.20503408377E+03  0.00000000000E+00 0.  1.
          5    1    1    2  502    0  0.37965462888E+02 -0.44924239562E+02 -0.41975474103E+02  0.72380774372E+02  0.41800000000E+01 0. -1.
         -5    1    1    2    0  502 -0.59805111147E+02  0.33157232792E+02 -0.53624453130E+02  0.87000619419E+02  0.41800000000E+01 0. -1.
        -11    1    1    2    0    0 -0.77948816541E+01  0.38640693576E+02 -0.52185503833E+02  0.65400230813E+02  0.00000000000E+00 0.  1.
         11    1    1    2    0    0  0.29634529914E+02 -0.26873686807E+02  0.25874834661E+01  0.40088595342E+02  0.00000000000E+00 0. -1.
</event>
<event>
 6    1  0.6447971E-006  0.7517648E+02  0.7561462E-02  0.1343325E+00
         -3   -1    0    0    0  501 -0.00000000000E+00  0.00000000000E+00  0.99921508827E+02  0.99921508827E+02  0.00000000000E+00 0.  1.
          3   -1    0    0  501    0  0.00000000000E+00 -0.00000000000E+00 -0.12288193146E+03  0.12288193146E+03  0.00000000000E+00 0. -1.
          5    1    1    2  502    0 -0.45046723829E+01  0.12842910348E+02 -0.47042333070E+02  0.49149627874E+02  0.41800000000E+01 0. -1.
         -5    1    1    2    0  502 -0.19763323437E+02 -0.34518679447E+02  0.59006502246E+02  0.71283714068E+02  0.41800000000E+01 0.  1.
        -11    1    1    2    0    0 -0.34632751262E+02  0.10293088732E+02 -0.10789443645E+02  0.37706593983E+02  0.00000000000E+00 0.  1.
         11    1    1    2    0    0  0.58900747082E+02  0.11382680368E+02 -0.24135148159E+02  0.64663504358E+02  0.00000000000E+00 0. -1.
</event>
<event>
 6    1  0.6447971E-006  0.1903858E+03  0.7561462E-02  0.1158114E+00
          1   -1    0    0  501    0  0.00000000000E+00  0.00000000000E+00  0.11278011229E+03  0.11278011229E+03  0.00000000000E+00 0. -1.
         -1   -1    0    0    0  501 -0.00000000000E+00 -0.00000000000E+00 -0.36451545950E+03  0.36451545950E+03  0.00000000000E+00 0.  1.
          5    1    1    2  502    0  0.10760772541E+03 -0.14450388081E+03 -0.14288238980E+03  0.22998618187E+03  0.41800000000E+01 0. -1.
         -5    1    1    2    0  502  0.14323094184E+02  0.26439862238E+02 -0.18805562371E+02  0.35711887633E+02  0.41800000000E+01 0. -1.
        -11    1    1    2    0    0 -0.38454106412E+02  0.29296473867E+02  0.15104540449E+02  0.50647298281E+02  0.00000000000E+00 0. -1.
         11    1    1    2    0    0 -0.83476713181E+02  0.88767544702E+02 -0.10515193549E+03  0.16095020402E+03  0.00000000000E+00 0.  1.
</event>
<event>
 6    1  0.6447971E-006  0.1302937E+03  0.7561462E-02  0.1227021E+00
         -1   -1    0    0    0  501 -0.00000000000E+00  0.00000000000E+00  0.10225728823E+03  0.10225728823E+03  0.00000000000E+00 0. -1.
          1   -1    0    0  501    0  0.00000000000E+00 -0.00000000000E+00 -0.25244124033E+03  0.25244124033E+03  0.00000000000E+00 0.  1.
          5    1    1    2  502    0  0.38993574287E+02 -0.40592055903E+02  0.11690672747E+02  0.57639899960E+02  0.41800000000E+01 0. -1.
         -5    1    1    2    0  502 -0.89751108059E+02 -0.46401819059E+02 -0.20617432807E+02  0.10320339697E+03  0.41800000000E+01 0. -1.
        -11    1    1    2    0    0  0.25658382475E+02  0.64122757359E+02 -0.14408311381E+03  0.15978117626E+03  0.00000000000E+00 0.  1.
         11    1    1    2    0    0  0.25099151297E+02  0.22871117603E+02  0.28259217678E+01  0.34074055380E+02  0.00000000000E+00 0. -1.
</event>
<event>
 6    1  0.6447971E-006  0.5848317E+02  0.7561462E-02  0.1404310E+00
         -2   -1    0    0    0  501 -0.00000000000E+00  0.00000000000E+00  0.34308360243E+02  0.34308360243E+02  0.00000000000E+00 0.  1.
          2   -1    0    0  501    0  0.00000000000E+00 -0.00000000000E+00 -0.40067843193E+03  0.40067843193E+03  0.00000000000E+00 0. -1.
          5    1    1    2  502    0  0.11393927034E+02 -0.21315186523E+02  0.20545518497E+02  0.31996085387E+02  0.41800000000E+01 0. -1.
         -5    1    1    2    0  502 -0.11845494241E+00  0.18809608254E+02 -0.14012676605E+03  0.14144539002E+03  0.41800000000E+01 0. -1.
        -11    1    1    2    0    0  0.30870085590E+02 -0.92907870292E+00 -0.17903317726E+03  0.18167747227E+03  0.00000000000E+00 0. -1.
         11    1    1    2    0    0 -0.42145557682E+02  0.34346569721E+01 -0.67755646882E+02  0.79867844501E+02  0.00000000000E+00 0.  1.
</event>
<event>
 6    1  0.6447971E-006  0.1893408E+03  0.7561462E-02  0.1159057E+00
         -1   -1    0    0    0  501 -0.00000000000E+00  0.00000000000E+00  0.15149472298E+03  0.15149472298E+03  0.00000000000E+00 0.  1.
          1   -1    0    0  501    0  0.00000000000E+00 -0.00000000000E+00 -0.27476644364E+03  0.27476644364E+03  0.00000000000E+00 0. -1.
          5    1    1    2  502    0 -0.87770539755E-01  0.15542656989E+02  0.24853435188E+02  0.29609922839E+02  0.41800000000E+01 0.  1.
         -5    1    1    2    0  502 -0.14235663302E+03 -0.10161360197E+03 -0.37825345310E+02  0.17899431337E+03  0.41800000000E+01 0.  1.
        -11    1    1    2    0    0  0.50819375948E+02  0.81310994352E+02 -0.57149948644E+02  0.11162528121E+03  0.00000000000E+00 0. -1.
         11    1    1    2    0    0  0.91625027612E+02  0.47599506321E+01 -0.53149861884E+02  0.10603164921E+03  0.00000000000E+00 0.  1.
</event>
<event>
 6    1  0.6447971E-006  0.1129454E+03  0.7561462E-02  0.1255211E+00
         -1   -1    0    0    0  501 -0.00000000000E+00  0.00000000000E+00  0.43864085880E+03  0.43864085880E+03  0.00000000000E+00 0.  1.
          1   -1    0    0  501    0  0.00000000000E+00 -0.00000000000E+00 -0.31111020482E+02  0.31111020482E+02  0.00000000000E+00 0. -1.
          5    1    1    2  502    0 -0.68391230400E+02 -0.52419690959E+02  0.18827390589E+03  0.20709833518E+03  0.41800000000E+01 0.  1.
         -5    1    1    2    0  502  0.32202145102E+02  0.26997326376E+02  0.49741445428E+02  0.65249655738E+02  0.41800000000E+01 0.  1.
        -11    1    1    2    0    0  0.14264905708E+02 -0.32481140460E+02  0.37668662883E+02  0.51743986934E+02  0.00000000000E+00 0. -1.
         11    1    1    2    0    0  0.21924179590E+02  0.57903505043E+02  0.13184582411E+03  0.14565990143E+03  0.00000000000E+00 0.  1.
</event>
<event>
 6    1  0.6447971E-006  0.1108070E+03  0.7561462E-02  0.1259083E+00
         -2   -1    0    0    0  501 -0.00000000000E+00  0.00000000000E+00  0.98444111269E+02  0.98444111269E+02  0.00000000000E+00 0.  1.
          2   -1    0    0  501    0  0.00000000000E+00 -0.00000000000E+00 -0.17071783663E+03  0.17071783663E+03  0.00000000000E+00 0. -1.
          5    1    1    2  502    0 -0.66843567057E+02 -0.36574226073E+02  0.19255175268E+02  0.78701782981E+02  0.41800000000E+01 0.  1.
         -5    1    1    2    0  502  0.35839460575E+02 -0.26726347044E+02 -0.51732800469E+02  0.68501967892E+02  0.41800000000E+01 0.  1.
        -11    1    1    2    0    0  0.15050236274E+02  0.77558279213E+02 -0.26007925474E+01  0.79047836202E+02  0.00000000000E+00 0.  1.
         11    1    1    2    0    0  0.15953870208E+02 -0.14257706095E+02 -0.37195307617E+02  0.42910360828E+02  0.00000000000E+00 0. -1.
</event>
<event>
 6    1  0.6447971E-006  0.2292963E+03  0.7561462E-02  0.1127136E+00
          2   -1    0    0  501    0  0.00000000000E+00  0.00000000000E+00  0.13967056334E+03  0.13967056334E+03  0.00000000000E+00 0. -1.
         -2   -1    0    0    0  501 -0.00000000000E+00 -0.00000000000E+00 -0.49571716011E+03  0.49571716011E+03  0.00000000000E+00 0.  1.
          5    1    1    2  502    0  0.15874667664E+03 -0.85022014917E+02 -0.29627758753E+03  0.34673784281E+03  0.41800000000E+01 0.  1.
         -5    1    1    2    0  502  0.26970254083E+02 -0.33442113791E+02 -0.12385486993E+00  0.43165464438E+02  0.41800000000E+01 0.  1.
        -11    1    1    2    0    0 -0.15101341876E+03  0.12944361452E+03 -0.63724395306E+02  0.20885760829E+03  0.00000000000E+00 0. -1.
         11    1    1    2    0    0 -0.34703511960E+02 -0.10979485812E+02  0.40792409420E+01  0.36626807911E+02  0.00000000000E+00 0.  1.
</event>
<event>
 6    1  0.6447971E-006  0.2066205E+03  0.7561462E-02  0.1144271E+00
          3   -1    0    0  501    0  0.00000000000E+00  0.00000000000E+00  0.22215792298E+03  0.22215792298E+03  0.00000000000E+00 0. -1.
         -3   -1    0    0    0  501 -0.00000000000E+00 -0.00000000000E+00 -0.32430308615E+03  0.32430308615E+03  0.00000000000E+00 0.  1.
          5    1    1    2  502    0  0.45409065385E+02  0.69606653637E+01 -0.22243067666E+02  0.51211917955E+02  0.41800000000E+01 0.  1.
         -5    1    1    2    0  502  0.18995536309E+00  0.17697412982E+03 -0.18827345753E+03  0.25842648069E+03  0.41800000000E+01 0.  1.
        -11    1    1    2    0    0 -0.38028334052E+02 -0.12464807463E+03  0.11857330594E+03  0.17619002691E+03  0.00000000000E+00 0. -1.
         11    1    1    2    0    0 -0.75706866963E+01 -0.59286720559E+02 -0.10201943918E+02  0.60632583578E+02  0.00000000000E+00 0.  1.
</event>
<event>
 6    1  0.6447971E-006  0.1499694E+03  0.7561462E-02  0.1200511E+00
         -1   -1    0    0    0  501 -0.00000000000E+00  0.00000000000E+00  0.48250337446E+02  0.48250337446E+02  0.00000000000E+00 0.  1.
          1   -1    0    0  501    0  0.00000000000E+00 -0.00000000000E+00 -0.66296664434E+03  0.66296664434E+03  0.00000000000E+00 0. -1.
          5    1    1    2  502    0 -0.87078635386E+02 -0.35260834967E+02 -0.20152197665E+03  0.22238389037E+03  0.41800000000E+01 0.  1.
         -5    1    1    2    0  502 -0.40329517025E+01 -0.59888584717E+02 -0.18509602687E+02  0.62952244364E+02  0.41800000000E+01 0.  1.
        -11    1    1    2    0    0  0.15192995858E+02  0.60317726419E+02 -0.86273084730E+02  0.10635835836E+03  0.00000000000E+00 0.  1.
         11    1    1    2    0    0  0.75918591230E+02  0.34831693266E+02 -0.30841164282E+03  0.31952248869E+03  0.00000000000E+00 0. -1.
</event>
<event>
 6    1  0.6447971E-006  0.1624261E+03  0.7561462E-02  0.1185985E+00
          2   -1    0    0  501    0  0.00000000000E+00  0.00000000000E+00  0.57801265993E+03  0.57801265993E+03  0.00000000000E+00 0. -1.
         -2   -1    0    0    0  501 -0.00000000000E+00 -0.00000000000E+00 -0.96120310869E+02  0.96120310869E+02  0.00000000000E+00 0.  1.
          5    1    1    2  502    0 -0.81793608722E+02  0.62257820307E+01  0.56496896274E+02  0.99691155467E+02  0.41800000000E+01 0. -1.
         -5    1    1    2    0  502 -0.35024092303E+02  0.86183025622E+02 -0.27194346723E+02  0.97011369646E+02  0.41800000000E+01 0. -1.
        -11    1    1    2    0    0  0.36313287555E+02 -0.20792410983E+02  0.91643712393E+02  0.10074497123E+03  0.00000000000E+00 0.  1.
         11    1    1    2    0    0  0.80504413470E+02 -0.71616396669E+02  0.36094608712E+03  0.37668547446E+03  0.00000000000E+00 0. -1.
</event>
<event>
 6    1  0.6447971E-006  0.1132784E+03  0.7561462E-02  0.1254616E+00
         -1   -1    0    0    0  501 -0.00000000000E+00  0.00000000000E+00  0.20431601668E+03  0.20431601668E+03  0.00000000000E+00 0.  1.
          1   -1    0    0  501    0  0.00000000000E+00 -0.00000000000E+00 -0.85818239328E+02  0.85818239328E+02  0.00000000000E+00 0. -1.
          5    1    1    2  502    0  0.21499132032E+02 -0.44282394822E+02  0.90294199729E+02  0.10292549769E+03  0.41800000000E+01 0.  1.
         -5    1    1    2    0  502 -0.56047661767E+02 -0.23225976190E+02 -0.13486481913E+02  0.62290801519E+02  0.41800000000E+01 0.  1.
        -11    1    1    2    0    0 -0.24568268533E+02 -0.25187698901E+01  0.11950793721E+01  0.24725942554E+02  0.00000000000E+00 0. -1.
         11    1    1    2    0    0  0.59116798268E+02  0.70027140902E+02  0.40494980162E+02  0.10019201425E+03  0.00000000000E+00 0.  1.
</event>
<event>
 6    1  0.6447971E-006  0.6901471E+02  0.7561462E-02  0.1363476E+00
          2   -1    0    0  501    0  0.00000000000E+00  0.00000000000E+00  0.27368658202E+03  0.27368658202E+03  0.00000000000E+00 0. -1.
         -2   -1    0    0    0  501 -0.00000000000E+00 -0.00000000000E+00 -0.48987162248E+02  0.48987162248E+02  0.00000000000E+00 0.  1.
          5    1    1    2  502    0 -0.10087233762E+02 -0.12419723117E+02  0.89365999764E+02  0.90883200434E+02  0.41800000000E+01 0. -1.
         -5    1    1    2    0  502  0.40529233997E+02 -0.14363031665E+02 -0.19598891793E+02  0.47439481938E+02  0.41800000000E+01 0.  1.
        -11    1    1    2    0    0  0.20170540331E+02 -0.16510574711E+01  0.14883489320E+01  0.20292655582E+02  0.00000000000E+00 0.  1.
         11    1    1    2    0    0 -0.50612540566E+02  0.28433812254E+02  0.15344396287E+03  0.16405840631E+03  0.00000000000E+00 0. -1.
</event>
<event>
 6    1  0.6447971E-006  0.1249977E+03  0.7561462E-02  0.1235073E+00
         -2   -1    0    0    0  501 -0.00000000000E+00  0.00000000000E+00  0.47296424312E+03  0.47296424312E+03  0.00000000000E+00 0.  1.
          2   -1    0    0  501    0  0.00000000000E+00 -0.00000000000E+00 -0.36330466315E+02  0.36330466315E+02  0.00000000000E+00 0. -1.
          5    1    1    2  502    0  0.10566484423E+03  0.22003735453E+01  0.13215672572E+03  0.16927130147E+03  0.41800000000E+01 0.  1.
         -5    1    1    2    0  502 -0.33551425677E+02 -0.36285740035E+01  0.84628555078E+02  0.91204876234E+02  0.41800000000E+01 0.  1.
        -11    1    1    2    0    0  0.17165043722E+02 -0.10540382691E+02  0.79799094091E+02  0.82302088740E+02  0.00000000000E+00 0.  1.
         11    1    1    2    0    0 -0.89278462273E+02  0.11968583149E+02  0.14004940192E+03  0.16651644299E+03  0.00000000000E+00 0. -1.
</event>
<event>
 6    1  0.6447971E-006  0.1087019E+03  0.7561462E-02  0.1262993E+00
          1   -1    0    0  501    0  0.00000000000E+00  0.00000000000E+00  0.35864706017E+03  0.35864706017E+03  0.00000000000E+00 0. -1.
         -1   -1    0    0    0  501 -0.00000000000E+00 -0.00000000000E+00 -0.39981838627E+02  0.39981838627E+02  0.00000000000E+00 0.  1.
          5    1    1    2  502    0 -0.37765994310E+02 -0.42585911556E+02  0.37575691410E+02  0.68331802070E+02  0.41800000000E+01 0. -1.
         -5    1    1    2    0  502  0.59286210601E+02  0.35168651159E+02  0.68203902667E+02  0.97061493553E+02  0.41800000000E+01 0. -1.
        -11    1    1    2    0    0 -0.55931900851E+02 -0.61499682595E+00  0.95803969935E+02  0.11093762396E+03  0.00000000000E+00 0.  1.
         11    1    1    2    0    0  0.34411684560E+02  0.80322572231E+01  0.11708165753E+03  0.12229797922E+03  0.00000000000E+00 0. -1.
</event>
<event>
 6    1  0.6447971E-006  0.1103338E+03  0.7561462E-02  0.1259953E+00
          1   -1    0    0  501    0  0.00000000000E+00  0.00000000000E+00  0.92424700930E+03  0.92424700930E+03  0.00000000000E+00 0. -1.
         -1   -1    0    0    0  501 -0.00000000000E+00 -0.00000000000E+00 -0.13261708903E+02  0.13261708903E+02  0.00000000000E+00 0.  1.
          5    1    1    2  502    0  0.36666951237E+02 -0.39879299465E+02  0.19364010494E+03  0.20111883671E+03  0.41800000000E+01 0. -1.
         -5    1    1    2    0  502 -0.49577817056E+02  0.51410477925E+02  0.30093320465E+03  0.30932064795E+03  0.41800000000E+01 0. -1.
        -11    1    1    2    0    0  0.22450248191E+02  0.38114603885E+02  0.19895621177E+03  0.20381440301E+03  0.00000000000E+00 0. -1.
         11    1    1    2    0    0 -0.95393823721E+01 -0.49645782345E+02  0.21745577904E+03  0.22325483054E+03  0.00000000000E+00 0.  1.
</event>
<event>
 6    1  0.6447971E-006  0.1174943E+03  0.7561462E-02  0.1247289E+00
          1   -1    0    0  501    0  0.00000000000E+00  0.00000000000E+00  0.29207103298E+03  0.29207103298E+03  0.00000000000E+00 0. -1.
         -1   -1    0    0    0  501 -0.00000000000E+00 -0.00000000000E+00 -0.62128856928E+02  0.62128856928E+02  0.00000000000E+00 0.  1.
          5    1    1    2  502    0  0.55501423095E+02  0.26025369626E+02  0.39713292137E+02  0.73159728007E+02  0.41800000000E+01 0.  1.
         -5    1    1    2    0  502 -0.66867751194E+02  0.29335049753E+02  0.13982735968E+02  0.74463619298E+02  0.41800000000E+01 0.  1.
        -11    1    1    2    0    0  0.16801626470E+02 -0.76631845952E+02  0.99253480146E+02  0.12651477300E+03  0.00000000000E+00 0.  1.
         11    1    1    2    0    0 -0.54352983702E+01  0.21271426573E+02  0.76992667802E+02  0.80061769604E+02  0.00000000000E+00 0. -1.
</event>
<event>
 6    1  0.6447971E-006  0.1091294E+03  0.7561462E-02  0.1262191E+00
         -2   -1    0    0    0  501 -0.00000000000E+00  0.00000000000E+00  0.20859231512E+02  0.20859231512E+02  0.00000000000E+00 0.  1.
          2   -1    0    0  501    0  0.00000000000E+00 -0.00000000000E+00 -0.75312670858E+03  0.75312670858E+03  0.00000000000E+00 0. -1.
          5    1    1    2  502    0  0.46382069622E+02  0.34801060451E+01 -0.19997791709E+03  0.20535833863E+03  0.41800000000E+01 0. -1.
         -5    1    1    2    0  502 -0.77427668363E+02  0.10660155526E+02 -0.10373935727E+03  0.12995387409E+03  0.41800000000E+01 0.  1.
        -11    1    1    2    0    0  0.58314049777E+02  0.70724197705E+01 -0.28914194981E+03  0.29504849544E+03  0.00000000000E+00 0. -1.
         11    1    1    2    0    0 -0.27268451035E+02 -0.21212681341E+02 -0.13940825289E+03  0.14362523192E+03  0.00000000000E+00 0.  1.
</event>
<event>
 6    1  0.6447971E-006  0.1112602E+03  0.7561462E-02  0.1258254E+00
          2   -1    0    0  501    0  0.00000000000E+00  0.00000000000E+00  0.34885760596E+02  0.34885760596E+02  0.00000000000E+00 0.  1.
         -2   -1    0    0    0  501 -0.00000000000E+00 -0.00000000000E+00 -0.51679157778E+03  0.51679157778E+03  0.00000000000E+00 0. -1.
          5    1    1    2  502    0 -0.53074378029E+02 -0.70883247691E+02 -0.30804358148E+03  0.32054585459E+03  0.41800000000E+01 0. -1.
         -5    1    1    2    0  502  0.24713645903E+02  0.26371818577E+02 -0.46076166737E+02  0.58708795338E+02  0.41800000000E+01 0. -1.
        -11    1    1    2    0    0  0.43867321793E+02 -0.63412781026E+01 -0.10613582289E+03  0.11501898378E+03  0.00000000000E+00 0. -1.
         11    1    1    2    0    0 -0.15506589667E+02  0.50852707216E+02 -0.21650246083E+02  0.57403704669E+02  0.00000000000E+00 0.  1.
</event>
<event>
 6    1  0.6447971E-006  0.3073013E+03  0.7561462E-02  0.1081647E+00
         -1   -1    0    0    0  501 -0.00000000000E+00  0.00000000000E+00  0.87097774468E+02  0.87097774468E+02  0.00000000000E+00 0.  1.
          1   -1    0    0  501    0  0.00000000000E+00 -0.00000000000E+00 -0.11423521974E+04  0.11423521974E+04  0.00000000000E+00 0. -1.
          5    1    1    2  502    0  0.26015696530E+03  0.40911269110E+02 -0.47746265483E+03  0.54529206641E+03  0.41800000000E+01 0. -1.
         -5    1    1    2    0  502  0.23320689736E+02  0.42754806785E+02 -0.37967191547E+02  0.61893522334E+02  0.41800000000E+01 0. -1.
        -11    1    1    2    0    0 -0.70555337235E+02 -0.50684400502E+02 -0.99757380984E+02  0.13228189267E+03  0.00000000000E+00 0.  1.
         11    1    1    2    0    0 -0.21292231781E+03 -0.32981675393E+02 -0.44006719555E+03  0.48998249043E+03  0.00000000000E+00 0. -1.
</event>
<event>
 6    1  0.6447971E-006  0.1677587E+03  0.7561462E-02  0.1180206E+00
          1   -1    0    0  501    0  0.00000000000E+00  0.00000000000E+00  0.15504874418E+03  0.15504874418E+03  0.00000000000E+00 0. -1.
         -1   -1    0    0    0  501 -0.00000000000E+00 -0.00000000000E+00 -0.32594733206E+03  0.32594733206E+03  0.00000000000E+00 0.  1.
          5    1    1    2  502    0  0.37951963188E+02  0.13850715567E+02  0.12789822874E+02  0.42582223999E+02  0.41800000000E+01 0. -1.
         -5    1    1    2    0  502  0.10853628584E+03  0.56065251261E+02 -0.20330633747E+03  0.23722221017E+03  0.41800000000E+01 0. -1.
        -11    1    1    2    0    0 -0.11144425636E+03 -0.22475735579E+02 -0.36877101313E+02  0.11951946104E+03  0.00000000000E+00 0.  1.
         11    1    1    2    0    0 -0.35043992668E+02 -0.47440231249E+02  0.56495028025E+02  0.81672181033E+02  0.00000000000E+00 0. -1.
</event>
<event>
 6    1  0.6447971E-006  0.1029362E+03  0.7561462E-02  0.1274240E+00
         -1   -1    0    0    0  501 -0.00000000000E+00  0.00000000000E+00  0.86833046004E+02  0.86833046004E+02  0.00000000000E+00 0.  1.
          1   -1    0    0  501    0  0.00000000000E+00 -0.00000000000E+00 -0.16544042720E+03  0.16544042720E+03  0.00000000000E+00 0. -1.
          5    1    1    2  502    0  0.31877796718E+02 -0.98708099095E+01  0.31502360414E+02  0.46081427100E+02  0.41800000000E+01 0. -1.
         -5    1    1    2    0  502 -0.68995921343E+02 -0.79264369029E+01 -0.52750926615E+02  0.87312073751E+02  0.41800000000E+01 0. -1.
        -11    1    1    2    0    0  0.59873330480E+02 -0.15951298796E+02 -0.24736512480E+02  0.66716974494E+02  0.00000000000E+00 0.  1.
         11    1    1    2    0    0 -0.22755205855E+02  0.33748545608E+02 -0.32622302515E+02  0.52162997858E+02  0.00000000000E+00 0. -1.
</event>
<event>
 6    1  0.6447971E-006  0.2529046E+03  0.7561462E-02  0.1111483E+00
          2   -1    0    0  501    0  0.00000000000E+00  0.00000000000E+00  0.66176622378E+03  0.66176622378E+03  0.00000000000E+00 0. -1.
         -2   -1    0    0    0  501 -0.00000000000E+00 -0.00000000000E+00 -0.17242044590E+03  0.17242044590E+03  0.00000000000E+00 0.  1.
          5    1    1    2  502    0 -0.32910497052E+02  0.23808958121E+03  0.40707268880E+03  0.47275299668E+03  0.41800000000E+01 0. -1.
         -5    1    1    2    0  502 -0.15936179028E+01 -0.10038831821E+03 -0.78655607184E+02  0.12761085766E+03  0.41800000000E+01 0.  1.
        -11    1    1    2    0    0  0.44683215861E+02 -0.23895477318E+02  0.76475983247E+02  0.91739629548E+02  0.00000000000E+00 0.  1.
         11    1    1    2    0    0 -0.10179100907E+02 -0.11380578569E+03  0.84452713010E+02  0.14208318580E+03  0.00000000000E+00 0. -1.
</event>
<event>
 6    1  0.6447971E-006  0.6858677E+02  0.7561462E-02  0.1364966E+00
          3   -1    0    0  501    0  0.00000000000E+00  0.00000000000E+00  0.45585570104E+02  0.45585570104E+02  0.00000000000E+00 0. -1.
         -3   -1    0    0    0  501 -0.00000000000E+00 -0.00000000000E+00 -0.25942136351E+03  0.25942136351E+03  0.00000000000E+00 0.  1.
          5    1    1    2  502    0  0.10956222182E+02  0.37134629842E+02 -0.13048105038E+03  0.13616826520E+03  0.41800000000E+01 0. -1.
         -5    1    1    2    0  502 -0.14239500440E+02 -0.46789695271E+02 -0.63310449619E+01  0.49493368108E+02  0.41800000000E+01 0. -1.
        -11    1    1    2    0    0  0.18201779257E+02 -0.12752876661E+02  0.12750011677E+02  0.25622322865E+02  0.00000000000E+00 0. -1.
         11    1    1    2    0    0 -0.14918500998E+02  0.22407942090E+02 -0.89773709739E+02  0.93722977444E+02  0.00000000000E+00 0.  1.
</event>
<event>
 6    1  0.6447971E-006  0.1366548E+03  0.7561462E-02  0.1217902E+00
         -2   -1    0    0    0  501 -0.00000000000E+00  0.00000000000E+00  0.18868945556E+02  0.18868945556E+02  0.00000000000E+00 0.  1.
          2   -1    0    0  501    0  0.00000000000E+00 -0.00000000000E+00 -0.11748847310E+04  0.11748847310E+04  0.00000000000E+00 0. -1.
          5    1    1    2  502    0  0.36758816089E+01 -0.26240766548E+02 -0.44011285893E+02  0.51541785190E+02  0.41800000000E+01 0.  1.
         -5    1    1    2    0  502 -0.66001235290E+02  0.10530224670E+03 -0.54036920184E+03  0.55449172485E+03  0.41800000000E+01 0.  1.
        -11    1    1    2    0    0 -0.12111382314E+02  0.17853254272E+01 -0.11137363282E+02  0.16550342272E+02  0.00000000000E+00 0.  1.
         11    1    1    2    0    0  0.74436735995E+02 -0.80846805584E+02 -0.56049793446E+03  0.57116982428E+03  0.00000000000E+00 0. -1.
</event>
<event>
 6    1  0.6447971E-006  0.2100395E+03  0.7561462E-02  0.1141535E+00
          2   -1    0    0  501    0  0.00000000000E+00  0.00000000000E+00  0.60137079190E+02  0.60137079190E+02  0.00000000000E+00 0. -1.
         -2   -1    0    0    0  501 -0.00000000000E+00 -0.00000000000E+00 -0.95361762824E+03  0.95361762824E+03  0.00000000000E+00 0.  1.
          5    1    1    2  502    0 -0.20610437220E+02  0.31563650820E+02 -0.14325061715E+03  0.14818659146E+03  0.41800000000E+01 0. -1.
         -5    1    1    2    0  502  0.16208122347E+03  0.79314917061E+02 -0.55764148731E+03  0.58612514009E+03  0.41800000000E+01 0. -1.
        -11    1    1    2    0    0 -0.68030254942E+02  0.75062820100E+00 -0.77145769180E+02  0.10285984995E+03  0.00000000000E+00 0. -1.
         11    1    1    2    0    0 -0.73440531309E+02 -0.11162919608E+03 -0.11544267541E+03  0.17658312593E+03  0.00000000000E+00 0.  1.
</event>
<event>
 6    1  0.6447971E-006  0.1218338E+03  0.7561462E-02  0.1240102E+00
          2   -1    0    0  501    0  0.00000000000E+00  0.00000000000E+00  0.44716287768E+03  0.44716287768E+03  0.00000000000E+00 0. -1.
         -2   -1    0    0    0  501 -0.00000000000E+00 -0.00000000000E+00 -0.41483502815E+02  0.41483502815E+02  0.00000000000E+00 0.  1.
          5    1    1    2  502    0  0.30500775807E+02  0.13707414196E+02  0.93175528537E+01  0.34963977461E+02  0.41800000000E+01 0.  1.
         -5    1    1    2    0  502 -0.79458603900E+02  0.52611007118E+02  0.20987239635E+03  0.23053304091E+03  0.41800000000E+01 0.  1.
        -11    1    1    2    0    0  0.64391522449E+02 -0.22642562853E+02  0.14778171876E+03  0.16278326147E+03  0.00000000000E+00 0. -1.
         11    1    1    2    0    0 -0.15433694357E+02 -0.43675858460E+02  0.38707706901E+02  0.60366100646E+02  0.00000000000E+00 0.  1.
</event>
<event>
 6    1  0.6447971E-006  0.1143949E+03  0.7561462E-02  0.1252641E+00
         -3   -1    0    0    0  501 -0.00000000000E+00  0.00000000000E+00  0.57882816438E+03  0.57882816438E+03  0.00000000000E+00 0.  1.
          3   -1    0    0  501    0  0.00000000000E+00 -0.00000000000E+00 -0.29122897504E+02  0.29122897504E+02  0.00000000000E+00 0. -1.
          5    1    1    2  502    0 -0.57622279528E+02 -0.68768611196E+02  0.20406150390E+03  0.22295295189E+03  0.41800000000E+01 0. -1.
         -5    1    1    2    0  502  0.31461161436E+02  0.19259785669E+02  0.20843503900E+03  0.21171533224E+03  0.41800000000E+01 0. -1.
        -11    1    1    2    0    0 -0.87153617242E+01 -0.21246922620E+02  0.53713099628E+02  0.58416490158E+02  0.00000000000E+00 0.  1.
         11    1    1    2    0    0  0.34876479816E+02  0.70755748146E+02  0.83495624355E+02  0.11486628760E+03  0.00000000000E+00 0. -1.
</event>
<event>
 6    1  0.6447971E-006  0.1167269E+03  0.7561462E-02  0.1248596E+00
          1   -1    0    0  501    0  0.00000000000E+00  0.00000000000E+00  0.28134026442E+02  0.28134026442E+02  0.00000000000E+00 0. -1.
         -1   -1    0    0    0  501 -0.00000000000E+00 -0.00000000000E+00 -0.78949165380E+03  0.78949165380E+03  0.00000000000E+00 0.  1.
          5    1    1    2  502    0  0.86731880305E+01  0.25747938397E+02 -0.37374281026E+02  0.46394932962E+02  0.41800000000E+01 0. -1.
         -5    1    1    2    0  502  0.16957945349E+02 -0.94926260848E+02 -0.56891803560E+03  0.57704745952E+03  0.41800000000E+01 0. -1.
        -11    1    1    2    0    0 -0.49737328553E+02  0.69345698338E+02 -0.86531211822E+02  0.12153303398E+03  0.00000000000E+00 0.  1.
         11    1    1    2    0    0  0.24106195173E+02 -0.16737588747E+00 -0.68534098914E+02  0.72650253781E+02  0.00000000000E+00 0. -1.
</event>
<event>
 6    1  0.6447971E-006  0.1771979E+03  0.7561462E-02  0.1170543E+00
         -3   -1    0    0    0  501 -0.00000000000E+00  0.00000000000E+00  0.64322794645E+02  0.64322794645E+02  0.00000000000E+00 0.  1.
          3   -1    0    0  501    0  0.00000000000E+00 -0.00000000000E+00 -0.53684732247E+03  0.53684732247E+03  0.00000000000E+00 0. -1.
          5    1    1    2  502    0 -0.76426529365E+02  0.11677328966E+02 -0.18131199021E+03  0.19715193277E+03  0.41800000000E+01 0. -1.
         -5    1    1    2    0  502 -0.18067935783E+02 -0.11093236434E+03 -0.89538098551E+02  0.14376015878E+03  0.41800000000E+01 0.  1.
        -11    1    1    2    0    0 -0.92275432182E+01 -0.10165624984E+02 -0.17489828150E+02  0.22234693024E+02  0.00000000000E+00 0.  1.
         11    1    1    2    0    0  0.10372200837E+03  0.10942066036E+03 -0.18418461092E+03  0.23802333254E+03  0.00000000000E+00 0. -1.
</event>
<event>
 6    1  0.6447971E-006  0.1800464E+03  0.7561462E-02  0.1167758E+00
         -2   -1    0    0    0  501 -0.00000000000E+00  0.00000000000E+00  0.64315693524E+03  0.64315693524E+03  0.00000000000E+00 0. -1.
          2   -1    0    0  501    0  0.00000000000E+00 -0.00000000000E+00 -0.59791690212E+02  0.59791690212E+02  0.00000000000E+00 0.  1.
          5    1    1    2  502    0 -0.15676373475E+02 -0.16662331891E+03  0.30840076669E+03  0.35090965274E+03  0.41800000000E+01 0. -1.
         -5    1    1    2    0  502 -0.28143457010E+02  0.10187350594E+02  0.19987520451E+02  0.36232715305E+02  0.41800000000E+01 0. -1.
        -11    1    1    2    0    0  0.27091045962E+02  0.94872436437E+02  0.72326078395E+02  0.12233464588E+03  0.00000000000E+00 0.  1.
         11    1    1    2    0    0  0.16728784523E+02  0.61563531877E+02  0.18265087949E+03  0.19347161153E+03  0.00000000000E+00 0. -1.
</event>
<event>
 6    1  0.6447971E-006  0.1685760E+03  0.7561462E-02  0.1179341E+00
          2   -1    0    0  501    0  0.00000000000E+00  0.00000000000E+00  0.13543086105E+04  0.13543086105E+04  0.00000000000E+00 0. -1.
         -2   -1    0    0    0  501 -0.00000000000E+00 -0.00000000000E+00 -0.27291975450E+02  0.27291975450E+02  0.00000000000E+00 0.  1.
          5    1    1    2  502    0  0.74667280603E+01 -0.11721638023E+03  0.22444816955E+03  0.25335722811E+03  0.41800000000E+01 0.  1.
         -5    1    1    2    0  502 -0.25890800626E+01 -0.40501579522E+02  0.41610242194E+03  0.41809781059E+03  0.41800000000E+01 0.  1.
        -11    1    1    2    0    0  0.27582308206E+02  0.12965776895E+02  0.75321550139E+02  0.81254113815E+02  0.00000000000E+00 0.  1.
         11    1    1    2    0    0 -0.32459956203E+02  0.14475218286E+03  0.61114449339E+03  0.62889143340E+03  0.00000000000E+00 0. -1.
</event>
<event>
 6    1  0.6447971E-006  0.8908957E+02  0.7561462E-02  0.1305072E+00
         -2   -1    0    0    0  501 -0.00000000000E+00  0.00000000000E+00  0.32544361941E+02  0.32544361941E+02  0.00000000000E+00 0.  1.
          2   -1    0    0  501    0  0.00000000000E+00 -0.00000000000E+00 -0.43278781727E+03  0.43278781727E+03  0.00000000000E+00 0. -1.
          5    1    1    2  502    0  0.26941488484E+02 -0.33793502205E+02 -0.23701547056E+03  0.24095985201E+03  0.41800000000E+01 0. -1.
         -5    1    1    2    0  502  0.21031278175E+02  0.26783490138E+02 -0.35609367570E+01  0.34493806346E+02  0.41800000000E+01 0. -1.
        -11    1    1    2    0    0 -0.43287111808E+01 -0.37712511438E+02 -0.80660915073E+02  0.89146814188E+02  0.00000000000E+00 0.  1.
         11    1    1    2    0    0 -0.43644055478E+02  0.44722523504E+02 -0.79006132938E+02  0.10073170667E+03  0.00000000000E+00 0. -1.
</event>
<event>
 6    1  0.6447971E-006  0.1645563E+03  0.7561462E-02  0.1183647E+00
         -1   -1    0    0    0  501 -0.00000000000E+00  0.00000000000E+00  0.72986022604E+02  0.72986022604E+02  0.00000000000E+00 0.  1.
          1   -1    0    0  501    0  0.00000000000E+00 -0.00000000000E+00 -0.74247373012E+03  0.74247373012E+03  0.00000000000E+00 0. -1.
          5    1    1    2  502    0  0.95229504295E+02  0.78127059378E+02 -0.92190123386E+02  0.15391227094E+03  0.41800000000E+01 0.  1.
         -5    1    1    2    0  502  0.34681940166E+02 -0.31114951132E+02  0.13048833475E+02  0.48566671831E+02  0.41800000000E+01 0.  1.
        -11    1    1    2    0    0 -0.32238546851E+02 -0.52112271557E+02 -0.31173615488E+03  0.31770181462E+03  0.00000000000E+00 0.  1.
         11    1    1    2    0    0 -0.97672897611E+02  0.51001633104E+01 -0.27861026273E+03  0.29527899534E+03  0.00000000000E+00 0. -1.
</event>
<event>
 6    1  0.6447971E-006  0.2254504E+03  0.7561462E-02  0.1129884E+00
         -1   -1    0    0    0  501 -0.00000000000E+00  0.00000000000E+00  0.56589146380E+02  0.56589146380E+02  0.00000000000E+00 0.  1.
          1   -1    0    0  501    0  0.00000000000E+00 -0.00000000000E+00 -0.91964976286E+03  0.91964976286E+03  0.00000000000E+00 0. -1.
          5    1    1    2  502    0  0.15453586617E+02 -0.17373228007E+02 -0.84717813774E+02  0.87950115187E+02  0.41800000000E+01 0.  1.
         -5    1    1    2    0  502  0.98726430699E+02  0.18335669729E+03 -0.35273912163E+03  0.40964490341E+03  0.41800000000E+01 0.  1.
        -11    1    1    2    0    0 -0.90696131420E+02 -0.56146950162E+02 -0.20469044995E+03  0.23081691569E+03  0.00000000000E+00 0. -1.
         11    1    1    2    0    0 -0.23483885897E+02 -0.10983651912E+03 -0.22091323113E+03  0.24782697496E+03  0.00000000000E+00 0.  1.
</event>
<event>
 6    1  0.6447971E-006  0.1170262E+03  0.7561462E-02  0.1248085E+00
          2   -1    0    0  501    0  0.00000000000E+00  0.00000000000E+00  0.60992239747E+02  0.60992239747E+02  0.00000000000E+00 0. -1.
         -2   -1    0    0    0  501 -0.00000000000E+00 -0.00000000000E+00 -0.38316977080E+03  0.38316977080E+03  0.00000000000E+00 0.  1.
          5    1    1    2  502    0  0.27403325889E+02  0.10355203504E+02 -0.18467325861E+03  0.18702902811E+03  0.41800000000E+01 0. -1.
         -5    1    1    2    0  502  0.42828499212E+02 -0.74055428578E+02 -0.63521070481E+02  0.10663435488E+03  0.41800000000E+01 0. -1.
        -11    1    1    2    0    0 -0.39864931163E+02 -0.82546179619E+01  0.30183825031E+01  0.40822323394E+02  0.00000000000E+00 0. -1.
         11    1    1    2    0    0 -0.30366893938E+02  0.71954843037E+02 -0.77001584465E+02  0.10967630416E+03  0.00000000000E+00 0.  1.
</event>
<event>
 6    1  0.6447971E-006  0.8835079E+02  0.7561462E-02  0.1306895E+00
          1   -1    0    0  501    0  0.00000000000E+00  0.00000000000E+00  0.32171599752E+03  0.32171599752E+03  0.00000000000E+00 0.  1.
         -1   -1    0    0    0  501 -0.00000000000E+00 -0.00000000000E+00 -0.71542728117E+02  0.71542728117E+02  0.00000000000E+00 0. -1.
          5    1    1    2  502    0 -0.25952494922E+02  0.15057146551E+02 -0.35004217091E+02  0.46292734517E+02  0.41800000000E+01 0.  1.
         -5    1    1    2    0  502  0.38718890472E+02 -0.62325414731E+02  0.49952568473E+02  0.88861359981E+02  0.41800000000E+01 0.  1.
        -11    1    1    2    0    0 -0.30598154346E+02  0.11026087760E+02  0.18033069331E+02  0.37188886111E+02  0.00000000000E+00 0. -1.
         11    1    1    2    0    0  0.17831758797E+02  0.36242180419E+02  0.21719184870E+03  0.22091574503E+03  0.00000000000E+00 0.  1.
</event>
<event>
 6    1  0.6447971E-006  0.1037531E+03  0.7561462E-02  0.1272596E+00
          1   -1    0    0  501    0  0.00000000000E+00  0.00000000000E+00  0.60714145424E+02  0.60714145424E+02  0.00000000000E+00 0. -1.
         -1   -1    0    0    0  501 -0.00000000000E+00 -0.00000000000E+00 -0.42109081242E+03  0.42109081242E+03  0.00000000000E+00 0.  1.
          5    1    1    2  502    0 -0.17664885213E+02  0.76995287359E+02 -0.12871812208E+03  0.15108325452E+03  0.41800000000E+01 0.  1.
         -5    1    1    2    0  502  0.48556250066E+02 -0.17270436276E+02 -0.20879049068E+03  0.21509746346E+03  0.41800000000E+01 0.  1.
        -11    1    1    2    0    0  0.25238817977E+01 -0.35088668955E+02  0.31497902880E+02  0.47219726325E+02  0.00000000000E+00 0. -1.
         11    1    1    2    0    0 -0.33415246650E+02 -0.24636182129E+02 -0.54365957108E+02  0.68404513527E+02  0.00000000000E+00 0.  1.
</event>
<event>
 6    1  0.6447971E-006  0.9783529E+02  0.7561462E-02  0.1284915E+00
         -2   -1    0    0    0  501 -0.00000000000E+00  0.00000000000E+00  0.60523669684E+02  0.60523669684E+02  0.00000000000E+00 0.  1.
          2   -1    0    0  501    0  0.00000000000E+00 -0.00000000000E+00 -0.24658694337E+03  0.24658694337E+03  0.00000000000E+00 0. -1.
          5    1    1    2  502    0  0.49079777964E+02 -0.51326323226E+02 -0.10008228946E+03  0.12278905946E+03  0.41800000000E+01 0.  1.
         -5    1    1    2    0  502  0.36276332819E+01  0.38615111901E+02  0.10655582824E+02  0.40438848100E+02  0.41800000000E+01 0.  1.
        -11    1    1    2    0    0 -0.66560387028E+02  0.20479713516E+02 -0.10495214512E+03  0.12595497827E+03  0.00000000000E+00 0. -1.
         11    1    1    2    0    0  0.13852975782E+02 -0.77685021904E+01  0.83155780718E+01  0.17927727212E+02  0.00000000000E+00 0.  1.
</event>
<event>
 6    1  0.6447971E-006  0.1034179E+03  0.7561462E-02  0.1273268E+00
          1   -1    0    0  501    0  0.00000000000E+00  0.00000000000E+00  0.33614975250E+02  0.33614975250E+02  0.00000000000E+00 0. -1.
         -1   -1    0    0    0  501 -0.00000000000E+00 -0.00000000000E+00 -0.76355760420E+03  0.76355760420E+03  0.00000000000E+00 0.  1.
          5    1    1    2  502    0  0.36870094409E+02 -0.67192853099E+02 -0.14248569267E+03  0.16184538420E+03  0.41800000000E+01 0. -1.
         -5    1    1    2    0  502  0.84733815803E+01  0.24585996185E+02 -0.48213790696E+03  0.48285681432E+03  0.41800000000E+01 0.  1.
        -11    1    1    2    0    0  0.23782421680E+02  0.27369613602E+01 -0.53018327728E+01  0.24519461030E+02  0.00000000000E+00 0. -1.
         11    1    1    2    0    0 -0.69125897670E+02  0.39869895553E+02 -0.10001719654E+03  0.12795091990E+03  0.00000000000E+00 0.  1.
</event>
<event>
 6    1  0.6447971E-006  0.3856889E+02  0.7561462E-02  0.1519015E+00
         -1   -1    0    0    0  501 -0.00000000000E+00  0.00000000000E+00  0.20831083840E+03  0.20831083840E+03  0.00000000000E+00 0.  1.
          1   -1    0    0  501    0  0.00000000000E+00 -0.00000000000E+00 -0.65738009494E+02  0.65738009494E+02  0.00000000000E+00 0. -1.
          5    1    1    2  502    0  0.36887734359E+01 -0.23106371105E+02  0.14141059168E+03  0.14339434883E+03  0.41800000000E+01 0.  1.
         -5    1    1    2    0  502  0.17218855061E+02 -0.16255819310E+01 -0.24890100692E+02  0.30596094501E+02  0.41800000000E+01 0.  1.
        -11    1    1    2    0    0 -0.18507294133E+02  0.10779696968E+02 -0.32995389859E+02  0.39337228610E+02  0.00000000000E+00 0. -1.
         11    1    1    2    0    0 -0.24003343640E+01  0.13952256068E+02  0.59047727768E+02  0.60721175952E+02  0.00000000000E+00 0.  1.
</event>
<event>
 6    1  0.6447971E-006  0.4157784E+03  0.7561462E-02  0.1038449E+00
         -2   -1    0    0    0  501 -0.00000000000E+00  0.00000000000E+00  0.95159436733E+02  0.95159436733E+02  0.00000000000E+00 0.  1.
          2   -1    0    0  501    0  0.00000000000E+00 -0.00000000000E+00 -0.22924960625E+04  0.22924960625E+04  0.00000000000E+00 0. -1.
          5    1    1    2  502    0  0.14702390610E+03  0.35462721724E+03 -0.62517151078E+03  0.73364390712E+03  0.41800000000E+01 0. -1.
         -5    1    1    2    0  502  0.12591740252E+02  0.27133567354E+02 -0.51074759815E+01  0.30632353988E+02  0.41800000000E+01 0. -1.
        -11    1    1    2    0    0 -0.96506546180E+02 -0.29329908018E+03 -0.12722513591E+04  0.13091834801E+04  0.00000000000E+00 0. -1.
         11    1    1    2    0    0 -0.63109100173E+02 -0.88461704412E+02 -0.29480627995E+03  0.31419575804E+03  0.00000000000E+00 0.  1.
</event>
<event>
 6    1  0.6447971E-006  0.9805404E+02  0.7561462E-02  0.1284442E+00
          2   -1    0    0  501    0  0.00000000000E+00  0.00000000000E+00  0.16379724009E+03  0.16379724009E+03  0.00000000000E+00 0.  1.
         -2   -1    0    0    0  501 -0.00000000000E+00 -0.00000000000E+00 -0.84945065221E+02  0.84945065221E+02  0.00000000000E+00 0. -1.
          5    1    1    2  502    0 -0.30953370119E+02  0.24686983646E+02 -0.13798113058E+02  0.42135716527E+02  0.41800000000E+01 0. -1.
         -5    1    1    2    0  502  0.68542501034E+02 -0.46698227457E+02  0.42941787324E+02  0.93489402577E+02  0.41800000000E+01 0. -1.
        -11    1    1    2    0    0 -0.21795700870E+02  0.42273498089E+02  0.66988774842E+02  0.82155932056E+02  0.00000000000E+00 0.  1.
         11    1    1    2    0    0 -0.15793430045E+02 -0.20262254278E+02 -0.17280274237E+02  0.30961254153E+02  0.00000000000E+00 0. -1.
</event>
<event>
 6    1  0.6447971E-006  0.1734050E+03  0.7561462E-02  0.1174343E+00
         -2   -1    0    0    0  501 -0.00000000000E+00  0.00000000000E+00  0.16884172700E+03  0.16884172700E+03  0.00000000000E+00 0.  1.
          2   -1    0    0  501    0  0.00000000000E+00 -0.00000000000E+00 -0.20931680768E+03  0.20931680768E+03  0.00000000000E+00 0. -1.
          5    1    1    2  502    0 -0.37670266441E+02 -0.27500937214E+02 -0.15907303453E+02  0.49455689506E+02  0.41800000000E+01 0. -1.
         -5    1    1    2    0  502 -0.78936757293E+02  0.11394920218E+03  0.35570689182E+02  0.14317185009E+03  0.41800000000E+01 0. -1.
        -11    1    1    2    0    0  0.80506344461E+02 -0.94671937902E+02 -0.12074218191E+02  0.12485925704E+03  0.00000000000E+00 0.  1.
         11    1    1    2    0    0  0.36100679273E+02  0.82236729406E+01 -0.48064248221E+02  0.60671738047E+02  0.00000000000E+00 0. -1.
</event>
<event>
 6    1  0.6447971E-006  0.1092127E+03  0.7561462E-02  0.1262035E+00
          1   -1    0    0  501    0  0.00000000000E+00  0.00000000000E+00  0.10452134256E+03  0.10452134256E+03  0.00000000000E+00 0. -1.
         -1   -1    0    0    0  501 -0.00000000000E+00 -0.00000000000E+00 -0.31010485177E+03  0.31010485177E+03  0.00000000000E+00 0.  1.
          5    1    1    2  502    0  0.17164304663E+01  0.74790373713E+02 -0.21665537070E+03  0.22924565031E+03  0.41800000000E+01 0. -1.
         -5    1    1    2    0  502 -0.42980940794E+02 -0.24682133890E+02 -0.41110502006E+02  0.64529952581E+02  0.41800000000E+01 0. -1.
        -11    1    1    2    0    0  0.43134072269E+02 -0.65405314136E+02  0.64212780744E+02  0.10129997294E+03  0.00000000000E+00 0. -1.
         11    1    1    2    0    0 -0.18695619406E+01  0.15297074313E+02 -0.12030417248E+02  0.19550618495E+02  0.00000000000E+00 0.  1.
</event>
<event>
 6    1  0.6447971E-006  0.1600768E+03  0.7561462E-02  0.1188610E+00
         -2   -1    0    0    0  501 -0.00000000000E+00  0.00000000000E+00  0.87110418539E+02  0.87110418539E+02  0.00000000000E+00 0.  1.
          2   -1    0    0  501    0  0.00000000000E+00 -0.00000000000E+00 -0.72092515595E+03  0.72092515595E+03  0.00000000000E+00 0. -1.
          5    1    1    2  502    0  0.17005038972E+02  0.48411979350E+02 -0.41641610800E+02  0.66214705655E+02  0.41800000000E+01 0. -1.
         -5    1    1    2    0  502 -0.91848366177E+02 -0.98042773516E+02  0.21116576143E+00  0.13440991332E+03  0.41800000000E+01 0.  1.
        -11    1    1    2    0    0 -0.92349698894E+01 -0.21967089173E+02 -0.10239003256E+03  0.10512638319E+03  0.00000000000E+00 0.  1.
         11    1    1    2    0    0  0.84078297094E+02  0.71597883338E+02 -0.48999425981E+03  0.50228457232E+03  0.00000000000E+00 0. -1.
</event>
<event>
 6    1  0.6447971E-006  0.1358148E+03  0.7561462E-02  0.1219074E+00
         -2   -1    0    0    0  501 -0.00000000000E+00  0.00000000000E+00  0.92002817589E+02  0.92002817589E+02  0.00000000000E+00 0.  1.
          2   -1    0    0  501    0  0.00000000000E+00 -0.00000000000E+00 -0.29544680038E+03  0.29544680038E+03  0.00000000000E+00 0. -1.
          5    1    1    2  502    0  0.63386456460E+02 -0.84452433724E+02  0.34673513069E+01  0.10573339751E+03  0.41800000000E+01 0. -1.
         -5    1    1    2    0  502  0.34968591958E+02  0.31294735161E+02 -0.49282958067E+02  0.68179507391E+02  0.41800000000E+01 0. -1.
        -11    1    1    2    0    0 -0.69225701794E+02  0.14996060539E+02 -0.14869551573E+03  0.16470408622E+03  0.00000000000E+00 0. -1.
         11    1    1    2    0    0 -0.29129346624E+02  0.38161638024E+02 -0.89328603038E+01  0.48832626845E+02  0.00000000000E+00 0.  1.
</event>
<event>
 6    1  0.6447971E-006  0.1211970E+03  0.7561462E-02  0.1241135E+00
          1   -1    0    0  501    0  0.00000000000E+00  0.00000000000E+00  0.15682216010E+02  0.15682216010E+02  0.00000000000E+00 0.  1.
         -1   -1    0    0    0  501 -0.00000000000E+00 -0.00000000000E+00 -0.10203993248E+04  0.10203993248E+04  0.00000000000E+00 0. -1.
          5    1    1    2  502    0  0.59844207463E+02  0.49538610579E+01 -0.24770292244E+03  0.25491190653E+03  0.41800000000E+01 0.  1.
         -5    1    1    2    0  502 -0.44052582325E+02 -0.62743225260E+02 -0.22665590222E+03  0.23930673358E+03  0.41800000000E+01 0.  1.
        -11    1    1    2    0    0  0.31465607719E+01  0.77804136732E+02 -0.45521541174E+03  0.46182730064E+03  0.00000000000E+00 0. -1.
         11    1    1    2    0    0 -0.18938185910E+02 -0.20014772530E+02 -0.75142872438E+02  0.80035600099E+02  0.00000000000E+00 0.  1.
</event>
<event>
 6    1  0.6447971E-006  0.1327338E+03  0.7561462E-02  0.1223455E+00
          2   -1    0    0  501    0  0.00000000000E+00  0.00000000000E+00  0.10535927178E+03  0.10535927178E+03  0.00000000000E+00 0. -1.
         -2   -1    0    0    0  501 -0.00000000000E+00 -0.00000000000E+00 -0.23976698335E+03  0.23976698335E+03  0.00000000000E+00 0.  1.
          5    1    1    2  502    0 -0.61635431741E+02  0.18472764556E+02 -0.10138076874E+02  0.65271911868E+02  0.41800000000E+01 0.  1.
         -5    1    1    2    0  502  0.14622340060E+02  0.66293691621E+02 -0.12727264102E+03  0.14430683952E+03  0.41800000000E+01 0.  1.
        -11    1    1    2    0    0  0.74402983313E+02 -0.55021399091E+02 -0.99934042444E+01  0.93075380269E+02  0.00000000000E+00 0. -1.
         11    1    1    2    0    0 -0.27389891632E+02 -0.29745057087E+02  0.12996410578E+02  0.42472123477E+02  0.00000000000E+00 0.  1.
</event>
<event>
 6    1  0.6447971E-006  0.1015190E+03  0.7561462E-02  0.1277134E+00
          2   -1    0    0  501    0  0.00000000000E+00  0.00000000000E+00  0.39046393868E+03  0.39046393868E+03  0.00000000000E+00 0. -1.
         -2   -1    0    0    0  501 -0.00000000000E+00 -0.00000000000E+00 -0.45743095958E+02  0.45743095958E+02  0.00000000000E+00 0.  1.
          5    1    1    2  502    0  0.54921857525E+02  0.78951241324E+01  0.56323083387E+00  0.55646500771E+02  0.41800000000E+01 0.  1.
         -5    1    1    2    0  502 -0.14161332767E+02  0.45998639733E+02  0.12511692285E+03  0.13411985307E+03  0.41800000000E+01 0.  1.
        -11    1    1    2    0    0 -0.39646576965E+02  0.51944024464E+01  0.15153048981E+03  0.15671733224E+03  0.00000000000E+00 0.  1.
         11    1    1    2    0    0 -0.11139477931E+01 -0.59088166312E+02  0.67510199232E+02  0.89723348567E+02  0.00000000000E+00 0. -1.
</event>
<event>
 6    1  0.6447971E-006  0.1057396E+03  0.7561462E-02  0.1268669E+00
         -2   -1    0    0    0  501 -0.00000000000E+00  0.00000000000E+00  0.38937438411E+02  0.38937438411E+02  0.00000000000E+00 0.  1.
          2   -1    0    0  501    0  0.00000000000E+00 -0.00000000000E+00 -0.60048073647E+03  0.60048073647E+03  0.00000000000E+00 0. -1.
          5    1    1    2  502    0 -0.23309258717E+02 -0.57439458995E+02 -0.18665483154E+03  0.19672343919E+03  0.41800000000E+01 0. -1.
         -5    1    1    2    0  502 -0.21789163993E+02 -0.17864615033E+02  0.15684906398E+02  0.32517700203E+02  0.41800000000E+01 0. -1.
        -11    1    1    2    0    0 -0.23683451446E+02  0.31147547454E+02 -0.80415553775E+02  0.89430066944E+02  0.00000000000E+00 0.  1.
         11    1    1    2    0    0  0.68781874156E+02  0.44156526574E+02 -0.31015781914E+03  0.32074696854E+03  0.00000000000E+00 0. -1.
</event>
<event>
 6    1  0.6447971E-006  0.1443929E+03  0.7561462E-02  0.1207537E+00
         -2   -1    0    0    0  501 -0.00000000000E+00  0.00000000000E+00  0.14139256735E+03  0.14139256735E+03  0.00000000000E+00 0.  1.
          2   -1    0    0  501    0  0.00000000000E+00 -0.00000000000E+00 -0.20190149837E+03  0.20190149837E+03  0.00000000000E+00 0. -1.
          5    1    1    2  502    0  0.37740250248E+02 -0.12592190111E+03  0.43408502062E+02  0.13850062137E+03  0.41800000000E+01 0. -1.
         -5    1    1    2    0  502  0.94595836633E+00  0.11376405918E+02 -0.33612329572E+02  0.35743230801E+02  0.41800000000E+01 0. -1.
        -11    1    1    2    0    0 -0.63876875998E+02  0.81047450407E+02 -0.73986217782E+02  0.12697600138E+03  0.00000000000E+00 0. -1.
         11    1    1    2    0    0  0.25190667384E+02  0.33498044784E+02  0.36811142681E+01  0.42074212172E+02  0.00000000000E+00 0.  1.
</event>
<event>
 6    1  0.6447971E-006  0.1266047E+03  0.7561462E-02  0.1232582E+00
         -2   -1    0    0    0  501 -0.00000000000E+00  0.00000000000E+00  0.13090369654E+03  0.13090369654E+03  0.00000000000E+00 0.  1.
          2   -1    0    0  501    0  0.00000000000E+00 -0.00000000000E+00 -0.12938082754E+03  0.12938082754E+03  0.00000000000E+00 0. -1.
          5    1    1    2  502    0 -0.35474016226E+02 -0.17273576225E+02  0.20066382021E+02  0.44462504993E+02  0.41800000000E+01 0.  1.
         -5    1    1    2    0  502  0.98990987079E+02 -0.68843699422E+01  0.99375425754E-01  0.99318137054E+02  0.41800000000E+01 0.  1.
        -11    1    1    2    0    0 -0.86096050270E+02  0.80355875968E+01 -0.81954594487E+01  0.86857734807E+02  0.00000000000E+00 0. -1.
         11    1    1    2    0    0  0.22579079417E+02  0.16122358570E+02 -0.10447428997E+02  0.29646147234E+02  0.00000000000E+00 0.  1.
</event>
<event>
 6    1  0.6447971E-006  0.1817039E+03  0.7561462E-02  0.1166164E+00
          2   -1    0    0  501    0  0.00000000000E+00  0.00000000000E+00  0.61503910919E+02  0.61503910919E+02  0.00000000000E+00 0.  1.
         -2   -1    0    0    0  501 -0.00000000000E+00 -0.00000000000E+00 -0.59962101286E+03  0.59962101286E+03  0.00000000000E+00 0. -1.
          5    1    1    2  502    0  0.10913727745E+03  0.10835616891E+02 -0.95773040725E+02  0.14566503923E+03  0.41800000000E+01 0.  1.
         -5    1    1    2    0  502  0.17451664397E+02  0.82182628682E+02 -0.14730739860E+03  0.16963339038E+03  0.41800000000E+01 0.  1.
        -11    1    1    2    0    0 -0.20013068061E+02  0.90526145232E+01 -0.85578203314E+01  0.23573481112E+02  0.00000000000E+00 0.  1.
         11    1    1    2    0    0 -0.10657587379E+03 -0.10207086010E+03 -0.28647884228E+03  0.32225301306E+03  0.00000000000E+00 0. -1.
</event>
<event>
 6    1  0.6447971E-006  0.1041037E+03  0.7561462E-02  0.1271896E+00
         -4   -1    0    0    0  501 -0.00000000000E+00  0.00000000000E+00  0.12978372481E+03  0.12978372481E+03  0.00000000000E+00 0.  1.
          4   -1    0    0  501    0  0.00000000000E+00 -0.00000000000E+00 -0.97527049298E+02  0.97527049298E+02  0.00000000000E+00 0. -1.
          5    1    1    2  502    0 -0.36780720843E+02  0.42890146394E+02  0.57623536200E+01  0.56947899020E+02  0.41800000000E+01 0. -1.
         -5    1    1    2    0  502 -0.53586608416E+00 -0.55945797478E+02  0.39939078999E+02  0.68868148219E+02  0.41800000000E+01 0.  1.
        -11    1    1    2    0    0 -0.27976215205E+02 -0.32082963762E+01  0.10528950064E+02  0.30063608770E+02  0.00000000000E+00 0.  1.
         11    1    1    2    0    0  0.65292802132E+02  0.16263947460E+02 -0.23973707171E+02  0.71431118098E+02  0.00000000000E+00 0. -1.
</event>
<event>
 6    1  0.6447971E-006  0.1337657E+03  0.7561462E-02  0.1221973E+00
          1   -1    0    0  501    0  0.00000000000E+00  0.00000000000E+00  0.39346434846E+03  0.39346434846E+03  0.00000000000E+00 0. -1.
         -1   -1    0    0    0  501 -0.00000000000E+00 -0.00000000000E+00 -0.66459473715E+02  0.66459473715E+02  0.00000000000E+00 0.  1.
          5    1    1    2  502    0  0.25991278079E+02  0.20890541951E+02  0.16133881787E+03  0.16480184414E+03  0.41800000000E+01 0. -1.
         -5    1    1    2    0  502  0.42459904851E+02  0.75988568897E+02  0.28635368450E+02  0.91730926352E+02  0.41800000000E+01 0. -1.
        -11    1    1    2    0    0 -0.40052417567E+02  0.55947194621E+01  0.19505102106E+02  0.44899287822E+02  0.00000000000E+00 0.  1.
         11    1    1    2    0    0 -0.28398765363E+02 -0.10247383031E+03  0.11752558631E+03  0.15849176386E+03  0.00000000000E+00 0. -1.
</event>
<event>
 6    1  0.6447971E-006  0.2328100E+03  0.7561462E-02  0.1124677E+00
          1   -1    0    0  501    0  0.00000000000E+00  0.00000000000E+00  0.78040512140E+03  0.78040512140E+03  0.00000000000E+00 0. -1.
         -1   -1    0    0    0  501 -0.00000000000E+00 -0.00000000000E+00 -0.15336053567E+03  0.15336053567E+03  0.00000000000E+00 0.  1.
          5    1    1    2  502    0  0.16953215774E+03  0.52017220081E+02  0.51103064915E+02  0.18459669373E+03  0.41800000000E+01 0. -1.
         -5    1    1    2    0  502  0.46177020469E+02  0.11409560063E+02 -0.54851004302E+02  0.72722763652E+02  0.41800000000E+01 0. -1.
        -11    1    1    2    0    0 -0.13469969070E+03  0.44920610431E+01  0.29327775559E+03  0.32276311315E+03  0.00000000000E+00 0. -1.
         11    1    1    2    0    0 -0.81009487508E+02 -0.67918841187E+02  0.33751476952E+03  0.35368308653E+03  0.00000000000E+00 0.  1.
</event>
<event>
 6    1  0.6447971E-006  0.1050175E+03  0.7561462E-02  0.1270085E+00
          1   -1    0    0  501    0  0.00000000000E+00  0.00000000000E+00  0.11954989086E+03  0.11954989086E+03  0.00000000000E+00 0. -1.
         -1   -1    0    0    0  501 -0.00000000000E+00 -0.00000000000E+00 -0.11098408033E+03  0.11098408033E+03  0.00000000000E+00 0.  1.
          5    1    1    2  502    0 -0.34811436393E+02 -0.45461158921E+02 -0.30412512698E+02  0.64968811000E+02  0.41800000000E+01 0.  1.
         -5    1    1    2    0  502  0.54770239328E+02  0.34083294018E+02  0.45884877510E+01  0.64807226966E+02  0.41800000000E+01 0.  1.
        -11    1    1    2    0    0 -0.45199244731E+02 -0.18524934275E+02  0.28294664555E+00  0.48849001760E+02  0.00000000000E+00 0. -1.
         11    1    1    2    0    0  0.25240441796E+02  0.29902799178E+02  0.34106888829E+02  0.51908931470E+02  0.00000000000E+00 0.  1.
</event>
<event>
 6    1  0.6447971E-006  0.1132084E+03  0.7561462E-02  0.1254741E+00
         -2   -1    0    0    0  501 -0.00000000000E+00  0.00000000000E+00  0.22401212820E+03  0.22401212820E+03  0.00000000000E+00 0.  1.
          2   -1    0    0  501    0  0.00000000000E+00 -0.00000000000E+00 -0.74193332647E+02  0.74193332647E+02  0.00000000000E+00 0. -1.
          5    1    1    2  502    0  0.43222089534E+02  0.12985809840E+02  0.19458019678E+02  0.49324103750E+02  0.41800000000E+01 0. -1.
         -5    1    1    2    0  502 -0.68827881977E+02 -0.22771520781E+02  0.11799049815E+03  0.13854620005E+03  0.41800000000E+01 0. -1.
        -11    1    1    2    0    0  0.66669077911E+02  0.99790541584E+01  0.15438230474E+02  0.69156969509E+02  0.00000000000E+00 0.  1.
         11    1    1    2    0    0 -0.41063285469E+02 -0.19334321715E+00 -0.30679527420E+01  0.41178187540E+02  0.00000000000E+00 0. -1.
</event>
<event>
 6    1  0.6447971E-006  0.8267140E+02  0.7561462E-02  0.1321637E+00
          2   -1    0    0  501    0  0.00000000000E+00  0.00000000000E+00  0.56945985264E+03  0.56945985264E+03  0.00000000000E+00 0. -1.
         -2   -1    0    0    0  501 -0.00000000000E+00 -0.00000000000E+00 -0.27097559356E+02  0.27097559356E+02  0.00000000000E+00 0.  1.
          5    1    1    2  502    0 -0.12577286505E+02  0.54354453492E+02  0.27412375033E+03  0.27977472660E+03  0.41800000000E+01 0.  1.
         -5    1    1    2    0  502 -0.21982580574E+02 -0.59065068710E+01 -0.42919770054E+01  0.23537504939E+02  0.41800000000E+01 0.  1.
        -11    1    1    2    0    0 -0.13670832703E+02 -0.32820121301E+02  0.20881337943E+03  0.21181850594E+03  0.00000000000E+00 0. -1.
         11    1    1    2    0    0  0.48230699783E+02 -0.15627825320E+02  0.63717140529E+02  0.81426674517E+02  0.00000000000E+00 0.  1.
</event>
<event>
 6    1  0.6447971E-006  0.8799747E+02  0.7561462E-02  0.1307775E+00
         -3   -1    0    0    0  501 -0.00000000000E+00  0.00000000000E+00  0.86780930096E+02  0.86780930096E+02  0.00000000000E+00 0.  1.
          3   -1    0    0  501    0  0.00000000000E+00 -0.00000000000E+00 -0.15685735105E+03  0.15685735105E+03  0.00000000000E+00 0. -1.
          5    1    1    2  502    0  0.50336454407E+01  0.61090225940E+02  0.19038800269E+02  0.64321859485E+02  0.41800000000E+01 0. -1.
         -5    1    1    2    0  502 -0.37484500245E+02 -0.49942348521E+02 -0.18943801501E+02  0.65388576599E+02  0.41800000000E+01 0. -1.
        -11    1    1    2    0    0  0.21629026533E+02  0.13191397767E+02  0.11646539804E+02  0.27883142814E+02  0.00000000000E+00 0.  1.
         11    1    1    2    0    0  0.10821828272E+02 -0.24339275186E+02 -0.81817959526E+02  0.86044702247E+02  0.00000000000E+00 0. -1.
</event>
<event>
 6    1  0.6447971E-006  0.1189370E+03  0.7561462E-02  0.1244861E+00
         -2   -1    0    0    0  501 -0.00000000000E+00  0.00000000000E+00  0.38006165884E+02  0.38006165884E+02  0.00000000000E+00 0.  1.
          2   -1    0    0  501    0  0.00000000000E+00 -0.00000000000E+00 -0.63783725275E+03  0.63783725275E+03  0.00000000000E+00 0. -1.
          5    1    1    2  502    0 -0.39118195442E+02 -0.36147894567E+02 -0.17420136592E+02  0.56194635466E+02  0.41800000000E+01 0.  1.
         -5    1    1    2    0  502 -0.24936438486E+02 -0.52659542280E+02 -0.26642509539E+03  0.27275383995E+03  0.41800000000E+01 0.  1.
        -11    1    1    2    0    0  0.50041691662E+02  0.16969375600E+02 -0.56822961619E+02  0.77594971357E+02  0.00000000000E+00 0.  1.
         11    1    1    2    0    0  0.14012942266E+02  0.71838061247E+02 -0.25916289327E+03  0.26929997186E+03  0.00000000000E+00 0. -1.
</event>
<event>
 6    1  0.6447971E-006  0.1261793E+03  0.7561462E-02  0.1233238E+00
         -2   -1    0    0    0  501 -0.00000000000E+00  0.00000000000E+00  0.16492320735E+02  0.16492320735E+02  0.00000000000E+00 0.  1.
          2   -1    0    0  501    0  0.00000000000E+00 -0.00000000000E+00 -0.10010085703E+04  0.10010085703E+04  0.00000000000E+00 0. -1.
          5    1    1    2  502    0  0.31163870778E+02  0.38677537673E+02 -0.12994459974E+03  0.13917690241E+03  0.41800000000E+01 0.  1.
         -5    1    1    2    0  502 -0.90371551155E+02 -0.17306210287E+01 -0.36806109755E+03  0.37902039027E+03  0.41800000000E+01 0.  1.
        -11    1    1    2    0    0  0.53488923973E+02  0.18264359918E+02 -0.22804122125E+03  0.23494137656E+03  0.00000000000E+00 0.  1.
         11    1    1    2    0    0  0.57187564030E+01 -0.55211276563E+02 -0.25846933099E+03  0.26436222177E+03  0.00000000000E+00 0. -1.
</event>
<event>
 6    1  0.6447971E-006  0.1220443E+03  0.7561462E-02  0.1239762E+00
         -2   -1    0    0    0  501 -0.00000000000E+00  0.00000000000E+00  0.30782686902E+02  0.30782686902E+02  0.00000000000E+00 0.  1.
          2   -1    0    0  501    0  0.00000000000E+00 -0.00000000000E+00 -0.52829707937E+03  0.52829707937E+03  0.00000000000E+00 0. -1.
          5    1    1    2  502    0  0.45692210141E+02 -0.16348555577E+01 -0.42545902047E+02  0.62594544501E+02  0.41800000000E+01 0.  1.
         -5    1    1    2    0  502 -0.61655573944E+02 -0.60122299441E+02 -0.19757570170E+03  0.21556839051E+03  0.41800000000E+01 0.  1.
        -11    1    1    2    0    0 -0.30422658953E+02 -0.48335171603E+01 -0.84063367260E+02  0.89529608404E+02  0.00000000000E+00 0. -1.
         11    1    1    2    0    0  0.46386022755E+02  0.66590672159E+02 -0.17332942147E+03  0.19138722285E+03  0.00000000000E+00 0.  1.
</event>
<event>
 6    1  0.6447971E-006  0.8970254E+02  0.7561462E-02  0.1303574E+00
         -4   -1    0    0    0  501 -0.00000000000E+00  0.00000000000E+00  0.80446045663E+02  0.80446045663E+02  0.00000000000E+00 0.  1.
          4   -1    0    0  501    0  0.00000000000E+00 -0.00000000000E+00 -0.16851387662E+03  0.16851387662E+03  0.00000000000E+00 0. -1.
          5    1    1    2  502    0 -0.46140601599E+02 -0.27423074180E+02 -0.68913890928E+02  0.87450425249E+02  0.41800000000E+01 0. -1.
         -5    1    1    2    0  502  0.76418463719E+01  0.25932705479E+02  0.38232293907E+02  0.47011527595E+02  0.41800000000E+01 0. -1.
        -11    1    1    2    0    0  0.18653865701E+02  0.45912904386E+02 -0.21394026831E+02  0.53978383441E+02  0.00000000000E+00 0.  1.
         11    1    1    2    0    0  0.19844889526E+02 -0.44422535685E+02 -0.35992207099E+02  0.60519585994E+02  0.00000000000E+00 0. -1.
</event>
<event>
 6    1  0.6447971E-006  0.1019751E+03  0.7561462E-02  0.1276196E+00
          1   -1    0    0  501    0  0.00000000000E+00  0.00000000000E+00  0.89549180202E+02  0.89549180202E+02  0.00000000000E+00 0. -1.
         -1   -1    0    0    0  501 -0.00000000000E+00 -0.00000000000E+00 -0.18475181329E+03  0.18475181329E+03  0.00000000000E+00 0.  1.
          5    1    1    2  502    0 -0.81581527283E+01 -0.20181654552E+02 -0.89275076138E+02  0.91985685059E+02  0.41800000000E+01 0. -1.
         -5    1    1    2    0  502  0.68339384907E+02  0.23151331440E+02  0.14787534351E+01  0.72290488922E+02  0.41800000000E+01 0. -1.
        -11    1    1    2    0    0 -0.50684759329E+02 -0.44168752550E+02 -0.82716415197E+01  0.67736574932E+02  0.00000000000E+00 0.  1.
         11    1    1    2    0    0 -0.94964728490E+01  0.41199075661E+02  0.86533113149E+00  0.42288244583E+02  0.00000000000E+00 0. -1.
</event>
<event>
 6    1  0.6447971E-006  0.9993465E+02  0.7561462E-02  0.1280433E+00
          3   -1    0    0  501    0  0.00000000000E+00  0.00000000000E+00  0.52044233427E+03  0.52044233427E+03  0.00000000000E+00 0. -1.
         -3   -1    0    0    0  501 -0.00000000000E+00 -0.00000000000E+00 -0.30256984488E+02  0.30256984488E+02  0.00000000000E+00 0.  1.
          5    1    1    2  502    0  0.74592432100E+02 -0.31774104607E+02  0.20849985703E+03  0.22374826800E+03  0.41800000000E+01 0. -1.
         -5    1    1    2    0  502 -0.17475501700E+02  0.26476027302E+02  0.83305961896E+01  0.33064246767E+02  0.41800000000E+01 0. -1.
        -11    1    1    2    0    0 -0.45693352005E+02 -0.26553093937E+02  0.24217381067E+03  0.24787316069E+03  0.00000000000E+00 0. -1.
         11    1    1    2    0    0 -0.11423578395E+02  0.31851171242E+02  0.31181085892E+02  0.46013643306E+02  0.00000000000E+00 0.  1.
</event>
<event>
 6    1  0.6447971E-006  0.1002683E+03  0.7561462E-02  0.1279733E+00
         -1   -1    0    0    0  501 -0.00000000000E+00  0.00000000000E+00  0.15544051214E+03  0.15544051214E+03  0.00000000000E+00 0.  1.
          1   -1    0    0  501    0  0.00000000000E+00 -0.00000000000E+00 -0.76493854803E+02  0.76493854803E+02  0.00000000000E+00 0. -1.
          5    1    1    2  502    0  0.54479359779E+02 -0.37171887524E+02  0.11399499356E+02  0.67060948768E+02  0.41800000000E+01 0.  1.
         -5    1    1    2    0  502 -0.40275520656E+02  0.37537645137E+02  0.43870606955E+02  0.70521591879E+02  0.41800000000E+01 0.  1.
        -11    1    1    2    0    0 -0.10149771612E+02 -0.39046571721E+02  0.35460523683E+02  0.53713139610E+02  0.00000000000E+00 0.  1.
         11    1    1    2    0    0 -0.40540675104E+01  0.38680814108E+02 -0.11783972662E+02  0.40638686681E+02  0.00000000000E+00 0. -1.
</event>
<event>
 6    1  0.6447971E-006  0.1136672E+03  0.7561462E-02  0.1253926E+00
          2   -1    0    0  501    0  0.00000000000E+00  0.00000000000E+00  0.52413076483E+03  0.52413076483E+03  0.00000000000E+00 0.  1.
         -2   -1    0    0    0  501 -0.00000000000E+00 -0.00000000000E+00 -0.45519825913E+02  0.45519825913E+02  0.00000000000E+00 0. -1.
          5    1    1    2  502    0 -0.54605876449E+01  0.79504858638E+02  0.45581344922E+02  0.91901969344E+02  0.41800000000E+01 0. -1.
         -5    1    1    2    0  502  0.30993833685E+02 -0.42784533903E+02  0.26858788143E+02  0.59413811259E+02  0.41800000000E+01 0. -1.
        -11    1    1    2    0    0 -0.50929160380E+02 -0.44858902595E+02  0.34486698710E+03  0.35148163439E+03  0.00000000000E+00 0.  1.
         11    1    1    2    0    0  0.25395914340E+02  0.81385778601E+01  0.61303818754E+02  0.66853175755E+02  0.00000000000E+00 0. -1.
</event>
<event>
 6    1  0.6447971E-006  0.8354622E+02  0.7561462E-02  0.1319279E+00
          2   -1    0    0  501    0  0.00000000000E+00  0.00000000000E+00  0.28219619547E+03  0.28219619547E+03  0.00000000000E+00 0. -1.
         -2   -1    0    0    0  501 -0.00000000000E+00 -0.00000000000E+00 -0.72098386630E+02  0.72098386630E+02  0.00000000000E+00 0.  1.
          5    1    1    2  502    0  0.67332633454E+01 -0.60134296086E+01 -0.49617363205E+02  0.50604874295E+02  0.41800000000E+01 0. -1.
         -5    1    1    2    0  502  0.30788103676E+02 -0.38458025142E+02  0.74776354418E+02  0.89643196093E+02  0.41800000000E+01 0. -1.
        -11    1    1    2    0    0 -0.44740329446E+02  0.68943699041E+02  0.13795846835E+03  0.16058477420E+03  0.00000000000E+00 0.  1.
         11    1    1    2    0    0  0.72189624246E+01 -0.24472244291E+02  0.46980349278E+02  0.53461737509E+02  0.00000000000E+00 0. -1.
</event>
<event>
 6    1  0.6447971E-006  0.1216282E+03  0.7561462E-02  0.1240435E+00
         -1   -1    0    0    0  501 -0.00000000000E+00  0.00000000000E+00  0.85920984827E+02  0.85920984827E+02  0.00000000000E+00 0.  1.
          1   -1    0    0  501    0  0.00000000000E+00 -0.00000000000E+00 -0.26584750228E+03  0.26584750228E+03  0.00000000000E+00 0. -1.
          5    1    1    2  502    0 -0.97322773384E+02 -0.52864409808E+02 -0.53081131876E+01  0.11095952645E+03  0.41800000000E+01 0. -1.
         -5    1    1    2    0  502  0.25429301880E+02 -0.12407905104E+02 -0.48470630718E+02  0.56280369094E+02  0.41800000000E+01 0. -1.
        -11    1    1    2    0    0  0.19848441934E+02 -0.61592734937E+00 -0.91611901949E+02  0.93739429231E+02  0.00000000000E+00 0. -1.
         11    1    1    2    0    0  0.52045029570E+02  0.65888242261E+02 -0.34535871602E+02  0.90789162341E+02  0.00000000000E+00 0.  1.
</event>
<event>
 6    1  0.6447971E-006  0.1913898E+03  0.7561462E-02  0.1157214E+00
          2   -1    0    0  501    0  0.00000000000E+00  0.00000000000E+00  0.25477928410E+03  0.25477928410E+03  0.00000000000E+00 0. -1.
         -2   -1    0    0    0  501 -0.00000000000E+00 -0.00000000000E+00 -0.19375749514E+03  0.19375749514E+03  0.00000000000E+00 0.  1.
          5    1    1    2  502    0 -0.12572907286E+01  0.10407076183E+03  0.37069468271E+02  0.11056184751E+03  0.41800000000E+01 0. -1.
         -5    1    1    2    0  502 -0.10938137028E+03 -0.81324870781E+02 -0.81077653062E+02  0.15864765047E+03  0.41800000000E+01 0.  1.
        -11    1    1    2    0    0  0.58021051323E+02 -0.55484733396E+02  0.40718886255E+02  0.90016808067E+02  0.00000000000E+00 0.  1.
         11    1    1    2    0    0  0.52617609687E+02  0.32738842347E+02  0.64311087491E+02  0.89310473192E+02  0.00000000000E+00 0. -1.
</event>
<event>
 6    1  0.6447971E-006  0.2065294E+03  0.7561462E-02  0.1144344E+00
         -2   -1    0    0    0  501 -0.00000000000E+00  0.00000000000E+00  0.59251841351E+02  0.59251841351E+02  0.00000000000E+00 0.  1.
          2   -1    0    0  501    0  0.00000000000E+00 -0.00000000000E+00 -0.79633534341E+03  0.79633534341E+03  0.00000000000E+00 0. -1.
          5    1    1    2  502    0 -0.76374966929E+01  0.16635219070E+02 -0.14815791593E+02  0.23917398474E+02  0.41800000000E+01 0. -1.
         -5    1    1    2    0  502  0.58313820489E+02 -0.19206519932E+03 -0.29545381404E+03  0.35721138151E+03  0.41800000000E+01 0. -1.
        -11    1    1    2    0    0  0.10919313087E+02  0.74353533317E+02 -0.88871977909E+02  0.11638688832E+03  0.00000000000E+00 0.  1.
         11    1    1    2    0    0 -0.61595636883E+02  0.10107644693E+03 -0.33794191852E+03  0.35807151646E+03  0.00000000000E+00 0. -1.
</event>
<event>
 6    1  0.2038324E-005  0.2158344E+03  0.7561462E-02  0.1137027E+00
          1   -1    0    0  501    0  0.00000000000E+00  0.00000000000E+00  0.13160136834E+03  0.13160136834E+03  0.00000000000E+00 0. -1.
         -1   -1    0    0    0  501 -0.00000000000E+00 -0.00000000000E+00 -0.36760448566E+03  0.36760448566E+03  0.00000000000E+00 0.  1.
          5    1    1    2  502    0 -0.11862034307E+03  0.15207346097E+03 -0.14164878443E+03  0.23933026105E+03  0.41800000000E+01 0.  1.
         -5    1    1    2    0  502 -0.18472554544E+02 -0.20150725830E+02  0.20882541419E+01  0.27733016933E+02  0.41800000000E+01 0.  1.
        -11    1    1    2    0    0  0.75887750605E+02 -0.12919930805E+03 -0.70899477572E+02  0.16576533960E+03  0.00000000000E+00 0. -1.
         11    1    1    2    0    0  0.61205147007E+02 -0.27234270975E+01 -0.25543109457E+02  0.66377236430E+02  0.00000000000E+00 0.  1.
</event>
<event>
 6    1  0.6447971E-006  0.3466187E+03  0.7561462E-02  0.1064011E+00
          2   -1    0    0  501    0  0.00000000000E+00  0.00000000000E+00  0.21208959499E+04  0.21208959499E+04  0.00000000000E+00 0. -1.
         -2   -1    0    0    0  501 -0.00000000000E+00 -0.00000000000E+00 -0.63750499207E+02  0.63750499207E+02  0.00000000000E+00 0.  1.
          5    1    1    2  502    0 -0.48404356322E+02 -0.16267506719E+02  0.42415054516E+02  0.66514079227E+02  0.41800000000E+01 0. -1.
         -5    1    1    2    0  502 -0.28544912114E+03 -0.69641585542E+02  0.80005027063E+03  0.85230807759E+03  0.41800000000E+01 0. -1.
        -11    1    1    2    0    0  0.66313940614E+02  0.37765562787E+02  0.16976895221E+03  0.18613240875E+03  0.00000000000E+00 0.  1.
         11    1    1    2    0    0  0.26753953685E+03  0.48143529474E+02  0.10449111733E+04  0.10796918835E+04  0.00000000000E+00 0. -1.
</event>
<event>
 6    1  0.6447971E-006  0.1231172E+03  0.7561462E-02  0.1238041E+00
          2   -1    0    0  501    0  0.00000000000E+00  0.00000000000E+00  0.32878314024E+02  0.32878314024E+02  0.00000000000E+00 0. -1.
         -2   -1    0    0    0  501 -0.00000000000E+00 -0.00000000000E+00 -0.63348274328E+03  0.63348274328E+03  0.00000000000E+00 0.  1.
          5    1    1    2  502    0  0.40500325211E+02  0.27114525344E+02 -0.10802760626E+03  0.11858714070E+03  0.41800000000E+01 0. -1.
         -5    1    1    2    0  502 -0.88724105351E+02  0.34524044225E+02 -0.34224348601E+03  0.35526321597E+03  0.41800000000E+01 0. -1.
        -11    1    1    2    0    0  0.17566798787E+02 -0.68406004002E+02 -0.14413708591E+03  0.16051004123E+03  0.00000000000E+00 0.  1.
         11    1    1    2    0    0  0.30656981353E+02  0.67674344326E+01 -0.61962510784E+01  0.32000659398E+02  0.00000000000E+00 0. -1.
</event>
<event>
 6    1  0.6447971E-006  0.1110609E+03  0.7561462E-02  0.1258618E+00
          2   -1    0    0  501    0  0.00000000000E+00  0.00000000000E+00  0.44472352626E+02  0.44472352626E+02  0.00000000000E+00 0. -1.
         -2   -1    0    0    0  501 -0.00000000000E+00 -0.00000000000E+00 -0.35733439976E+03  0.35733439976E+03  0.00000000000E+00 0.  1.
          5    1    1    2  502    0  0.63697160377E+02 -0.14914887604E+02 -0.85925977156E+02  0.10807649172E+03  0.41800000000E+01 0. -1.
         -5    1    1    2    0  502 -0.58588462962E+02 -0.39991821243E+02 -0.10187610155E+03  0.12421016958E+03  0.41800000000E+01 0. -1.
        -11    1    1    2    0    0 -0.33444407507E+02  0.43719872033E+02 -0.12758375997E+03  0.13895168733E+03  0.00000000000E+00 0.  1.
         11    1    1    2    0    0  0.28335710093E+02  0.11186836814E+02  0.25237915482E+01  0.30568403755E+02  0.00000000000E+00 0. -1.
</event>
<event>
 6    1  0.6447971E-006  0.1638174E+03  0.7561462E-02  0.1184453E+00
         -1   -1    0    0    0  501 -0.00000000000E+00  0.00000000000E+00  0.57303955371E+02  0.57303955371E+02  0.00000000000E+00 0.  1.
          1   -1    0    0  501    0  0.00000000000E+00 -0.00000000000E+00 -0.56078005916E+03  0.56078005916E+03  0.00000000000E+00 0. -1.
          5    1    1    2  502    0  0.95130964819E+00  0.48400687857E+02 -0.38148083981E+02  0.61776049457E+02  0.41800000000E+01 0. -1.
         -5    1    1    2    0  502 -0.13632060038E+03 -0.39830331065E+01 -0.21178204775E+03  0.25192911462E+03  0.41800000000E+01 0. -1.
        -11    1    1    2    0    0  0.52506334165E+02 -0.20379318067E+02 -0.28010069992E+02  0.62903066327E+02  0.00000000000E+00 0.  1.
         11    1    1    2    0    0  0.82862956569E+02 -0.24038336684E+02 -0.22553590207E+03  0.24147578413E+03  0.00000000000E+00 0. -1.
</event>
<event>
 6    1  0.6447971E-006  0.9500104E+02  0.7561462E-02  0.1291174E+00
         -1   -1    0    0    0  501 -0.00000000000E+00  0.00000000000E+00  0.30038483234E+02  0.30038483234E+02  0.00000000000E+00 0.  1.
          1   -1    0    0  501    0  0.00000000000E+00 -0.00000000000E+00 -0.50728778036E+03  0.50728778036E+03  0.00000000000E+00 0. -1.
          5    1    1    2  502    0  0.42270216677E+02  0.56821673837E+02 -0.26930739786E+03  0.27849492056E+03  0.41800000000E+01 0.  1.
         -5    1    1    2    0  502 -0.29017616558E+02  0.12583021397E+01 -0.63531717155E+01  0.30024000164E+02  0.41800000000E+01 0.  1.
        -11    1    1    2    0    0 -0.37335253769E+02 -0.14752743445E+02 -0.15727404304E+03  0.16231663263E+03  0.00000000000E+00 0. -1.
         11    1    1    2    0    0  0.24082653650E+02 -0.43327232531E+02 -0.44314684514E+02  0.66490710248E+02  0.00000000000E+00 0.  1.
</event>
<event>
 6    1  0.6447971E-006  0.7536586E+02  0.7561462E-02  0.1342742E+00
         -1   -1    0    0    0  501 -0.00000000000E+00  0.00000000000E+00  0.14753164054E+03  0.14753164054E+03  0.00000000000E+00 0. -1.
          1   -1    0    0  501    0  0.00000000000E+00 -0.00000000000E+00 -0.89410345789E+02  0.89410345789E+02  0.00000000000E+00 0.  1.
          5    1    1    2  502    0 -0.37647241876E+02  0.34021320232E+02  0.80392394774E+02  0.95158681100E+02  0.41800000000E+01 0.  1.
         -5    1    1    2    0  502  0.33599383145E+02 -0.35126007664E+02 -0.79898442217E+01  0.49437485502E+02  0.41800000000E+01 0.  1.
        -11    1    1    2    0    0 -0.34165811526E+01  0.25392420789E+02  0.31124863758E+02  0.40313833906E+02  0.00000000000E+00 0. -1.
         11    1    1    2    0    0  0.74644398836E+01 -0.24287733357E+02 -0.45406119562E+02  0.52031985817E+02  0.00000000000E+00 0.  1.
</event>
<event>
 6    1  0.6447971E-006  0.1257219E+03  0.7561462E-02  0.1233945E+00
         -1   -1    0    0    0  501 -0.00000000000E+00  0.00000000000E+00  0.75684752646E+02  0.75684752646E+02  0.00000000000E+00 0.  1.
          1   -1    0    0  501    0  0.00000000000E+00 -0.00000000000E+00 -0.25247844582E+03  0.25247844582E+03  0.00000000000E+00 0. -1.
          5    1    1    2  502    0  0.11399949494E+02 -0.80472894791E+02 -0.10782676679E+03  0.13509230060E+03  0.41800000000E+01 0. -1.
         -5    1    1    2    0  502  0.49369568751E+02  0.23720607053E+02 -0.10062144681E+02  0.55845686255E+02  0.41800000000E+01 0. -1.
        -11    1    1    2    0    0  0.14393572101E+02 -0.75134355766E+01 -0.30139713798E+02  0.34234908790E+02  0.00000000000E+00 0. -1.
         11    1    1    2    0    0 -0.75163090346E+02  0.64265723315E+02 -0.28765067901E+02  0.10299030282E+03  0.00000000000E+00 0.  1.
</event>
<event>
 6    1  0.6447971E-006  0.1587687E+03  0.7561462E-02  0.1190094E+00
          1   -1    0    0  501    0  0.00000000000E+00  0.00000000000E+00  0.19909119118E+02  0.19909119118E+02  0.00000000000E+00 0. -1.
         -1   -1    0    0    0  501 -0.00000000000E+00 -0.00000000000E+00 -0.13211567242E+04  0.13211567242E+04  0.00000000000E+00 0.  1.
          5    1    1    2  502    0  0.62121462336E+01  0.33560163386E+02 -0.12592725544E+03  0.13053743291E+03  0.41800000000E+01 0. -1.
         -5    1    1    2    0  502 -0.12391702947E+03 -0.65344072064E+02 -0.56835382720E+03  0.58537921319E+03  0.41800000000E+01 0. -1.
        -11    1    1    2    0    0  0.49307953488E+02  0.52016435065E+02 -0.39647367372E+03  0.40289993516E+03  0.00000000000E+00 0.  1.
         11    1    1    2    0    0  0.68396929752E+02 -0.20232526387E+02 -0.21049284868E+03  0.22224926202E+03  0.00000000000E+00 0. -1.
</event>
<event>
 6    1  0.6447971E-006  0.1751946E+03  0.7561462E-02  0.1172536E+00
         -4   -1    0    0    0  501 -0.00000000000E+00  0.00000000000E+00  0.37367380266E+02  0.37367380266E+02  0.00000000000E+00 0. -1.
          4   -1    0    0  501    0  0.00000000000E+00 -0.00000000000E+00 -0.87133212690E+03  0.87133212690E+03  0.00000000000E+00 0.  1.
          5    1    1    2  502    0 -0.82158659343E+02  0.11114321728E+03 -0.26981288103E+03  0.30318199686E+03  0.41800000000E+01 0.  1.
         -5    1    1    2    0  502  0.41892283856E+02  0.21155853023E+02 -0.68919389085E+02  0.83485856021E+02  0.41800000000E+01 0.  1.
        -11    1    1    2    0    0 -0.20311977446E+02 -0.87037491167E+02 -0.25849756328E+03  0.27351250706E+03  0.00000000000E+00 0.  1.
         11    1    1    2    0    0  0.60578352933E+02 -0.45261579134E+02 -0.23673491324E+03  0.24851914722E+03  0.00000000000E+00 0. -1.
</event>
<event>
 6    1  0.6447971E-006  0.1149043E+03  0.7561462E-02  0.1251748E+00
          2   -1    0    0  501    0  0.00000000000E+00  0.00000000000E+00  0.86012892673E+01  0.86012892673E+01  0.00000000000E+00 0.  1.
         -2   -1    0    0    0  501 -0.00000000000E+00 -0.00000000000E+00 -0.23682997884E+04  0.23682997884E+04  0.00000000000E+00 0. -1.
          5    1    1    2  502    0  0.31758365997E+02  0.41945938894E+01 -0.18142676063E+03  0.18428057494E+03  0.41800000000E+01 0. -1.
         -5    1    1    2    0  502 -0.73703103756E+02 -0.49856674761E+02 -0.16902622702E+04  0.16926080025E+04  0.41800000000E+01 0. -1.
        -11    1    1    2    0    0  0.64818837608E+02  0.53704011750E+02 -0.39722419843E+03  0.40604515316E+03  0.00000000000E+00 0.  1.
         11    1    1    2    0    0 -0.22874099848E+02 -0.80419308780E+01 -0.90785269846E+02  0.93967347079E+02  0.00000000000E+00 0. -1.
</event>
<event>
 6    1  0.6447971E-006  0.1248588E+03  0.7561462E-02  0.1235290E+00
         -2   -1    0    0    0  501 -0.00000000000E+00  0.00000000000E+00  0.72691313005E+02  0.72691313005E+02  0.00000000000E+00 0.  1.
          2   -1    0    0  501    0  0.00000000000E+00 -0.00000000000E+00 -0.52338966981E+03  0.52338966981E+03  0.00000000000E+00 0. -1.
          5    1    1    2  502    0  0.34634427502E+02 -0.11414797532E+03 -0.18749203077E+00  0.11936000750E+03  0.41800000000E+01 0. -1.
         -5    1    1    2    0  502 -0.30676311757E+01  0.70908199495E+01 -0.57141206938E+02  0.57812455569E+02  0.41800000000E+01 0. -1.
        -11    1    1    2    0    0  0.70817856762E+01  0.61171670387E+02 -0.31081891013E+03  0.31686041065E+03  0.00000000000E+00 0.  1.
         11    1    1    2    0    0 -0.38648582002E+02  0.45885484978E+02 -0.82550747708E+02  0.10204810909E+03  0.00000000000E+00 0. -1.
</event>
<event>
 6    1  0.6447971E-006  0.1049793E+03  0.7561462E-02  0.1270160E+00
         -4   -1    0    0    0  501 -0.00000000000E+00  0.00000000000E+00  0.70097047417E+02  0.70097047417E+02  0.00000000000E+00 0.  1.
          4   -1    0    0  501    0  0.00000000000E+00 -0.00000000000E+00 -0.20689316712E+03  0.20689316712E+03  0.00000000000E+00 0. -1.
          5    1    1    2  502    0 -0.41542379794E+02 -0.49153873613E+02 -0.18482499610E+02  0.67089103451E+02  0.41800000000E+01 0. -1.
         -5    1    1    2    0  502 -0.40570664797E+01  0.68592826068E+02 -0.40019099228E+02  0.79626856521E+02  0.41800000000E+01 0. -1.
        -11    1    1    2    0    0  0.58589070081E+02 -0.76539562375E+01 -0.91081821910E+02  0.10856869006E+03  0.00000000000E+00 0. -1.
         11    1    1    2    0    0 -0.12989623807E+02 -0.11784996218E+02  0.12787301043E+02  0.21705564505E+02  0.00000000000E+00 0.  1.
</event>
<event>
 6    1  0.6447971E-006  0.1708501E+03  0.7561462E-02  0.1176964E+00
         -1   -1    0    0    0  501 -0.00000000000E+00  0.00000000000E+00  0.67546627587E+03  0.67546627587E+03  0.00000000000E+00 0.  1.
          1   -1    0    0  501    0  0.00000000000E+00 -0.00000000000E+00 -0.96788979540E+02  0.96788979540E+02  0.00000000000E+00 0. -1.
          5    1    1    2  502    0  0.28530873627E+01  0.12698839110E+03  0.36993364984E+03  0.39115542853E+03  0.41800000000E+01 0. -1.
         -5    1    1    2    0  502 -0.66168382866E+02  0.67093539485E+01  0.19616295351E+03  0.20717298822E+03  0.41800000000E+01 0. -1.
        -11    1    1    2    0    0  0.39409720894E+02 -0.87057632150E+02 -0.36334472432E+02  0.10223674146E+03  0.00000000000E+00 0. -1.
         11    1    1    2    0    0  0.23905574610E+02 -0.46640112903E+02  0.48915165414E+02  0.71690097199E+02  0.00000000000E+00 0.  1.
</event>
<event>
 6    1  0.6447971E-006  0.1008773E+03  0.7561462E-02  0.1278462E+00
          1   -1    0    0  501    0  0.00000000000E+00  0.00000000000E+00  0.44209745157E+02  0.44209745157E+02  0.00000000000E+00 0. -1.
         -1   -1    0    0    0  501 -0.00000000000E+00 -0.00000000000E+00 -0.50346204650E+03  0.50346204650E+03  0.00000000000E+00 0.  1.
          5    1    1    2  502    0  0.31232431508E+02 -0.32652151452E+02 -0.32024632364E+03  0.32344521635E+03  0.41800000000E+01 0. -1.
         -5    1    1    2    0  502 -0.54597939984E+02 -0.11091497264E+02 -0.71325625538E+02  0.90602282645E+02  0.41800000000E+01 0. -1.
        -11    1    1    2    0    0  0.35808430790E+02  0.65954860801E+02 -0.76030059025E+02  0.10683097516E+03  0.00000000000E+00 0.  1.
         11    1    1    2    0    0 -0.12442922314E+02 -0.22211212084E+02  0.83497068629E+01  0.26793317500E+02  0.00000000000E+00 0. -1.
</event>
<event>
 6    1  0.6447971E-006  0.8918568E+02  0.7561462E-02  0.1304836E+00
          2   -1    0    0  501    0  0.00000000000E+00  0.00000000000E+00  0.28498393574E+03  0.28498393574E+03  0.00000000000E+00 0. -1.
         -2   -1    0    0    0  501 -0.00000000000E+00 -0.00000000000E+00 -0.57440106671E+02  0.57440106671E+02  0.00000000000E+00 0.  1.
          5    1    1    2  502    0  0.30955400980E+02 -0.27034986947E+02 -0.17616074315E+02  0.44910197543E+02  0.41800000000E+01 0. -1.
         -5    1    1    2    0  502  0.30050431164E+02 -0.43943767451E+01  0.13923273830E+03  0.14256776204E+03  0.41800000000E+01 0. -1.
        -11    1    1    2    0    0 -0.61346873235E+01 -0.26153813575E+02  0.65381627218E+01  0.27647855701E+02  0.00000000000E+00 0. -1.
         11    1    1    2    0    0 -0.54871144820E+02  0.57583177267E+02  0.99389002364E+02  0.12729822712E+03  0.00000000000E+00 0.  1.
</event>
<event>
 6    1  0.6447971E-006  0.1455646E+03  0.7561462E-02  0.1206032E+00
          2   -1    0    0  501    0  0.00000000000E+00  0.00000000000E+00  0.88095983865E+03  0.88095983865E+03  0.00000000000E+00 0. -1.
         -2   -1    0    0    0  501 -0.00000000000E+00 -0.00000000000E+00 -0.29633952134E+02  0.29633952134E+02  0.00000000000E+00 0.  1.
          5    1    1    2  502    0 -0.61738475872E+01  0.13094293114E+03  0.30054256496E+03  0.32791382002E+03  0.41800000000E+01 0. -1.
         -5    1    1    2    0  502  0.37496961443E+02 -0.16257138572E+02  0.11015731942E+03  0.11756880578E+03  0.41800000000E+01 0. -1.
        -11    1    1    2    0    0 -0.19003171814E+02 -0.67502797788E+02  0.38413568791E+03  0.39048428262E+03  0.00000000000E+00 0. -1.
         11    1    1    2    0    0 -0.12319942042E+02 -0.47182994781E+02  0.56490314228E+02  0.74626882355E+02  0.00000000000E+00 0.  1.
</event>
<event>
 6    1  0.6447971E-006  0.1341534E+03  0.7561462E-02  0.1221420E+00
          2   -1    0    0  501    0  0.00000000000E+00  0.00000000000E+00  0.46120360885E+02  0.46120360885E+02  0.00000000000E+00 0. -1.
         -2   -1    0    0    0  501 -0.00000000000E+00 -0.00000000000E+00 -0.51382066225E+03  0.51382066225E+03  0.00000000000E+00 0.  1.
          5    1    1    2  502    0 -0.90376890054E+02  0.28508769172E+02 -0.67625488485E+02  0.11649640024E+03  0.41800000000E+01 0. -1.
         -5    1    1    2    0  502 -0.17530943311E+02 -0.36825587667E+02 -0.15821498899E+03  0.16344085482E+03  0.41800000000E+01 0. -1.
        -11    1    1    2    0    0  0.26297427044E+02  0.37478937643E+02 -0.13420639343E+03  0.14180120406E+03  0.00000000000E+00 0.  1.
         11    1    1    2    0    0  0.81610406320E+02 -0.29162119148E+02 -0.10765343046E+03  0.13820256402E+03  0.00000000000E+00 0. -1.
</event>
<event>
 6    1  0.6447971E-006  0.9474905E+02  0.7561462E-02  0.1291742E+00
         -2   -1    0    0    0  501 -0.00000000000E+00  0.00000000000E+00  0.55038093314E+02  0.55038093314E+02  0.00000000000E+00 0.  1.
          2   -1    0    0  501    0  0.00000000000E+00 -0.00000000000E+00 -0.34471186864E+03  0.34471186864E+03  0.00000000000E+00 0. -1.
          5    1    1    2  502    0 -0.27066111275E+02  0.60612888671E+02 -0.15077386195E+03  0.16479298073E+03  0.41800000000E+01 0. -1.
         -5    1    1    2    0  502 -0.36271065663E+02 -0.41773071809E+01  0.13748173394E+02  0.39236778299E+02  0.41800000000E+01 0. -1.
        -11    1    1    2    0    0  0.23800228194E+02 -0.31545201896E+02 -0.37841733797E+01  0.39697236590E+02  0.00000000000E+00 0.  1.
         11    1    1    2    0    0  0.39536948744E+02 -0.24890379595E+02 -0.14886391339E+03  0.15602296633E+03  0.00000000000E+00 0. -1.
</event>
<event>
 6    1  0.8331818E-006  0.2863071E+03  0.7561462E-02  0.1092293E+00
          1   -1    0    0  501    0  0.00000000000E+00  0.00000000000E+00  0.27652995628E+03  0.27652995628E+03  0.00000000000E+00 0. -1.
         -1   -1    0    0    0  501 -0.00000000000E+00 -0.00000000000E+00 -0.32434172225E+03  0.32434172225E+03  0.00000000000E+00 0.  1.
          5    1    1    2  502    0  0.20407780295E+03  0.33860845128E+02  0.38046777425E+02  0.21037902976E+03  0.41800000000E+01 0. -1.
         -5    1    1    2    0  502  0.72416332934E+02  0.15919091620E+01 -0.63151748929E+02  0.96188748007E+02  0.41800000000E+01 0. -1.
        -11    1    1    2    0    0 -0.96173809891E+02 -0.56601422554E+02 -0.14854568316E+02  0.11257788834E+03  0.00000000000E+00 0.  1.
         11    1    1    2    0    0 -0.18032032599E+03  0.21148668264E+02 -0.78522261470E+01  0.18172601242E+03  0.00000000000E+00 0. -1.
</event>
<event>
 6    1  0.6447971E-006  0.2180119E+03  0.7561462E-02  0.1135374E+00
          1   -1    0    0  501    0  0.00000000000E+00  0.00000000000E+00  0.17164728444E+03  0.17164728444E+03  0.00000000000E+00 0. -1.
         -1   -1    0    0    0  501 -0.00000000000E+00 -0.00000000000E+00 -0.41128632639E+03  0.41128632639E+03  0.00000000000E+00 0.  1.
          5    1    1    2  502    0  0.77711849622E+02 -0.23295708057E+02 -0.13353966544E+02  0.82326316619E+02  0.41800000000E+01 0.  1.
         -5    1    1    2    0  502  0.13486754603E+03 -0.20273710228E+02 -0.22676453533E+03  0.26465053407E+03  0.41800000000E+01 0.  1.
        -11    1    1    2    0    0 -0.10261112529E+03  0.33368591965E+02 -0.44488917512E+02  0.11671233759E+03  0.00000000000E+00 0.  1.
         11    1    1    2    0    0 -0.10996827036E+03  0.10200826320E+02  0.44968377431E+02  0.11924442257E+03  0.00000000000E+00 0. -1.
</event>
<event>
 6    1  0.6447971E-006  0.1131954E+03  0.7561462E-02  0.1254764E+00
         -2   -1    0    0    0  501 -0.00000000000E+00  0.00000000000E+00  0.55579444314E+02  0.55579444314E+02  0.00000000000E+00 0.  1.
          2   -1    0    0  501    0  0.00000000000E+00 -0.00000000000E+00 -0.28047234611E+03  0.28047234611E+03  0.00000000000E+00 0. -1.
          5    1    1    2  502    0 -0.39237928868E+02  0.80922321729E+02 -0.74380631138E+02  0.11678179612E+03  0.41800000000E+01 0.  1.
         -5    1    1    2    0  502  0.23245637620E+02 -0.32772552207E+02 -0.74737961086E+01  0.41081989665E+02  0.41800000000E+01 0.  1.
        -11    1    1    2    0    0  0.13523629357E+02  0.21971014753E+02 -0.79315315551E+02  0.83405835055E+02  0.00000000000E+00 0. -1.
         11    1    1    2    0    0  0.24686618908E+01 -0.70120784275E+02 -0.63723158999E+02  0.94782169588E+02  0.00000000000E+00 0.  1.
</event>
<event>
 6    1  0.6447971E-006  0.1041910E+03  0.7561462E-02  0.1271722E+00
         -1   -1    0    0    0  501 -0.00000000000E+00  0.00000000000E+00  0.15261469366E+03  0.15261469366E+03  0.00000000000E+00 0.  1.
          1   -1    0    0  501    0  0.00000000000E+00 -0.00000000000E+00 -0.82551905276E+02  0.82551905276E+02  0.00000000000E+00 0. -1.
          5    1    1    2  502    0 -0.47344922216E+02  0.15122423985E+02  0.53957430753E+02  0.73478609814E+02  0.41800000000E+01 0.  1.
         -5    1    1    2    0  502  0.68957159926E+02 -0.35258095069E+01  0.12558538696E+02  0.70304413317E+02  0.41800000000E+01 0.  1.
        -11    1    1    2    0    0 -0.50484175950E+02  0.12176154973E+02  0.11399986451E+02  0.53168321982E+02  0.00000000000E+00 0.  1.
         11    1    1    2    0    0  0.28871938240E+02 -0.23772769451E+02 -0.78531675105E+01  0.38215253827E+02  0.00000000000E+00 0. -1.
</event>
<event>
 6    1  0.6447971E-006  0.8770713E+02  0.7561462E-02  0.1308501E+00
          2   -1    0    0  501    0  0.00000000000E+00  0.00000000000E+00  0.15767978885E+03  0.15767978885E+03  0.00000000000E+00 0. -1.
         -2   -1    0    0    0  501 -0.00000000000E+00 -0.00000000000E+00 -0.24449376996E+03  0.24449376996E+03  0.00000000000E+00 0.  1.
          5    1    1    2  502    0 -0.42053774931E+02  0.48766213999E+02 -0.26249089376E+02  0.69664558470E+02  0.41800000000E+01 0.  1.
         -5    1    1    2    0  502 -0.15883263162E+02 -0.17974045141E+02 -0.17224996002E+03  0.17396225301E+03  0.41800000000E+01 0.  1.
        -11    1    1    2    0    0  0.38462406126E+02 -0.47329673135E+02  0.21268013802E+02  0.64589341653E+02  0.00000000000E+00 0.  1.
         11    1    1    2    0    0  0.19474631967E+02  0.16537504276E+02  0.90417054488E+02  0.93957405669E+02  0.00000000000E+00 0. -1.
</event>
<event>
 6    1  0.6447971E-006  0.1644142E+03  0.7561462E-02  0.1183801E+00
         -1   -1    0    0    0  501 -0.00000000000E+00  0.00000000000E+00  0.50626568799E+02  0.50626568799E+02  0.00000000000E+00 0.  1.
          1   -1    0    0  501    0  0.00000000000E+00 -0.00000000000E+00 -0.60028910402E+03  0.60028910402E+03  0.00000000000E+00 0. -1.
          5    1    1    2  502    0 -0.99205521900E+02 -0.65905950869E+02 -0.15518703372E+03  0.19566762064E+03  0.41800000000E+01 0. -1.
         -5    1    1    2    0  502  0.25707622329E+02 -0.47401344422E+02 -0.16534083713E+03  0.17396216290E+03  0.41800000000E+01 0. -1.
        -11    1    1    2    0    0 -0.16064747270E+02  0.25523071267E+02 -0.85204657660E+02  0.90384384485E+02  0.00000000000E+00 0. -1.
         11    1    1    2    0    0  0.89562646841E+02  0.87784224024E+02 -0.14393000671E+03  0.19090150478E+03  0.00000000000E+00 0.  1.
</event>
<event>
 6    1  0.6447971E-006  0.9436540E+02  0.7561462E-02  0.1292612E+00
          2   -1    0    0  501    0  0.00000000000E+00  0.00000000000E+00  0.44001510432E+03  0.44001510432E+03  0.00000000000E+00 0.  1.
         -2   -1    0    0    0  501 -0.00000000000E+00 -0.00000000000E+00 -0.32358315298E+02  0.32358315298E+02  0.00000000000E+00 0. -1.
          5    1    1    2  502    0 -0.69617412422E+01  0.73347492004E+02  0.15095050429E+03  0.16802335424E+03  0.41800000000E+01 0.  1.
         -5    1    1    2    0  502  0.14825540739E+02 -0.39088075554E+02  0.19528835737E+02  0.46330574505E+02  0.41800000000E+01 0.  1.
        -11    1    1    2    0    0  0.21114960552E+02 -0.38228534444E+02  0.21958798139E+03  0.22388868658E+03  0.00000000000E+00 0.  1.
         11    1    1    2    0    0 -0.28978760049E+02  0.39691179936E+01  0.17589467608E+02  0.34130804302E+02  0.00000000000E+00 0. -1.
</event>
<event>
 6    1  0.6447971E-006  0.6677772E+02  0.7561462E-02  0.1371406E+00
         -2   -1    0    0    0  501 -0.00000000000E+00  0.00000000000E+00  0.34775528202E+02  0.34775528202E+02  0.00000000000E+00 0.  1.
          2   -1    0    0  501    0  0.00000000000E+00 -0.00000000000E+00 -0.48814733846E+03  0.48814733846E+03  0.00000000000E+00 0. -1.
          5    1    1    2  502    0  0.19105097672E+02  0.30411212720E+02 -0.15699149033E+03  0.16110135645E+03  0.41800000000E+01 0. -1.
         -5    1    1    2    0  502  0.64422772910E+01 -0.13072118442E+02  0.21215061404E+02  0.26075552681E+02  0.41800000000E+01 0. -1.
        -11    1    1    2    0    0  0.26604978140E+02  0.18446696702E+01 -0.20875628928E+02  0.33867677085E+02  0.00000000000E+00 0.  1.
         11    1    1    2    0    0 -0.52152353103E+02 -0.19183763948E+02 -0.29671975241E+03  0.30187828044E+03  0.00000000000E+00 0. -1.
</event>
<event>
 6    1  0.6447971E-006  0.1117620E+03  0.7561462E-02  0.1257341E+00
          2   -1    0    0  501    0  0.00000000000E+00  0.00000000000E+00  0.11704947459E+02  0.11704947459E+02  0.00000000000E+00 0. -1.
         -2   -1    0    0    0  501 -0.00000000000E+00 -0.00000000000E+00 -0.15717245764E+04  0.15717245764E+04  0.00000000000E+00 0.  1.
          5    1    1    2  502    0  0.41874874521E+02 -0.15211355551E+02 -0.39196232423E+03  0.39450833511E+03  0.41800000000E+01 0. -1.
         -5    1    1    2    0  502 -0.88409919169E+02  0.73964905385E+01 -0.85878009083E+03  0.86336072339E+03  0.41800000000E+01 0. -1.
        -11    1    1    2    0    0  0.52568360751E+02 -0.23849172980E+02 -0.11551416745E+03  0.12913457509E+03  0.00000000000E+00 0. -1.
         11    1    1    2    0    0 -0.60333161031E+01  0.31664037992E+02 -0.19376304647E+03  0.19642589031E+03  0.00000000000E+00 0.  1.
</event>
<event>
 6    1  0.6447971E-006  0.1012239E+03  0.7561462E-02  0.1277743E+00
          2   -1    0    0  501    0  0.00000000000E+00  0.00000000000E+00  0.64463581768E+03  0.64463581768E+03  0.00000000000E+00 0. -1.
         -2   -1    0    0    0  501 -0.00000000000E+00 -0.00000000000E+00 -0.27621159622E+02  0.27621159622E+02  0.00000000000E+00 0.  1.
          5    1    1    2  502    0  0.18580897083E+02 -0.14118853912E+02  0.75785783834E+01  0.24889737293E+02  0.41800000000E+01 0.  1.
         -5    1    1    2    0  502 -0.20306632401E+02  0.90215037690E+02  0.33764459044E+03  0.35010349070E+03  0.41800000000E+01 0.  1.
        -11    1    1    2    0    0  0.11233312605E+02 -0.19273407753E+01 -0.35593095871E+01  0.11940294774E+02  0.00000000000E+00 0.  1.
         11    1    1    2    0    0 -0.95075772871E+01 -0.74168843003E+02  0.27535079882E+03  0.28532345454E+03  0.00000000000E+00 0. -1.
</event>
<event>
 6    1  0.6447971E-006  0.1576518E+03  0.7561462E-02  0.1191374E+00
         -2   -1    0    0    0  501 -0.00000000000E+00  0.00000000000E+00  0.33659878952E+03  0.33659878952E+03  0.00000000000E+00 0.  1.
          2   -1    0    0  501    0  0.00000000000E+00 -0.00000000000E+00 -0.75638297276E+02  0.75638297276E+02  0.00000000000E+00 0. -1.
          5    1    1    2  502    0  0.86507147032E+01 -0.12393688202E+03  0.76178420142E+02  0.14579372306E+03  0.41800000000E+01 0. -1.
         -5    1    1    2    0  502  0.28829075801E+02  0.25456104666E+02  0.33079074625E+02  0.50900161634E+02  0.41800000000E+01 0. -1.
        -11    1    1    2    0    0 -0.74848483651E+02  0.45898588344E+02  0.98263504192E+02  0.13177515765E+03  0.00000000000E+00 0. -1.
         11    1    1    2    0    0  0.37368693146E+02  0.52582189010E+02  0.53439493288E+02  0.83768044453E+02  0.00000000000E+00 0.  1.
</event>
<event>
 6    1  0.6447971E-006  0.1093995E+03  0.7561462E-02  0.1261686E+00
         -2   -1    0    0    0  501 -0.00000000000E+00  0.00000000000E+00  0.20314217233E+02  0.20314217233E+02  0.00000000000E+00 0.  1.
          2   -1    0    0  501    0  0.00000000000E+00 -0.00000000000E+00 -0.61584761429E+03  0.61584761429E+03  0.00000000000E+00 0. -1.
          5    1    1    2  502    0 -0.59629292011E+02  0.21757446135E+02 -0.14018668707E+03  0.15394420600E+03  0.41800000000E+01 0. -1.
         -5    1    1    2    0  502  0.50524250030E+02 -0.36930076886E+02 -0.14080011330E+03  0.15413849203E+03  0.41800000000E+01 0. -1.
        -11    1    1    2    0    0 -0.26215027438E+02 -0.26880599846E+02 -0.14914729640E+03  0.15380087885E+03  0.00000000000E+00 0. -1.
         11    1    1    2    0    0  0.35320069419E+02  0.42053230596E+02 -0.16539930028E+03  0.17427825464E+03  0.00000000000E+00 0.  1.
</event>
<event>
 6    1  0.6447971E-006  0.1750288E+03  0.7561462E-02  0.1172703E+00
          1   -1    0    0  501    0  0.00000000000E+00  0.00000000000E+00  0.13863000982E+04  0.13863000982E+04  0.00000000000E+00 0. -1.
         -1   -1    0    0    0  501 -0.00000000000E+00 -0.00000000000E+00 -0.23453684157E+02  0.23453684157E+02  0.00000000000E+00 0.  1.
          5    1    1    2  502    0 -0.34087103761E+02  0.23691455664E+02  0.12179545957E+03  0.12874324093E+03  0.41800000000E+01 0. -1.
         -5    1    1    2    0  502 -0.42931910748E+02 -0.13739845247E+03  0.44114782988E+03  0.46405857810E+03  0.41800000000E+01 0. -1.
        -11    1    1    2    0    0  0.25844320438E+01  0.84225802963E+02  0.46831250054E+03  0.47583323059E+03  0.00000000000E+00 0. -1.
         11    1    1    2    0    0  0.74434582465E+02  0.29481193848E+02  0.33159062402E+03  0.34111873270E+03  0.00000000000E+00 0.  1.
</event>
<event>
 6    1  0.6447971E-006  0.1085696E+03  0.7561462E-02  0.1263242E+00
         -2   -1    0    0    0  501 -0.00000000000E+00  0.00000000000E+00  0.47403417113E+02  0.47403417113E+02  0.00000000000E+00 0.  1.
          2   -1    0    0  501    0  0.00000000000E+00 -0.00000000000E+00 -0.27682124620E+03  0.27682124620E+03  0.00000000000E+00 0. -1.
          5    1    1    2  502    0 -0.24450317937E+02  0.46874960143E+02 -0.24280742544E+02  0.58327581762E+02  0.41800000000E+01 0.  1.
         -5    1    1    2    0  502  0.23294882529E+02 -0.68267234803E+02 -0.61138113174E+02  0.94648867833E+02  0.41800000000E+01 0.  1.
        -11    1    1    2    0    0 -0.30908225636E+02  0.43168745631E+02 -0.94338473586E+02  0.10825251318E+03  0.00000000000E+00 0.  1.
         11    1    1    2    0    0  0.32063661044E+02 -0.21776470972E+02 -0.49660499780E+02  0.62995700535E+02  0.00000000000E+00 0. -1.
</event>
<event>
 6    1  0.6447971E-006  0.2506648E+03  0.7561462E-02  0.1112885E+00
         -2   -1    0    0    0  501 -0.00000000000E+00  0.00000000000E+00  0.11171576133E+04  0.11171576133E+04  0.00000000000E+00 0.  1.
          2   -1    0    0  501    0  0.00000000000E+00 -0.00000000000E+00 -0.80256135535E+02  0.80256135535E+02  0.00000000000E+00 0. -1.
          5    1    1    2  502    0  0.73727282734E+02  0.10676882240E+03  0.61640375236E+03  0.62992567179E+03  0.41800000000E+01 0.  1.
         -5    1    1    2    0  502  0.50781679822E+02  0.10123876705E+03  0.18850426958E+03  0.21995317458E+03  0.41800000000E+01 0.  1.
        -11    1    1    2    0    0 -0.11533047181E+03 -0.10883081723E+03  0.13093085200E+03  0.20564083377E+03  0.00000000000E+00 0. -1.
         11    1    1    2    0    0 -0.91784907427E+01 -0.99176772218E+02  0.10106260385E+03  0.14189406872E+03  0.00000000000E+00 0.  1.
</event>
<event>
 6    1  0.6447971E-006  0.1050795E+03  0.7561462E-02  0.1269963E+00
         -1   -1    0    0    0  501 -0.00000000000E+00  0.00000000000E+00  0.39353458487E+03  0.39353458487E+03  0.00000000000E+00 0.  1.
          1   -1    0    0  501    0  0.00000000000E+00 -0.00000000000E+00 -0.54164445091E+02  0.54164445091E+02  0.00000000000E+00 0. -1.
          5    1    1    2  502    0  0.43485498630E+02 -0.89798075168E+02  0.41830712755E+02  0.10826801848E+03  0.41800000000E+01 0. -1.
         -5    1    1    2    0  502 -0.14450366843E+02  0.59214073234E-01  0.10624161050E+03  0.10730129920E+03  0.41800000000E+01 0. -1.
        -11    1    1    2    0    0 -0.19143698933E+01  0.24892882998E+02 -0.33402741065E+01  0.25188844101E+02  0.00000000000E+00 0. -1.
         11    1    1    2    0    0 -0.27120761894E+02  0.64845978097E+02  0.19463809063E+03  0.20694086819E+03  0.00000000000E+00 0.  1.
</event>
<event>
 6    1  0.6447971E-006  0.3021293E+03  0.7561462E-02  0.1084181E+00
         -2   -1    0    0    0  501 -0.00000000000E+00  0.00000000000E+00  0.20280749468E+03  0.20280749468E+03  0.00000000000E+00 0. -1.
          2   -1    0    0  501    0  0.00000000000E+00 -0.00000000000E+00 -0.47257703788E+03  0.47257703788E+03  0.00000000000E+00 0.  1.
          5    1    1    2  502    0  0.83652436040E+01  0.56934137978E+02  0.33485188899E+01  0.57794103044E+02  0.41800000000E+01 0. -1.
         -5    1    1    2    0  502 -0.18944751085E+03  0.16317010487E+03 -0.83256105004E+02  0.26356003853E+03  0.41800000000E+01 0. -1.
        -11    1    1    2    0    0  0.85145378004E+02 -0.16547635932E+03 -0.97507832076E+02  0.21009506944E+03  0.00000000000E+00 0.  1.
         11    1    1    2    0    0  0.95936889243E+02 -0.54627883534E+02 -0.92354125010E+02  0.14393532153E+03  0.00000000000E+00 0. -1.
</event>
<event>
 6    1  0.6447971E-006  0.1473438E+03  0.7561462E-02  0.1203775E+00
         -1   -1    0    0    0  501 -0.00000000000E+00  0.00000000000E+00  0.67120498877E+02  0.67120498877E+02  0.00000000000E+00 0.  1.
          1   -1    0    0  501    0  0.00000000000E+00 -0.00000000000E+00 -0.33997683926E+03  0.33997683926E+03  0.00000000000E+00 0. -1.
          5    1    1    2  502    0 -0.76498725402E+02  0.75542821105E+02 -0.66373738367E+02  0.12641882120E+03  0.41800000000E+01 0.  1.
         -5    1    1    2    0  502  0.44744747469E+02  0.20967716648E+02 -0.63390397344E+02  0.80483243243E+02  0.41800000000E+01 0.  1.
        -11    1    1    2    0    0 -0.25200621758E+02 -0.70542825907E+02 -0.58946217401E+02  0.95320607267E+02  0.00000000000E+00 0.  1.
         11    1    1    2    0    0  0.56954599692E+02 -0.25967711847E+02 -0.84145987271E+02  0.10487466643E+03  0.00000000000E+00 0. -1.
</event>
<event>
 6    1  0.6447971E-006  0.7382178E+02  0.7561462E-02  0.1347559E+00
          1   -1    0    0  501    0  0.00000000000E+00  0.00000000000E+00  0.18067158562E+03  0.18067158562E+03  0.00000000000E+00 0. -1.
         -1   -1    0    0    0  501 -0.00000000000E+00 -0.00000000000E+00 -0.84974388406E+02  0.84974388406E+02  0.00000000000E+00 0.  1.
          5    1    1    2  502    0  0.30126275290E+02  0.12005978542E+02  0.49249651642E+02  0.59116296995E+02  0.41800000000E+01 0. -1.
         -5    1    1    2    0  502 -0.28069432294E+02 -0.89285293500E+01 -0.59407312138E+02  0.66440295011E+02  0.41800000000E+01 0. -1.
        -11    1    1    2    0    0  0.23317326519E+02  0.33415621968E+02  0.24948874458E+02  0.47778110513E+02  0.00000000000E+00 0.  1.
         11    1    1    2    0    0 -0.25374169515E+02 -0.36493071160E+02  0.80905983256E+02  0.92311271510E+02  0.00000000000E+00 0. -1.
</event>
<event>
 6    1  0.6447971E-006  0.1079197E+03  0.7561462E-02  0.1264472E+00
         -1   -1    0    0    0  501 -0.00000000000E+00  0.00000000000E+00  0.10487410558E+03  0.10487410558E+03  0.00000000000E+00 0.  1.
          1   -1    0    0  501    0  0.00000000000E+00 -0.00000000000E+00 -0.21120865221E+03  0.21120865221E+03  0.00000000000E+00 0. -1.
          5    1    1    2  502    0 -0.35470281695E+01  0.44142333509E+02  0.66637727765E+01  0.44977831029E+02  0.41800000000E+01 0. -1.
         -5    1    1    2    0  502 -0.54292394174E+02 -0.82016433377E+02  0.13703584939E+02  0.99396277844E+02  0.41800000000E+01 0. -1.
        -11    1    1    2    0    0  0.50885049678E+02  0.21726504504E+02 -0.13942780617E+03  0.15000480796E+03  0.00000000000E+00 0. -1.
         11    1    1    2    0    0  0.69543726659E+01  0.16147595364E+02  0.12725901815E+02  0.21703840955E+02  0.00000000000E+00 0.  1.
</event>
<event>
 6    1  0.6447971E-006  0.1117809E+03  0.7561462E-02  0.1257307E+00
          2   -1    0    0  501    0  0.00000000000E+00  0.00000000000E+00  0.18606594898E+03  0.18606594898E+03  0.00000000000E+00 0. -1.
         -2   -1    0    0    0  501 -0.00000000000E+00 -0.00000000000E+00 -0.76398120368E+02  0.76398120368E+02  0.00000000000E+00 0.  1.
          5    1    1    2  502    0  0.59338354522E+02 -0.23260276443E+01  0.26046849747E+02  0.64979700705E+02  0.41800000000E+01 0. -1.
         -5    1    1    2    0  502 -0.58124985311E+02 -0.43530604474E+02  0.52221284746E+02  0.89543075801E+02  0.41800000000E+01 0. -1.
        -11    1    1    2    0    0 -0.30177780229E+02  0.53421779842E+02 -0.41135019757E+01  0.61493949943E+02  0.00000000000E+00 0.  1.
         11    1    1    2    0    0  0.28964411019E+02 -0.75651477237E+01  0.35513196099E+02  0.46447342904E+02  0.00000000000E+00 0. -1.
</event>
<event>
 6    1  0.6447971E-006  0.1161701E+03  0.7561462E-02  0.1249552E+00
          2   -1    0    0  501    0  0.00000000000E+00  0.00000000000E+00  0.39429201815E+03  0.39429201815E+03  0.00000000000E+00 0. -1.
         -2   -1    0    0    0  501 -0.00000000000E+00 -0.00000000000E+00 -0.40221503947E+02  0.40221503947E+02  0.00000000000E+00 0.  1.
          5    1    1    2  502    0 -0.83674306414E+02  0.26664836800E+02  0.64593451076E+02  0.10909715577E+03  0.41800000000E+01 0.  1.
         -5    1    1    2    0  502  0.39519996904E+02  0.10853031440E+02  0.84232959353E+02  0.93767170630E+02  0.41800000000E+01 0.  1.
        -11    1    1    2    0    0  0.45607262477E+02  0.17011015049E+02  0.65272582251E+02  0.81424240969E+02  0.00000000000E+00 0.  1.
         11    1    1    2    0    0 -0.14529529672E+01 -0.54528883289E+02  0.13997152153E+03  0.15022495473E+03  0.00000000000E+00 0. -1.
</event>
<event>
 6    1  0.6447971E-006  0.1436292E+03  0.7561462E-02  0.1208527E+00
          3   -1    0    0  501    0  0.00000000000E+00  0.00000000000E+00  0.15260439741E+03  0.15260439741E+03  0.00000000000E+00 0. -1.
         -3   -1    0    0    0  501 -0.00000000000E+00 -0.00000000000E+00 -0.21188335548E+03  0.21188335548E+03  0.00000000000E+00 0.  1.
          5    1    1    2  502    0 -0.49623830985E+02  0.86329522819E+02 -0.20206422404E+02  0.10169111573E+03  0.41800000000E+01 0. -1.
         -5    1    1    2    0  502 -0.50819597998E+02 -0.18614829586E+02 -0.87774069106E+02  0.10320321230E+03  0.41800000000E+01 0. -1.
        -11    1    1    2    0    0  0.90072134344E+02 -0.31151997126E+02  0.67893855386E+02  0.11701714366E+03  0.00000000000E+00 0. -1.
         11    1    1    2    0    0  0.10371294638E+02 -0.36562696107E+02 -0.19192321949E+02  0.42576281201E+02  0.00000000000E+00 0.  1.
</event>
<event>
 6    1  0.6447971E-006  0.8909747E+02  0.7561462E-02  0.1305052E+00
         -1   -1    0    0    0  501 -0.00000000000E+00  0.00000000000E+00  0.13005826816E+03  0.13005826816E+03  0.00000000000E+00 0.  1.
          1   -1    0    0  501    0  0.00000000000E+00 -0.00000000000E+00 -0.10929367046E+03  0.10929367046E+03  0.00000000000E+00 0. -1.
          5    1    1    2  502    0  0.17082953104E+02 -0.55887340420E+02  0.20520977467E+02  0.62079022401E+02  0.41800000000E+01 0.  1.
         -5    1    1    2    0  502  0.76735449319E+01  0.68780234544E+02  0.33616228217E+02  0.77052755663E+02  0.41800000000E+01 0.  1.
        -11    1    1    2    0    0 -0.58609812371E+01 -0.26402011448E+02  0.25351513370E+02  0.37069077946E+02  0.00000000000E+00 0.  1.
         11    1    1    2    0    0 -0.18895516799E+02  0.13509117324E+02 -0.58724121350E+02  0.63151082606E+02  0.00000000000E+00 0. -1.
</event>
<event>
 6    1  0.6447971E-006  0.1734082E+03  0.7561462E-02  0.1174340E+00
          1   -1    0    0  501    0  0.00000000000E+00  0.00000000000E+00  0.24759237977E+03  0.24759237977E+03  0.00000000000E+00 0. -1.
         -1   -1    0    0    0  501 -0.00000000000E+00 -0.00000000000E+00 -0.18380814311E+03  0.18380814311E+03  0.00000000000E+00 0.  1.
          5    1    1    2  502    0 -0.71974128806E+01 -0.81852263608E+02  0.33992886598E+02  0.89020135639E+02  0.41800000000E+01 0.  1.
         -5    1    1    2    0  502  0.58488174709E+02 -0.77381206091E+02 -0.77788105263E+02  0.12440731231E+03  0.41800000000E+01 0.  1.
        -11    1    1    2    0    0 -0.35555986952E+02  0.98724577876E+02  0.14621687882E+02  0.10594604401E+03  0.00000000000E+00 0.  1.
         11    1    1    2    0    0 -0.15734774876E+02  0.60508891823E+02  0.92957767437E+02  0.11202703092E+03  0.00000000000E+00 0. -1.
</event>
<event>
 6    1  0.6447971E-006  0.9551843E+02  0.7561462E-02  0.1290013E+00
         -1   -1    0    0    0  501 -0.00000000000E+00  0.00000000000E+00  0.13221910001E+03  0.13221910001E+03  0.00000000000E+00 0.  1.
          1   -1    0    0  501    0  0.00000000000E+00 -0.00000000000E+00 -0.13919321210E+03  0.13919321210E+03  0.00000000000E+00 0. -1.
          5    1    1    2  502    0 -0.23684103668E+02 -0.17353622302E+02  0.68397144692E+02  0.74550162814E+02  0.41800000000E+01 0. -1.
         -5    1    1    2    0  502  0.67998321808E+02  0.25122695480E+02 -0.48935719279E+01  0.72775964735E+02  0.41800000000E+01 0. -1.
        -11    1    1    2    0    0 -0.30745778742E+02  0.33414340994E+02 -0.66526391855E+02  0.80545526926E+02  0.00000000000E+00 0. -1.
         11    1    1    2    0    0 -0.13568439397E+02 -0.41183414171E+02 -0.39512930025E+01  0.43540657630E+02  0.00000000000E+00 0.  1.
</event>
<event>
 6    1  0.6447971E-006  0.1337166E+03  0.7561462E-02  0.1222043E+00
          4   -1    0    0  501    0  0.00000000000E+00  0.00000000000E+00  0.43574690306E+02  0.43574690306E+02  0.00000000000E+00 0. -1.
         -4   -1    0    0    0  501 -0.00000000000E+00 -0.00000000000E+00 -0.54075030011E+03  0.54075030011E+03  0.00000000000E+00 0.  1.
          5    1    1    2  502    0 -0.11291393579E+03  0.11418824818E+02 -0.13276038292E+03  0.17470757891E+03  0.41800000000E+01 0.  1.
         -5    1    1    2    0  502  0.71385719705E+01  0.13464634387E+02 -0.16744853658E+03  0.16819256937E+03  0.41800000000E+01 0.  1.
        -11    1    1    2    0    0  0.34284354702E+02 -0.51424160049E+02 -0.10620279928E+03  0.12287756422E+03  0.00000000000E+00 0.  1.
         11    1    1    2    0    0  0.71491009120E+02  0.26540700844E+02 -0.90763891023E+02  0.11854727791E+03  0.00000000000E+00 0. -1.
</event>
<event>
 6    1  0.6447971E-006  0.8528712E+02  0.7561462E-02  0.1314683E+00
          1   -1    0    0  501    0  0.00000000000E+00  0.00000000000E+00  0.21596534091E+03  0.21596534091E+03  0.00000000000E+00 0. -1.
         -1   -1    0    0    0  501 -0.00000000000E+00 -0.00000000000E+00 -0.60668990260E+02  0.60668990260E+02  0.00000000000E+00 0.  1.
          5    1    1    2  502    0  0.70156657080E+02 -0.27390913335E+02  0.66445352747E+02  0.10052201733E+03  0.41800000000E+01 0. -1.
         -5    1    1    2    0  502 -0.46064083443E+02  0.34341877167E+01  0.28720664942E+01  0.46469501769E+02  0.41800000000E+01 0. -1.
        -11    1    1    2    0    0 -0.10246467155E+02 -0.86048453876E+01 -0.16490687451E+02  0.21236200835E+02  0.00000000000E+00 0.  1.
         11    1    1    2    0    0 -0.13846106482E+02  0.32561571006E+02  0.10246961886E+03  0.10840661124E+03  0.00000000000E+00 0. -1.
</event>
<event>
 6    1  0.6447971E-006  0.1066685E+03  0.7561462E-02  0.1266867E+00
         -2   -1    0    0    0  501 -0.00000000000E+00  0.00000000000E+00  0.15511567456E+02  0.15511567456E+02  0.00000000000E+00 0.  1.
          2   -1    0    0  501    0  0.00000000000E+00 -0.00000000000E+00 -0.82979353838E+03  0.82979353838E+03  0.00000000000E+00 0. -1.
          5    1    1    2  502    0 -0.70966961994E+02  0.31624343940E+02 -0.19922917449E+03  0.21388348509E+03  0.41800000000E+01 0.  1.
         -5    1    1    2    0  502  0.42776463168E+02 -0.35529995058E+01 -0.26743281646E+03  0.27088786116E+03  0.41800000000E+01 0.  1.
        -11    1    1    2    0    0  0.49535864999E+02 -0.43613238825E+02 -0.20108947750E+03  0.21164331902E+03  0.00000000000E+00 0.  1.
         11    1    1    2    0    0 -0.21345366174E+02  0.15541894391E+02 -0.14653050247E+03  0.14889044057E+03  0.00000000000E+00 0. -1.
</event>
<event>
 6    1  0.6447971E-006  0.1106131E+03  0.7561462E-02  0.1259439E+00
         -1   -1    0    0    0  501 -0.00000000000E+00  0.00000000000E+00  0.46419116042E+02  0.46419116042E+02  0.00000000000E+00 0.  1.
          1   -1    0    0  501    0  0.00000000000E+00 -0.00000000000E+00 -0.45459145120E+03  0.45459145120E+03  0.00000000000E+00 0. -1.
          5    1    1    2  502    0  0.47656617831E+02  0.31643696069E+02 -0.70253919180E+02  0.90694885656E+02  0.41800000000E+01 0.  1.
         -5    1    1    2    0  502 -0.12966907774E+02 -0.62050053403E+02 -0.83467535666E+01  0.64074101785E+02  0.41800000000E+01 0.  1.
        -11    1    1    2    0    0 -0.26902444699E+02 -0.29502752011E+02 -0.79333829433E+02  0.88814471790E+02  0.00000000000E+00 0.  1.
         11    1    1    2    0    0 -0.77872653582E+01  0.59909109344E+02 -0.25023783298E+03  0.25742710801E+03  0.00000000000E+00 0. -1.
</event>
<event>
 6    1  0.6447971E-006  0.8988589E+02  0.7561462E-02  0.1303128E+00
         -2   -1    0    0    0  501 -0.00000000000E+00  0.00000000000E+00  0.62621360986E+02  0.62621360986E+02  0.00000000000E+00 0. -1.
          2   -1    0    0  501    0  0.00000000000E+00 -0.00000000000E+00 -0.25501446713E+03  0.25501446713E+03  0.00000000000E+00 0.  1.
          5    1    1    2  502    0  0.48180927143E+01 -0.26346947028E+02 -0.67998041764E+02  0.73202334108E+02  0.41800000000E+01 0.  1.
         -5    1    1    2    0  502  0.23668437437E+02  0.80742315524E+02 -0.56950056701E+01  0.84435904309E+02  0.41800000000E+01 0.  1.
        -11    1    1    2    0    0 -0.10488312623E+02 -0.48287929102E+02 -0.10987054112E+02  0.50620590245E+02  0.00000000000E+00 0. -1.
         11    1    1    2    0    0 -0.17998217528E+02 -0.61074393936E+01 -0.10771300460E+03  0.10937699946E+03  0.00000000000E+00 0.  1.
</event>
<event>
 6    1  0.6447971E-006  0.1481909E+03  0.7561462E-02  0.1202714E+00
          1   -1    0    0  501    0  0.00000000000E+00  0.00000000000E+00  0.28702403362E+03  0.28702403362E+03  0.00000000000E+00 0. -1.
         -1   -1    0    0    0  501 -0.00000000000E+00 -0.00000000000E+00 -0.92323003239E+02  0.92323003239E+02  0.00000000000E+00 0.  1.
          5    1    1    2  502    0  0.31555216815E+02  0.89548529631E+02  0.26649090794E+02  0.98703177798E+02  0.41800000000E+01 0.  1.
         -5    1    1    2    0  502  0.54846384233E+02 -0.34958963551E+02  0.12818809929E+01  0.65187196710E+02  0.41800000000E+01 0.  1.
        -11    1    1    2    0    0 -0.32903069444E+02  0.24262922689E+02  0.56123872580E+02  0.69434792933E+02  0.00000000000E+00 0.  1.
         11    1    1    2    0    0 -0.53498531604E+02 -0.78852488769E+02  0.11064618602E+03  0.14602186942E+03  0.00000000000E+00 0. -1.
</event>
<event>
 6    1  0.6447971E-006  0.1675921E+03  0.7561462E-02  0.1180382E+00
          1   -1    0    0  501    0  0.00000000000E+00  0.00000000000E+00  0.53939854812E+02  0.53939854812E+02  0.00000000000E+00 0. -1.
         -1   -1    0    0    0  501 -0.00000000000E+00 -0.00000000000E+00 -0.53372392053E+03  0.53372392053E+03  0.00000000000E+00 0.  1.
          5    1    1    2  502    0  0.28298148354E+02 -0.12664459484E+02 -0.35186110362E+02  0.47081933868E+02  0.41800000000E+01 0. -1.
         -5    1    1    2    0  502 -0.13377934692E+03 -0.64017984685E+02 -0.23802359324E+03  0.28047801939E+03  0.41800000000E+01 0. -1.
        -11    1    1    2    0    0  0.10908118981E+03  0.36257457514E+02 -0.17151865552E+03  0.20647507934E+03  0.00000000000E+00 0.  1.
         11    1    1    2    0    0 -0.35999912512E+01  0.40424986654E+02 -0.35055706598E+02  0.53628742742E+02  0.00000000000E+00 0. -1.
</event>
<event>
 6    1  0.6447971E-006  0.1338617E+03  0.7561462E-02  0.1221836E+00
          2   -1    0    0  501    0  0.00000000000E+00  0.00000000000E+00  0.24991159704E+02  0.24991159704E+02  0.00000000000E+00 0.  1.
         -2   -1    0    0    0  501 -0.00000000000E+00 -0.00000000000E+00 -0.82212982452E+03  0.82212982452E+03  0.00000000000E+00 0. -1.
          5    1    1    2  502    0 -0.83960041504E+02 -0.69972361634E+02 -0.26217399077E+03  0.28407409914E+03  0.41800000000E+01 0.  1.
         -5    1    1    2    0  502  0.41319026386E+02 -0.14843359958E+02 -0.17417762934E+03  0.17967444515E+03  0.41800000000E+01 0.  1.
        -11    1    1    2    0    0 -0.12393511458E+02 -0.85267090650E+00 -0.51534779206E+01  0.13449331159E+02  0.00000000000E+00 0.  1.
         11    1    1    2    0    0  0.55034526576E+02  0.85668392498E+02 -0.35563356678E+03  0.36992310878E+03  0.00000000000E+00 0. -1.
</event>
<event>
 6    1  0.6447971E-006  0.1656797E+03  0.7561462E-02  0.1182430E+00
          3   -1    0    0  501    0  0.00000000000E+00  0.00000000000E+00  0.69633892982E+02  0.69633892982E+02  0.00000000000E+00 0. -1.
         -3   -1    0    0    0  501 -0.00000000000E+00 -0.00000000000E+00 -0.44391439134E+03  0.44391439134E+03  0.00000000000E+00 0.  1.
          5    1    1    2  502    0  0.14817387022E+02  0.83231193079E+01 -0.80343895215E+02  0.82227995060E+02  0.41800000000E+01 0.  1.
         -5    1    1    2    0  502 -0.12271958571E+03 -0.76247765755E+02 -0.13764294843E+03  0.19959176374E+03  0.41800000000E+01 0.  1.
        -11    1    1    2    0    0  0.74464607432E+02 -0.18435009633E+02 -0.87495864767E+02  0.11636302545E+03  0.00000000000E+00 0.  1.
         11    1    1    2    0    0  0.33437591251E+02  0.86359656079E+02 -0.68797789944E+02  0.11536550008E+03  0.00000000000E+00 0. -1.
</event>
<event>
 6    1  0.6447971E-006  0.2893717E+03  0.7561462E-02  0.1090678E+00
         -1   -1    0    0    0  501 -0.00000000000E+00  0.00000000000E+00  0.41165425032E+02  0.41165425032E+02  0.00000000000E+00 0.  1.
          1   -1    0    0  501    0  0.00000000000E+00 -0.00000000000E+00 -0.20830306462E+04  0.20830306462E+04  0.00000000000E+00 0. -1.
          5    1    1    2  502    0 -0.17151306104E+03  0.10407742608E+03 -0.73971975433E+03  0.76645393082E+03  0.41800000000E+01 0. -1.
         -5    1    1    2    0  502  0.20589170069E+03 -0.16477400796E+03 -0.78570792252E+03  0.82879205958E+03  0.41800000000E+01 0.  1.
        -11    1    1    2    0    0 -0.30403005971E+02 -0.18138403316E+02 -0.15417311484E+03  0.15818563078E+03  0.00000000000E+00 0.  1.
         11    1    1    2    0    0 -0.39756336758E+01  0.78834985196E+02 -0.36226442951E+03  0.37076445008E+03  0.00000000000E+00 0. -1.
</event>
<event>
 6    1  0.6447971E-006  0.1066281E+03  0.7561462E-02  0.1266945E+00
         -2   -1    0    0    0  501 -0.00000000000E+00  0.00000000000E+00  0.85779824569E+02  0.85779824569E+02  0.00000000000E+00 0. -1.
          2   -1    0    0  501    0  0.00000000000E+00 -0.00000000000E+00 -0.22052858083E+03  0.22052858083E+03  0.00000000000E+00 0.  1.
          5    1    1    2  502    0  0.47659923822E+02  0.26063594574E+02  0.57045745111E+01  0.54779502291E+02  0.41800000000E+01 0.  1.
         -5    1    1    2    0  502  0.24175531408E+02 -0.67040543623E+02 -0.98205356020E+02  0.12141109982E+03  0.41800000000E+01 0.  1.
        -11    1    1    2    0    0 -0.62683089048E+02  0.22202133062E+02 -0.69231233166E+02  0.95995145767E+02  0.00000000000E+00 0.  1.
         11    1    1    2    0    0 -0.91523661813E+01  0.18774815987E+02  0.26983258411E+02  0.34122657525E+02  0.00000000000E+00 0. -1.
</event>
<event>
 6    1  0.6447971E-006  0.2205485E+03  0.7561462E-02  0.1133475E+00
         -1   -1    0    0    0  501 -0.00000000000E+00  0.00000000000E+00  0.51622495043E+03  0.51622495043E+03  0.00000000000E+00 0.  1.
          1   -1    0    0  501    0  0.00000000000E+00 -0.00000000000E+00 -0.12844671668E+03  0.12844671668E+03  0.00000000000E+00 0. -1.
          5    1    1    2  502    0 -0.23397330459E+02 -0.92669269472E+01 -0.33138953928E+01  0.25724799520E+02  0.41800000000E+01 0. -1.
         -5    1    1    2    0  502 -0.62457383908E+02 -0.18130875674E+03  0.33136043799E+03  0.38287204435E+03  0.41800000000E+01 0. -1.
        -11    1    1    2    0    0  0.54079518465E+02  0.33712640559E+02  0.38936403281E+02  0.74680519222E+02  0.00000000000E+00 0.  1.
         11    1    1    2    0    0  0.31775195903E+02  0.15686304313E+03  0.20795287869E+02  0.16139430403E+03  0.00000000000E+00 0. -1.
</event>
<event>
 6    1  0.6447971E-006  0.1135893E+03  0.7561462E-02  0.1254064E+00
          3   -1    0    0  501    0  0.00000000000E+00  0.00000000000E+00  0.15782297362E+03  0.15782297362E+03  0.00000000000E+00 0. -1.
         -3   -1    0    0    0  501 -0.00000000000E+00 -0.00000000000E+00 -0.14485629764E+03  0.14485629764E+03  0.00000000000E+00 0.  1.
          5    1    1    2  502    0  0.62087299030E+02 -0.75447776356E+02 -0.68983256114E+02  0.11968024767E+03  0.41800000000E+01 0. -1.
         -5    1    1    2    0  502 -0.20823468975E+02 -0.12909666824E+02  0.34614576123E+02  0.42613585133E+02  0.41800000000E+01 0. -1.
        -11    1    1    2    0    0 -0.45507854925E+02  0.57270576245E+02 -0.11170410973E+02  0.73997715131E+02  0.00000000000E+00 0.  1.
         11    1    1    2    0    0  0.42440248707E+01  0.31086866934E+02  0.58505766941E+02  0.66387723325E+02  0.00000000000E+00 0. -1.
</event>
<event>
 6    1  0.6447971E-006  0.1953743E+03  0.7561462E-02  0.1153701E+00
         -2   -1    0    0    0  501 -0.00000000000E+00  0.00000000000E+00  0.10390185393E+03  0.10390185393E+03  0.00000000000E+00 0.  1.
          2   -1    0    0  501    0  0.00000000000E+00 -0.00000000000E+00 -0.43393252866E+03  0.43393252866E+03  0.00000000000E+00 0. -1.
          5    1    1    2  502    0 -0.59843836650E+02 -0.11913030841E+02  0.74090861670E+01  0.61608214116E+02  0.41800000000E+01 0.  1.
         -5    1    1    2    0  502 -0.11940403275E+03  0.45135510982E+02 -0.17098726141E+03  0.21342130482E+03  0.41800000000E+01 0.  1.
        -11    1    1    2    0    0  0.11339100491E+03  0.22499503058E+02 -0.11091811840E+03  0.16020791685E+03  0.00000000000E+00 0.  1.
         11    1    1    2    0    0  0.65856864490E+02 -0.55721983199E+02 -0.55534381083E+02  0.10259694681E+03  0.00000000000E+00 0. -1.
</event>
<event>
 6    1  0.6447971E-006  0.9202695E+02  0.7561462E-02  0.1298016E+00
          1   -1    0    0  501    0  0.00000000000E+00  0.00000000000E+00  0.19818719129E+03  0.19818719129E+03  0.00000000000E+00 0. -1.
         -1   -1    0    0    0  501 -0.00000000000E+00 -0.00000000000E+00 -0.94301804475E+02  0.94301804475E+02  0.00000000000E+00 0.  1.
          5    1    1    2  502    0 -0.11332158733E+02 -0.94310151760E+01  0.68692200005E+02  0.70380768753E+02  0.41800000000E+01 0.  1.
         -5    1    1    2    0  502 -0.67695693667E+02  0.28056290684E+02 -0.36818592724E+02  0.82115428260E+02  0.41800000000E+01 0.  1.
        -11    1    1    2    0    0  0.63479349833E+02 -0.35215979322E+02  0.86581616632E+02  0.11298747450E+03  0.00000000000E+00 0. -1.
         11    1    1    2    0    0  0.15548502568E+02  0.16590703814E+02 -0.14569837096E+02  0.27005324256E+02  0.00000000000E+00 0.  1.
</event>
<event>
 6    1  0.6447971E-006  0.1380191E+03  0.7561462E-02  0.1216020E+00
         -1   -1    0    0    0  501 -0.00000000000E+00  0.00000000000E+00  0.22927660082E+03  0.22927660082E+03  0.00000000000E+00 0.  1.
          1   -1    0    0  501    0  0.00000000000E+00 -0.00000000000E+00 -0.12043871612E+03  0.12043871612E+03  0.00000000000E+00 0. -1.
          5    1    1    2  502    0 -0.11757014059E+03 -0.27764439498E+02  0.10989757268E+02  0.12137482945E+03  0.41800000000E+01 0. -1.
         -5    1    1    2    0  502  0.70012018540E+01 -0.29480665214E+02  0.62937224655E+02  0.69976375272E+02  0.41800000000E+01 0. -1.
        -11    1    1    2    0    0  0.80323756010E+02  0.43593842912E+02  0.66127025888E+02  0.11280564025E+03  0.00000000000E+00 0.  1.
         11    1    1    2    0    0  0.30245182723E+02  0.13651261800E+02 -0.31216123107E+02  0.45558471973E+02  0.00000000000E+00 0. -1.
</event>
<event>
 6    1  0.6447971E-006  0.1127283E+03  0.7561462E-02  0.1255599E+00
         -2   -1    0    0    0  501 -0.00000000000E+00  0.00000000000E+00  0.55787123716E+03  0.55787123716E+03  0.00000000000E+00 0.  1.
          2   -1    0    0  501    0  0.00000000000E+00 -0.00000000000E+00 -0.24567069751E+02  0.24567069751E+02  0.00000000000E+00 0. -1.
          5    1    1    2  502    0 -0.37620718680E+02  0.19072658969E+02  0.69430642318E+02  0.81345997362E+02  0.41800000000E+01 0.  1.
         -5    1    1    2    0  502  0.70971820062E+02 -0.45040100964E+02  0.27213144561E+03  0.28484839131E+03  0.41800000000E+01 0.  1.
        -11    1    1    2    0    0  0.95200787051E+01 -0.28238208586E+02  0.44060924706E+02  0.53192042719E+02  0.00000000000E+00 0. -1.
         11    1    1    2    0    0 -0.42871180087E+02  0.54205650581E+02  0.14768115477E+03  0.16305187552E+03  0.00000000000E+00 0.  1.
</event>
<event>
 6    1  0.6447971E-006  0.1433303E+03  0.7561462E-02  0.1208917E+00
          3   -1    0    0  501    0  0.00000000000E+00  0.00000000000E+00  0.65285696835E+03  0.65285696835E+03  0.00000000000E+00 0. -1.
         -3   -1    0    0    0  501 -0.00000000000E+00 -0.00000000000E+00 -0.38036971372E+02  0.38036971372E+02  0.00000000000E+00 0.  1.
          5    1    1    2  502    0  0.11383847731E+03  0.46330320127E+01  0.24110302229E+03  0.26669983813E+03  0.41800000000E+01 0.  1.
         -5    1    1    2    0  502 -0.84311150903E+01 -0.33597618098E+02  0.13718731179E+02  0.37490793919E+02  0.41800000000E+01 0.  1.
        -11    1    1    2    0    0 -0.15111151736E+02  0.43728120920E+02  0.16400065803E+03  0.17040161765E+03  0.00000000000E+00 0.  1.
         11    1    1    2    0    0 -0.90296210486E+02 -0.14763534835E+02  0.19599758549E+03  0.21630169002E+03  0.00000000000E+00 0. -1.
</event>
<event>
 6    1  0.6447971E-006  0.9065071E+02  0.7561462E-02  0.1301284E+00
         -1   -1    0    0    0  501 -0.00000000000E+00  0.00000000000E+00  0.53641645557E+03  0.53641645557E+03  0.00000000000E+00 0. -1.
          1   -1    0    0  501    0  0.00000000000E+00 -0.00000000000E+00 -0.29465780625E+02  0.29465780625E+02  0.00000000000E+00 0.  1.
          5    1    1    2  502    0 -0.32047500696E+02  0.49726990450E+02  0.28110526897E+03  0.28729333533E+03  0.41800000000E+01 0.  1.
         -5    1    1    2    0  502  0.48424298882E+02  0.15885308188E+02  0.43607432109E+02  0.67203692410E+02  0.41800000000E+01 0.  1.
        -11    1    1    2    0    0 -0.56883997002E+00 -0.44409585662E+02  0.17936581166E+03  0.18478265414E+03  0.00000000000E+00 0. -1.
         11    1    1    2    0    0 -0.15807958216E+02 -0.21202712976E+02  0.28721622031E+01  0.26602554318E+02  0.00000000000E+00 0.  1.
</event>
<event>
 6    1  0.6447971E-006  0.1062420E+03  0.7561462E-02  0.1267692E+00
          1   -1    0    0  501    0  0.00000000000E+00  0.00000000000E+00  0.82485777417E+02  0.82485777417E+02  0.00000000000E+00 0. -1.
         -1   -1    0    0    0  501 -0.00000000000E+00 -0.00000000000E+00 -0.15657406767E+03  0.15657406767E+03  0.00000000000E+00 0.  1.
          5    1    1    2  502    0 -0.36937076293E+01  0.82615679918E+02 -0.48716968615E+02  0.96071897428E+02  0.41800000000E+01 0.  1.
         -5    1    1    2    0  502  0.24223556999E+02 -0.38741651153E+02  0.21095367688E+01  0.45930586684E+02  0.41800000000E+01 0.  1.
        -11    1    1    2    0    0 -0.38257080857E+02 -0.19804777657E+01 -0.33853612373E+02  0.51123317562E+02  0.00000000000E+00 0.  1.
         11    1    1    2    0    0  0.17727231487E+02 -0.41893550999E+02  0.63727539627E+01  0.45934043416E+02  0.00000000000E+00 0. -1.
</event>
<event>
 6    1  0.6447971E-006  0.1590937E+03  0.7561462E-02  0.1189724E+00
         -2   -1    0    0    0  501 -0.00000000000E+00  0.00000000000E+00  0.12825312598E+03  0.12825312598E+03  0.00000000000E+00 0. -1.
          2   -1    0    0  501    0  0.00000000000E+00 -0.00000000000E+00 -0.29686323940E+03  0.29686323940E+03  0.00000000000E+00 0.  1.
          5    1    1    2  502    0 -0.70262529725E+02 -0.64046220695E+02 -0.25103800160E+02  0.98419584693E+02  0.41800000000E+01 0. -1.
         -5    1    1    2    0  502  0.38754304426E+02 -0.65755946725E+02  0.37108853997E+02  0.84972231265E+02  0.41800000000E+01 0. -1.
        -11    1    1    2    0    0  0.46479237228E+02  0.12000255705E+03 -0.11131847009E+03  0.17015503218E+03  0.00000000000E+00 0. -1.
         11    1    1    2    0    0 -0.14971011929E+02  0.97996103676E+01 -0.69296697162E+02  0.71569517248E+02  0.00000000000E+00 0.  1.
</event>
<event>
 6    1  0.6447971E-006  0.8109310E+02  0.7561462E-02  0.1325978E+00
          1   -1    0    0  501    0  0.00000000000E+00  0.00000000000E+00  0.18338897452E+03  0.18338897452E+03  0.00000000000E+00 0. -1.
         -1   -1    0    0    0  501 -0.00000000000E+00 -0.00000000000E+00 -0.68742916172E+02  0.68742916172E+02  0.00000000000E+00 0.  1.
          5    1    1    2  502    0 -0.20249647170E+02  0.30974773232E+02  0.71603187078E+02  0.80709191465E+02  0.41800000000E+01 0. -1.
         -5    1    1    2    0  502  0.56905581106E+01 -0.41877214027E+02 -0.22229329310E+02  0.47934319520E+02  0.41800000000E+01 0.  1.
        -11    1    1    2    0    0  0.34986773195E+02  0.35943416907E+02  0.74561649262E+02  0.89863468986E+02  0.00000000000E+00 0. -1.
         11    1    1    2    0    0 -0.20427684136E+02 -0.25040976112E+02 -0.92894486863E+01  0.33624910716E+02  0.00000000000E+00 0.  1.
</event>
<event>
 6    1  0.6447971E-006  0.1216654E+03  0.7561462E-02  0.1240375E+00
         -2   -1    0    0    0  501 -0.00000000000E+00  0.00000000000E+00  0.17846405378E+03  0.17846405378E+03  0.00000000000E+00 0.  1.
          2   -1    0    0  501    0  0.00000000000E+00 -0.00000000000E+00 -0.93540613877E+02  0.93540613877E+02  0.00000000000E+00 0. -1.
          5    1    1    2  502    0 -0.95567970565E+01 -0.40098682893E+02  0.80584247988E+00  0.41441024623E+02  0.41800000000E+01 0.  1.
         -5    1    1    2    0  502  0.73165794252E+02  0.58243671926E+02  0.68663335928E+02  0.11609343163E+03  0.41800000000E+01 0.  1.
        -11    1    1    2    0    0  0.34911825026E+01 -0.38117524245E+02 -0.10684353420E+02  0.39740274506E+02  0.00000000000E+00 0. -1.
         11    1    1    2    0    0 -0.67100179698E+02  0.19972535211E+02  0.26138614913E+02  0.74729936891E+02  0.00000000000E+00 0.  1.
</event>
<event>
 6    1  0.6447971E-006  0.1075853E+03  0.7561462E-02  0.1265108E+00
         -2   -1    0    0    0  501 -0.00000000000E+00  0.00000000000E+00  0.15493189764E+03  0.15493189764E+03  0.00000000000E+00 0.  1.
          2   -1    0    0  501    0  0.00000000000E+00 -0.00000000000E+00 -0.84526293476E+02  0.84526293476E+02  0.00000000000E+00 0. -1.
          5    1    1    2  502    0 -0.72401647970E+01  0.68139198347E+02  0.21401403599E+02  0.71908711667E+02  0.41800000000E+01 0. -1.
         -5    1    1    2    0  502 -0.10153942046E+02 -0.53073365397E+02  0.51073754457E+02  0.74470701943E+02  0.41800000000E+01 0. -1.
        -11    1    1    2    0    0  0.17332799530E+02 -0.52295691551E+02 -0.69518092248E+01  0.55530108463E+02  0.00000000000E+00 0.  1.
         11    1    1    2    0    0  0.61307313118E-01  0.37229858601E+02  0.48822553374E+01  0.37548669047E+02  0.00000000000E+00 0. -1.
</event>
<event>
 6    1  0.6447971E-006  0.9812754E+02  0.7561462E-02  0.1284283E+00
         -2   -1    0    0    0  501 -0.00000000000E+00  0.00000000000E+00  0.87724943878E+02  0.87724943878E+02  0.00000000000E+00 0.  1.
          2   -1    0    0  501    0  0.00000000000E+00 -0.00000000000E+00 -0.14767106038E+03  0.14767106038E+03  0.00000000000E+00 0. -1.
          5    1    1    2  502    0  0.41275168331E+02  0.44323375236E+02 -0.31020292440E+02  0.68175743899E+02  0.41800000000E+01 0.  1.
         -5    1    1    2    0  502 -0.22747789468E+02 -0.44891188397E+02  0.29182845124E+02  0.58324879519E+02  0.41800000000E+01 0.  1.
        -11    1    1    2    0    0  0.13122381799E+01  0.40466178428E+02 -0.69969835282E+01  0.41087605724E+02  0.00000000000E+00 0. -1.
         11    1    1    2    0    0 -0.19839617043E+02 -0.39898365267E+02 -0.51111685658E+02  0.67807775116E+02  0.00000000000E+00 0.  1.
</event>
<event>
 6    1  0.6447971E-006  0.1182257E+03  0.7561462E-02  0.1246053E+00
          2   -1    0    0  501    0  0.00000000000E+00  0.00000000000E+00  0.71543060438E+03  0.71543060438E+03  0.00000000000E+00 0. -1.
         -2   -1    0    0    0  501 -0.00000000000E+00 -0.00000000000E+00 -0.20330246315E+02  0.20330246315E+02  0.00000000000E+00 0.  1.
          5    1    1    2  502    0  0.75354222056E+02 -0.58169665094E+01  0.17493865038E+03  0.19061243317E+03  0.41800000000E+01 0.  1.
         -5    1    1    2    0  502 -0.37008731458E+02  0.40668165856E+02  0.22363556210E+03  0.23033428523E+03  0.41800000000E+01 0.  1.
        -11    1    1    2    0    0 -0.43130043643E+02 -0.63392045009E+02  0.20830942259E+03  0.22197199728E+03  0.00000000000E+00 0.  1.
         11    1    1    2    0    0  0.47845530456E+01  0.28540845663E+02  0.88216722987E+02  0.92842135012E+02  0.00000000000E+00 0. -1.
</event>
<event>
 6    1  0.6447971E-006  0.1118763E+03  0.7561462E-02  0.1257134E+00
          2   -1    0    0  501    0  0.00000000000E+00  0.00000000000E+00  0.15179903194E+03  0.15179903194E+03  0.00000000000E+00 0. -1.
         -2   -1    0    0    0  501 -0.00000000000E+00 -0.00000000000E+00 -0.16292019441E+03  0.16292019441E+03  0.00000000000E+00 0.  1.
          5    1    1    2  502    0  0.33223168962E+01  0.68179869909E+02 -0.97732184533E+02  0.11928363150E+03  0.41800000000E+01 0. -1.
         -5    1    1    2    0  502 -0.32982078747E+02 -0.37705550081E+02 -0.10138192364E+02  0.51281393992E+02  0.41800000000E+01 0. -1.
        -11    1    1    2    0    0  0.41381010179E+02 -0.60251708986E+02  0.54609065934E+02  0.91240377692E+02  0.00000000000E+00 0. -1.
         11    1    1    2    0    0 -0.11721248328E+02  0.29777389158E+02  0.42140148490E+02  0.52913823168E+02  0.00000000000E+00 0.  1.
</event>
<event>
 6    1  0.6447971E-006  0.5751707E+02  0.7561462E-02  0.1408557E+00
          2   -1    0    0  501    0  0.00000000000E+00  0.00000000000E+00  0.96258833091E+02  0.96258833091E+02  0.00000000000E+00 0. -1.
         -2   -1    0    0    0  501 -0.00000000000E+00 -0.00000000000E+00 -0.15328339038E+03  0.15328339038E+03  0.00000000000E+00 0.  1.
          5    1    1    2  502    0 -0.93161763922E+01 -0.12674118376E+02  0.32057700518E+02  0.35952649161E+02  0.41800000000E+01 0.  1.
         -5    1    1    2    0  502 -0.14521436414E+02  0.18141044118E+02 -0.11209484361E+03  0.11455433628E+03  0.41800000000E+01 0.  1.
        -11    1    1    2    0    0  0.14083770468E+02 -0.38347252834E+02 -0.18788355475E+02  0.44965171988E+02  0.00000000000E+00 0.  1.
         11    1    1    2    0    0  0.97538423374E+01  0.32880327092E+02  0.41800941277E+02  0.54070066041E+02  0.00000000000E+00 0. -1.
</event>
<event>
 6    1  0.6447971E-006  0.1733886E+03  0.7561462E-02  0.1174359E+00
          2   -1    0    0  501    0  0.00000000000E+00  0.00000000000E+00  0.10539775948E+04  0.10539775948E+04  0.00000000000E+00 0. -1.
         -2   -1    0    0    0  501 -0.00000000000E+00 -0.00000000000E+00 -0.32378761568E+02  0.32378761568E+02  0.00000000000E+00 0.  1.
          5    1    1    2  502    0  0.10070908408E+03 -0.69541986071E+02  0.23305139181E+03  0.26326570431E+03  0.41800000000E+01 0. -1.
         -5    1    1    2    0  502  0.42031071993E+02  0.26580355613E+02  0.30153114892E+03  0.30563316653E+03  0.41800000000E+01 0. -1.
        -11    1    1    2    0    0 -0.13979234301E+03  0.87400699633E+01  0.40512693991E+03  0.42865618556E+03  0.00000000000E+00 0.  1.
         11    1    1    2    0    0 -0.29478130669E+01  0.34221560495E+02  0.81889352571E+02  0.88801299928E+02  0.00000000000E+00 0. -1.
</event>
<event>
 6    1  0.6447971E-006  0.1013888E+03  0.7561462E-02  0.1277402E+00
          2   -1    0    0  501    0  0.00000000000E+00  0.00000000000E+00  0.55295111531E+02  0.55295111531E+02  0.00000000000E+00 0. -1.
         -2   -1    0    0    0  501 -0.00000000000E+00 -0.00000000000E+00 -0.38712297045E+03  0.38712297045E+03  0.00000000000E+00 0.  1.
          5    1    1    2  502    0  0.21211311069E+02  0.55603539897E+02 -0.57626347097E+02  0.82945413653E+02  0.41800000000E+01 0. -1.
         -5    1    1    2    0  502  0.37342806180E+02 -0.37765927301E+02 -0.23732019412E+03  0.24322643231E+03  0.41800000000E+01 0. -1.
        -11    1    1    2    0    0 -0.14963260502E+01 -0.31205334684E+02 -0.47338134497E+02  0.56717818030E+02  0.00000000000E+00 0.  1.
         11    1    1    2    0    0 -0.57057791199E+02  0.13367722088E+02  0.10456816794E+02  0.59528417985E+02  0.00000000000E+00 0. -1.
</event>
<event>
 6    1  0.6447971E-006  0.1580073E+03  0.7561462E-02  0.1190965E+00
         -1   -1    0    0    0  501 -0.00000000000E+00  0.00000000000E+00  0.96143190108E+02  0.96143190108E+02  0.00000000000E+00 0.  1.
          1   -1    0    0  501    0  0.00000000000E+00 -0.00000000000E+00 -0.27466934043E+03  0.27466934043E+03  0.00000000000E+00 0. -1.
          5    1    1    2  502    0  0.16218703392E+02 -0.11910721124E+03 -0.60496469126E+02  0.13463606236E+03  0.41800000000E+01 0.  1.
         -5    1    1    2    0  502 -0.52419418976E+02  0.43955058855E+01 -0.17159634600E+02  0.55489110800E+02  0.41800000000E+01 0.  1.
        -11    1    1    2    0    0  0.49200606976E+02  0.30783454805E+02 -0.15069574762E+02  0.59961761983E+02  0.00000000000E+00 0. -1.
         11    1    1    2    0    0 -0.12999891392E+02  0.83928250554E+02 -0.85800471837E+02  0.12072559540E+03  0.00000000000E+00 0.  1.
</event>
<event>
 6    1  0.6447971E-006  0.1555824E+03  0.7561462E-02  0.1193776E+00
          2   -1    0    0  501    0  0.00000000000E+00  0.00000000000E+00  0.39585535335E+03  0.39585535335E+03  0.00000000000E+00 0.  1.
         -2   -1    0    0    0  501 -0.00000000000E+00 -0.00000000000E+00 -0.98139898872E+02  0.98139898872E+02  0.00000000000E+00 0. -1.
          5    1    1    2  502    0 -0.19092100323E+02 -0.55204699394E+02  0.81154132498E+02  0.10007763362E+03  0.41800000000E+01 0.  1.
         -5    1    1    2    0  502 -0.67427787756E+02 -0.52497735263E+02 -0.34161307309E+02  0.92124839682E+02  0.41800000000E+01 0.  1.
        -11    1    1    2    0    0 -0.10638810083E+02  0.55970947833E+02  0.70880766752E+02  0.90939619400E+02  0.00000000000E+00 0.  1.
         11    1    1    2    0    0  0.97158698162E+02  0.51731486824E+02  0.17984186253E+03  0.21085315951E+03  0.00000000000E+00 0. -1.
</event>
<event>
 6    1  0.6447971E-006  0.2323705E+03  0.7561462E-02  0.1124982E+00
          1   -1    0    0  501    0  0.00000000000E+00  0.00000000000E+00  0.44412598783E+02  0.44412598783E+02  0.00000000000E+00 0. -1.
         -1   -1    0    0    0  501 -0.00000000000E+00 -0.00000000000E+00 -0.17346840677E+04  0.17346840677E+04  0.00000000000E+00 0.  1.
          5    1    1    2  502    0 -0.40378977994E+02  0.12233400408E+03 -0.91938853289E+03  0.92837967299E+03  0.41800000000E+01 0. -1.
         -5    1    1    2    0  502  0.28505380963E+02  0.10436950380E+03 -0.31996585184E+03  0.33778864517E+03  0.41800000000E+01 0. -1.
        -11    1    1    2    0    0  0.15838491401E+02 -0.17209072491E+03 -0.40886265100E+03  0.44388595696E+03  0.00000000000E+00 0.  1.
         11    1    1    2    0    0 -0.39648943700E+01 -0.54612782977E+02 -0.42054433188E+02  0.69042391345E+02  0.00000000000E+00 0. -1.
</event>
<event>
 6    1  0.6447971E-006  0.2756198E+03  0.7561462E-02  0.1098106E+00
         -1   -1    0    0    0  501 -0.00000000000E+00  0.00000000000E+00  0.23739545863E+03  0.23739545863E+03  0.00000000000E+00 0.  1.
          1   -1    0    0  501    0  0.00000000000E+00 -0.00000000000E+00 -0.38087140076E+03  0.38087140076E+03  0.00000000000E+00 0. -1.
          5    1    1    2  502    0  0.20160281497E+03  0.96203036531E+02  0.45325576137E+01  0.22346528974E+03  0.41800000000E+01 0. -1.
         -5    1    1    2    0  502  0.40940451427E+01  0.55562579950E+02  0.29421307719E+02  0.63143069645E+02  0.41800000000E+01 0. -1.
        -11    1    1    2    0    0 -0.15561182975E+03 -0.58797726411E+02 -0.68372991668E+02  0.17985294042E+03  0.00000000000E+00 0.  1.
         11    1    1    2    0    0 -0.50085030366E+02 -0.92967890069E+02 -0.10905681579E+03  0.15180555958E+03  0.00000000000E+00 0. -1.
</event>
<event>
 6    1  0.6447971E-006  0.1050598E+03  0.7561462E-02  0.1270002E+00
          1   -1    0    0  501    0  0.00000000000E+00  0.00000000000E+00  0.54251839855E+03  0.54251839855E+03  0.00000000000E+00 0. -1.
         -1   -1    0    0    0  501 -0.00000000000E+00 -0.00000000000E+00 -0.29609473578E+02  0.29609473578E+02  0.00000000000E+00 0.  1.
          5    1    1    2  502    0  0.40790181903E+02  0.23842475999E+02  0.16566657370E+03  0.17232291967E+03  0.41800000000E+01 0.  1.
         -5    1    1    2    0  502 -0.14631310673E+01 -0.58269969049E+02  0.29911976562E+02  0.65648524640E+02  0.41800000000E+01 0.  1.
        -11    1    1    2    0    0  0.26518732537E+02  0.27233903501E+02  0.13096889079E+03  0.13637367425E+03  0.00000000000E+00 0. -1.
         11    1    1    2    0    0 -0.65845783373E+02  0.71935895497E+01  0.18636148393E+03  0.19778275357E+03  0.00000000000E+00 0.  1.
</event>
<event>
 6    1  0.6447971E-006  0.1068819E+03  0.7561462E-02  0.1266456E+00
          2   -1    0    0  501    0  0.00000000000E+00  0.00000000000E+00  0.23061875409E+03  0.23061875409E+03  0.00000000000E+00 0. -1.
         -2   -1    0    0    0  501 -0.00000000000E+00 -0.00000000000E+00 -0.72995745583E+02  0.72995745583E+02  0.00000000000E+00 0.  1.
          5    1    1    2  502    0 -0.71864775937E+02  0.46772805520E+02 -0.82561628530E+01  0.86243132954E+02  0.41800000000E+01 0.  1.
         -5    1    1    2    0  502  0.89465788005E+01 -0.23347381123E+02  0.59522651420E+02  0.64695903345E+02  0.41800000000E+01 0.  1.
        -11    1    1    2    0    0  0.26288631985E+02  0.28660189860E+02  0.15811813273E+02  0.41982283090E+02  0.00000000000E+00 0. -1.
         11    1    1    2    0    0  0.36629565152E+02 -0.52085614257E+02  0.90544706664E+02  0.11069318028E+03  0.00000000000E+00 0.  1.
</event>
<event>
 6    1  0.6447971E-006  0.1055790E+03  0.7561462E-02  0.1268983E+00
         -2   -1    0    0    0  501 -0.00000000000E+00  0.00000000000E+00  0.60950349289E+02  0.60950349289E+02  0.00000000000E+00 0. -1.
          2   -1    0    0  501    0  0.00000000000E+00 -0.00000000000E+00 -0.20433676051E+03  0.20433676051E+03  0.00000000000E+00 0.  1.
          5    1    1    2  502    0 -0.57537784330E+02  0.32967866551E+02 -0.22723454098E+02  0.70223248406E+02  0.41800000000E+01 0.  1.
         -5    1    1    2    0  502  0.52048218835E+02 -0.88084251247E+01 -0.68425635821E+02  0.86522514264E+02  0.41800000000E+01 0.  1.
        -11    1    1    2    0    0  0.27817259554E+02 -0.50239932845E+02 -0.46151460242E+02  0.73673659227E+02  0.00000000000E+00 0.  1.
         11    1    1    2    0    0 -0.22327694060E+02  0.26080491419E+02 -0.60858610583E+01  0.34867687900E+02  0.00000000000E+00 0. -1.
</event>
<event>
 6    1  0.6447971E-006  0.1854364E+03  0.7561462E-02  0.1162643E+00
         -3   -1    0    0    0  501 -0.00000000000E+00  0.00000000000E+00  0.13345875046E+03  0.13345875046E+03  0.00000000000E+00 0.  1.
          3   -1    0    0  501    0  0.00000000000E+00 -0.00000000000E+00 -0.29842879408E+03  0.29842879408E+03  0.00000000000E+00 0. -1.
          5    1    1    2  502    0  0.11575211524E+01 -0.36619261826E+02 -0.81000305410E+01  0.37754378377E+02  0.41800000000E+01 0. -1.
         -5    1    1    2    0  502 -0.95355142387E+02  0.13893392113E+03 -0.38345613648E+01  0.16860431158E+03  0.41800000000E+01 0.  1.
        -11    1    1    2    0    0 -0.34713483645E+01 -0.58138165810E+02 -0.59533889975E+02  0.83284936445E+02  0.00000000000E+00 0.  1.
         11    1    1    2    0    0  0.97668969599E+02 -0.44176493499E+02 -0.93501561738E+02  0.14224391814E+03  0.00000000000E+00 0. -1.
</event>
<event>
 6    1  0.6447971E-006  0.1662708E+03  0.7561462E-02  0.1181794E+00
         -2   -1    0    0    0  501 -0.00000000000E+00  0.00000000000E+00  0.42571248128E+03  0.42571248128E+03  0.00000000000E+00 0.  1.
          2   -1    0    0  501    0  0.00000000000E+00 -0.00000000000E+00 -0.84029125447E+02  0.84029125447E+02  0.00000000000E+00 0. -1.
          5    1    1    2  502    0  0.13453486930E+03  0.76622626944E+02  0.25390792644E+03  0.29741782987E+03  0.41800000000E+01 0. -1.
         -5    1    1    2    0  502 -0.25796405142E+02  0.79777351790E+01  0.20595148325E+02  0.34215951125E+02  0.41800000000E+01 0. -1.
        -11    1    1    2    0    0 -0.10402711424E+03 -0.50003356785E+02  0.80518095359E+02  0.14073073533E+03  0.00000000000E+00 0.  1.
         11    1    1    2    0    0 -0.47113499185E+01 -0.34597005337E+02 -0.13337814290E+02  0.37377090395E+02  0.00000000000E+00 0. -1.
</event>
<event>
 6    1  0.6447971E-006  0.8667768E+02  0.7561462E-02  0.1311103E+00
          1   -1    0    0  501    0  0.00000000000E+00  0.00000000000E+00  0.19625314284E+03  0.19625314284E+03  0.00000000000E+00 0. -1.
         -1   -1    0    0    0  501 -0.00000000000E+00 -0.00000000000E+00 -0.72018315434E+02  0.72018315434E+02  0.00000000000E+00 0.  1.
          5    1    1    2  502    0 -0.79706222934E+01  0.53904527508E+02  0.58890292421E+02  0.80341569857E+02  0.41800000000E+01 0. -1.
         -5    1    1    2    0  502 -0.50966350353E+00 -0.21936148540E+02 -0.38013873441E+02  0.44090603802E+02  0.41800000000E+01 0.  1.
        -11    1    1    2    0    0 -0.96397920674E-02 -0.63608556126E+02  0.85383523050E+02  0.10647250591E+03  0.00000000000E+00 0. -1.
         11    1    1    2    0    0  0.84899255890E+01  0.31640177158E+02  0.17974885380E+02  0.37366778715E+02  0.00000000000E+00 0.  1.
</event>
<event>
 6    1  0.6447971E-006  0.1158002E+03  0.7561462E-02  0.1250191E+00
         -3   -1    0    0    0  501 -0.00000000000E+00  0.00000000000E+00  0.63833738188E+03  0.63833738188E+03  0.00000000000E+00 0.  1.
          3   -1    0    0  501    0  0.00000000000E+00 -0.00000000000E+00 -0.30108197636E+02  0.30108197636E+02  0.00000000000E+00 0. -1.
          5    1    1    2  502    0 -0.33778987308E+02 -0.71030062646E+02  0.16362090717E+03  0.18159174938E+03  0.41800000000E+01 0. -1.
         -5    1    1    2    0  502  0.42696074860E+02  0.29909695503E+02  0.33049775292E+03  0.33460989492E+03  0.41800000000E+01 0.  1.
        -11    1    1    2    0    0 -0.13599054439E+02  0.69986626572E+02  0.85604500231E+02  0.11140553236E+03  0.00000000000E+00 0.  1.
         11    1    1    2    0    0  0.46819668865E+01 -0.28866259429E+02  0.28506023929E+02  0.40838402853E+02  0.00000000000E+00 0. -1.
</event>
<event>
 6    1  0.6447971E-006  0.1291699E+03  0.7561462E-02  0.1228693E+00
          1   -1    0    0  501    0  0.00000000000E+00  0.00000000000E+00  0.20805462884E+03  0.20805462884E+03  0.00000000000E+00 0. -1.
         -1   -1    0    0    0  501 -0.00000000000E+00 -0.00000000000E+00 -0.14359689946E+03  0.14359689946E+03  0.00000000000E+00 0.  1.
          5    1    1    2  502    0  0.10372868169E+02 -0.60634850151E+02 -0.17820614480E+02  0.64181213352E+02  0.41800000000E+01 0.  1.
         -5    1    1    2    0  502 -0.78970211076E+02  0.24810030975E+02 -0.59245192464E+02  0.10187883541E+03  0.41800000000E+01 0.  1.
        -11    1    1    2    0    0  0.87254320238E+02  0.20434194561E+02  0.82511539371E+02  0.12181554432E+03  0.00000000000E+00 0.  1.
         11    1    1    2    0    0 -0.18656977331E+02  0.15390624616E+02  0.59011996951E+02  0.63775935221E+02  0.00000000000E+00 0. -1.
</event>
<event>
 6    1  0.6447971E-006  0.1918952E+03  0.7561462E-02  0.1156763E+00
          1   -1    0    0  501    0  0.00000000000E+00  0.00000000000E+00  0.75131530563E+03  0.75131530563E+03  0.00000000000E+00 0. -1.
         -1   -1    0    0    0  501 -0.00000000000E+00 -0.00000000000E+00 -0.74048532857E+02  0.74048532857E+02  0.00000000000E+00 0.  1.
          5    1    1    2  502    0  0.20212334707E+02 -0.84913801451E+02  0.11658319928E+02  0.88160540916E+02  0.41800000000E+01 0. -1.
         -5    1    1    2    0  502  0.86417046114E+02 -0.61541059682E+02  0.15535321939E+03  0.18816828389E+03  0.41800000000E+01 0. -1.
        -11    1    1    2    0    0 -0.45659677700E+02  0.20004675048E+02  0.23291828683E+03  0.23819303418E+03  0.00000000000E+00 0. -1.
         11    1    1    2    0    0 -0.60969703122E+02  0.12645018608E+03  0.27733694662E+03  0.31084197950E+03  0.00000000000E+00 0.  1.
</event>
<event>
 6    1  0.6447971E-006  0.5094979E+02  0.7561462E-02  0.1440285E+00
         -1   -1    0    0    0  501 -0.00000000000E+00  0.00000000000E+00  0.78059573034E+02  0.78059573034E+02  0.00000000000E+00 0.  1.
          1   -1    0    0  501    0  0.00000000000E+00 -0.00000000000E+00 -0.14496686173E+03  0.14496686173E+03  0.00000000000E+00 0. -1.
          5    1    1    2  502    0  0.39278212910E+01  0.43200337494E+01  0.52030640323E+02  0.52523807974E+02  0.41800000000E+01 0.  1.
         -5    1    1    2    0  502 -0.24246085974E+02 -0.13791503118E+02 -0.70439948454E+02  0.75877117641E+02  0.41800000000E+01 0.  1.
        -11    1    1    2    0    0 -0.10943575229E+02 -0.20479093413E+02  0.69873255234E+01  0.24248254035E+02  0.00000000000E+00 0.  1.
         11    1    1    2    0    0  0.31261839912E+02  0.29950562781E+02 -0.55485306085E+02  0.70377255110E+02  0.00000000000E+00 0. -1.
</event>
<event>
 6    1  0.6447971E-006  0.2098983E+03  0.7561462E-02  0.1141647E+00
         -3   -1    0    0    0  501 -0.00000000000E+00  0.00000000000E+00  0.30423029758E+03  0.30423029758E+03  0.00000000000E+00 0.  1.
          3   -1    0    0  501    0  0.00000000000E+00 -0.00000000000E+00 -0.15955357271E+03  0.15955357271E+03  0.00000000000E+00 0. -1.
          5    1    1    2  502    0 -0.62686286360E+02 -0.62965728646E+01  0.36654396801E+02  0.73008455211E+02  0.41800000000E+01 0. -1.
         -5    1    1    2    0  502 -0.45304189408E+02 -0.14677081754E+03 -0.90970759282E+01  0.15392976207E+03  0.41800000000E+01 0. -1.
        -11    1    1    2    0    0  0.99599245210E+02  0.75513879502E+02  0.90909991540E+02  0.15455414005E+03  0.00000000000E+00 0.  1.
         11    1    1    2    0    0  0.83912305578E+01  0.77553510905E+02  0.26209412465E+02  0.82291512963E+02  0.00000000000E+00 0. -1.
</event>
<event>
 6    1  0.6447971E-006  0.2395814E+03  0.7561462E-02  0.1120072E+00
         -2   -1    0    0    0  501 -0.00000000000E+00  0.00000000000E+00  0.76744986758E+03  0.76744986758E+03  0.00000000000E+00 0.  1.
          2   -1    0    0  501    0  0.00000000000E+00 -0.00000000000E+00 -0.94777789222E+02  0.94777789222E+02  0.00000000000E+00 0. -1.
          5    1    1    2  502    0  0.12178857969E+03  0.75152559688E+02  0.16618438896E+03  0.21935151904E+03  0.41800000000E+01 0. -1.
         -5    1    1    2    0  502  0.50164505257E+02  0.79345560230E+02  0.31776701248E+03  0.33136919310E+03  0.41800000000E+01 0. -1.
        -11    1    1    2    0    0 -0.71208636257E+02 -0.11192113422E+03  0.13638767860E+03  0.19025932050E+03  0.00000000000E+00 0.  1.
         11    1    1    2    0    0 -0.10074444869E+03 -0.42576985694E+02  0.52332998313E+02  0.12124762416E+03  0.00000000000E+00 0. -1.
</event>
<event>
 6    1  0.6447971E-006  0.2118245E+03  0.7561462E-02  0.1140129E+00
          1   -1    0    0  501    0  0.00000000000E+00  0.00000000000E+00  0.28144327883E+04  0.28144327883E+04  0.00000000000E+00 0. -1.
         -1   -1    0    0    0  501 -0.00000000000E+00 -0.00000000000E+00 -0.18774815150E+02  0.18774815150E+02  0.00000000000E+00 0.  1.
          5    1    1    2  502    0  0.61341688054E+02 -0.44362149096E+02  0.33888973000E+03  0.34726722343E+03  0.41800000000E+01 0. -1.
         -5    1    1    2    0  502  0.13278231559E+03  0.32181388525E+02  0.14710588615E+04  0.14773958276E+04  0.41800000000E+01 0. -1.
        -11    1    1    2    0    0 -0.10980298541E+03 -0.34071780537E+02  0.60867767101E+03  0.61944014160E+03  0.00000000000E+00 0. -1.
         11    1    1    2    0    0 -0.84321018229E+02  0.46252541108E+02  0.37703171063E+03  0.38910441079E+03  0.00000000000E+00 0.  1.
</event>
<event>
 6    1  0.6447971E-006  0.1664818E+03  0.7561462E-02  0.1181567E+00
          2   -1    0    0  501    0  0.00000000000E+00  0.00000000000E+00  0.64820372140E+03  0.64820372140E+03  0.00000000000E+00 0. -1.
         -2   -1    0    0    0  501 -0.00000000000E+00 -0.00000000000E+00 -0.79066707835E+02  0.79066707835E+02  0.00000000000E+00 0.  1.
          5    1    1    2  502    0  0.14862390185E+03  0.31320708448E+02  0.11232642012E+03  0.18895700050E+03  0.41800000000E+01 0. -1.
         -5    1    1    2    0  502 -0.57446131172E+00 -0.41932002070E+01 -0.24747975565E+02  0.25452851085E+02  0.41800000000E+01 0. -1.
        -11    1    1    2    0    0 -0.42422892476E+02 -0.51444068920E+02  0.15341628411E+03  0.16728045392E+03  0.00000000000E+00 0.  1.
         11    1    1    2    0    0 -0.10562654807E+03  0.24316560679E+02  0.32814228491E+03  0.34558012374E+03  0.00000000000E+00 0. -1.
</event>
<event>
 6    1  0.6447971E-006  0.1118322E+03  0.7561462E-02  0.1257214E+00
         -1   -1    0    0    0  501 -0.00000000000E+00  0.00000000000E+00  0.47466941955E+02  0.47466941955E+02  0.00000000000E+00 0.  1.
          1   -1    0    0  501    0  0.00000000000E+00 -0.00000000000E+00 -0.45294089053E+03  0.45294089053E+03  0.00000000000E+00 0. -1.
          5    1    1    2  502    0 -0.10269220640E+02 -0.30960018521E+02  0.17496918020E+01  0.32931951973E+02  0.41800000000E+01 0.  1.
         -5    1    1    2    0  502  0.40529046031E+02 -0.60731624773E+02 -0.25763072220E+03  0.26780962500E+03  0.41800000000E+01 0.  1.
        -11    1    1    2    0    0  0.21227568684E+02  0.36065911305E+02 -0.13647817149E+02  0.44018434132E+02  0.00000000000E+00 0.  1.
         11    1    1    2    0    0 -0.51487394075E+02  0.55625731988E+02 -0.13594510103E+03  0.15564782138E+03  0.00000000000E+00 0. -1.
</event>
<event>
 6    1  0.6447971E-006  0.7218543E+02  0.7561462E-02  0.1352815E+00
         -2   -1    0    0    0  501 -0.00000000000E+00  0.00000000000E+00  0.31512991367E+02  0.31512991367E+02  0.00000000000E+00 0.  1.
          2   -1    0    0  501    0  0.00000000000E+00 -0.00000000000E+00 -0.64626642751E+03  0.64626642751E+03  0.00000000000E+00 0. -1.
          5    1    1    2  502    0  0.15583758227E+02 -0.10610885021E+02 -0.14524012733E+03  0.14651829711E+03  0.41800000000E+01 0.  1.
         -5    1    1    2    0  502  0.10841199511E+02  0.28304567566E+02  0.17354676436E+02  0.35175806261E+02  0.41800000000E+01 0.  1.
        -11    1    1    2    0    0  0.67644048002E+01  0.33101894163E+02 -0.14593274121E+03  0.14979271520E+03  0.00000000000E+00 0.  1.
         11    1    1    2    0    0 -0.33189362538E+02 -0.50795576708E+02 -0.34093524404E+03  0.34629260031E+03  0.00000000000E+00 0. -1.
</event>
<event>
 6    1  0.6447971E-006  0.1112002E+03  0.7561462E-02  0.1258363E+00
         -4   -1    0    0    0  501 -0.00000000000E+00  0.00000000000E+00  0.53825635134E+03  0.53825635134E+03  0.00000000000E+00 0.  1.
          4   -1    0    0  501    0  0.00000000000E+00 -0.00000000000E+00 -0.25402760044E+02  0.25402760044E+02  0.00000000000E+00 0. -1.
          5    1    1    2  502    0 -0.49048419835E+02  0.16610256425E+02  0.16357396671E+03  0.17162623078E+03  0.41800000000E+01 0.  1.
         -5    1    1    2    0  502  0.75050287705E+02 -0.79866903740E+01  0.19615179352E+03  0.21021258623E+03  0.41800000000E+01 0.  1.
        -11    1    1    2    0    0 -0.58044421841E+02 -0.19163500684E+02  0.11930275781E+03  0.13405052289E+03  0.00000000000E+00 0.  1.
         11    1    1    2    0    0  0.32042553971E+02  0.10539934633E+02  0.33825073256E+02  0.47769771487E+02  0.00000000000E+00 0. -1.
</event>
<event>
 6    1  0.6447971E-006  0.1360929E+03  0.7561462E-02  0.1218685E+00
          2   -1    0    0  501    0  0.00000000000E+00  0.00000000000E+00  0.83987496508E+03  0.83987496508E+03  0.00000000000E+00 0. -1.
         -2   -1    0    0    0  501 -0.00000000000E+00 -0.00000000000E+00 -0.35289284497E+02  0.35289284497E+02  0.00000000000E+00 0.  1.
          5    1    1    2  502    0 -0.61520883398E+02 -0.97309099891E+02  0.32529402685E+03  0.34509064943E+03  0.41800000000E+01 0. -1.
         -5    1    1    2    0  502 -0.11445061544E+02  0.17285167116E+02 -0.75988582295E+01  0.22471793039E+02  0.41800000000E+01 0.  1.
        -11    1    1    2    0    0  0.13822351522E+02  0.75240681570E+02  0.35232897117E+03  0.36053837728E+03  0.00000000000E+00 0.  1.
         11    1    1    2    0    0  0.59143593421E+02  0.47832512046E+01  0.13456154078E+03  0.14706342983E+03  0.00000000000E+00 0. -1.
</event>
<event>
 6    1  0.6447971E-006  0.7789703E+02  0.7561462E-02  0.1335128E+00
          1   -1    0    0  501    0  0.00000000000E+00  0.00000000000E+00  0.97501268077E+02  0.97501268077E+02  0.00000000000E+00 0. -1.
         -1   -1    0    0    0  501 -0.00000000000E+00 -0.00000000000E+00 -0.18496628582E+03  0.18496628582E+03  0.00000000000E+00 0.  1.
          5    1    1    2  502    0 -0.38772648967E+02 -0.18328495721E+01 -0.13925707285E+03  0.14462600867E+03  0.41800000000E+01 0.  1.
         -5    1    1    2    0  502 -0.13418111757E+00  0.22554098078E+02  0.22457302645E+02  0.32101529352E+02  0.41800000000E+01 0.  1.
        -11    1    1    2    0    0  0.41736892289E+02 -0.49585352368E+02  0.45962788485E+00  0.64814246931E+02  0.00000000000E+00 0.  1.
         11    1    1    2    0    0 -0.28300622047E+01  0.28864103862E+02  0.28875124579E+02  0.40925768940E+02  0.00000000000E+00 0. -1.
</event>
<event>
 6    1  0.6447971E-006  0.1398649E+03  0.7561462E-02  0.1213511E+00
          2   -1    0    0  501    0  0.00000000000E+00  0.00000000000E+00  0.46177019271E+03  0.46177019271E+03  0.00000000000E+00 0. -1.
         -2   -1    0    0    0  501 -0.00000000000E+00 -0.00000000000E+00 -0.51107052113E+02  0.51107052113E+02  0.00000000000E+00 0.  1.
          5    1    1    2  502    0 -0.29925795876E+02  0.11776641799E+03  0.16779256697E+03  0.20721076322E+03  0.41800000000E+01 0. -1.
         -5    1    1    2    0  502 -0.40173422638E+01 -0.20886156371E+02 -0.50865190593E+01  0.22264672532E+02  0.41800000000E+01 0. -1.
        -11    1    1    2    0    0  0.31924849720E+02  0.69091324470E+01  0.47299487506E+02  0.57481942027E+02  0.00000000000E+00 0. -1.
         11    1    1    2    0    0  0.20182884201E+01 -0.10378939406E+03  0.20065760519E+03  0.22591986705E+03  0.00000000000E+00 0.  1.
</event>
<event>
 6    1  0.6447971E-006  0.9153346E+02  0.7561462E-02  0.1299180E+00
         -1   -1    0    0    0  501 -0.00000000000E+00  0.00000000000E+00  0.98998727870E+02  0.98998727870E+02  0.00000000000E+00 0.  1.
          1   -1    0    0  501    0  0.00000000000E+00 -0.00000000000E+00 -0.19413607012E+03  0.19413607012E+03  0.00000000000E+00 0. -1.
          5    1    1    2  502    0  0.31502843484E+02 -0.27305596823E+02 -0.70336238242E+02  0.81869918623E+02  0.41800000000E+01 0. -1.
         -5    1    1    2    0  502  0.22921595779E+02 -0.38931838594E+02  0.54140834187E+02  0.70638445168E+02  0.41800000000E+01 0. -1.
        -11    1    1    2    0    0 -0.33304297352E+02  0.66829655684E+02 -0.18968584999E+02  0.77040160421E+02  0.00000000000E+00 0.  1.
         11    1    1    2    0    0 -0.21120141912E+02 -0.59222026692E+00 -0.59973353199E+02  0.63586273779E+02  0.00000000000E+00 0. -1.
</event>
<event>
 6    1  0.6447971E-006  0.1196300E+03  0.7561462E-02  0.1243709E+00
         -2   -1    0    0    0  501 -0.00000000000E+00  0.00000000000E+00  0.13332941557E+03  0.13332941557E+03  0.00000000000E+00 0.  1.
          2   -1    0    0  501    0  0.00000000000E+00 -0.00000000000E+00 -0.16757775513E+03  0.16757775513E+03  0.00000000000E+00 0. -1.
          5    1    1    2  502    0 -0.83524887614E+02 -0.24489910514E+02 -0.46540035738E+02  0.98790737898E+02  0.41800000000E+01 0.  1.
         -5    1    1    2    0  502 -0.18680609043E+02  0.29702075080E+02  0.52003488493E+02  0.62872996062E+02  0.41800000000E+01 0.  1.
        -11    1    1    2    0    0  0.10660482929E+03  0.38867054427E+01 -0.91655835484E+01  0.10706868836E+03  0.00000000000E+00 0.  1.
         11    1    1    2    0    0 -0.43993326281E+01 -0.90988700094E+01 -0.30546208763E+02  0.32174748373E+02  0.00000000000E+00 0. -1.
</event>
<event>
 6    1  0.6447971E-006  0.9747459E+02  0.7561462E-02  0.1285698E+00
         -1   -1    0    0    0  501 -0.00000000000E+00  0.00000000000E+00  0.42834610649E+03  0.42834610649E+03  0.00000000000E+00 0.  1.
          1   -1    0    0  501    0  0.00000000000E+00 -0.00000000000E+00 -0.40151782002E+02  0.40151782002E+02  0.00000000000E+00 0. -1.
          5    1    1    2  502    0 -0.43687016394E+02  0.56541201574E+02  0.14366431903E+03  0.16050660996E+03  0.41800000000E+01 0. -1.
         -5    1    1    2    0  502  0.11304092909E+02 -0.52208561624E+02  0.18736996503E+03  0.19488071382E+03  0.41800000000E+01 0. -1.
        -11    1    1    2    0    0  0.47114728173E+02 -0.17276530134E+02  0.72527667679E+02  0.88196024192E+02  0.00000000000E+00 0.  1.
         11    1    1    2    0    0 -0.14731804688E+02  0.12943890184E+02 -0.15367627249E+02  0.24914540528E+02  0.00000000000E+00 0. -1.
</event>
<event>
 6    1  0.6447971E-006  0.2458574E+03  0.7561462E-02  0.1115951E+00
         -1   -1    0    0    0  501 -0.00000000000E+00  0.00000000000E+00  0.11553071200E+03  0.11553071200E+03  0.00000000000E+00 0.  1.
          1   -1    0    0  501    0  0.00000000000E+00 -0.00000000000E+00 -0.58683715702E+03  0.58683715702E+03  0.00000000000E+00 0. -1.
          5    1    1    2  502    0  0.48973006062E+02 -0.32708158897E+02 -0.52160059364E+02  0.78780220703E+02  0.41800000000E+01 0. -1.
         -5    1    1    2    0  502  0.16704536414E+03  0.11353036632E+03 -0.11821611395E+03  0.23406370875E+03  0.41800000000E+01 0. -1.
        -11    1    1    2    0    0 -0.80777081108E+02 -0.28830328103E+02 -0.48672404100E+02  0.98616061429E+02  0.00000000000E+00 0.  1.
         11    1    1    2    0    0 -0.13524128910E+03 -0.51991879322E+02 -0.25225786761E+03  0.29090787813E+03  0.00000000000E+00 0. -1.
</event>
<event>
 6    1  0.6447971E-006  0.2085880E+03  0.7561462E-02  0.1142689E+00
         -4   -1    0    0    0  501 -0.00000000000E+00  0.00000000000E+00  0.76645190888E+03  0.76645190888E+03  0.00000000000E+00 0.  1.
          4   -1    0    0  501    0  0.00000000000E+00 -0.00000000000E+00 -0.95172300709E+02  0.95172300709E+02  0.00000000000E+00 0. -1.
          5    1    1    2  502    0 -0.74890752366E+01 -0.18253921953E+03  0.31434108009E+03  0.36359928485E+03  0.41800000000E+01 0. -1.
         -5    1    1    2    0  502 -0.17594540264E+01 -0.25578279370E+02  0.24335001056E+03  0.24473259712E+03  0.41800000000E+01 0. -1.
        -11    1    1    2    0    0  0.96131873471E+01  0.13581033297E+03  0.11894063772E+03  0.18078643536E+03  0.00000000000E+00 0.  1.
         11    1    1    2    0    0 -0.36465808403E+00  0.72307165935E+02 -0.53521201896E+01  0.72505892255E+02  0.00000000000E+00 0. -1.
</event>
<event>
 6    1  0.6447971E-006  0.1640105E+03  0.7561462E-02  0.1184242E+00
         -1   -1    0    0    0  501 -0.00000000000E+00  0.00000000000E+00  0.10521463365E+03  0.10521463365E+03  0.00000000000E+00 0.  1.
          1   -1    0    0  501    0  0.00000000000E+00 -0.00000000000E+00 -0.38211337664E+03  0.38211337664E+03  0.00000000000E+00 0. -1.
          5    1    1    2  502    0  0.37080103874E+02  0.42001769159E+02 -0.61243773901E+01  0.56516042981E+02  0.41800000000E+01 0. -1.
         -5    1    1    2    0  502 -0.10282714960E+03  0.76715586698E+02 -0.18186825915E+02  0.12964157116E+03  0.41800000000E+01 0. -1.
        -11    1    1    2    0    0  0.54204973397E+02 -0.49824080333E+02 -0.55883916323E+02  0.92431759832E+02  0.00000000000E+00 0.  1.
         11    1    1    2    0    0  0.11542072326E+02 -0.68893275524E+02 -0.19670362336E+03  0.20873863631E+03  0.00000000000E+00 0. -1.
</event>
<event>
 6    1  0.6447971E-006  0.7814681E+02  0.7561462E-02  0.1334394E+00
          2   -1    0    0  501    0  0.00000000000E+00  0.00000000000E+00  0.62224081288E+03  0.62224081288E+03  0.00000000000E+00 0. -1.
         -2   -1    0    0    0  501 -0.00000000000E+00 -0.00000000000E+00 -0.24125064307E+02  0.24125064307E+02  0.00000000000E+00 0.  1.
          5    1    1    2  502    0  0.10205225920E+02 -0.23499066134E+01  0.32943475114E+03  0.32962766322E+03  0.41800000000E+01 0. -1.
         -5    1    1    2    0  502  0.84332850780E+01 -0.48948016141E+02  0.39043275412E+02  0.63315703710E+02  0.41800000000E+01 0. -1.
        -11    1    1    2    0    0 -0.49366499488E+02  0.33550188255E+02  0.81052074805E+02  0.10065835899E+03  0.00000000000E+00 0.  1.
         11    1    1    2    0    0  0.30727988491E+02  0.17747734499E+02  0.14858564721E+03  0.15276415127E+03  0.00000000000E+00 0. -1.
</event>
<event>
 6    1  0.6447971E-006  0.1731806E+03  0.7561462E-02  0.1174571E+00
         -1   -1    0    0    0  501 -0.00000000000E+00  0.00000000000E+00  0.15253940719E+04  0.15253940719E+04  0.00000000000E+00 0.  1.
          1   -1    0    0  501    0  0.00000000000E+00 -0.00000000000E+00 -0.12442186425E+03  0.12442186425E+03  0.00000000000E+00 0. -1.
          5    1    1    2  502    0 -0.19325783490E+02  0.12577022569E+01  0.48641162241E+02  0.52521450728E+02  0.41800000000E+01 0. -1.
         -5    1    1    2    0  502  0.73888887768E+02 -0.14962263507E+03  0.13994311834E+04  0.14093514857E+04  0.41800000000E+01 0.  1.
        -11    1    1    2    0    0 -0.43160388600E+02  0.85978583729E+02  0.17087367030E+02  0.97709334847E+02  0.00000000000E+00 0. -1.
         11    1    1    2    0    0 -0.11402715677E+02  0.62386349083E+02 -0.64187505041E+02  0.90233664894E+02  0.00000000000E+00 0.  1.
</event>
<event>
 6    1  0.6447971E-006  0.1920703E+03  0.7561462E-02  0.1156607E+00
          2   -1    0    0  501    0  0.00000000000E+00  0.00000000000E+00  0.29504522635E+03  0.29504522635E+03  0.00000000000E+00 0. -1.
         -2   -1    0    0    0  501 -0.00000000000E+00 -0.00000000000E+00 -0.14196328329E+03  0.14196328329E+03  0.00000000000E+00 0.  1.
          5    1    1    2  502    0 -0.30050074675E+02 -0.48879045507E+02  0.84682036477E+00  0.57535707021E+02  0.41800000000E+01 0.  1.
         -5    1    1    2    0  502  0.11669409429E+03 -0.96811404262E+02  0.42637239968E+02  0.15756067489E+03  0.41800000000E+01 0.  1.
        -11    1    1    2    0    0 -0.55995965131E+02  0.12758595161E+03  0.42018228751E+02  0.14553094072E+03  0.00000000000E+00 0. -1.
         11    1    1    2    0    0 -0.30648054488E+02  0.18104498163E+02  0.67579653980E+02  0.76381187014E+02  0.00000000000E+00 0.  1.
</event>
<event>
 6    1  0.6447971E-006  0.1751688E+03  0.7561462E-02  0.1172562E+00
         -1   -1    0    0    0  501 -0.00000000000E+00  0.00000000000E+00  0.12923260844E+03  0.12923260844E+03  0.00000000000E+00 0.  1.
          1   -1    0    0  501    0  0.00000000000E+00 -0.00000000000E+00 -0.33017307401E+03  0.33017307401E+03  0.00000000000E+00 0. -1.
          5    1    1    2  502    0  0.10282220963E+02 -0.18443296474E+02 -0.39465032992E+02  0.44953759374E+02  0.41800000000E+01 0.  1.
         -5    1    1    2    0  502 -0.14950760922E+03  0.57727735185E+02 -0.65359870436E+02  0.17313116902E+03  0.41800000000E+01 0.  1.
        -11    1    1    2    0    0  0.15114662184E+03 -0.40583602580E+02 -0.13121486211E+03  0.20422945461E+03  0.00000000000E+00 0. -1.
         11    1    1    2    0    0 -0.11921233580E+02  0.12991638691E+01  0.35099299961E+02  0.37091299446E+02  0.00000000000E+00 0.  1.
</event>
<event>
 6    1  0.6447971E-006  0.1553054E+03  0.7561462E-02  0.1194101E+00
         -2   -1    0    0    0  501 -0.00000000000E+00  0.00000000000E+00  0.75198204043E+02  0.75198204043E+02  0.00000000000E+00 0.  1.
          2   -1    0    0  501    0  0.00000000000E+00 -0.00000000000E+00 -0.65957817485E+03  0.65957817485E+03  0.00000000000E+00 0. -1.
          5    1    1    2  502    0 -0.19120776802E+02 -0.14179625641E+02 -0.54975436948E+02  0.60053617347E+02  0.41800000000E+01 0. -1.
         -5    1    1    2    0  502  0.33019950042E+02  0.13263182583E+03 -0.13386982413E+02  0.13739796949E+03  0.41800000000E+01 0.  1.
        -11    1    1    2    0    0  0.12025654513E+02 -0.12282006960E+03 -0.41712252529E+03  0.43499492752E+03  0.00000000000E+00 0. -1.
         11    1    1    2    0    0 -0.25924827752E+02  0.43678694093E+01 -0.98895026150E+02  0.10232986453E+03  0.00000000000E+00 0.  1.
</event>
<event>
 6    1  0.6447971E-006  0.1397683E+03  0.7561462E-02  0.1213641E+00
          2   -1    0    0  501    0  0.00000000000E+00  0.00000000000E+00  0.67887291269E+03  0.67887291269E+03  0.00000000000E+00 0. -1.
         -2   -1    0    0    0  501 -0.00000000000E+00 -0.00000000000E+00 -0.29592655948E+02  0.29592655948E+02  0.00000000000E+00 0.  1.
          5    1    1    2  502    0  0.52578587016E+02 -0.26532894409E+02  0.14303176823E+03  0.15473868754E+03  0.41800000000E+01 0. -1.
         -5    1    1    2    0  502 -0.68407996282E+02 -0.63835962758E+02  0.18445650094E+03  0.20687280448E+03  0.41800000000E+01 0.  1.
        -11    1    1    2    0    0 -0.27963273305E+01  0.10382125714E+03  0.28648215040E+03  0.30472724751E+03  0.00000000000E+00 0.  1.
         11    1    1    2    0    0  0.18625736596E+02 -0.13452399972E+02  0.35309837181E+02  0.42126829106E+02  0.00000000000E+00 0. -1.
</event>
<event>
 6    1  0.6447971E-006  0.1595072E+03  0.7561462E-02  0.1189254E+00
         -2   -1    0    0    0  501 -0.00000000000E+00  0.00000000000E+00  0.68580754156E+02  0.68580754156E+02  0.00000000000E+00 0.  1.
          2   -1    0    0  501    0  0.00000000000E+00 -0.00000000000E+00 -0.63418780525E+03  0.63418780525E+03  0.00000000000E+00 0. -1.
          5    1    1    2  502    0 -0.85266552946E+02  0.24101282484E+02 -0.17706677951E+03  0.19804386806E+03  0.41800000000E+01 0. -1.
         -5    1    1    2    0  502 -0.66574363097E+02 -0.15050476003E+02  0.93109898147E+01  0.69013256560E+02  0.41800000000E+01 0.  1.
        -11    1    1    2    0    0  0.10057473392E+03 -0.32300714253E+02 -0.16320996343E+03  0.19441220488E+03  0.00000000000E+00 0.  1.
         11    1    1    2    0    0  0.51266182122E+02  0.23249907772E+02 -0.23464129796E+03  0.24129922990E+03  0.00000000000E+00 0. -1.
</event>
<event>
 6    1  0.6447971E-006  0.1129366E+03  0.7561462E-02  0.1255226E+00
         -1   -1    0    0    0  501 -0.00000000000E+00  0.00000000000E+00  0.70453033239E+03  0.70453033239E+03  0.00000000000E+00 0.  1.
          1   -1    0    0  501    0  0.00000000000E+00 -0.00000000000E+00 -0.26103816979E+02  0.26103816979E+02  0.00000000000E+00 0. -1.
          5    1    1    2  502    0 -0.21435218774E+02  0.23767335476E+02  0.40376955403E+02  0.51692608438E+02  0.41800000000E+01 0.  1.
         -5    1    1    2    0  502  0.86426993708E+02 -0.13612795774E+02  0.45981243233E+03  0.46808106005E+03  0.41800000000E+01 0.  1.
        -11    1    1    2    0    0 -0.82432133087E+02  0.54351079847E+01  0.16357673587E+03  0.18325377344E+03  0.00000000000E+00 0.  1.
         11    1    1    2    0    0  0.17440358153E+02 -0.15589647687E+02  0.14660391808E+02  0.27606707437E+02  0.00000000000E+00 0. -1.
</event>
<event>
 6    1  0.6447971E-006  0.1164135E+03  0.7561462E-02  0.1249134E+00
          2   -1    0    0  501    0  0.00000000000E+00  0.00000000000E+00  0.17079303200E+02  0.17079303200E+02  0.00000000000E+00 0. -1.
         -2   -1    0    0    0  501 -0.00000000000E+00 -0.00000000000E+00 -0.81496311138E+03  0.81496311138E+03  0.00000000000E+00 0.  1.
          5    1    1    2  502    0  0.56949854164E+02  0.21745810787E+02 -0.25763427820E+03  0.26478115469E+03  0.41800000000E+01 0.  1.
         -5    1    1    2    0  502 -0.67648135774E+02  0.23198222464E+02 -0.24765401581E+03  0.25780692726E+03  0.41800000000E+01 0.  1.
        -11    1    1    2    0    0 -0.13566364798E+02  0.23684339801E+02 -0.96441243667E+02  0.10022927559E+03  0.00000000000E+00 0.  1.
         11    1    1    2    0    0  0.24264646408E+02 -0.68628373052E+02 -0.19615427050E+03  0.20922505703E+03  0.00000000000E+00 0. -1.
</event>
<event>
 6    1  0.6447971E-006  0.3273188E+03  0.7561462E-02  0.1072329E+00
         -1   -1    0    0    0  501 -0.00000000000E+00  0.00000000000E+00  0.82775369966E+03  0.82775369966E+03  0.00000000000E+00 0.  1.
          1   -1    0    0  501    0  0.00000000000E+00 -0.00000000000E+00 -0.28646733153E+03  0.28646733153E+03  0.00000000000E+00 0. -1.
          5    1    1    2  502    0  0.14100496788E+03  0.10942184966E+03  0.50607663757E+03  0.53664380891E+03  0.41800000000E+01 0.  1.
         -5    1    1    2    0  502  0.15073154050E+03  0.46263783995E+01  0.16732775492E+03  0.22529414250E+03  0.41800000000E+01 0. -1.
        -11    1    1    2    0    0 -0.29303313888E+03 -0.97764022735E+02 -0.13203884888E+03  0.33594714203E+03  0.00000000000E+00 0.  1.
         11    1    1    2    0    0  0.12966304973E+01 -0.16284205320E+02 -0.79175481484E-01  0.16335937754E+02  0.00000000000E+00 0. -1.
</event>
<event>
 6    1  0.6447971E-006  0.7821126E+02  0.7561462E-02  0.1334206E+00
         -1   -1    0    0    0  501 -0.00000000000E+00  0.00000000000E+00  0.11361982460E+03  0.11361982460E+03  0.00000000000E+00 0.  1.
          1   -1    0    0  501    0  0.00000000000E+00 -0.00000000000E+00 -0.11648838351E+03  0.11648838351E+03  0.00000000000E+00 0. -1.
          5    1    1    2  502    0 -0.32343000574E+02 -0.33986520974E+02 -0.35618768230E+02  0.59053554883E+02  0.41800000000E+01 0. -1.
         -5    1    1    2    0  502  0.28981486711E+02  0.28314342532E+02  0.53874788285E+02  0.67539571939E+02  0.41800000000E+01 0. -1.
        -11    1    1    2    0    0  0.19430770268E+02  0.32179236109E+02  0.26992409655E+02  0.46277945597E+02  0.00000000000E+00 0.  1.
         11    1    1    2    0    0 -0.16069256405E+02 -0.26507057666E+02 -0.48116988627E+02  0.57237135690E+02  0.00000000000E+00 0. -1.
</event>
<event>
 6    1  0.6447971E-006  0.1273414E+03  0.7561462E-02  0.1231455E+00
         -4   -1    0    0    0  501 -0.00000000000E+00  0.00000000000E+00  0.73876683360E+03  0.73876683360E+03  0.00000000000E+00 0. -1.
          4   -1    0    0  501    0  0.00000000000E+00 -0.00000000000E+00 -0.34922147649E+02  0.34922147649E+02  0.00000000000E+00 0.  1.
          5    1    1    2  502    0  0.26128282711E+02  0.12250475704E+03  0.48519826671E+03  0.50112367044E+03  0.41800000000E+01 0.  1.
         -5    1    1    2    0  502  0.21848198249E+01 -0.19736009166E+02  0.14585089970E+02  0.24989612740E+02  0.41800000000E+01 0.  1.
        -11    1    1    2    0    0 -0.23515438108E+02 -0.42256383781E+02  0.17566557810E+02  0.51450575827E+02  0.00000000000E+00 0.  1.
         11    1    1    2    0    0 -0.47976644279E+01 -0.60512364095E+02  0.18649477147E+03  0.19612512225E+03  0.00000000000E+00 0. -1.
</event>
<event>
 6    1  0.6447971E-006  0.8962471E+02  0.7561462E-02  0.1303763E+00
         -1   -1    0    0    0  501 -0.00000000000E+00  0.00000000000E+00  0.29348959708E+03  0.29348959708E+03  0.00000000000E+00 0.  1.
          1   -1    0    0  501    0  0.00000000000E+00 -0.00000000000E+00 -0.55636663592E+02  0.55636663592E+02  0.00000000000E+00 0. -1.
          5    1    1    2  502    0  0.55354634484E+02 -0.37136980361E+02  0.16696402927E+02  0.68844267299E+02  0.41800000000E+01 0. -1.
         -5    1    1    2    0  502  0.11348741290E+02  0.33491855578E+02  0.13164804839E+03  0.13637880834E+03  0.41800000000E+01 0. -1.
        -11    1    1    2    0    0 -0.26479720240E+02 -0.17172366095E+02  0.93261112892E+02  0.98456594087E+02  0.00000000000E+00 0.  1.
         11    1    1    2    0    0 -0.40223655535E+02  0.20817490878E+02 -0.37526307263E+01  0.45446590944E+02  0.00000000000E+00 0. -1.
</event>
<event>
 6    1  0.6447971E-006  0.1229213E+03  0.7561462E-02  0.1238354E+00
          2   -1    0    0  501    0  0.00000000000E+00  0.00000000000E+00  0.92533195559E+03  0.92533195559E+03  0.00000000000E+00 0. -1.
         -2   -1    0    0    0  501 -0.00000000000E+00 -0.00000000000E+00 -0.22168259892E+02  0.22168259892E+02  0.00000000000E+00 0.  1.
          5    1    1    2  502    0 -0.17083768684E+02 -0.53437296900E+02  0.10516450339E+03  0.11926627782E+03  0.41800000000E+01 0. -1.
         -5    1    1    2    0  502  0.84404397428E+02  0.91602633772E+01  0.32386079152E+03  0.33483025165E+03  0.41800000000E+01 0. -1.
        -11    1    1    2    0    0 -0.16077305956E+02 -0.17867239418E+02  0.17539819192E+02  0.29755054504E+02  0.00000000000E+00 0.  1.
         11    1    1    2    0    0 -0.51243322789E+02  0.62144272941E+02  0.45659858160E+03  0.46364863152E+03  0.00000000000E+00 0. -1.
</event>
<event>
 6    1  0.6447971E-006  0.1604998E+03  0.7561462E-02  0.1188134E+00
         -2   -1    0    0    0  501 -0.00000000000E+00  0.00000000000E+00  0.27894830897E+03  0.27894830897E+03  0.00000000000E+00 0.  1.
          2   -1    0    0  501    0  0.00000000000E+00 -0.00000000000E+00 -0.12512567338E+03  0.12512567338E+03  0.00000000000E+00 0. -1.
          5    1    1    2  502    0  0.11958728940E+03  0.25569646745E+02  0.15662913847E+03  0.19875886405E+03  0.41800000000E+01 0.  1.
         -5    1    1    2    0  502  0.24564915553E+02 -0.20118501838E+02 -0.18424374368E+02  0.36947519040E+02  0.41800000000E+01 0.  1.
        -11    1    1    2    0    0 -0.12835186157E+03  0.26416582245E+02  0.19887281744E+02  0.13254259753E+03  0.00000000000E+00 0. -1.
         11    1    1    2    0    0 -0.15800343384E+02 -0.31867727152E+02 -0.42694102597E+01  0.35825001729E+02  0.00000000000E+00 0.  1.
</event>
<event>
 6    1  0.6447971E-006  0.1515563E+03  0.7561462E-02  0.1198574E+00
          1   -1    0    0  501    0  0.00000000000E+00  0.00000000000E+00  0.66560873853E+03  0.66560873853E+03  0.00000000000E+00 0. -1.
         -1   -1    0    0    0  501 -0.00000000000E+00 -0.00000000000E+00 -0.44235271099E+02  0.44235271099E+02  0.00000000000E+00 0.  1.
          5    1    1    2  502    0  0.36672992540E+02  0.13510101385E+03  0.32754750730E+03  0.35623311786E+03  0.41800000000E+01 0. -1.
         -5    1    1    2    0  502 -0.10220467746E+02 -0.38690177847E+01 -0.65232622767E+01  0.13395992322E+02  0.41800000000E+01 0. -1.
        -11    1    1    2    0    0 -0.50894099829E+02 -0.85279885211E+02  0.24436079998E+03  0.26377086418E+03  0.00000000000E+00 0.  1.
         11    1    1    2    0    0  0.24441575035E+02 -0.45952110858E+02  0.55988422431E+02  0.76444035273E+02  0.00000000000E+00 0. -1.
</event>
<event>
 6    1  0.6447971E-006  0.1196806E+03  0.7561462E-02  0.1243625E+00
          2   -1    0    0  501    0  0.00000000000E+00  0.00000000000E+00  0.15540758747E+03  0.15540758747E+03  0.00000000000E+00 0. -1.
         -2   -1    0    0    0  501 -0.00000000000E+00 -0.00000000000E+00 -0.12849552307E+03  0.12849552307E+03  0.00000000000E+00 0.  1.
          5    1    1    2  502    0 -0.11654666675E+02 -0.54577706069E+02 -0.25064747693E+02  0.61321050480E+02  0.41800000000E+01 0. -1.
         -5    1    1    2    0  502  0.90775639994E+02  0.10940133221E+02  0.17452574086E+02  0.93177079121E+02  0.41800000000E+01 0. -1.
        -11    1    1    2    0    0 -0.26483868081E+02  0.59869657912E+01 -0.28293726813E+02  0.39214461680E+02  0.00000000000E+00 0.  1.
         11    1    1    2    0    0 -0.52637105239E+02  0.37650607056E+02  0.62817964822E+02  0.90190519258E+02  0.00000000000E+00 0. -1.
</event>
<event>
 6    1  0.6447971E-006  0.9947779E+02  0.7561462E-02  0.1281398E+00
         -1   -1    0    0    0  501 -0.00000000000E+00  0.00000000000E+00  0.13968081939E+03  0.13968081939E+03  0.00000000000E+00 0.  1.
          1   -1    0    0  501    0  0.00000000000E+00 -0.00000000000E+00 -0.13488721320E+03  0.13488721320E+03  0.00000000000E+00 0. -1.
          5    1    1    2  502    0 -0.19284975418E+02  0.34041234446E+02 -0.79394764899E+01  0.40140049905E+02  0.41800000000E+01 0.  1.
         -5    1    1    2    0  502  0.29429506521E+02 -0.59215204603E+02  0.90555918792E+02  0.11220687652E+03  0.41800000000E+01 0.  1.
        -11    1    1    2    0    0  0.39476214039E+02  0.50206094190E+01 -0.41575333756E+02  0.57550728672E+02  0.00000000000E+00 0.  1.
         11    1    1    2    0    0 -0.49620745142E+02  0.20153360738E+02 -0.36247502364E+02  0.64670377493E+02  0.00000000000E+00 0. -1.
</event>
<event>
 6    1  0.6447971E-006  0.1925071E+03  0.7561462E-02  0.1156219E+00
          3   -1    0    0  501    0  0.00000000000E+00  0.00000000000E+00  0.23970106607E+02  0.23970106607E+02  0.00000000000E+00 0. -1.
         -3   -1    0    0    0  501 -0.00000000000E+00 -0.00000000000E+00 -0.19176727117E+04  0.19176727117E+04  0.00000000000E+00 0.  1.
          5    1    1    2  502    0  0.16420908174E+03  0.73615520507E+02 -0.12764708985E+04  0.12891001879E+04  0.41800000000E+01 0.  1.
         -5    1    1    2    0  502 -0.43877244145E+01 -0.83890903510E+01 -0.83832814761E+01  0.13318437249E+02  0.41800000000E+01 0.  1.
        -11    1    1    2    0    0 -0.11999897983E+03 -0.87980982632E+02 -0.45939378709E+03  0.48289031890E+03  0.00000000000E+00 0.  1.
         11    1    1    2    0    0 -0.39822377497E+02  0.22754552477E+02 -0.14945463805E+03  0.15633387426E+03  0.00000000000E+00 0. -1.
</event>
<event>
 6    1  0.6447971E-006  0.1193729E+03  0.7561462E-02  0.1244135E+00
         -2   -1    0    0    0  501 -0.00000000000E+00  0.00000000000E+00  0.11648697384E+03  0.11648697384E+03  0.00000000000E+00 0.  1.
          2   -1    0    0  501    0  0.00000000000E+00 -0.00000000000E+00 -0.13768514855E+03  0.13768514855E+03  0.00000000000E+00 0. -1.
          5    1    1    2  502    0  0.41133114518E+02  0.71029404916E+02  0.17580374486E+01  0.82205064128E+02  0.41800000000E+01 0.  1.
         -5    1    1    2    0  502  0.23227598934E+02 -0.53902166388E+02 -0.10555338771E+02  0.59781706818E+02  0.41800000000E+01 0.  1.
        -11    1    1    2    0    0 -0.62323171614E+02  0.16146727369E+02  0.18231276115E+02  0.66912434970E+02  0.00000000000E+00 0.  1.
         11    1    1    2    0    0 -0.20375418373E+01 -0.33273965897E+02 -0.30632149502E+02  0.45272916477E+02  0.00000000000E+00 0. -1.
</event>
<event>
 6    1  0.6447971E-006  0.9361763E+02  0.7561462E-02  0.1294320E+00
         -2   -1    0    0    0  501 -0.00000000000E+00  0.00000000000E+00  0.17053047308E+03  0.17053047308E+03  0.00000000000E+00 0.  1.
          2   -1    0    0  501    0  0.00000000000E+00 -0.00000000000E+00 -0.70331682193E+02  0.70331682193E+02  0.00000000000E+00 0. -1.
          5    1    1    2  502    0 -0.51530764609E+02  0.19824923866E+02 -0.30947827525E+01  0.55457167146E+02  0.41800000000E+01 0.  1.
         -5    1    1    2    0  502  0.57054141196E+02 -0.28577408959E+02  0.39766240836E+02  0.75303848778E+02  0.41800000000E+01 0.  1.
        -11    1    1    2    0    0  0.21351053594E+02  0.27744435036E+02 -0.37476254549E+01  0.35208888957E+02  0.00000000000E+00 0. -1.
         11    1    1    2    0    0 -0.26874430181E+02 -0.18991949942E+02  0.67274958257E+02  0.74892250391E+02  0.00000000000E+00 0.  1.
</event>
<event>
 6    1  0.6447971E-006  0.2228556E+03  0.7561462E-02  0.1131772E+00
          1   -1    0    0  501    0  0.00000000000E+00  0.00000000000E+00  0.44287836747E+03  0.44287836747E+03  0.00000000000E+00 0. -1.
         -1   -1    0    0    0  501 -0.00000000000E+00 -0.00000000000E+00 -0.11628338650E+03  0.11628338650E+03  0.00000000000E+00 0.  1.
          5    1    1    2  502    0  0.42865822938E+02 -0.18314509037E+03  0.12232125179E+03  0.22440936688E+03  0.41800000000E+01 0. -1.
         -5    1    1    2    0  502 -0.38435089170E+02 -0.12319674053E+02  0.66141362230E+01  0.41112645820E+02  0.41800000000E+01 0. -1.
        -11    1    1    2    0    0  0.44035436255E+02  0.72553244025E+02  0.71858179193E+02  0.11120562388E+03  0.00000000000E+00 0.  1.
         11    1    1    2    0    0 -0.48466170022E+02  0.12291152040E+03  0.12580141376E+03  0.18243411739E+03  0.00000000000E+00 0. -1.
</event>
<event>
 6    1  0.6447971E-006  0.9748324E+02  0.7561462E-02  0.1285679E+00
         -1   -1    0    0    0  501 -0.00000000000E+00  0.00000000000E+00  0.22695269508E+02  0.22695269508E+02  0.00000000000E+00 0. -1.
          1   -1    0    0  501    0  0.00000000000E+00 -0.00000000000E+00 -0.66849326175E+03  0.66849326175E+03  0.00000000000E+00 0.  1.
          5    1    1    2  502    0 -0.61827263151E+01  0.72672840946E+02 -0.37195014618E+03  0.37905666009E+03  0.41800000000E+01 0.  1.
         -5    1    1    2    0  502 -0.27031214287E+02 -0.31296757982E+02 -0.54653178444E+02  0.68663060811E+02  0.41800000000E+01 0.  1.
        -11    1    1    2    0    0  0.44729791771E+01 -0.50108851794E+02 -0.47576992157E+02  0.69242145790E+02  0.00000000000E+00 0. -1.
         11    1    1    2    0    0  0.28740961425E+02  0.87327688308E+01 -0.17161767546E+03  0.17422666457E+03  0.00000000000E+00 0.  1.
</event>
<event>
 6    1  0.6447971E-006  0.1288804E+03  0.7561462E-02  0.1229126E+00
          4   -1    0    0  501    0  0.00000000000E+00  0.00000000000E+00  0.54497661572E+02  0.54497661572E+02  0.00000000000E+00 0. -1.
         -4   -1    0    0    0  501 -0.00000000000E+00 -0.00000000000E+00 -0.57760624830E+03  0.57760624830E+03  0.00000000000E+00 0.  1.
          5    1    1    2  502    0 -0.89588902416E+01  0.88958164147E+01  0.40937200217E+01  0.13915035309E+02  0.41800000000E+01 0. -1.
         -5    1    1    2    0  502 -0.87152604679E+02  0.51514039050E+02 -0.42989886887E+03  0.44167837006E+03  0.41800000000E+01 0.  1.
        -11    1    1    2    0    0  0.51905496437E+00  0.18912319993E+02 -0.29354267747E+02  0.34923033953E+02  0.00000000000E+00 0.  1.
         11    1    1    2    0    0  0.95592439956E+02 -0.79322175458E+02 -0.67949170139E+02  0.14158747056E+03  0.00000000000E+00 0. -1.
</event>
<event>
 6    1  0.6447971E-006  0.1847958E+03  0.7561462E-02  0.1163241E+00
          1   -1    0    0  501    0  0.00000000000E+00  0.00000000000E+00  0.41074892924E+03  0.41074892924E+03  0.00000000000E+00 0. -1.
         -1   -1    0    0    0  501 -0.00000000000E+00 -0.00000000000E+00 -0.10639418233E+03  0.10639418233E+03  0.00000000000E+00 0.  1.
          5    1    1    2  502    0  0.81114352360E+02  0.84903965007E+01  0.14219538628E+03  0.16397751453E+03  0.41800000000E+01 0.  1.
         -5    1    1    2    0  502  0.80455663929E+02  0.66611972663E+02  0.17437705664E+02  0.10598025636E+03  0.41800000000E+01 0.  1.
        -11    1    1    2    0    0 -0.56561981353E+02 -0.42624654946E+01  0.25628466504E+01  0.56780230095E+02  0.00000000000E+00 0.  1.
         11    1    1    2    0    0 -0.10500803494E+03 -0.70839903669E+02  0.14215880831E+03  0.19040511057E+03  0.00000000000E+00 0. -1.
</event>
<event>
 6    1  0.6447971E-006  0.1051344E+03  0.7561462E-02  0.1269855E+00
          2   -1    0    0  501    0  0.00000000000E+00  0.00000000000E+00  0.10298056576E+03  0.10298056576E+03  0.00000000000E+00 0. -1.
         -2   -1    0    0    0  501 -0.00000000000E+00 -0.00000000000E+00 -0.14701381551E+03  0.14701381551E+03  0.00000000000E+00 0.  1.
          5    1    1    2  502    0  0.61030965712E+01 -0.26309767208E+02  0.29419412762E+02  0.40155023167E+02  0.41800000000E+01 0. -1.
         -5    1    1    2    0  502 -0.44073083429E+02  0.65735085983E+02 -0.60928098196E+02  0.99966213102E+02  0.41800000000E+01 0. -1.
        -11    1    1    2    0    0  0.59237001021E+02 -0.39558012913E+00  0.99471719360E+01  0.60067670199E+02  0.00000000000E+00 0.  1.
         11    1    1    2    0    0 -0.21267014163E+02 -0.39029738646E+02 -0.22471736248E+02  0.49805474801E+02  0.00000000000E+00 0. -1.
</event>
<event>
 6    1  0.6447971E-006  0.9508587E+02  0.7561462E-02  0.1290983E+00
          2   -1    0    0  501    0  0.00000000000E+00  0.00000000000E+00  0.21889897278E+03  0.21889897278E+03  0.00000000000E+00 0. -1.
         -2   -1    0    0    0  501 -0.00000000000E+00 -0.00000000000E+00 -0.71466963058E+02  0.71466963058E+02  0.00000000000E+00 0.  1.
          5    1    1    2  502    0 -0.44879553952E+02  0.44542899637E+02 -0.69420350775E+00  0.63373484909E+02  0.41800000000E+01 0. -1.
         -5    1    1    2    0  502  0.53031809123E+02 -0.31653215963E+02  0.12911698121E+02  0.63233560773E+02  0.41800000000E+01 0. -1.
        -11    1    1    2    0    0 -0.64282649695E+01 -0.38600555415E+02  0.16822271442E+02  0.42594768286E+02  0.00000000000E+00 0.  1.
         11    1    1    2    0    0 -0.17239902019E+01  0.25710871741E+02  0.11839224366E+03  0.12116412187E+03  0.00000000000E+00 0. -1.
</event>
<event>
 6    1  0.6447971E-006  0.2099436E+03  0.7561462E-02  0.1141611E+00
         -2   -1    0    0    0  501 -0.00000000000E+00  0.00000000000E+00  0.26725059359E+02  0.26725059359E+02  0.00000000000E+00 0.  1.
          2   -1    0    0  501    0  0.00000000000E+00 -0.00000000000E+00 -0.17092840306E+04  0.17092840306E+04  0.00000000000E+00 0. -1.
          5    1    1    2  502    0 -0.62186340555E+02  0.17378270141E+02 -0.36127542072E+03  0.36702390554E+03  0.41800000000E+01 0.  1.
         -5    1    1    2    0  502 -0.11380815752E+02  0.15223632031E+03 -0.50831683036E+03  0.53076255766E+03  0.41800000000E+01 0.  1.
        -11    1    1    2    0    0  0.42704861689E+01 -0.11272901764E+03 -0.50652464058E+03  0.51893475504E+03  0.00000000000E+00 0. -1.
         11    1    1    2    0    0  0.69296670138E+02 -0.56885572813E+02 -0.30644207961E+03  0.31928787174E+03  0.00000000000E+00 0.  1.
</event>
<event>
 6    1  0.6447971E-006  0.1281680E+03  0.7561462E-02  0.1230200E+00
          3   -1    0    0  501    0  0.00000000000E+00  0.00000000000E+00  0.31054188086E+03  0.31054188086E+03  0.00000000000E+00 0. -1.
         -3   -1    0    0    0  501 -0.00000000000E+00 -0.00000000000E+00 -0.69450040286E+02  0.69450040286E+02  0.00000000000E+00 0.  1.
          5    1    1    2  502    0  0.80105150711E+02 -0.18226969359E+02  0.44367058315E+02  0.93461039188E+02  0.41800000000E+01 0. -1.
         -5    1    1    2    0  502 -0.39746055981E+02 -0.41514194157E+02  0.17095461255E+00  0.57625332172E+02  0.41800000000E+01 0. -1.
        -11    1    1    2    0    0  0.28171402017E+02  0.31693333984E+02  0.58572512744E+02  0.72310680814E+02  0.00000000000E+00 0.  1.
         11    1    1    2    0    0 -0.68530496748E+02  0.28047829533E+02  0.13798131490E+03  0.15659486897E+03  0.00000000000E+00 0. -1.
</event>
<event>
 6    1  0.6447971E-006  0.9858082E+02  0.7561462E-02  0.1283309E+00
         -1   -1    0    0    0  501 -0.00000000000E+00  0.00000000000E+00  0.46625951581E+03  0.46625951581E+03  0.00000000000E+00 0.  1.
          1   -1    0    0  501    0  0.00000000000E+00 -0.00000000000E+00 -0.24068282542E+02  0.24068282542E+02  0.00000000000E+00 0. -1.
          5    1    1    2  502    0 -0.33352381207E+02 -0.43863957772E+02  0.17100143284E+03  0.17970918329E+03  0.41800000000E+01 0. -1.
         -5    1    1    2    0  502  0.38370750457E+02  0.47128876164E+02  0.77397045800E+02  0.98494774266E+02  0.41800000000E+01 0. -1.
        -11    1    1    2    0    0  0.35464549006E+02  0.12406304078E+02  0.54291471665E+02  0.66024347877E+02  0.00000000000E+00 0.  1.
         11    1    1    2    0    0 -0.40482918256E+02 -0.15671222471E+02  0.13950128296E+03  0.14609949292E+03  0.00000000000E+00 0. -1.
</event>
<event>
 6    1  0.6447971E-006  0.1737766E+03  0.7561462E-02  0.1173966E+00
          2   -1    0    0  501    0  0.00000000000E+00  0.00000000000E+00  0.11174303284E+03  0.11174303284E+03  0.00000000000E+00 0. -1.
         -2   -1    0    0    0  501 -0.00000000000E+00 -0.00000000000E+00 -0.28930686029E+03  0.28930686029E+03  0.00000000000E+00 0.  1.
          5    1    1    2  502    0 -0.86703100317E+02  0.41219845968E+02 -0.87868173524E+02  0.13021056649E+03  0.41800000000E+01 0.  1.
         -5    1    1    2    0  502 -0.43452989722E+02 -0.73694529533E+02 -0.49389514731E+02  0.98872860605E+02  0.41800000000E+01 0.  1.
        -11    1    1    2    0    0  0.41005294677E+02 -0.35070463782E+02 -0.23537006311E+02  0.58867327844E+02  0.00000000000E+00 0.  1.
         11    1    1    2    0    0  0.89150795361E+02  0.67545147347E+02 -0.16769132882E+02  0.11309913820E+03  0.00000000000E+00 0. -1.
</event>
<event>
 6    1  0.6447971E-006  0.9535752E+02  0.7561462E-02  0.1290373E+00
         -3   -1    0    0    0  501 -0.00000000000E+00  0.00000000000E+00  0.41929860935E+02  0.41929860935E+02  0.00000000000E+00 0.  1.
          3   -1    0    0  501    0  0.00000000000E+00 -0.00000000000E+00 -0.31731703125E+03  0.31731703125E+03  0.00000000000E+00 0. -1.
          5    1    1    2  502    0 -0.44257412445E+02  0.48238506407E+02 -0.29565370120E+02  0.71953148416E+02  0.41800000000E+01 0. -1.
         -5    1    1    2    0  502  0.51702769844E+01 -0.44176230904E+02 -0.11418013679E+03  0.12260851185E+03  0.41800000000E+01 0. -1.
        -11    1    1    2    0    0  0.59580232584E+02 -0.58784390258E+01 -0.43061350831E+02  0.73747136185E+02  0.00000000000E+00 0.  1.
         11    1    1    2    0    0 -0.20493097124E+02  0.18161635227E+01 -0.88580312572E+02  0.90938095731E+02  0.00000000000E+00 0. -1.
</event>
<event>
 6    1  0.6447971E-006  0.1152708E+03  0.7561462E-02  0.1251109E+00
          1   -1    0    0  501    0  0.00000000000E+00  0.00000000000E+00  0.18440538835E+03  0.18440538835E+03  0.00000000000E+00 0. -1.
         -1   -1    0    0    0  501 -0.00000000000E+00 -0.00000000000E+00 -0.77588164658E+02  0.77588164658E+02  0.00000000000E+00 0.  1.
          5    1    1    2  502    0 -0.79741159866E+02  0.36872067596E+02  0.15089254042E+02  0.89237659837E+02  0.41800000000E+01 0.  1.
         -5    1    1    2    0  502  0.44110678253E+02 -0.52983632972E+01  0.21392774812E+02  0.49486844754E+02  0.41800000000E+01 0.  1.
        -11    1    1    2    0    0 -0.17930755279E+02  0.17693657058E+02  0.54591621681E+01  0.25775568598E+02  0.00000000000E+00 0.  1.
         11    1    1    2    0    0  0.53561236893E+02 -0.49267361357E+02  0.64876032673E+02  0.97493479822E+02  0.00000000000E+00 0. -1.
</event>
<event>
 6    1  0.6447971E-006  0.1004075E+03  0.7561462E-02  0.1279441E+00
          1   -1    0    0  501    0  0.00000000000E+00  0.00000000000E+00  0.11886549308E+04  0.11886549308E+04  0.00000000000E+00 0. -1.
         -1   -1    0    0    0  501 -0.00000000000E+00 -0.00000000000E+00 -0.10512228902E+02  0.10512228902E+02  0.00000000000E+00 0.  1.
          5    1    1    2  502    0 -0.22690314740E+02  0.55517139350E+02  0.57833247993E+03  0.58144899422E+03  0.41800000000E+01 0.  1.
         -5    1    1    2    0  502  0.37356586175E+02 -0.27210852322E+02  0.11894692233E+03  0.12767845452E+03  0.41800000000E+01 0.  1.
        -11    1    1    2    0    0 -0.52103438602E+02 -0.20831691983E+02  0.27500011332E+03  0.28066668850E+03  0.00000000000E+00 0. -1.
         11    1    1    2    0    0  0.37437167167E+02 -0.74745950455E+01  0.20586318628E+03  0.20937302243E+03  0.00000000000E+00 0.  1.
</event>
<event>
 6    1  0.6447971E-006  0.1244270E+03  0.7561462E-02  0.1235968E+00
         -2   -1    0    0    0  501 -0.00000000000E+00  0.00000000000E+00  0.42706931593E+02  0.42706931593E+02  0.00000000000E+00 0.  1.
          2   -1    0    0  501    0  0.00000000000E+00 -0.00000000000E+00 -0.48072410307E+03  0.48072410307E+03  0.00000000000E+00 0. -1.
          5    1    1    2  502    0 -0.55583393239E+02 -0.27061819726E+02 -0.15406395603E+03  0.16605731131E+03  0.41800000000E+01 0. -1.
         -5    1    1    2    0  502 -0.26767969666E+02  0.57830324724E+02 -0.26404086479E+02  0.69105128902E+02  0.41800000000E+01 0.  1.
        -11    1    1    2    0    0 -0.18382174437E+02 -0.51323602665E+01 -0.82546303113E+02  0.84723890471E+02  0.00000000000E+00 0.  1.
         11    1    1    2    0    0  0.10073353734E+03 -0.25636144732E+02 -0.17500282586E+03  0.20354470398E+03  0.00000000000E+00 0. -1.
</event>
<event>
 6    1  0.6447971E-006  0.1041063E+03  0.7561462E-02  0.1271890E+00
          1   -1    0    0  501    0  0.00000000000E+00  0.00000000000E+00  0.44582423795E+03  0.44582423795E+03  0.00000000000E+00 0. -1.
         -1   -1    0    0    0  501 -0.00000000000E+00 -0.00000000000E+00 -0.35006142052E+02  0.35006142052E+02  0.00000000000E+00 0.  1.
          5    1    1    2  502    0 -0.97786777733E+01 -0.48611437271E+02  0.60899019896E+02  0.78643864331E+02  0.41800000000E+01 0. -1.
         -5    1    1    2    0  502 -0.14759129137E+02  0.73141732959E+02  0.54220965478E+02  0.92330550147E+02  0.41800000000E+01 0.  1.
        -11    1    1    2    0    0  0.10731877606E+02  0.27693737751E+02  0.17660091394E+03  0.17908098479E+03  0.00000000000E+00 0.  1.
         11    1    1    2    0    0  0.13805929304E+02 -0.52224033439E+02  0.11909719658E+03  0.13077498073E+03  0.00000000000E+00 0. -1.
</event>
<event>
 6    1  0.6447971E-006  0.1034033E+03  0.7561462E-02  0.1273298E+00
         -1   -1    0    0    0  501 -0.00000000000E+00  0.00000000000E+00  0.44895305065E+03  0.44895305065E+03  0.00000000000E+00 0.  1.
          1   -1    0    0  501    0  0.00000000000E+00 -0.00000000000E+00 -0.29100227313E+02  0.29100227313E+02  0.00000000000E+00 0. -1.
          5    1    1    2  502    0  0.48054970149E+02  0.62273666593E+01  0.17030134038E+03  0.17711035877E+03  0.41800000000E+01 0.  1.
         -5    1    1    2    0  502 -0.65435558479E+02  0.24245509151E+02  0.91507056284E+02  0.11515498590E+03  0.41800000000E+01 0.  1.
        -11    1    1    2    0    0 -0.88243025074E+01 -0.52985017756E+02  0.13203986374E+03  0.14254755711E+03  0.00000000000E+00 0.  1.
         11    1    1    2    0    0  0.26204890837E+02  0.22512141945E+02  0.26004562935E+02  0.43240376180E+02  0.00000000000E+00 0. -1.
</event>
<event>
 6    1  0.6447971E-006  0.2375165E+03  0.7561462E-02  0.1121458E+00
          1   -1    0    0  501    0  0.00000000000E+00  0.00000000000E+00  0.93058207801E+03  0.93058207801E+03  0.00000000000E+00 0. -1.
         -1   -1    0    0    0  501 -0.00000000000E+00 -0.00000000000E+00 -0.85776857808E+02  0.85776857808E+02  0.00000000000E+00 0.  1.
          5    1    1    2  502    0 -0.15665297200E+03  0.93685925370E+02  0.10052459528E+03  0.20842234262E+03  0.41800000000E+01 0. -1.
         -5    1    1    2    0  502 -0.60114354305E+02 -0.20357279826E+02  0.10862947245E+03  0.12588085288E+03  0.41800000000E+01 0. -1.
        -11    1    1    2    0    0  0.76794260324E+02 -0.27326293609E+02  0.11499528583E+03  0.14095389496E+03  0.00000000000E+00 0.  1.
         11    1    1    2    0    0  0.13997306598E+03 -0.46002351935E+02  0.52065586664E+03  0.54110184536E+03  0.00000000000E+00 0. -1.
</event>
<event>
 6    1  0.6447971E-006  0.9417676E+02  0.7561462E-02  0.1293041E+00
          1   -1    0    0  501    0  0.00000000000E+00  0.00000000000E+00  0.57459137119E+03  0.57459137119E+03  0.00000000000E+00 0. -1.
         -1   -1    0    0    0  501 -0.00000000000E+00 -0.00000000000E+00 -0.32060443081E+02  0.32060443081E+02  0.00000000000E+00 0.  1.
          5    1    1    2  502    0 -0.52264417570E+02  0.74704052555E+02  0.96330530408E+02  0.13270006896E+03  0.41800000000E+01 0. -1.
         -5    1    1    2    0  502  0.83284572953E+01 -0.89684983044E+01  0.18258432913E+03  0.18304181710E+03  0.41800000000E+01 0. -1.
        -11    1    1    2    0    0  0.43657883580E+02 -0.42541998659E+02  0.26046340281E+03  0.26750143299E+03  0.00000000000E+00 0. -1.
         11    1    1    2    0    0  0.27807669434E+00 -0.23193555591E+02  0.31526657670E+01  0.23408495232E+02  0.00000000000E+00 0.  1.
</event>
<event>
 6    1  0.6447971E-006  0.1209596E+03  0.7561462E-02  0.1241522E+00
         -3   -1    0    0    0  501 -0.00000000000E+00  0.00000000000E+00  0.19862053966E+03  0.19862053966E+03  0.00000000000E+00 0.  1.
          3   -1    0    0  501    0  0.00000000000E+00 -0.00000000000E+00 -0.91855273015E+02  0.91855273015E+02  0.00000000000E+00 0. -1.
          5    1    1    2  502    0  0.89722936285E+02 -0.32139972008E+02  0.24782072338E+02  0.98563718506E+02  0.41800000000E+01 0. -1.
         -5    1    1    2    0  502 -0.16014356840E+02  0.29575085836E+02  0.61865688926E+02  0.70540635052E+02  0.41800000000E+01 0. -1.
        -11    1    1    2    0    0 -0.10574131663E+02  0.38541109097E+02  0.27228127077E+02  0.48359076242E+02  0.00000000000E+00 0. -1.
         11    1    1    2    0    0 -0.63134447782E+02 -0.35976222925E+02 -0.71106216943E+01  0.73012382878E+02  0.00000000000E+00 0.  1.
</event>
<event>
 6    1  0.6447971E-006  0.1516981E+03  0.7561462E-02  0.1198402E+00
          4   -1    0    0  501    0  0.00000000000E+00  0.00000000000E+00  0.10200418746E+03  0.10200418746E+03  0.00000000000E+00 0. -1.
         -4   -1    0    0    0  501 -0.00000000000E+00 -0.00000000000E+00 -0.29568549650E+03  0.29568549650E+03  0.00000000000E+00 0.  1.
          5    1    1    2  502    0  0.11792149161E+03 -0.14005079395E+02 -0.14873344381E+03  0.19036998224E+03  0.41800000000E+01 0. -1.
         -5    1    1    2    0  502  0.11327145294E+02  0.17551384937E+02  0.21276073613E+02  0.30108122527E+02  0.41800000000E+01 0. -1.
        -11    1    1    2    0    0  0.89118121670E+01 -0.22137102657E+02 -0.17282616270E+02  0.29464564061E+02  0.00000000000E+00 0.  1.
         11    1    1    2    0    0 -0.13816044907E+03  0.18590797116E+02 -0.48941322579E+02  0.14774701513E+03  0.00000000000E+00 0. -1.
</event>
<event>
 6    1  0.6447971E-006  0.4619048E+03  0.7561462E-02  0.1024230E+00
         -2   -1    0    0    0  501 -0.00000000000E+00  0.00000000000E+00  0.13828563182E+04  0.13828563182E+04  0.00000000000E+00 0.  1.
          2   -1    0    0  501    0  0.00000000000E+00 -0.00000000000E+00 -0.15890780632E+03  0.15890780632E+03  0.00000000000E+00 0. -1.
          5    1    1    2  502    0 -0.48057040786E+02 -0.39826899079E+02  0.39895324093E+02  0.74194139552E+02  0.41800000000E+01 0. -1.
         -5    1    1    2    0  502  0.36714033896E+03  0.27461560343E+03  0.57923399155E+03  0.73873895762E+03  0.41800000000E+01 0.  1.
        -11    1    1    2    0    0 -0.17316137596E+03 -0.17144332470E+03  0.41411983523E+03  0.48049236585E+03  0.00000000000E+00 0.  1.
         11    1    1    2    0    0 -0.14592192222E+03 -0.63345379654E+02  0.19069936101E+03  0.24833866151E+03  0.00000000000E+00 0. -1.
</event>
<event>
 6    1  0.6447971E-006  0.1079758E+03  0.7561462E-02  0.1264365E+00
          1   -1    0    0  501    0  0.00000000000E+00  0.00000000000E+00  0.19970615019E+02  0.19970615019E+02  0.00000000000E+00 0. -1.
         -1   -1    0    0    0  501 -0.00000000000E+00 -0.00000000000E+00 -0.84415818078E+03  0.84415818078E+03  0.00000000000E+00 0.  1.
          5    1    1    2  502    0  0.43091220502E+02 -0.77221120552E+02 -0.25366319948E+03  0.26866791009E+03  0.41800000000E+01 0. -1.
         -5    1    1    2    0  502 -0.29667658350E+02  0.16720954711E+02 -0.31572320186E+03  0.31758207265E+03  0.41800000000E+01 0. -1.
        -11    1    1    2    0    0 -0.27487448819E+02 -0.33864745909E+01 -0.16193107129E+03  0.16428237855E+03  0.00000000000E+00 0.  1.
         11    1    1    2    0    0  0.14063886667E+02  0.63886640432E+02 -0.92870093142E+02  0.11359643451E+03  0.00000000000E+00 0. -1.
</event>
<event>
 6    1  0.6447971E-006  0.1111558E+03  0.7561462E-02  0.1258444E+00
          1   -1    0    0  501    0  0.00000000000E+00  0.00000000000E+00  0.55575627106E+03  0.55575627106E+03  0.00000000000E+00 0. -1.
         -1   -1    0    0    0  501 -0.00000000000E+00 -0.00000000000E+00 -0.25950176136E+02  0.25950176136E+02  0.00000000000E+00 0.  1.
          5    1    1    2  502    0  0.51345739491E+02 -0.37333863972E+02  0.96777962070E+02  0.11581730745E+03  0.41800000000E+01 0. -1.
         -5    1    1    2    0  502 -0.16590354899E+02  0.65135933049E+02  0.14959105199E+03  0.16405147024E+03  0.41800000000E+01 0. -1.
        -11    1    1    2    0    0 -0.58502112539E+02 -0.54875793665E+01  0.10387230648E+03  0.11934013052E+03  0.00000000000E+00 0.  1.
         11    1    1    2    0    0  0.23746727947E+02 -0.22314489710E+02  0.17956477438E+03  0.18249753899E+03  0.00000000000E+00 0. -1.
</event>
<event>
 6    1  0.6447971E-006  0.1189178E+03  0.7561462E-02  0.1244893E+00
          1   -1    0    0  501    0  0.00000000000E+00  0.00000000000E+00  0.10974763596E+03  0.10974763596E+03  0.00000000000E+00 0. -1.
         -1   -1    0    0    0  501 -0.00000000000E+00 -0.00000000000E+00 -0.10963348696E+04  0.10963348696E+04  0.00000000000E+00 0.  1.
          5    1    1    2  502    0 -0.46658194514E+02 -0.30505938818E+01 -0.44146735681E+03  0.44395629601E+03  0.41800000000E+01 0. -1.
         -5    1    1    2    0  502  0.74925609132E+02  0.59385419052E+02 -0.61878760268E+03  0.62614378902E+03  0.41800000000E+01 0.  1.
        -11    1    1    2    0    0  0.15690051142E+02 -0.47939911951E+02  0.75947410454E+02  0.91172484980E+02  0.00000000000E+00 0. -1.
         11    1    1    2    0    0 -0.43957465760E+02 -0.83949132189E+01 -0.22796846348E+01  0.44809935572E+02  0.00000000000E+00 0.  1.
</event>
<event>
 6    1  0.6447971E-006  0.1274212E+03  0.7561462E-02  0.1231333E+00
          1   -1    0    0  501    0  0.00000000000E+00  0.00000000000E+00  0.89777405073E+03  0.89777405073E+03  0.00000000000E+00 0. -1.
         -1   -1    0    0    0  501 -0.00000000000E+00 -0.00000000000E+00 -0.18721461773E+02  0.18721461773E+02  0.00000000000E+00 0.  1.
          5    1    1    2  502    0 -0.38797837803E+02 -0.12748518773E+02  0.10616639579E+03  0.11382694296E+03  0.41800000000E+01 0.  1.
         -5    1    1    2    0  502  0.98296152410E+02 -0.11090748480E+02  0.31137809104E+03  0.32673984492E+03  0.41800000000E+01 0.  1.
        -11    1    1    2    0    0  0.18431270483E+02  0.31480135565E+02  0.11341619760E+03  0.11913834205E+03  0.00000000000E+00 0.  1.
         11    1    1    2    0    0 -0.77929585089E+02 -0.76408683118E+01  0.34809190452E+03  0.35679038257E+03  0.00000000000E+00 0. -1.
</event>
<event>
 6    1  0.6447971E-006  0.1075427E+03  0.7561462E-02  0.1265189E+00
          2   -1    0    0  501    0  0.00000000000E+00  0.00000000000E+00  0.15384181001E+03  0.15384181001E+03  0.00000000000E+00 0. -1.
         -2   -1    0    0    0  501 -0.00000000000E+00 -0.00000000000E+00 -0.83886714831E+02  0.83886714831E+02  0.00000000000E+00 0.  1.
          5    1    1    2  502    0  0.70355762528E+02  0.46305843638E+01  0.35574717607E+01  0.70721309644E+02  0.41800000000E+01 0.  1.
         -5    1    1    2    0  502 -0.52103078468E+02  0.22501297838E+02  0.22357843771E+02  0.61142332049E+02  0.41800000000E+01 0.  1.
        -11    1    1    2    0    0 -0.49967262524E+02 -0.24697846841E+02  0.56702663196E+01  0.56025555623E+02  0.00000000000E+00 0.  1.
         11    1    1    2    0    0  0.31714578465E+02 -0.24340353607E+01  0.38369513332E+02  0.49839327530E+02  0.00000000000E+00 0. -1.
</event>
<event>
 6    1  0.6447971E-006  0.1995263E+03  0.7561462E-02  0.1150139E+00
         -1   -1    0    0    0  501 -0.00000000000E+00  0.00000000000E+00  0.20833496623E+03  0.20833496623E+03  0.00000000000E+00 0.  1.
          1   -1    0    0  501    0  0.00000000000E+00 -0.00000000000E+00 -0.21213119839E+03  0.21213119839E+03  0.00000000000E+00 0. -1.
          5    1    1    2  502    0  0.16625739714E+03 -0.81214129199E+02 -0.40718620430E+00  0.18508077990E+03  0.41800000000E+01 0.  1.
         -5    1    1    2    0  502 -0.20656157322E+02 -0.24150084630E+02  0.11911762076E+02  0.34194530246E+02  0.41800000000E+01 0.  1.
        -11    1    1    2    0    0 -0.24669685185E+02  0.32250895355E+02 -0.40835796152E+02  0.57587115448E+02  0.00000000000E+00 0. -1.
         11    1    1    2    0    0 -0.12093155464E+03  0.73113318474E+02  0.25534988125E+02  0.14360373903E+03  0.00000000000E+00 0.  1.
</event>
<event>
 6    1  0.6447971E-006  0.1284740E+03  0.7561462E-02  0.1229738E+00
         -1   -1    0    0    0  501 -0.00000000000E+00  0.00000000000E+00  0.21189913155E+02  0.21189913155E+02  0.00000000000E+00 0.  1.
          1   -1    0    0  501    0  0.00000000000E+00 -0.00000000000E+00 -0.86240055958E+03  0.86240055958E+03  0.00000000000E+00 0. -1.
          5    1    1    2  502    0 -0.22118893558E+02 -0.42810292352E+02 -0.89769505096E+02  0.10197059884E+03  0.41800000000E+01 0. -1.
         -5    1    1    2    0  502  0.77020353855E+02 -0.23776768371E+02 -0.38871274834E+03  0.39700446187E+03  0.41800000000E+01 0.  1.
        -11    1    1    2    0    0 -0.55723266877E+02 -0.52986135651E+01 -0.15466717244E+03  0.16448432147E+03  0.00000000000E+00 0.  1.
         11    1    1    2    0    0  0.82180658055E+00  0.71885674287E+02 -0.20806122055E+03  0.22013109056E+03  0.00000000000E+00 0. -1.
</event>
<event>
 6    1  0.6447971E-006  0.1477494E+03  0.7561462E-02  0.1203266E+00
          3   -1    0    0  501    0  0.00000000000E+00  0.00000000000E+00  0.16710812061E+03  0.16710812061E+03  0.00000000000E+00 0. -1.
         -3   -1    0    0    0  501 -0.00000000000E+00 -0.00000000000E+00 -0.14151740957E+03  0.14151740957E+03  0.00000000000E+00 0.  1.
          5    1    1    2  502    0  0.63779502414E+02 -0.99253772964E+02 -0.18860065433E+02  0.11955045313E+03  0.41800000000E+01 0.  1.
         -5    1    1    2    0  502 -0.43791231150E+02 -0.29110388714E+01  0.15416644287E+01  0.44113435620E+02  0.41800000000E+01 0.  1.
        -11    1    1    2    0    0  0.32862676671E+02  0.39420987189E+02 -0.21457134243E+01  0.51367050091E+02  0.00000000000E+00 0.  1.
         11    1    1    2    0    0 -0.52850947935E+02  0.62743824646E+02  0.45054825474E+02  0.93594591336E+02  0.00000000000E+00 0. -1.
</event>
<event>
 6    1  0.6447971E-006  0.1575737E+03  0.7561462E-02  0.1191464E+00
          1   -1    0    0  501    0  0.00000000000E+00  0.00000000000E+00  0.98344552208E+03  0.98344552208E+03  0.00000000000E+00 0. -1.
         -1   -1    0    0    0  501 -0.00000000000E+00 -0.00000000000E+00 -0.26154018179E+02  0.26154018179E+02  0.00000000000E+00 0.  1.
          5    1    1    2  502    0  0.32993637527E+02 -0.28012397080E+02  0.18504331901E+03  0.19008360481E+03  0.41800000000E+01 0.  1.
         -5    1    1    2    0  502  0.46045565346E+02  0.11516605547E+03  0.31106114859E+03  0.33490285902E+03  0.41800000000E+01 0.  1.
        -11    1    1    2    0    0 -0.10949985842E+02 -0.78113889527E+02  0.21453949542E+03  0.22858013261E+03  0.00000000000E+00 0.  1.
         11    1    1    2    0    0 -0.68089217032E+02 -0.90397688639E+01  0.24664754088E+03  0.25603294382E+03  0.00000000000E+00 0. -1.
</event>
<event>
 6    1  0.6447971E-006  0.9599762E+02  0.7561462E-02  0.1288945E+00
          1   -1    0    0  501    0  0.00000000000E+00  0.00000000000E+00  0.30856567147E+03  0.30856567147E+03  0.00000000000E+00 0. -1.
         -1   -1    0    0    0  501 -0.00000000000E+00 -0.00000000000E+00 -0.29905538482E+03  0.29905538482E+03  0.00000000000E+00 0.  1.
          5    1    1    2  502    0 -0.12674739906E+02  0.13078884483E+02  0.62532915971E+01  0.19704880279E+02  0.41800000000E+01 0. -1.
         -5    1    1    2    0  502 -0.58781970286E+02  0.21276540465E+02 -0.27618839394E+03  0.28320577775E+03  0.41800000000E+01 0.  1.
        -11    1    1    2    0    0 -0.11832690089E+02  0.10706322796E+02  0.93495164570E+01  0.18494630586E+02  0.00000000000E+00 0.  1.
         11    1    1    2    0    0  0.83289400282E+02 -0.45061747744E+02  0.27009587253E+03  0.28621576768E+03  0.00000000000E+00 0. -1.
</event>
<event>
 6    1  0.6447971E-006  0.1424161E+03  0.7561462E-02  0.1210114E+00
          1   -1    0    0  501    0  0.00000000000E+00  0.00000000000E+00  0.17586433500E+03  0.17586433500E+03  0.00000000000E+00 0. -1.
         -1   -1    0    0    0  501 -0.00000000000E+00 -0.00000000000E+00 -0.13565440409E+03  0.13565440409E+03  0.00000000000E+00 0.  1.
          5    1    1    2  502    0 -0.19487980844E+02  0.93984725865E+02 -0.24869720982E+02  0.99241551353E+02  0.41800000000E+01 0.  1.
         -5    1    1    2    0  502  0.56504823483E+02  0.54179539606E+01  0.31156046854E+02  0.64886986041E+02  0.41800000000E+01 0.  1.
        -11    1    1    2    0    0  0.20282339364E+02 -0.57161173514E+02 -0.13130282093E+02  0.62057854905E+02  0.00000000000E+00 0.  1.
         11    1    1    2    0    0 -0.57299182003E+02 -0.42241506312E+02  0.47053887129E+02  0.85332346784E+02  0.00000000000E+00 0. -1.
</event>
<event>
 6    1  0.6447971E-006  0.1338413E+03  0.7561462E-02  0.1221865E+00
          3   -1    0    0  501    0  0.00000000000E+00  0.00000000000E+00  0.10509353419E+03  0.10509353419E+03  0.00000000000E+00 0. -1.
         -3   -1    0    0    0  501 -0.00000000000E+00 -0.00000000000E+00 -0.17251802087E+03  0.17251802087E+03  0.00000000000E+00 0.  1.
          5    1    1    2  502    0 -0.99751918395E+02 -0.32603447582E+02 -0.37263515371E+02  0.11144268480E+03  0.41800000000E+01 0.  1.
         -5    1    1    2    0  502  0.20339659595E+02  0.36047844271E+02 -0.95068954566E+00  0.41611597417E+02  0.41800000000E+01 0.  1.
        -11    1    1    2    0    0  0.69842723340E+02 -0.41885431494E+02 -0.18348534599E+02  0.83480920556E+02  0.00000000000E+00 0.  1.
         11    1    1    2    0    0  0.95695354608E+01  0.38441034806E+02 -0.10861747168E+02  0.41076352290E+02  0.00000000000E+00 0. -1.
</event>
<event>
 6    1  0.6447971E-006  0.1128626E+03  0.7561462E-02  0.1255359E+00
          1   -1    0    0  501    0  0.00000000000E+00  0.00000000000E+00  0.14742774404E+03  0.14742774404E+03  0.00000000000E+00 0. -1.
         -1   -1    0    0    0  501 -0.00000000000E+00 -0.00000000000E+00 -0.10544736344E+03  0.10544736344E+03  0.00000000000E+00 0.  1.
          5    1    1    2  502    0 -0.10169568834E+02  0.69408655007E+02 -0.63215422220E+01  0.70557889822E+02  0.41800000000E+01 0.  1.
         -5    1    1    2    0  502 -0.45644199835E+02 -0.47579422128E+02  0.18901417382E+02  0.68716303507E+02  0.41800000000E+01 0.  1.
        -11    1    1    2    0    0 -0.14733284886E+02  0.21179327664E+01  0.35854297061E+02  0.38821204778E+02  0.00000000000E+00 0. -1.
         11    1    1    2    0    0  0.70547053555E+02 -0.23947165645E+02 -0.64537916166E+01  0.74779709373E+02  0.00000000000E+00 0.  1.
</event>
<event>
 6    1  0.6447971E-006  0.9389162E+02  0.7561462E-02  0.1293692E+00
         -1   -1    0    0    0  501 -0.00000000000E+00  0.00000000000E+00  0.77654669934E+03  0.77654669934E+03  0.00000000000E+00 0.  1.
          1   -1    0    0  501    0  0.00000000000E+00 -0.00000000000E+00 -0.37783018756E+02  0.37783018756E+02  0.00000000000E+00 0. -1.
          5    1    1    2  502    0 -0.38225671708E+02 -0.23484498736E+02  0.28110955276E+03  0.28469769355E+03  0.41800000000E+01 0. -1.
         -5    1    1    2    0  502  0.59636540037E+02  0.62789442459E+02  0.41000716932E+03  0.41907324215E+03  0.41800000000E+01 0. -1.
        -11    1    1    2    0    0 -0.28972977761E+02 -0.19757027711E+02 -0.19563499520E+02  0.40155997033E+02  0.00000000000E+00 0. -1.
         11    1    1    2    0    0  0.75621094317E+01 -0.19547916011E+02  0.67210458019E+02  0.70402785361E+02  0.00000000000E+00 0.  1.
</event>
<event>
 6    1  0.6447971E-006  0.1593288E+03  0.7561462E-02  0.1189457E+00
          2   -1    0    0  501    0  0.00000000000E+00  0.00000000000E+00  0.41082372905E+02  0.41082372905E+02  0.00000000000E+00 0. -1.
         -2   -1    0    0    0  501 -0.00000000000E+00 -0.00000000000E+00 -0.94087335312E+03  0.94087335312E+03  0.00000000000E+00 0.  1.
          5    1    1    2  502    0  0.17584606660E+02  0.34014342156E+02 -0.34478300449E+03  0.34692792688E+03  0.41800000000E+01 0. -1.
         -5    1    1    2    0  502 -0.91898693762E+02  0.88549730424E+02 -0.31980607414E+03  0.34435421027E+03  0.41800000000E+01 0. -1.
        -11    1    1    2    0    0  0.57000737519E+02 -0.44011636394E+02 -0.46978998431E+02  0.85983338557E+02  0.00000000000E+00 0. -1.
         11    1    1    2    0    0  0.17313349583E+02 -0.78552436186E+02 -0.18822290316E+03  0.20469025032E+03  0.00000000000E+00 0.  1.
</event>
<event>
 6    1  0.6447971E-006  0.8859678E+02  0.7561462E-02  0.1306286E+00
         -1   -1    0    0    0  501 -0.00000000000E+00  0.00000000000E+00  0.16040021675E+03  0.16040021675E+03  0.00000000000E+00 0.  1.
          1   -1    0    0  501    0  0.00000000000E+00 -0.00000000000E+00 -0.13540995912E+03  0.13540995912E+03  0.00000000000E+00 0. -1.
          5    1    1    2  502    0 -0.29249817604E+02 -0.69754268986E+02  0.10345361664E+03  0.12822376171E+03  0.41800000000E+01 0.  1.
         -5    1    1    2    0  502 -0.21895441326E+02  0.24736025351E+02 -0.18035262073E+02  0.37868514350E+02  0.41800000000E+01 0.  1.
        -11    1    1    2    0    0  0.18308325261E+02  0.15550445824E+02 -0.78460083088E+02  0.82054833967E+02  0.00000000000E+00 0. -1.
         11    1    1    2    0    0  0.32836933669E+02  0.29467797810E+02  0.18031986153E+02  0.47663065839E+02  0.00000000000E+00 0.  1.
</event>
<event>
 6    1  0.6447971E-006  0.8586082E+02  0.7561462E-02  0.1313197E+00
         -2   -1    0    0    0  501 -0.00000000000E+00  0.00000000000E+00  0.33542780933E+02  0.33542780933E+02  0.00000000000E+00 0.  1.
          2   -1    0    0  501    0  0.00000000000E+00 -0.00000000000E+00 -0.38191366564E+03  0.38191366564E+03  0.00000000000E+00 0. -1.
          5    1    1    2  502    0  0.62895964895E+02 -0.13125071703E+02 -0.14325844101E+03  0.15706248193E+03  0.41800000000E+01 0. -1.
         -5    1    1    2    0  502 -0.43716826671E+02  0.33472438681E+02 -0.47943625396E+02  0.73127482533E+02  0.41800000000E+01 0. -1.
        -11    1    1    2    0    0  0.13914950089E+02 -0.14064971768E+01  0.77550179990E+01  0.15992009707E+02  0.00000000000E+00 0.  1.
         11    1    1    2    0    0 -0.33094088312E+02 -0.18940869802E+02 -0.16492383629E+03  0.16927447240E+03  0.00000000000E+00 0. -1.
</event>
<event>
 6    1  0.8523800E-006  0.3324303E+03  0.7561462E-02  0.1070067E+00
         -2   -1    0    0    0  501 -0.00000000000E+00  0.00000000000E+00  0.49948886000E+02  0.49948886000E+02  0.00000000000E+00 0.  1.
          2   -1    0    0  501    0  0.00000000000E+00 -0.00000000000E+00 -0.22800696408E+04  0.22800696408E+04  0.00000000000E+00 0. -1.
          5    1    1    2  502    0  0.13973405799E+03 -0.11952312558E+03 -0.51000667121E+03  0.54215833627E+03  0.41800000000E+01 0.  1.
         -5    1    1    2    0  502  0.15614459583E+03  0.55217760777E+01 -0.49347249188E+03  0.51763326541E+03  0.41800000000E+01 0.  1.
        -11    1    1    2    0    0 -0.20043017231E+03  0.11105859761E+03 -0.75463222335E+03  0.78865458763E+03  0.00000000000E+00 0. -1.
         11    1    1    2    0    0 -0.95448481510E+02  0.29427518957E+01 -0.47200936835E+03  0.48157233748E+03  0.00000000000E+00 0.  1.
</event>
<event>
 6    1  0.6447971E-006  0.2887568E+03  0.7561462E-02  0.1091000E+00
         -2   -1    0    0    0  501 -0.00000000000E+00  0.00000000000E+00  0.10776602548E+03  0.10776602548E+03  0.00000000000E+00 0.  1.
          2   -1    0    0  501    0  0.00000000000E+00 -0.00000000000E+00 -0.78722564515E+03  0.78722564515E+03  0.00000000000E+00 0. -1.
          5    1    1    2  502    0 -0.88420492993E+02  0.76560992687E+02 -0.10099865696E+03  0.15458968365E+03  0.41800000000E+01 0. -1.
         -5    1    1    2    0  502 -0.38068228918E+01  0.17679502030E+03 -0.23243289855E+03  0.29208474084E+03  0.41800000000E+01 0. -1.
        -11    1    1    2    0    0  0.93247568210E+02 -0.12868595960E+03 -0.17122966549E+03  0.23361246439E+03  0.00000000000E+00 0. -1.
         11    1    1    2    0    0 -0.10202523254E+01 -0.12467005338E+03 -0.17479839867E+03  0.21470478175E+03  0.00000000000E+00 0.  1.
</event>
<event>
 6    1  0.6447971E-006  0.1381811E+03  0.7561462E-02  0.1215798E+00
         -2   -1    0    0    0  501 -0.00000000000E+00  0.00000000000E+00  0.18753307702E+03  0.18753307702E+03  0.00000000000E+00 0.  1.
          2   -1    0    0  501    0  0.00000000000E+00 -0.00000000000E+00 -0.13709481447E+03  0.13709481447E+03  0.00000000000E+00 0. -1.
          5    1    1    2  502    0 -0.25863702131E+02  0.16625149655E+02  0.63805961005E+02  0.70950685329E+02  0.41800000000E+01 0.  1.
         -5    1    1    2    0  502  0.16067065287E+02  0.10045346124E+03 -0.25333263014E+02  0.10492042259E+03  0.41800000000E+01 0.  1.
        -11    1    1    2    0    0  0.43487688449E+02 -0.91188562299E+02 -0.89029046016E+01  0.10141890677E+03  0.00000000000E+00 0.  1.
         11    1    1    2    0    0 -0.33691051605E+02 -0.25890048596E+02  0.20868469158E+02  0.47337876796E+02  0.00000000000E+00 0. -1.
</event>
<event>
 6    1  0.6447971E-006  0.1158740E+03  0.7561462E-02  0.1250063E+00
         -1   -1    0    0    0  501 -0.00000000000E+00  0.00000000000E+00  0.10530380016E+03  0.10530380016E+03  0.00000000000E+00 0.  1.
          1   -1    0    0  501    0  0.00000000000E+00 -0.00000000000E+00 -0.16565219369E+03  0.16565219369E+03  0.00000000000E+00 0. -1.
          5    1    1    2  502    0 -0.38778515789E+02  0.17440787633E+02 -0.39151522206E+02  0.57950569031E+02  0.41800000000E+01 0.  1.
         -5    1    1    2    0  502  0.66391879864E+01 -0.79990930631E+02  0.30124083957E+02  0.85834495598E+02  0.41800000000E+01 0.  1.
        -11    1    1    2    0    0 -0.25148337080E+02  0.19002852124E+01  0.60308190127E+01  0.25931076332E+02  0.00000000000E+00 0.  1.
         11    1    1    2    0    0  0.57287664882E+02  0.60649857786E+02 -0.57351774295E+02  0.10123985288E+03  0.00000000000E+00 0. -1.
</event>
<event>
 6    1  0.6447971E-006  0.8006063E+02  0.7561462E-02  0.1328879E+00
          2   -1    0    0  501    0  0.00000000000E+00  0.00000000000E+00  0.27805007296E+03  0.27805007296E+03  0.00000000000E+00 0. -1.
         -2   -1    0    0    0  501 -0.00000000000E+00 -0.00000000000E+00 -0.46628440428E+02  0.46628440428E+02  0.00000000000E+00 0.  1.
          5    1    1    2  502    0  0.32813077862E+02 -0.71035607434E+01 -0.11536876989E+02  0.35745357526E+02  0.41800000000E+01 0.  1.
         -5    1    1    2    0  502 -0.49093546638E+02 -0.16655456604E+02  0.12571668176E+03  0.13605049441E+03  0.41800000000E+01 0.  1.
        -11    1    1    2    0    0 -0.23256212206E+02  0.25743056258E+02  0.65236461278E+01  0.35300344339E+02  0.00000000000E+00 0.  1.
         11    1    1    2    0    0  0.39536680981E+02 -0.19840389103E+01  0.11071818164E+03  0.11758231712E+03  0.00000000000E+00 0. -1.
</event>
<event>
 6    1  0.6447971E-006  0.9273434E+02  0.7561462E-02  0.1296362E+00
         -4   -1    0    0    0  501 -0.00000000000E+00  0.00000000000E+00  0.16121215002E+03  0.16121215002E+03  0.00000000000E+00 0.  1.
          4   -1    0    0  501    0  0.00000000000E+00 -0.00000000000E+00 -0.14699618447E+03  0.14699618447E+03  0.00000000000E+00 0. -1.
          5    1    1    2  502    0 -0.51731330664E+02 -0.64294283514E+01  0.72930665296E+01  0.52802739896E+02  0.41800000000E+01 0.  1.
         -5    1    1    2    0  502  0.48099839676E+02 -0.14575325300E+02  0.10567245275E+03  0.11709045373E+03  0.41800000000E+01 0.  1.
        -11    1    1    2    0    0 -0.10729716432E+02  0.49596042452E+02 -0.92805635825E+02  0.10577230395E+03  0.00000000000E+00 0. -1.
         11    1    1    2    0    0  0.14361207420E+02 -0.28591288801E+02 -0.59439179093E+01  0.32542836908E+02  0.00000000000E+00 0.  1.
</event>
<event>
 6    1  0.6447971E-006  0.4731012E+02  0.7561462E-02  0.1460415E+00
          3   -1    0    0  501    0  0.00000000000E+00  0.00000000000E+00  0.29073520075E+03  0.29073520075E+03  0.00000000000E+00 0. -1.
         -3   -1    0    0    0  501 -0.00000000000E+00 -0.00000000000E+00 -0.34812706563E+02  0.34812706563E+02  0.00000000000E+00 0.  1.
          5    1    1    2  502    0  0.11510912065E+02 -0.10410363546E+02 -0.17971034723E+02  0.24110314281E+02  0.41800000000E+01 0. -1.
         -5    1    1    2    0  502 -0.28004005382E+01 -0.33922256630E+00  0.18478853918E+03  0.18485733398E+03  0.41800000000E+01 0. -1.
        -11    1    1    2    0    0  0.31994238898E+02  0.54704229569E+01  0.27435897279E+02  0.42500415404E+02  0.00000000000E+00 0.  1.
         11    1    1    2    0    0 -0.40704750425E+02  0.52791631551E+01  0.61669092455E+02  0.74079843649E+02  0.00000000000E+00 0. -1.
</event>
<event>
 6    1  0.6447971E-006  0.1420406E+03  0.7561462E-02  0.1210609E+00
          2   -1    0    0  501    0  0.00000000000E+00  0.00000000000E+00  0.11136271759E+04  0.11136271759E+04  0.00000000000E+00 0. -1.
         -2   -1    0    0    0  501 -0.00000000000E+00 -0.00000000000E+00 -0.32330626320E+02  0.32330626320E+02  0.00000000000E+00 0.  1.
          5    1    1    2  502    0 -0.75534917204E+02  0.47469285760E+01  0.39547733385E+03  0.40267586349E+03  0.41800000000E+01 0. -1.
         -5    1    1    2    0  502  0.76185956162E+02  0.59778078464E+02  0.75838803375E+02  0.12307199145E+03  0.41800000000E+01 0.  1.
        -11    1    1    2    0    0  0.42835503336E+02 -0.14859036091E+02  0.21226395051E+03  0.21705219645E+03  0.00000000000E+00 0.  1.
         11    1    1    2    0    0 -0.43486542294E+02 -0.49665970949E+02  0.39771646181E+03  0.40315775079E+03  0.00000000000E+00 0. -1.
</event>
<event>
 6    1  0.6447971E-006  0.7794392E+02  0.7561462E-02  0.1334990E+00
          1   -1    0    0  501    0  0.00000000000E+00  0.00000000000E+00  0.18994841926E+02  0.18994841926E+02  0.00000000000E+00 0. -1.
         -1   -1    0    0    0  501 -0.00000000000E+00 -0.00000000000E+00 -0.75629617894E+03  0.75629617894E+03  0.00000000000E+00 0.  1.
          5    1    1    2  502    0  0.66090327283E+01 -0.38364739704E+02 -0.29522248147E+02  0.49036395685E+02  0.41800000000E+01 0. -1.
         -5    1    1    2    0  502  0.55411849057E+01 -0.11193686628E+02 -0.42339403425E+03  0.42359884795E+03  0.41800000000E+01 0. -1.
        -11    1    1    2    0    0 -0.25758851984E+02  0.72471708764E+02 -0.21192856923E+03  0.22545373246E+03  0.00000000000E+00 0. -1.
         11    1    1    2    0    0  0.13608634350E+02 -0.22913282432E+02 -0.72456485394E+02  0.77202044768E+02  0.00000000000E+00 0.  1.
</event>
<event>
 6    1  0.6447971E-006  0.2050807E+03  0.7561462E-02  0.1145522E+00
         -1   -1    0    0    0  501 -0.00000000000E+00  0.00000000000E+00  0.17550807838E+03  0.17550807838E+03  0.00000000000E+00 0.  1.
          1   -1    0    0  501    0  0.00000000000E+00 -0.00000000000E+00 -0.25619533520E+03  0.25619533520E+03  0.00000000000E+00 0. -1.
          5    1    1    2  502    0  0.17281463457E+02 -0.93694277172E+01 -0.20117239435E+02  0.28436084074E+02  0.41800000000E+01 0.  1.
         -5    1    1    2    0  502 -0.26608465639E+02  0.18780639578E+03  0.91949865895E+01  0.18995071181E+03  0.41800000000E+01 0.  1.
        -11    1    1    2    0    0 -0.23958208114E+02 -0.16097549994E+03 -0.47110245086E+02  0.16942987490E+03  0.00000000000E+00 0.  1.
         11    1    1    2    0    0  0.33285210296E+02 -0.17461468126E+02 -0.22654758886E+02  0.43886742801E+02  0.00000000000E+00 0. -1.
</event>
<event>
 6    1  0.6447971E-006  0.1273065E+03  0.7561462E-02  0.1231508E+00
          1   -1    0    0  501    0  0.00000000000E+00  0.00000000000E+00  0.11159287173E+03  0.11159287173E+03  0.00000000000E+00 0. -1.
         -1   -1    0    0    0  501 -0.00000000000E+00 -0.00000000000E+00 -0.16687043301E+03  0.16687043301E+03  0.00000000000E+00 0.  1.
          5    1    1    2  502    0 -0.75999621144E+02  0.79116052460E+02 -0.62508386004E+02  0.12633314249E+03  0.41800000000E+01 0.  1.
         -5    1    1    2    0  502  0.17445625533E+02 -0.21666932839E+02  0.13335398119E+02  0.31130548853E+02  0.41800000000E+01 0.  1.
        -11    1    1    2    0    0 -0.27852880047E+01  0.18706015829E+02  0.10776594711E+02  0.21767127762E+02  0.00000000000E+00 0. -1.
         11    1    1    2    0    0  0.61339283616E+02 -0.76155135450E+02 -0.16881168104E+02  0.99232485640E+02  0.00000000000E+00 0.  1.
</event>
<event>
 6    1  0.6447971E-006  0.1215737E+03  0.7561462E-02  0.1240523E+00
          1   -1    0    0  501    0  0.00000000000E+00  0.00000000000E+00  0.28781742628E+02  0.28781742628E+02  0.00000000000E+00 0. -1.
         -1   -1    0    0    0  501 -0.00000000000E+00 -0.00000000000E+00 -0.84946396073E+03  0.84946396073E+03  0.00000000000E+00 0.  1.
          5    1    1    2  502    0 -0.50806614382E+02  0.43336243811E+02 -0.47624363384E+03  0.48092079729E+03  0.41800000000E+01 0. -1.
         -5    1    1    2    0  502 -0.40876640458E+02  0.16437185203E+02 -0.34277220609E+02  0.55977504814E+02  0.41800000000E+01 0. -1.
        -11    1    1    2    0    0  0.78381688614E+02 -0.83016029389E+01 -0.24433792565E+03  0.25673649454E+03  0.00000000000E+00 0.  1.
         11    1    1    2    0    0  0.13301566227E+02 -0.51471826075E+02 -0.65823438007E+02  0.84610906712E+02  0.00000000000E+00 0. -1.
</event>
<event>
 6    1  0.2203122E-005  0.1745477E+03  0.7561462E-02  0.1173187E+00
          3   -1    0    0  501    0  0.00000000000E+00  0.00000000000E+00  0.45639175009E+03  0.45639175009E+03  0.00000000000E+00 0. -1.
         -3   -1    0    0    0  501 -0.00000000000E+00 -0.00000000000E+00 -0.10973079846E+03  0.10973079846E+03  0.00000000000E+00 0.  1.
          5    1    1    2  502    0 -0.65230688818E+02  0.17880023145E+02 -0.34455177310E+02  0.76022165417E+02  0.41800000000E+01 0.  1.
         -5    1    1    2    0  502 -0.64288458637E+02  0.88119958072E+02  0.86583600421E+02  0.13932812059E+03  0.41800000000E+01 0.  1.
        -11    1    1    2    0    0  0.44411329425E+02 -0.62272750894E+02  0.59166412888E+02  0.96700186656E+02  0.00000000000E+00 0.  1.
         11    1    1    2    0    0  0.85107818030E+02 -0.43727230322E+02  0.23536611563E+03  0.25407207590E+03  0.00000000000E+00 0. -1.
</event>
<event>
 6    1  0.6447971E-006  0.8434120E+02  0.7561462E-02  0.1317164E+00
          2   -1    0    0  501    0  0.00000000000E+00  0.00000000000E+00  0.19407930424E+03  0.19407930424E+03  0.00000000000E+00 0. -1.
         -2   -1    0    0    0  501 -0.00000000000E+00 -0.00000000000E+00 -0.68907328513E+02  0.68907328513E+02  0.00000000000E+00 0.  1.
          5    1    1    2  502    0 -0.49542811778E+01  0.62869971481E+02 -0.55910798555E+01  0.63450065326E+02  0.41800000000E+01 0.  1.
         -5    1    1    2    0  502  0.28738300293E+02 -0.46168909074E+02  0.45504796814E+02  0.71032506656E+02  0.41800000000E+01 0.  1.
        -11    1    1    2    0    0 -0.68971855275E+01 -0.29151161613E+02 -0.95193201520E+01  0.31432130818E+02  0.00000000000E+00 0.  1.
         11    1    1    2    0    0 -0.16886833587E+02  0.12450099206E+02  0.94777578920E+02  0.97071929953E+02  0.00000000000E+00 0. -1.
</event>
<event>
 6    1  0.6447971E-006  0.1080803E+03  0.7561462E-02  0.1264167E+00
         -1   -1    0    0    0  501 -0.00000000000E+00  0.00000000000E+00  0.11851954032E+03  0.11851954032E+03  0.00000000000E+00 0.  1.
          1   -1    0    0  501    0  0.00000000000E+00 -0.00000000000E+00 -0.11296576824E+03  0.11296576824E+03  0.00000000000E+00 0. -1.
          5    1    1    2  502    0 -0.18502208118E+02 -0.65781239236E+02 -0.14352895152E+02  0.69949847318E+02  0.41800000000E+01 0. -1.
         -5    1    1    2    0  502 -0.99478029110E+01  0.55416302913E+02  0.21308685698E+02  0.60344493514E+02  0.41800000000E+01 0.  1.
        -11    1    1    2    0    0  0.17374541596E+01  0.46374027699E+02  0.21154968017E+02  0.51000998655E+02  0.00000000000E+00 0.  1.
         11    1    1    2    0    0  0.26712556869E+02 -0.36009091377E+02 -0.22556986483E+02  0.50189969072E+02  0.00000000000E+00 0. -1.
</event>
<event>
 6    1  0.6447971E-006  0.9494790E+02  0.7561462E-02  0.1291293E+00
         -2   -1    0    0    0  501 -0.00000000000E+00  0.00000000000E+00  0.36765809358E+02  0.36765809358E+02  0.00000000000E+00 0.  1.
          2   -1    0    0  501    0  0.00000000000E+00 -0.00000000000E+00 -0.33017968860E+03  0.33017968860E+03  0.00000000000E+00 0. -1.
          5    1    1    2  502    0 -0.50608806508E+02 -0.21259830650E+02 -0.18234353703E+02  0.57993066399E+02  0.41800000000E+01 0. -1.
         -5    1    1    2    0  502  0.33303420154E+02  0.25631387335E+02 -0.13054248795E+03  0.13720386062E+03  0.41800000000E+01 0. -1.
        -11    1    1    2    0    0 -0.23326425742E+02 -0.34768243105E+02 -0.64585463501E+02  0.76969051976E+02  0.00000000000E+00 0. -1.
         11    1    1    2    0    0  0.40631812096E+02  0.30396686419E+02 -0.80051574090E+02  0.94779518957E+02  0.00000000000E+00 0.  1.
</event>
<event>
 6    1  0.6447971E-006  0.1715140E+03  0.7561462E-02  0.1176278E+00
         -1   -1    0    0    0  501 -0.00000000000E+00  0.00000000000E+00  0.26586114256E+03  0.26586114256E+03  0.00000000000E+00 0.  1.
          1   -1    0    0  501    0  0.00000000000E+00 -0.00000000000E+00 -0.16039236952E+03  0.16039236952E+03  0.00000000000E+00 0. -1.
          5    1    1    2  502    0  0.53944595113E+02 -0.24802510979E+02  0.55371203508E+02  0.81293458966E+02  0.41800000000E+01 0. -1.
         -5    1    1    2    0  502 -0.94068625936E+02 -0.93253948849E+02  0.11710848111E+03  0.17685325586E+03  0.41800000000E+01 0.  1.
        -11    1    1    2    0    0  0.66667810339E+02  0.74481867474E+02 -0.60050907356E+02  0.11661156457E+03  0.00000000000E+00 0. -1.
         11    1    1    2    0    0 -0.26543779516E+02  0.43574592355E+02 -0.69600042144E+01  0.51495232678E+02  0.00000000000E+00 0.  1.
</event>
<event>
 6    1  0.6447971E-006  0.1855570E+03  0.7561462E-02  0.1162531E+00
          2   -1    0    0  501    0  0.00000000000E+00  0.00000000000E+00  0.35600370575E+03  0.35600370575E+03  0.00000000000E+00 0. -1.
         -2   -1    0    0    0  501 -0.00000000000E+00 -0.00000000000E+00 -0.13422526206E+03  0.13422526206E+03  0.00000000000E+00 0.  1.
          5    1    1    2  502    0 -0.39583239951E+02 -0.21965591036E+02  0.11875654975E+03  0.12716096328E+03  0.41800000000E+01 0. -1.
         -5    1    1    2    0  502  0.64050938388E+02 -0.13197946241E+03 -0.13423903379E+02  0.14737291063E+03  0.41800000000E+01 0.  1.
        -11    1    1    2    0    0  0.14091920246E+02  0.13535172108E+03  0.71883539751E+02  0.15390228687E+03  0.00000000000E+00 0.  1.
         11    1    1    2    0    0 -0.38559618682E+02  0.18593332360E+02  0.44562257568E+02  0.61792807031E+02  0.00000000000E+00 0. -1.
</event>
<event>
 6    1  0.6447971E-006  0.1447758E+03  0.7561462E-02  0.1207044E+00
          1   -1    0    0  501    0  0.00000000000E+00  0.00000000000E+00  0.66762511593E+02  0.66762511593E+02  0.00000000000E+00 0. -1.
         -1   -1    0    0    0  501 -0.00000000000E+00 -0.00000000000E+00 -0.48527365126E+03  0.48527365126E+03  0.00000000000E+00 0.  1.
          5    1    1    2  502    0  0.40313067134E+02 -0.37301305568E+02 -0.23390444148E+02  0.59842426892E+02  0.41800000000E+01 0.  1.
         -5    1    1    2    0  502  0.21132398920E+02 -0.74802204203E+02 -0.29766180950E+03  0.30767185973E+03  0.41800000000E+01 0.  1.
        -11    1    1    2    0    0 -0.66401581026E+02  0.27486920422E+02 -0.42235625801E+02  0.83357956093E+02  0.00000000000E+00 0. -1.
         11    1    1    2    0    0  0.49561149716E+01  0.84616589348E+02 -0.55223260225E+02  0.10116392014E+03  0.00000000000E+00 0.  1.
</event>
<event>
 6    1  0.6447971E-006  0.1388162E+03  0.7561462E-02  0.1214931E+00
         -2   -1    0    0    0  501 -0.00000000000E+00  0.00000000000E+00  0.82120653128E+03  0.82120653128E+03  0.00000000000E+00 0.  1.
          2   -1    0    0  501    0  0.00000000000E+00 -0.00000000000E+00 -0.25053920620E+02  0.25053920620E+02  0.00000000000E+00 0. -1.
          5    1    1    2  502    0  0.46579358662E+02  0.56675679880E+02  0.31476740645E+03  0.32323019956E+03  0.41800000000E+01 0. -1.
         -5    1    1    2    0  502 -0.69039292835E+02  0.31734153715E+02  0.18742694043E+03  0.20228645745E+03  0.41800000000E+01 0. -1.
        -11    1    1    2    0    0  0.56577866780E+02 -0.42047531414E+02  0.15156635810E+03  0.16715684495E+03  0.00000000000E+00 0.  1.
         11    1    1    2    0    0 -0.34117932607E+02 -0.46362302180E+02  0.14239190567E+03  0.15358694993E+03  0.00000000000E+00 0. -1.
</event>
<event>
 6    1  0.6447971E-006  0.1221254E+03  0.7561462E-02  0.1239631E+00
          1   -1    0    0  501    0  0.00000000000E+00  0.00000000000E+00  0.20282013536E+03  0.20282013536E+03  0.00000000000E+00 0. -1.
         -1   -1    0    0    0  501 -0.00000000000E+00 -0.00000000000E+00 -0.99241134256E+02  0.99241134256E+02  0.00000000000E+00 0.  1.
          5    1    1    2  502    0 -0.15655960419E+02 -0.49634646229E+02  0.52442352959E+02  0.74002567434E+02  0.41800000000E+01 0.  1.
         -5    1    1    2    0  502  0.75454509132E+02 -0.12876438424E+02 -0.24825609607E+02  0.80578960699E+02  0.41800000000E+01 0.  1.
        -11    1    1    2    0    0  0.10785627097E+02  0.39792564160E+02  0.58042574876E+02  0.71194932492E+02  0.00000000000E+00 0. -1.
         11    1    1    2    0    0 -0.70584175810E+02  0.22718520493E+02  0.17919682874E+02  0.76284808989E+02  0.00000000000E+00 0.  1.
</event>
<event>
 6    1  0.6447971E-006  0.3542366E+03  0.7561462E-02  0.1060889E+00
          1   -1    0    0  501    0  0.00000000000E+00  0.00000000000E+00  0.51796495704E+03  0.51796495704E+03  0.00000000000E+00 0. -1.
         -1   -1    0    0    0  501 -0.00000000000E+00 -0.00000000000E+00 -0.28773004961E+03  0.28773004961E+03  0.00000000000E+00 0.  1.
          5    1    1    2  502    0  0.24783379751E+02  0.23847763040E+02  0.38684793227E+02  0.51931852854E+02  0.41800000000E+01 0. -1.
         -5    1    1    2    0  502  0.21926112086E+03  0.22459563246E+03 -0.53297907836E+02  0.31839719945E+03  0.41800000000E+01 0. -1.
        -11    1    1    2    0    0 -0.66986646469E+02 -0.13194467921E+03  0.96496525402E+02  0.17665839519E+03  0.00000000000E+00 0. -1.
         11    1    1    2    0    0 -0.17705785414E+03 -0.11649871629E+03  0.14835149664E+03  0.25870755915E+03  0.00000000000E+00 0.  1.
</event>
<event>
 6    1  0.6447971E-006  0.8211356E+02  0.7561462E-02  0.1323158E+00
          1   -1    0    0  501    0  0.00000000000E+00  0.00000000000E+00  0.49603865342E+03  0.49603865342E+03  0.00000000000E+00 0. -1.
         -1   -1    0    0    0  501 -0.00000000000E+00 -0.00000000000E+00 -0.27642004715E+02  0.27642004715E+02  0.00000000000E+00 0.  1.
          5    1    1    2  502    0  0.19826446690E+02 -0.38633091444E+02  0.12644863873E+02  0.45419915514E+02  0.41800000000E+01 0.  1.
         -5    1    1    2    0  502 -0.24783471221E+02  0.14468788591E+02  0.20326660779E+03  0.20532499247E+03  0.41800000000E+01 0.  1.
        -11    1    1    2    0    0  0.53204153794E+01  0.57760002501E+02  0.90428327432E+02  0.10743280277E+03  0.00000000000E+00 0.  1.
         11    1    1    2    0    0 -0.36339084781E+00 -0.33595699648E+02  0.16205684961E+03  0.16550294739E+03  0.00000000000E+00 0. -1.
</event>
<event>
 6    1  0.6447971E-006  0.1112558E+03  0.7561462E-02  0.1258262E+00
          1   -1    0    0  501    0  0.00000000000E+00  0.00000000000E+00  0.79769807016E+03  0.79769807016E+03  0.00000000000E+00 0. -1.
         -1   -1    0    0    0  501 -0.00000000000E+00 -0.00000000000E+00 -0.27548490957E+02  0.27548490957E+02  0.00000000000E+00 0.  1.
          5    1    1    2  502    0  0.18516538114E+01  0.65526714891E+02  0.31744441639E+03  0.32416910538E+03  0.41800000000E+01 0.  1.
         -5    1    1    2    0  502 -0.42616120450E+01  0.28598292144E+02 -0.62929186272E+00  0.29221431502E+02  0.41800000000E+01 0.  1.
        -11    1    1    2    0    0  0.40969613842E+02 -0.23726889961E+02  0.12019532640E+03  0.12918355567E+03  0.00000000000E+00 0.  1.
         11    1    1    2    0    0 -0.38559655608E+02 -0.70398117074E+02  0.33313912827E+03  0.34267246857E+03  0.00000000000E+00 0. -1.
</event>
<event>
 6    1  0.6447971E-006  0.1906818E+03  0.7561462E-02  0.1157848E+00
          2   -1    0    0  501    0  0.00000000000E+00  0.00000000000E+00  0.45796137627E+02  0.45796137627E+02  0.00000000000E+00 0. -1.
         -2   -1    0    0    0  501 -0.00000000000E+00 -0.00000000000E+00 -0.96991235970E+03  0.96991235970E+03  0.00000000000E+00 0.  1.
          5    1    1    2  502    0  0.27485752888E+02  0.11717987875E+02 -0.11971275483E+03  0.12345604043E+03  0.41800000000E+01 0. -1.
         -5    1    1    2    0  502 -0.13134753706E+03  0.12013952163E+03 -0.52063209605E+03  0.55023715976E+03  0.41800000000E+01 0. -1.
        -11    1    1    2    0    0  0.33396217887E+01 -0.29455780430E+02 -0.12299120355E+03  0.12651336777E+03  0.00000000000E+00 0.  1.
         11    1    1    2    0    0  0.10052216238E+03 -0.10240172907E+03 -0.16078016765E+03  0.21550192936E+03  0.00000000000E+00 0. -1.
</event>
<event>
 6    1  0.6447971E-006  0.1269179E+03  0.7561462E-02  0.1232102E+00
          1   -1    0    0  501    0  0.00000000000E+00  0.00000000000E+00  0.84989052652E+02  0.84989052652E+02  0.00000000000E+00 0. -1.
         -1   -1    0    0    0  501 -0.00000000000E+00 -0.00000000000E+00 -0.25518284162E+03  0.25518284162E+03  0.00000000000E+00 0.  1.
          5    1    1    2  502    0 -0.19039666328E+02 -0.33315102200E+02 -0.66533707469E+02  0.76919513506E+02  0.41800000000E+01 0. -1.
         -5    1    1    2    0  502  0.10830203526E+03  0.13910066944E+02 -0.71777245798E+02  0.13073739411E+03  0.41800000000E+01 0. -1.
        -11    1    1    2    0    0 -0.31357125014E+02 -0.18829083151E+02 -0.48903763014E+02  0.61068663800E+02  0.00000000000E+00 0.  1.
         11    1    1    2    0    0 -0.57905243919E+02  0.38234118407E+02  0.17020927309E+02  0.71446322859E+02  0.00000000000E+00 0. -1.
</event>
<event>
 6    1  0.6447971E-006  0.5457471E+02  0.7561462E-02  0.1422121E+00
         -2   -1    0    0    0  501 -0.00000000000E+00  0.00000000000E+00  0.14403446362E+03  0.14403446362E+03  0.00000000000E+00 0.  1.
          2   -1    0    0  501    0  0.00000000000E+00 -0.00000000000E+00 -0.17188616125E+03  0.17188616125E+03  0.00000000000E+00 0. -1.
          5    1    1    2  502    0 -0.21294156963E+02  0.22027931479E+02 -0.27958043577E+02  0.41686874273E+02  0.41800000000E+01 0.  1.
         -5    1    1    2    0  502  0.65158692671E+01  0.23877811118E+02  0.11603243078E+03  0.11871648499E+03  0.41800000000E+01 0.  1.
        -11    1    1    2    0    0  0.18133815868E+02 -0.19970609152E+02 -0.12496853497E+03  0.12784676469E+03  0.00000000000E+00 0. -1.
         11    1    1    2    0    0 -0.33555281719E+01 -0.25935133445E+02  0.90424501451E+01  0.27670500913E+02  0.00000000000E+00 0.  1.
</event>
<event>
 6    1  0.6447971E-006  0.6944975E+02  0.7561462E-02  0.1361974E+00
          2   -1    0    0  501    0  0.00000000000E+00  0.00000000000E+00  0.38903484934E+03  0.38903484934E+03  0.00000000000E+00 0.  1.
         -2   -1    0    0    0  501 -0.00000000000E+00 -0.00000000000E+00 -0.38865521482E+02  0.38865521482E+02  0.00000000000E+00 0. -1.
          5    1    1    2  502    0  0.20297426051E+02  0.26259767797E+01 -0.25402956282E+02  0.32888658322E+02  0.41800000000E+01 0.  1.
         -5    1    1    2    0  502 -0.83509126422E+01  0.23199549597E+02  0.13071912462E+03  0.13308988987E+03  0.41800000000E+01 0.  1.
        -11    1    1    2    0    0  0.37423537517E+02 -0.22168071174E+02  0.11563325042E+03  0.12354348685E+03  0.00000000000E+00 0. -1.
         11    1    1    2    0    0 -0.49370050926E+02 -0.36574552023E+01  0.12921990910E+03  0.13837833579E+03  0.00000000000E+00 0.  1.
</event>
<event>
 6    1  0.6447971E-006  0.1054290E+03  0.7561462E-02  0.1269277E+00
         -1   -1    0    0    0  501 -0.00000000000E+00  0.00000000000E+00  0.36585525739E+02  0.36585525739E+02  0.00000000000E+00 0.  1.
          1   -1    0    0  501    0  0.00000000000E+00 -0.00000000000E+00 -0.53892133351E+03  0.53892133351E+03  0.00000000000E+00 0. -1.
          5    1    1    2  502    0  0.29014919568E+01  0.10993148900E+02  0.13990345442E+02  0.18505948879E+02  0.41800000000E+01 0.  1.
         -5    1    1    2    0  502 -0.14313515757E+02 -0.87281031066E+02 -0.19871500498E+03  0.21754994995E+03  0.41800000000E+01 0.  1.
        -11    1    1    2    0    0  0.41977889801E+02  0.20798743062E+02 -0.20459709742E+03  0.20989212281E+03  0.00000000000E+00 0.  1.
         11    1    1    2    0    0 -0.30565866000E+02  0.55489139105E+02 -0.11301405081E+03  0.12955883761E+03  0.00000000000E+00 0. -1.
</event>
<event>
 6    1  0.6447971E-006  0.9754454E+02  0.7561462E-02  0.1285546E+00
         -1   -1    0    0    0  501 -0.00000000000E+00  0.00000000000E+00  0.66722806139E+02  0.66722806139E+02  0.00000000000E+00 0.  1.
          1   -1    0    0  501    0  0.00000000000E+00 -0.00000000000E+00 -0.28199235067E+03  0.28199235067E+03  0.00000000000E+00 0. -1.
          5    1    1    2  502    0  0.55090202352E+02  0.18939498508E+02  0.29768508715E+02  0.65553577401E+02  0.41800000000E+01 0. -1.
         -5    1    1    2    0  502 -0.25868222385E+02  0.28926461923E+02 -0.55402605440E+02  0.67770393376E+02  0.41800000000E+01 0.  1.
        -11    1    1    2    0    0 -0.47559519214E+02 -0.59321309169E+02 -0.16981640613E+03  0.18606057449E+03  0.00000000000E+00 0.  1.
         11    1    1    2    0    0  0.18337539248E+02  0.11455348737E+02 -0.19819041676E+02  0.29330611540E+02  0.00000000000E+00 0. -1.
</event>
<event>
 6    1  0.6447971E-006  0.1535915E+03  0.7561462E-02  0.1196128E+00
          2   -1    0    0  501    0  0.00000000000E+00  0.00000000000E+00  0.15987770426E+03  0.15987770426E+03  0.00000000000E+00 0. -1.
         -2   -1    0    0    0  501 -0.00000000000E+00 -0.00000000000E+00 -0.23485257906E+03  0.23485257906E+03  0.00000000000E+00 0.  1.
          5    1    1    2  502    0 -0.38794648721E+02  0.38005154981E+01  0.27082788318E+02  0.47648908807E+02  0.41800000000E+01 0. -1.
         -5    1    1    2    0  502 -0.10356852523E+03  0.21195969007E+02 -0.13617311470E+03  0.17244215867E+03  0.41800000000E+01 0. -1.
        -11    1    1    2    0    0  0.94584998246E+02  0.19858564251E+02  0.47598270895E+02  0.10773244571E+03  0.00000000000E+00 0. -1.
         11    1    1    2    0    0  0.47778175702E+02 -0.44855048755E+02 -0.13482819317E+02  0.66906770128E+02  0.00000000000E+00 0.  1.
</event>
<event>
 6    1  0.6447971E-006  0.1378777E+03  0.7561462E-02  0.1216214E+00
         -1   -1    0    0    0  501 -0.00000000000E+00  0.00000000000E+00  0.13263302010E+03  0.13263302010E+03  0.00000000000E+00 0.  1.
          1   -1    0    0  501    0  0.00000000000E+00 -0.00000000000E+00 -0.34561823845E+03  0.34561823845E+03  0.00000000000E+00 0. -1.
          5    1    1    2  502    0  0.48613620322E+01  0.95256532322E+02 -0.60530950711E+02  0.11304383302E+03  0.41800000000E+01 0. -1.
         -5    1    1    2    0  502  0.60538605372E+02 -0.27325961435E+02  0.74417409431E+02  0.99835134773E+02  0.41800000000E+01 0.  1.
        -11    1    1    2    0    0 -0.29443165096E+02  0.73133904164E+01 -0.83311798571E+01  0.31460995027E+02  0.00000000000E+00 0.  1.
         11    1    1    2    0    0 -0.35956802308E+02 -0.75243961304E+02 -0.21854049722E+03  0.23391129573E+03  0.00000000000E+00 0. -1.
</event>
<event>
 6    1  0.6447971E-006  0.1358937E+03  0.7561462E-02  0.1218964E+00
         -2   -1    0    0    0  501 -0.00000000000E+00  0.00000000000E+00  0.46543439904E+02  0.46543439904E+02  0.00000000000E+00 0.  1.
          2   -1    0    0  501    0  0.00000000000E+00 -0.00000000000E+00 -0.46185980513E+03  0.46185980513E+03  0.00000000000E+00 0. -1.
          5    1    1    2  502    0 -0.45098851686E+02 -0.89136023409E+02 -0.12950851284E+03  0.16361254350E+03  0.41800000000E+01 0. -1.
         -5    1    1    2    0  502  0.56995718044E+02 -0.66968186759E+01 -0.59876302103E+02  0.83042177292E+02  0.41800000000E+01 0. -1.
        -11    1    1    2    0    0  0.16319014296E+02  0.80528415429E+02 -0.89099008658E+02  0.12120135834E+03  0.00000000000E+00 0.  1.
         11    1    1    2    0    0 -0.28215880653E+02  0.15304426655E+02 -0.13683254163E+03  0.14054716591E+03  0.00000000000E+00 0. -1.
</event>
<event>
 6    1  0.6447971E-006  0.1557046E+03  0.7561462E-02  0.1193633E+00
         -3   -1    0    0    0  501 -0.00000000000E+00  0.00000000000E+00  0.10695440896E+03  0.10695440896E+03  0.00000000000E+00 0.  1.
          3   -1    0    0  501    0  0.00000000000E+00 -0.00000000000E+00 -0.45737089957E+03  0.45737089957E+03  0.00000000000E+00 0. -1.
          5    1    1    2  502    0  0.10404767793E+03  0.35847716066E+02 -0.66946813590E+01  0.11033253912E+03  0.41800000000E+01 0. -1.
         -5    1    1    2    0  502 -0.83485180539E+02 -0.82165707038E+02 -0.26702640771E+02  0.12021431781E+03  0.41800000000E+01 0.  1.
        -11    1    1    2    0    0 -0.43698979717E+02  0.41846804856E+02 -0.29625673754E+03  0.30237197364E+03  0.00000000000E+00 0. -1.
         11    1    1    2    0    0  0.23136482329E+02  0.44711861167E+01 -0.20762430933E+02  0.31406477964E+02  0.00000000000E+00 0.  1.
</event>
<event>
 6    1  0.6447971E-006  0.1058675E+03  0.7561462E-02  0.1268420E+00
         -1   -1    0    0    0  501 -0.00000000000E+00  0.00000000000E+00  0.51150087550E+02  0.51150087550E+02  0.00000000000E+00 0.  1.
          1   -1    0    0  501    0  0.00000000000E+00 -0.00000000000E+00 -0.34657487202E+03  0.34657487202E+03  0.00000000000E+00 0. -1.
          5    1    1    2  502    0 -0.73916954674E+02  0.33211978132E+02 -0.89417342578E+02  0.12074636737E+03  0.41800000000E+01 0.  1.
         -5    1    1    2    0  502  0.85627721866E+01 -0.55319898153E+02 -0.21487209893E+02  0.60106445479E+02  0.41800000000E+01 0.  1.
        -11    1    1    2    0    0  0.26407240227E+02 -0.51691182976E+01 -0.16207194405E+03  0.16429052671E+03  0.00000000000E+00 0. -1.
         11    1    1    2    0    0  0.38946942260E+02  0.27277038319E+02 -0.22448287955E+02  0.52581620011E+02  0.00000000000E+00 0.  1.
</event>
<event>
 6    1  0.6447971E-006  0.1777777E+03  0.7561462E-02  0.1169971E+00
          1   -1    0    0  501    0  0.00000000000E+00  0.00000000000E+00  0.79306690626E+03  0.79306690626E+03  0.00000000000E+00 0. -1.
         -1   -1    0    0    0  501 -0.00000000000E+00 -0.00000000000E+00 -0.52489921374E+02  0.52489921374E+02  0.00000000000E+00 0.  1.
          5    1    1    2  502    0  0.99940127310E+02  0.23508522712E+02  0.22119246261E+03  0.24389394745E+03  0.41800000000E+01 0.  1.
         -5    1    1    2    0  502  0.32648743574E+02  0.61919075329E+02  0.25742147330E+02  0.74699684709E+02  0.41800000000E+01 0.  1.
        -11    1    1    2    0    0 -0.81418025026E+02 -0.10049311536E+03  0.38040862266E+03  0.40179407814E+03  0.00000000000E+00 0. -1.
         11    1    1    2    0    0 -0.51170845857E+02  0.15065517321E+02  0.11323375229E+03  0.12516911734E+03  0.00000000000E+00 0.  1.
</event>
<event>
 6    1  0.6447971E-006  0.9234103E+02  0.7561462E-02  0.1297280E+00
          1   -1    0    0  501    0  0.00000000000E+00  0.00000000000E+00  0.38514136561E+03  0.38514136561E+03  0.00000000000E+00 0. -1.
         -1   -1    0    0    0  501 -0.00000000000E+00 -0.00000000000E+00 -0.39626064290E+02  0.39626064290E+02  0.00000000000E+00 0.  1.
          5    1    1    2  502    0  0.31769765025E+02  0.13736939801E+02  0.10103049406E+03  0.10687681982E+03  0.41800000000E+01 0. -1.
         -5    1    1    2    0  502 -0.53922153481E+02 -0.10581974711E+02 -0.61404345745E+00  0.55112850354E+02  0.41800000000E+01 0. -1.
        -11    1    1    2    0    0  0.58369437839E+02 -0.18070350624E+00  0.14698917337E+03  0.15815448465E+03  0.00000000000E+00 0.  1.
         11    1    1    2    0    0 -0.36217049384E+02 -0.29742615842E+01  0.98109677341E+02  0.10462327507E+03  0.00000000000E+00 0. -1.
</event>
<event>
 6    1  0.6447971E-006  0.1413863E+03  0.7561462E-02  0.1211476E+00
         -2   -1    0    0    0  501 -0.00000000000E+00  0.00000000000E+00  0.34558120832E+02  0.34558120832E+02  0.00000000000E+00 0.  1.
          2   -1    0    0  501    0  0.00000000000E+00 -0.00000000000E+00 -0.68267247729E+03  0.68267247729E+03  0.00000000000E+00 0. -1.
          5    1    1    2  502    0  0.44322412449E+02  0.10255843686E+02 -0.11437409032E+03  0.12316072227E+03  0.41800000000E+01 0.  1.
         -5    1    1    2    0  502 -0.70099997342E+02  0.93797387590E+02 -0.20152796356E+03  0.23311574817E+03  0.41800000000E+01 0.  1.
        -11    1    1    2    0    0  0.36994110813E+02 -0.38440089472E+02 -0.58113407757E+02  0.78888357028E+02  0.00000000000E+00 0.  1.
         11    1    1    2    0    0 -0.11216525921E+02 -0.65613141804E+02 -0.27409889482E+03  0.28206577065E+03  0.00000000000E+00 0. -1.
</event>
<event>
 6    1  0.6447971E-006  0.1348705E+03  0.7561462E-02  0.1220403E+00
         -2   -1    0    0    0  501 -0.00000000000E+00  0.00000000000E+00  0.17088933914E+02  0.17088933914E+02  0.00000000000E+00 0.  1.
          2   -1    0    0  501    0  0.00000000000E+00 -0.00000000000E+00 -0.15088291930E+04  0.15088291930E+04  0.00000000000E+00 0. -1.
          5    1    1    2  502    0  0.60529472932E+02  0.92436647174E+02 -0.79664558514E+03  0.80428229593E+03  0.41800000000E+01 0. -1.
         -5    1    1    2    0  502  0.17569060807E+02 -0.42683700471E+01 -0.11296007027E+02  0.21724710706E+02  0.41800000000E+01 0. -1.
        -11    1    1    2    0    0 -0.92884193604E+02 -0.65914003799E+02 -0.62545564948E+03  0.63574121999E+03  0.00000000000E+00 0. -1.
         11    1    1    2    0    0  0.14785659866E+02 -0.22254273328E+02 -0.58343017415E+02  0.64169900266E+02  0.00000000000E+00 0.  1.
</event>
<event>
 6    1  0.6447971E-006  0.1147924E+03  0.7561462E-02  0.1251944E+00
         -1   -1    0    0    0  501 -0.00000000000E+00  0.00000000000E+00  0.52242274153E+03  0.52242274153E+03  0.00000000000E+00 0.  1.
          1   -1    0    0  501    0  0.00000000000E+00 -0.00000000000E+00 -0.37780065277E+02  0.37780065277E+02  0.00000000000E+00 0. -1.
          5    1    1    2  502    0 -0.32370061897E+02  0.16909827171E+00  0.19323520223E+02  0.37930467111E+02  0.41800000000E+01 0.  1.
         -5    1    1    2    0  502  0.40380234219E+02  0.79568756087E+02  0.32547370837E+03  0.33750904802E+03  0.41800000000E+01 0.  1.
        -11    1    1    2    0    0 -0.29510987749E+02 -0.51029336038E+01  0.68086101854E+01  0.30713116122E+02  0.00000000000E+00 0. -1.
         11    1    1    2    0    0  0.21500815427E+02 -0.74634920755E+02  0.13303683748E+03  0.15405017555E+03  0.00000000000E+00 0.  1.
</event>
<event>
 6    1  0.6447971E-006  0.1258239E+03  0.7561462E-02  0.1233787E+00
          2   -1    0    0  501    0  0.00000000000E+00  0.00000000000E+00  0.29055571756E+03  0.29055571756E+03  0.00000000000E+00 0. -1.
         -2   -1    0    0    0  501 -0.00000000000E+00 -0.00000000000E+00 -0.57867900283E+02  0.57867900283E+02  0.00000000000E+00 0.  1.
          5    1    1    2  502    0 -0.51474248828E+02 -0.13157335269E+02  0.33700524344E+02  0.63054829354E+02  0.41800000000E+01 0. -1.
         -5    1    1    2    0  502  0.40451718332E+02  0.78068684478E+02  0.61084009413E+02  0.10714378012E+03  0.41800000000E+01 0. -1.
        -11    1    1    2    0    0  0.36046420179E+02  0.47041897159E+01  0.28661215950E+02  0.46291890309E+02  0.00000000000E+00 0.  1.
         11    1    1    2    0    0 -0.25023889682E+02 -0.69615538925E+02  0.10924206757E+03  0.13193311806E+03  0.00000000000E+00 0. -1.
</event>
<event>
 6    1  0.6447971E-006  0.1580863E+03  0.7561462E-02  0.1190874E+00
          2   -1    0    0  501    0  0.00000000000E+00  0.00000000000E+00  0.10569775891E+04  0.10569775891E+04  0.00000000000E+00 0. -1.
         -2   -1    0    0    0  501 -0.00000000000E+00 -0.00000000000E+00 -0.41988215204E+02  0.41988215204E+02  0.00000000000E+00 0.  1.
          5    1    1    2  502    0  0.92593700434E+02  0.29150797168E+02  0.58000772331E+03  0.58808995386E+03  0.41800000000E+01 0. -1.
         -5    1    1    2    0  502 -0.59969741412E+02  0.61755683646E+02  0.41645241845E+02  0.95717986376E+02  0.41800000000E+01 0.  1.
        -11    1    1    2    0    0 -0.57160766160E+02 -0.24794399888E+02  0.18444429520E+03  0.19468388091E+03  0.00000000000E+00 0.  1.
         11    1    1    2    0    0  0.24536807138E+02 -0.66112080925E+02  0.20889211352E+03  0.22047398314E+03  0.00000000000E+00 0. -1.
</event>
<event>
 6    1  0.6447971E-006  0.9954703E+02  0.7561462E-02  0.1281251E+00
         -1   -1    0    0    0  501 -0.00000000000E+00  0.00000000000E+00  0.76407772097E+03  0.76407772097E+03  0.00000000000E+00 0.  1.
          1   -1    0    0  501    0  0.00000000000E+00 -0.00000000000E+00 -0.48911526114E+02  0.48911526114E+02  0.00000000000E+00 0. -1.
          5    1    1    2  502    0 -0.30177322918E+02  0.28077571346E+01  0.50849567968E+03  0.50941523629E+03  0.41800000000E+01 0. -1.
         -5    1    1    2    0  502  0.18488690403E+02 -0.65872648813E+02  0.16639661942E+03  0.17996206514E+03  0.41800000000E+01 0. -1.
        -11    1    1    2    0    0 -0.84056496437E+01  0.75734046507E+02  0.56485912469E+02  0.94852301257E+02  0.00000000000E+00 0.  1.
         11    1    1    2    0    0  0.20094282159E+02 -0.12669154828E+02 -0.16212016714E+02  0.28759644391E+02  0.00000000000E+00 0. -1.
</event>
<event>
 6    1  0.6447971E-006  0.1111343E+03  0.7561462E-02  0.1258484E+00
          1   -1    0    0  501    0  0.00000000000E+00  0.00000000000E+00  0.24066074195E+03  0.24066074195E+03  0.00000000000E+00 0. -1.
         -1   -1    0    0    0  501 -0.00000000000E+00 -0.00000000000E+00 -0.67243544625E+02  0.67243544625E+02  0.00000000000E+00 0.  1.
          5    1    1    2  502    0 -0.16783527925E+02  0.57146589659E+02  0.44911330103E+02  0.74712244585E+02  0.41800000000E+01 0.  1.
         -5    1    1    2    0  502  0.47613987284E+02 -0.37958093802E+02 -0.57040805744E+01  0.61301856459E+02  0.41800000000E+01 0.  1.
        -11    1    1    2    0    0 -0.24439683820E+01  0.37789453818E+02  0.79077118981E+02  0.87676716109E+02  0.00000000000E+00 0. -1.
         11    1    1    2    0    0 -0.28386490977E+02 -0.56977949675E+02  0.55132828817E+02  0.84213469425E+02  0.00000000000E+00 0.  1.
</event>
<event>
 6    1  0.6447971E-006  0.1151360E+03  0.7561462E-02  0.1251344E+00
          2   -1    0    0  501    0  0.00000000000E+00  0.00000000000E+00  0.27395951602E+03  0.27395951602E+03  0.00000000000E+00 0. -1.
         -2   -1    0    0    0  501 -0.00000000000E+00 -0.00000000000E+00 -0.69304219658E+02  0.69304219658E+02  0.00000000000E+00 0.  1.
          5    1    1    2  502    0  0.27352610395E+02  0.44025273300E+00  0.53778799390E+02  0.60481325893E+02  0.41800000000E+01 0.  1.
         -5    1    1    2    0  502 -0.95832754135E+02 -0.42017997900E+02  0.25017529727E+02  0.10766976412E+03  0.41800000000E+01 0.  1.
        -11    1    1    2    0    0  0.42087386568E+02 -0.69282942426E+01  0.10950731237E+03  0.11752106548E+03  0.00000000000E+00 0. -1.
         11    1    1    2    0    0  0.26392757173E+02  0.48506039410E+02  0.16351654870E+02  0.57591580178E+02  0.00000000000E+00 0.  1.
</event>
<event>
 6    1  0.6447971E-006  0.1961236E+03  0.7561462E-02  0.1153051E+00
          1   -1    0    0  501    0  0.00000000000E+00  0.00000000000E+00  0.34446575927E+03  0.34446575927E+03  0.00000000000E+00 0. -1.
         -1   -1    0    0    0  501 -0.00000000000E+00 -0.00000000000E+00 -0.12473982881E+03  0.12473982881E+03  0.00000000000E+00 0.  1.
          5    1    1    2  502    0  0.40656293907E+02 -0.57139748902E+02  0.75378810758E+02  0.10304039329E+03  0.41800000000E+01 0. -1.
         -5    1    1    2    0  502 -0.10262099793E+03 -0.10005721584E+03  0.50069572409E+02  0.15187807656E+03  0.41800000000E+01 0.  1.
        -11    1    1    2    0    0  0.72677618463E+02  0.12404840145E+03  0.10478045082E+03  0.17790161607E+03  0.00000000000E+00 0. -1.
         11    1    1    2    0    0 -0.10712914441E+02  0.33148563293E+02 -0.10502903525E+02  0.36385502149E+02  0.00000000000E+00 0.  1.
</event>
<event>
 6    1  0.6447971E-006  0.1422345E+03  0.7561462E-02  0.1210354E+00
         -2   -1    0    0    0  501 -0.00000000000E+00  0.00000000000E+00  0.33938429641E+02  0.33938429641E+02  0.00000000000E+00 0.  1.
          2   -1    0    0  501    0  0.00000000000E+00 -0.00000000000E+00 -0.77888915073E+03  0.77888915073E+03  0.00000000000E+00 0. -1.
          5    1    1    2  502    0 -0.11330791137E+03 -0.30567666248E+02 -0.29641591227E+03  0.31883056699E+03  0.41800000000E+01 0. -1.
         -5    1    1    2    0  502  0.10786704375E+02 -0.18185536309E+02  0.88997907507E+00  0.21571536452E+02  0.41800000000E+01 0. -1.
        -11    1    1    2    0    0  0.55129446640E+02 -0.22800036404E+02 -0.19420320610E+03  0.20315999312E+03  0.00000000000E+00 0.  1.
         11    1    1    2    0    0  0.47391760357E+02  0.71553238961E+02 -0.25522158180E+03  0.26926548381E+03  0.00000000000E+00 0. -1.
</event>
<event>
 6    1  0.6447971E-006  0.7625301E+02  0.7561462E-02  0.1340034E+00
          1   -1    0    0  501    0  0.00000000000E+00  0.00000000000E+00  0.93530015380E+02  0.93530015380E+02  0.00000000000E+00 0. -1.
         -1   -1    0    0    0  501 -0.00000000000E+00 -0.00000000000E+00 -0.13034763766E+03  0.13034763766E+03  0.00000000000E+00 0.  1.
          5    1    1    2  502    0  0.11301859478E+02 -0.30333479043E+02 -0.58201437715E+02  0.66728792366E+02  0.41800000000E+01 0.  1.
         -5    1    1    2    0  502 -0.25031487367E+02  0.47733118342E+02  0.32230856373E+02  0.62939069337E+02  0.41800000000E+01 0.  1.
        -11    1    1    2    0    0 -0.74871163892E-01 -0.39634716723E+02 -0.39115574485E+02  0.55686125226E+02  0.00000000000E+00 0.  1.
         11    1    1    2    0    0  0.13804499054E+02  0.22235077424E+02  0.28268533545E+02  0.38523666115E+02  0.00000000000E+00 0. -1.
</event>
<event>
 6    1  0.6447971E-006  0.1484354E+03  0.7561462E-02  0.1202409E+00
         -1   -1    0    0    0  501 -0.00000000000E+00  0.00000000000E+00  0.11707209378E+03  0.11707209378E+03  0.00000000000E+00 0.  1.
          1   -1    0    0  501    0  0.00000000000E+00 -0.00000000000E+00 -0.19125560255E+03  0.19125560255E+03  0.00000000000E+00 0. -1.
          5    1    1    2  502    0  0.70178705285E+02 -0.89818158602E+02 -0.18748679628E+02  0.11559125260E+03  0.41800000000E+01 0.  1.
         -5    1    1    2    0  502  0.20134583036E+02  0.42584876793E+02 -0.83379378661E+01  0.48019441619E+02  0.41800000000E+01 0.  1.
        -11    1    1    2    0    0 -0.13208951529E+02 -0.26010913344E+02 -0.21198355962E+01  0.29249576346E+02  0.00000000000E+00 0.  1.
         11    1    1    2    0    0 -0.77104336792E+02  0.73244195153E+02 -0.44977055684E+02  0.11546742577E+03  0.00000000000E+00 0. -1.
</event>
<event>
 6    1  0.6447971E-006  0.9766922E+02  0.7561462E-02  0.1285275E+00
         -4   -1    0    0    0  501 -0.00000000000E+00  0.00000000000E+00  0.61504173559E+02  0.61504173559E+02  0.00000000000E+00 0.  1.
          4   -1    0    0  501    0  0.00000000000E+00 -0.00000000000E+00 -0.21241708488E+03  0.21241708488E+03  0.00000000000E+00 0. -1.
          5    1    1    2  502    0  0.91041846043E+01  0.55395493913E+02 -0.40498126639E+02  0.69347801583E+02  0.41800000000E+01 0. -1.
         -5    1    1    2    0  502  0.15411914707E+02 -0.68034542859E+02 -0.22625112173E+02  0.73454708752E+02  0.41800000000E+01 0. -1.
        -11    1    1    2    0    0  0.33257085708E+01  0.33941718250E+02  0.25659941905E+01  0.34200656447E+02  0.00000000000E+00 0.  1.
         11    1    1    2    0    0 -0.27841807882E+02 -0.21302669304E+02 -0.90355666700E+02  0.96918091657E+02  0.00000000000E+00 0. -1.
</event>
<event>
 6    1  0.6447971E-006  0.1083782E+03  0.7561462E-02  0.1263603E+00
         -2   -1    0    0    0  501 -0.00000000000E+00  0.00000000000E+00  0.10604186611E+03  0.10604186611E+03  0.00000000000E+00 0.  1.
          2   -1    0    0  501    0  0.00000000000E+00 -0.00000000000E+00 -0.12850132439E+03  0.12850132439E+03  0.00000000000E+00 0. -1.
          5    1    1    2  502    0 -0.58066434475E+02 -0.50183585631E+01  0.11824945798E+02  0.59617082102E+02  0.41800000000E+01 0.  1.
         -5    1    1    2    0  502  0.66857027416E+02  0.65739434025E+00  0.18388715882E+02  0.69468781147E+02  0.41800000000E+01 0.  1.
        -11    1    1    2    0    0 -0.44861439339E+02 -0.18610597253E+02 -0.29306672875E+02  0.56725515817E+02  0.00000000000E+00 0.  1.
         11    1    1    2    0    0  0.36070846397E+02  0.22971561476E+02 -0.23366447085E+02  0.48731811436E+02  0.00000000000E+00 0. -1.
</event>
<event>
 6    1  0.6447971E-006  0.1121759E+03  0.7561462E-02  0.1256593E+00
          2   -1    0    0  501    0  0.00000000000E+00  0.00000000000E+00  0.11187261676E+04  0.11187261676E+04  0.00000000000E+00 0.  1.
         -2   -1    0    0    0  501 -0.00000000000E+00 -0.00000000000E+00 -0.11483874686E+02  0.11483874686E+02  0.00000000000E+00 0. -1.
          5    1    1    2  502    0 -0.61083260167E+02 -0.25306388893E+02  0.36815019522E+03  0.37406365318E+03  0.41800000000E+01 0.  1.
         -5    1    1    2    0  502  0.38013152215E+02  0.47810551463E+02  0.24328870140E+03  0.25087389901E+03  0.41800000000E+01 0.  1.
        -11    1    1    2    0    0 -0.21350506799E+02 -0.42960833628E+02  0.27068102311E+03  0.27489942459E+03  0.00000000000E+00 0.  1.
         11    1    1    2    0    0  0.44420614751E+02  0.20456671058E+02  0.22512237314E+03  0.23037306547E+03  0.00000000000E+00 0. -1.
</event>
<event>
 6    1  0.6447971E-006  0.1370661E+03  0.7561462E-02  0.1217332E+00
         -1   -1    0    0    0  501 -0.00000000000E+00  0.00000000000E+00  0.45128671737E+02  0.45128671737E+02  0.00000000000E+00 0. -1.
          1   -1    0    0  501    0  0.00000000000E+00 -0.00000000000E+00 -0.51412504291E+03  0.51412504291E+03  0.00000000000E+00 0.  1.
          5    1    1    2  502    0  0.32663449756E+02 -0.27761229619E+01 -0.49968410495E+02  0.59907614341E+02  0.41800000000E+01 0.  1.
         -5    1    1    2    0  502 -0.10217953376E+03  0.60358171005E+02 -0.10027896798E+03  0.15542557622E+03  0.41800000000E+01 0.  1.
        -11    1    1    2    0    0 -0.19190843228E+02 -0.89749386330E+01 -0.10919136501E+03  0.11122765924E+03  0.00000000000E+00 0.  1.
         11    1    1    2    0    0  0.88706927231E+02 -0.48607109410E+02 -0.20955762769E+03  0.23269286484E+03  0.00000000000E+00 0. -1.
</event>
<event>
 6    1  0.6447971E-006  0.1541364E+03  0.7561462E-02  0.1195480E+00
         -2   -1    0    0    0  501 -0.00000000000E+00  0.00000000000E+00  0.50505920305E+02  0.50505920305E+02  0.00000000000E+00 0.  1.
          2   -1    0    0  501    0  0.00000000000E+00 -0.00000000000E+00 -0.24753905112E+04  0.24753905112E+04  0.00000000000E+00 0. -1.
          5    1    1    2  502    0 -0.39887457238E+02 -0.11579460751E+03 -0.19893030808E+04  0.19930739123E+04  0.41800000000E+01 0. -1.
         -5    1    1    2    0  502  0.51594439392E+02  0.31259459891E+02  0.17292106212E+02  0.62893794178E+02  0.41800000000E+01 0.  1.
        -11    1    1    2    0    0  0.55563831018E+01  0.10114827936E+03 -0.37609544021E+03  0.38949920148E+03  0.00000000000E+00 0. -1.
         11    1    1    2    0    0 -0.17263365256E+02 -0.16613131744E+02 -0.76778176184E+02  0.80429523587E+02  0.00000000000E+00 0.  1.
</event>
<event>
 6    1  0.6447971E-006  0.1503981E+03  0.7561462E-02  0.1199985E+00
         -2   -1    0    0    0  501 -0.00000000000E+00  0.00000000000E+00  0.25565061182E+02  0.25565061182E+02  0.00000000000E+00 0.  1.
          2   -1    0    0  501    0  0.00000000000E+00 -0.00000000000E+00 -0.10355085000E+04  0.10355085000E+04  0.00000000000E+00 0. -1.
          5    1    1    2  502    0 -0.87125018560E+01  0.63843061187E+02 -0.10731099836E+03  0.12523963797E+03  0.41800000000E+01 0. -1.
         -5    1    1    2    0  502 -0.94324490355E+02 -0.26261063675E+02 -0.26552348269E+03  0.28303170353E+03  0.41800000000E+01 0. -1.
        -11    1    1    2    0    0  0.53772505093E+02 -0.62968518201E+02 -0.45402143256E+03  0.46151053922E+03  0.00000000000E+00 0. -1.
         11    1    1    2    0    0  0.49264487118E+02  0.25386520689E+02 -0.18308752519E+03  0.19129168044E+03  0.00000000000E+00 0.  1.
</event>
<event>
 6    1  0.6447971E-006  0.1437372E+03  0.7561462E-02  0.1208387E+00
          1   -1    0    0  501    0  0.00000000000E+00  0.00000000000E+00  0.11003908541E+03  0.11003908541E+03  0.00000000000E+00 0.  1.
         -1   -1    0    0    0  501 -0.00000000000E+00 -0.00000000000E+00 -0.20980480221E+03  0.20980480221E+03  0.00000000000E+00 0. -1.
          5    1    1    2  502    0 -0.10794888034E+03 -0.66763492956E+02 -0.63085398046E+02  0.14180114458E+03  0.41800000000E+01 0. -1.
         -5    1    1    2    0  502  0.10697660311E+02  0.28081581917E+02  0.61395376469E+01  0.30954506967E+02  0.41800000000E+01 0. -1.
        -11    1    1    2    0    0  0.64964429978E+02 -0.15755499372E+02 -0.49876259984E+02  0.83404161963E+02  0.00000000000E+00 0.  1.
         11    1    1    2    0    0  0.32286790048E+02  0.54437410411E+02  0.70564035750E+01  0.63684074110E+02  0.00000000000E+00 0. -1.
</event>
<event>
 6    1  0.6447971E-006  0.1643447E+03  0.7561462E-02  0.1183877E+00
         -1   -1    0    0    0  501 -0.00000000000E+00  0.00000000000E+00  0.57858094086E+03  0.57858094086E+03  0.00000000000E+00 0.  1.
          1   -1    0    0  501    0  0.00000000000E+00 -0.00000000000E+00 -0.28520146448E+03  0.28520146448E+03  0.00000000000E+00 0. -1.
          5    1    1    2  502    0  0.95008058252E+02  0.21990249334E+02 -0.84519030688E+02  0.12911638605E+03  0.41800000000E+01 0. -1.
         -5    1    1    2    0  502 -0.12547607643E+03  0.33918967263E+02  0.53080063851E+03  0.54649934340E+03  0.41800000000E+01 0.  1.
        -11    1    1    2    0    0 -0.25569437472E+02 -0.29637179781E+02 -0.97644239443E+02  0.10519769985E+03  0.00000000000E+00 0.  1.
         11    1    1    2    0    0  0.56037455653E+02 -0.26272036815E+02 -0.55257892002E+02  0.82968976027E+02  0.00000000000E+00 0. -1.
</event>
<event>
 6    1  0.6447971E-006  0.1087250E+03  0.7561462E-02  0.1262949E+00
         -2   -1    0    0    0  501 -0.00000000000E+00  0.00000000000E+00  0.22290064224E+02  0.22290064224E+02  0.00000000000E+00 0.  1.
          2   -1    0    0  501    0  0.00000000000E+00 -0.00000000000E+00 -0.76718139492E+03  0.76718139492E+03  0.00000000000E+00 0. -1.
          5    1    1    2  502    0  0.30469376092E+02 -0.49560808627E+01 -0.31843188468E+02  0.44546679660E+02  0.41800000000E+01 0.  1.
         -5    1    1    2    0  502 -0.78220939769E+02 -0.60370089447E+02 -0.40888657464E+03  0.42067655799E+03  0.41800000000E+01 0.  1.
        -11    1    1    2    0    0  0.20312835034E+01  0.28829876608E+02 -0.22641514905E+02  0.36714113024E+02  0.00000000000E+00 0.  1.
         11    1    1    2    0    0  0.45720280174E+02  0.36496293702E+02 -0.28152005268E+03  0.28753410847E+03  0.00000000000E+00 0. -1.
</event>
<event>
 6    1  0.6447971E-006  0.9684950E+02  0.7561462E-02  0.1287064E+00
         -2   -1    0    0    0  501 -0.00000000000E+00  0.00000000000E+00  0.36820298465E+02  0.36820298465E+02  0.00000000000E+00 0.  1.
          2   -1    0    0  501    0  0.00000000000E+00 -0.00000000000E+00 -0.33216072792E+03  0.33216072792E+03  0.00000000000E+00 0. -1.
          5    1    1    2  502    0 -0.48187127439E+02  0.29114199914E+02 -0.12398224778E+03  0.13623034189E+03  0.41800000000E+01 0.  1.
         -5    1    1    2    0  502  0.39482220446E+02 -0.29533778857E+02 -0.16693469815E+02  0.52222927526E+02  0.41800000000E+01 0.  1.
        -11    1    1    2    0    0  0.46537877581E+01  0.43873297721E+02 -0.10785239414E+03  0.11652751999E+03  0.00000000000E+00 0.  1.
         11    1    1    2    0    0  0.40511192344E+01 -0.43453718778E+02 -0.46812317721E+02  0.64000236977E+02  0.00000000000E+00 0. -1.
</event>
<event>
 6    1  0.6447971E-006  0.8125389E+02  0.7561462E-02  0.1325530E+00
         -1   -1    0    0    0  501 -0.00000000000E+00  0.00000000000E+00  0.18535053860E+03  0.18535053860E+03  0.00000000000E+00 0.  1.
          1   -1    0    0  501    0  0.00000000000E+00 -0.00000000000E+00 -0.97386129887E+02  0.97386129887E+02  0.00000000000E+00 0. -1.
          5    1    1    2  502    0  0.40199229181E+02 -0.14310623394E+02  0.11634830283E+03  0.12399666101E+03  0.41800000000E+01 0. -1.
         -5    1    1    2    0  502  0.11045210187E+02  0.39582283876E+02 -0.18014299845E+02  0.45063746668E+02  0.41800000000E+01 0. -1.
        -11    1    1    2    0    0 -0.17179193508E+02  0.16911203861E+02 -0.43787714215E+02  0.49984771899E+02  0.00000000000E+00 0. -1.
         11    1    1    2    0    0 -0.34065245860E+02 -0.42182864343E+02  0.33418119941E+02  0.63691488914E+02  0.00000000000E+00 0.  1.
</event>
<event>
 6    1  0.6447971E-006  0.1033005E+03  0.7561462E-02  0.1273505E+00
         -1   -1    0    0    0  501 -0.00000000000E+00  0.00000000000E+00  0.54409870230E+03  0.54409870230E+03  0.00000000000E+00 0.  1.
          1   -1    0    0  501    0  0.00000000000E+00 -0.00000000000E+00 -0.34545583436E+02  0.34545583436E+02  0.00000000000E+00 0. -1.
          5    1    1    2  502    0  0.88339961807E+02  0.40137239878E+02  0.14664539796E+03  0.17588999977E+03  0.41800000000E+01 0. -1.
         -5    1    1    2    0  502 -0.28331517119E+02  0.10958956408E+02  0.18086218184E+03  0.18344311054E+03  0.41800000000E+01 0. -1.
        -11    1    1    2    0    0 -0.31930750542E+02 -0.26840262857E+02  0.17702017398E+03  0.18186839895E+03  0.00000000000E+00 0.  1.
         11    1    1    2    0    0 -0.28077694147E+02 -0.24255933429E+02  0.50253650822E+01  0.37442776464E+02  0.00000000000E+00 0. -1.
</event>
<event>
 6    1  0.6447971E-006  0.2303007E+03  0.7561462E-02  0.1126428E+00
         -3   -1    0    0    0  501 -0.00000000000E+00  0.00000000000E+00  0.17953684759E+03  0.17953684759E+03  0.00000000000E+00 0.  1.
          3   -1    0    0  501    0  0.00000000000E+00 -0.00000000000E+00 -0.32211327362E+03  0.32211327362E+03  0.00000000000E+00 0. -1.
          5    1    1    2  502    0  0.17478831770E+03 -0.15232976267E+02 -0.24940022603E+02  0.17726386179E+03  0.41800000000E+01 0.  1.
         -5    1    1    2    0  502  0.36877889522E+02  0.42418344455E+02 -0.64780964154E+02  0.85868157070E+02  0.41800000000E+01 0.  1.
        -11    1    1    2    0    0 -0.91870087362E+02  0.29112703729E+02 -0.43755068772E+02  0.10584029721E+03  0.00000000000E+00 0.  1.
         11    1    1    2    0    0 -0.11979611986E+03 -0.56298071917E+02 -0.91003705078E+01  0.13267780514E+03  0.00000000000E+00 0. -1.
</event>
<event>
 6    1  0.6447971E-006  0.1352664E+03  0.7561462E-02  0.1219844E+00
          2   -1    0    0  501    0  0.00000000000E+00  0.00000000000E+00  0.46011495958E+03  0.46011495958E+03  0.00000000000E+00 0. -1.
         -2   -1    0    0    0  501 -0.00000000000E+00 -0.00000000000E+00 -0.64182383532E+02  0.64182383532E+02  0.00000000000E+00 0.  1.
          5    1    1    2  502    0 -0.19694678224E+02 -0.15269839048E+02 -0.23146979254E+02  0.34268110299E+02  0.41800000000E+01 0.  1.
         -5    1    1    2    0  502 -0.99659556974E+02  0.13533895646E+02  0.14806029027E+03  0.17903774904E+03  0.41800000000E+01 0.  1.
        -11    1    1    2    0    0  0.44182712947E+02  0.40578032164E+02  0.65951744386E+02  0.89153358911E+02  0.00000000000E+00 0.  1.
         11    1    1    2    0    0  0.75171522251E+02 -0.38842088761E+02  0.20506752064E+03  0.22183812485E+03  0.00000000000E+00 0. -1.
</event>
<event>
 6    1  0.6447971E-006  0.1971465E+03  0.7561462E-02  0.1152169E+00
          1   -1    0    0  501    0  0.00000000000E+00  0.00000000000E+00  0.54485657457E+03  0.54485657457E+03  0.00000000000E+00 0. -1.
         -1   -1    0    0    0  501 -0.00000000000E+00 -0.00000000000E+00 -0.10366702920E+03  0.10366702920E+03  0.00000000000E+00 0.  1.
          5    1    1    2  502    0  0.49219549496E+02 -0.10666029482E+03  0.69700711034E+02  0.13665520138E+03  0.41800000000E+01 0. -1.
         -5    1    1    2    0  502  0.91975804868E+02 -0.10137743148E+01  0.20835203118E+01  0.92099890751E+02  0.41800000000E+01 0. -1.
        -11    1    1    2    0    0 -0.96533628868E+02  0.42053287805E+02  0.12854564842E+03  0.16616619465E+03  0.00000000000E+00 0.  1.
         11    1    1    2    0    0 -0.44661725496E+02  0.65620781333E+02  0.24085966561E+03  0.25360231699E+03  0.00000000000E+00 0. -1.
</event>
<event>
 6    1  0.6447971E-006  0.1154150E+03  0.7561462E-02  0.1250858E+00
         -3   -1    0    0    0  501 -0.00000000000E+00  0.00000000000E+00  0.10556589300E+03  0.10556589300E+03  0.00000000000E+00 0.  1.
          3   -1    0    0  501    0  0.00000000000E+00 -0.00000000000E+00 -0.19771255104E+03  0.19771255104E+03  0.00000000000E+00 0. -1.
          5    1    1    2  502    0 -0.15129830771E+02  0.12735059150E+02 -0.35921415261E+02  0.41217884287E+02  0.41800000000E+01 0. -1.
         -5    1    1    2    0  502  0.83516787988E+02 -0.41846101418E+02  0.47140365531E+02  0.10471789027E+03  0.41800000000E+01 0. -1.
        -11    1    1    2    0    0  0.22198287814E+02  0.83560155144E+00 -0.10510723349E+02  0.24575140226E+02  0.00000000000E+00 0.  1.
         11    1    1    2    0    0 -0.90585245031E+02  0.28275440717E+02 -0.92854884965E+02  0.13276752926E+03  0.00000000000E+00 0. -1.
</event>
<event>
 6    1  0.6447971E-006  0.1097114E+03  0.7561462E-02  0.1261105E+00
          1   -1    0    0  501    0  0.00000000000E+00  0.00000000000E+00  0.80242075094E+03  0.80242075094E+03  0.00000000000E+00 0. -1.
         -1   -1    0    0    0  501 -0.00000000000E+00 -0.00000000000E+00 -0.16471983774E+02  0.16471983774E+02  0.00000000000E+00 0.  1.
          5    1    1    2  502    0  0.31768977973E+02  0.62116733042E+02  0.16360054247E+03  0.17790549845E+03  0.41800000000E+01 0.  1.
         -5    1    1    2    0  502 -0.23273317490E+02 -0.49902547238E+02  0.16625317504E+03  0.17518419489E+03  0.41800000000E+01 0.  1.
        -11    1    1    2    0    0 -0.14211817272E+01 -0.52946226733E+02  0.23770473382E+03  0.24353411088E+03  0.00000000000E+00 0. -1.
         11    1    1    2    0    0 -0.70744787557E+01  0.40732040929E+02  0.21839031584E+03  0.22226893049E+03  0.00000000000E+00 0.  1.
</event>
<event>
 6    1  0.6447971E-006  0.1124517E+03  0.7561462E-02  0.1256096E+00
          2   -1    0    0  501    0  0.00000000000E+00  0.00000000000E+00  0.62475371632E+03  0.62475371632E+03  0.00000000000E+00 0. -1.
         -2   -1    0    0    0  501 -0.00000000000E+00 -0.00000000000E+00 -0.24119752733E+02  0.24119752733E+02  0.00000000000E+00 0.  1.
          5    1    1    2  502    0 -0.64756861577E+02  0.10659247058E+02  0.91216076371E+02  0.11244961386E+03  0.41800000000E+01 0.  1.
         -5    1    1    2    0  502  0.25036018136E+02 -0.51491907677E+02  0.22768155187E+03  0.23480753868E+03  0.41800000000E+01 0.  1.
        -11    1    1    2    0    0  0.58453247431E+01 -0.26084296536E+02  0.12542572938E+03  0.12824262918E+03  0.00000000000E+00 0. -1.
         11    1    1    2    0    0  0.33875518698E+02  0.66916957155E+02  0.15631060596E+03  0.17337368732E+03  0.00000000000E+00 0.  1.
</event>
<event>
 6    1  0.6447971E-006  0.1043875E+03  0.7561462E-02  0.1271331E+00
         -1   -1    0    0    0  501 -0.00000000000E+00  0.00000000000E+00  0.70291965602E+02  0.70291965602E+02  0.00000000000E+00 0.  1.
          1   -1    0    0  501    0  0.00000000000E+00 -0.00000000000E+00 -0.20523698211E+03  0.20523698211E+03  0.00000000000E+00 0. -1.
          5    1    1    2  502    0  0.70492445360E+02 -0.40830773434E+02 -0.29484752880E+02  0.86736151428E+02  0.41800000000E+01 0. -1.
         -5    1    1    2    0  502 -0.18696197114E+02  0.42181665037E+02 -0.59004567700E+02  0.75019011333E+02  0.41800000000E+01 0. -1.
        -11    1    1    2    0    0 -0.11651476068E+02  0.28538902675E+02  0.15192793712E+02  0.34366362060E+02  0.00000000000E+00 0.  1.
         11    1    1    2    0    0 -0.40144772178E+02 -0.29889794278E+02 -0.61648489637E+02  0.79407422888E+02  0.00000000000E+00 0. -1.
</event>
<event>
 6    1  0.6447971E-006  0.6433128E+02  0.7561462E-02  0.1380505E+00
         -2   -1    0    0    0  501 -0.00000000000E+00  0.00000000000E+00  0.38108388111E+02  0.38108388111E+02  0.00000000000E+00 0. -1.
          2   -1    0    0  501    0  0.00000000000E+00 -0.00000000000E+00 -0.37447187504E+03  0.37447187504E+03  0.00000000000E+00 0.  1.
          5    1    1    2  502    0 -0.14986196382E+02  0.97160534073E+01  0.21827352176E+02  0.28511286868E+02  0.41800000000E+01 0. -1.
         -5    1    1    2    0  502  0.40578237205E+02  0.28285658339E+00 -0.13974058537E+03  0.14557327001E+03  0.41800000000E+01 0. -1.
        -11    1    1    2    0    0 -0.46909870722E+02 -0.26793404040E+01 -0.20872403659E+03  0.21394727922E+03  0.00000000000E+00 0.  1.
         11    1    1    2    0    0  0.21317829900E+02 -0.73195695867E+01 -0.97262171430E+01  0.24548427047E+02  0.00000000000E+00 0. -1.
</event>
<event>
 6    1  0.6447971E-006  0.7214908E+02  0.7561462E-02  0.1352934E+00
          1   -1    0    0  501    0  0.00000000000E+00  0.00000000000E+00  0.10620759614E+04  0.10620759614E+04  0.00000000000E+00 0. -1.
         -1   -1    0    0    0  501 -0.00000000000E+00 -0.00000000000E+00 -0.12137057722E+02  0.12137057722E+02  0.00000000000E+00 0.  1.
          5    1    1    2  502    0  0.22306038998E+02 -0.18808157089E+02  0.59914555131E+03  0.59987012778E+03  0.41800000000E+01 0. -1.
         -5    1    1    2    0  502 -0.14637120330E+02 -0.87403587246E+01  0.56475493215E+01  0.18439261795E+02  0.41800000000E+01 0.  1.
        -11    1    1    2    0    0  0.42633422530E+02  0.84419079857E+01  0.16440061842E+03  0.17004833978E+03  0.00000000000E+00 0. -1.
         11    1    1    2    0    0 -0.50302341198E+02  0.19106607828E+02  0.28074518460E+03  0.28585528974E+03  0.00000000000E+00 0.  1.
</event>
<event>
 6    1  0.6447971E-006  0.1151038E+03  0.7561462E-02  0.1251400E+00
          2   -1    0    0  501    0  0.00000000000E+00  0.00000000000E+00  0.42390362988E+02  0.42390362988E+02  0.00000000000E+00 0. -1.
         -2   -1    0    0    0  501 -0.00000000000E+00 -0.00000000000E+00 -0.45703567319E+03  0.45703567319E+03  0.00000000000E+00 0.  1.
          5    1    1    2  502    0 -0.33709977288E+02  0.35559647017E+02 -0.23750045364E+02  0.54611245358E+02  0.41800000000E+01 0. -1.
         -5    1    1    2    0  502 -0.44396224000E+02 -0.39089811073E+02 -0.24382764772E+03  0.25093511557E+03  0.41800000000E+01 0. -1.
        -11    1    1    2    0    0  0.24871270946E+02  0.46886262690E+02 -0.90527593525E+02  0.10493877709E+03  0.00000000000E+00 0.  1.
         11    1    1    2    0    0  0.53234930342E+02 -0.43356098633E+02 -0.56540023593E+02  0.88940898158E+02  0.00000000000E+00 0. -1.
</event>
<event>
 6    1  0.6447971E-006  0.1148149E+03  0.7561462E-02  0.1251905E+00
         -2   -1    0    0    0  501 -0.00000000000E+00  0.00000000000E+00  0.90931188387E+03  0.90931188387E+03  0.00000000000E+00 0. -1.
          2   -1    0    0  501    0  0.00000000000E+00 -0.00000000000E+00 -0.21198576139E+02  0.21198576139E+02  0.00000000000E+00 0.  1.
          5    1    1    2  502    0 -0.28836897219E+02 -0.61623759365E+02  0.11205602697E+03  0.13116051212E+03  0.41800000000E+01 0.  1.
         -5    1    1    2    0  502  0.35735844132E+02 -0.23610279742E+02  0.41557821127E+03  0.41780045230E+03  0.41800000000E+01 0.  1.
        -11    1    1    2    0    0  0.36417340982E+02  0.53561834655E+02  0.25636895755E+03  0.26442415785E+03  0.00000000000E+00 0. -1.
         11    1    1    2    0    0 -0.43316287895E+02  0.31672204452E+02  0.10411011194E+03  0.11712533774E+03  0.00000000000E+00 0.  1.
</event>
<event>
 6    1  0.6447971E-006  0.1486977E+03  0.7561462E-02  0.1202082E+00
         -1   -1    0    0    0  501 -0.00000000000E+00  0.00000000000E+00  0.93388046556E+02  0.93388046556E+02  0.00000000000E+00 0.  1.
          1   -1    0    0  501    0  0.00000000000E+00 -0.00000000000E+00 -0.30617792700E+03  0.30617792700E+03  0.00000000000E+00 0. -1.
          5    1    1    2  502    0  0.23949913219E+02 -0.31942289243E+01 -0.39332345606E+02  0.46349835517E+02  0.41800000000E+01 0. -1.
         -5    1    1    2    0  502 -0.14703680125E+03  0.18776380947E+02 -0.11053711883E+03  0.18495486056E+03  0.41800000000E+01 0. -1.
        -11    1    1    2    0    0  0.38948088954E+02  0.35652277291E+00  0.24396884994E+02  0.45959642504E+02  0.00000000000E+00 0.  1.
         11    1    1    2    0    0  0.84138799078E+02 -0.15938674796E+02 -0.87317301000E+02  0.12230163498E+03  0.00000000000E+00 0. -1.
</event>
<event>
 6    1  0.6447971E-006  0.1573426E+03  0.7561462E-02  0.1191730E+00
         -2   -1    0    0    0  501 -0.00000000000E+00  0.00000000000E+00  0.82885358523E+02  0.82885358523E+02  0.00000000000E+00 0. -1.
          2   -1    0    0  501    0  0.00000000000E+00 -0.00000000000E+00 -0.37234117611E+03  0.37234117611E+03  0.00000000000E+00 0.  1.
          5    1    1    2  502    0  0.66811939199E+02 -0.52087559289E+02 -0.47775262588E+02  0.97349356277E+02  0.41800000000E+01 0.  1.
         -5    1    1    2    0  502  0.60173778047E+02  0.72391090375E+02 -0.39804218303E+02  0.10228979287E+03  0.41800000000E+01 0.  1.
        -11    1    1    2    0    0 -0.67719162512E+02  0.11008465997E+02 -0.16587006831E+03  0.17949916673E+03  0.00000000000E+00 0.  1.
         11    1    1    2    0    0 -0.59266554733E+02 -0.31311997083E+02 -0.36006268389E+02  0.76088218763E+02  0.00000000000E+00 0. -1.
</event>
<event>
 6    1  0.6447971E-006  0.1086709E+03  0.7561462E-02  0.1263051E+00
          3   -1    0    0  501    0  0.00000000000E+00  0.00000000000E+00  0.25934108355E+03  0.25934108355E+03  0.00000000000E+00 0. -1.
         -3   -1    0    0    0  501 -0.00000000000E+00 -0.00000000000E+00 -0.53369608239E+02  0.53369608239E+02  0.00000000000E+00 0.  1.
          5    1    1    2  502    0 -0.65897449633E+02 -0.40230967034E+01  0.65122598129E+02  0.92828251961E+02  0.41800000000E+01 0. -1.
         -5    1    1    2    0  502  0.46699549711E+02  0.38767185925E+02  0.21978946779E+02  0.64686081573E+02  0.41800000000E+01 0. -1.
        -11    1    1    2    0    0  0.41912082080E+02  0.73203573157E+01  0.23719075563E+02  0.48711444251E+02  0.00000000000E+00 0.  1.
         11    1    1    2    0    0 -0.22714182158E+02 -0.42064446537E+02  0.95150854837E+02  0.10648491400E+03  0.00000000000E+00 0. -1.
</event>
<event>
 6    1  0.6447971E-006  0.9349740E+02  0.7561462E-02  0.1294597E+00
         -4   -1    0    0    0  501 -0.00000000000E+00  0.00000000000E+00  0.11885561311E+03  0.11885561311E+03  0.00000000000E+00 0.  1.
          4   -1    0    0  501    0  0.00000000000E+00 -0.00000000000E+00 -0.10843214606E+03  0.10843214606E+03  0.00000000000E+00 0. -1.
          5    1    1    2  502    0  0.35127200816E+02 -0.15427811309E+02  0.41884810765E+02  0.56953905677E+02  0.41800000000E+01 0. -1.
         -5    1    1    2    0  502 -0.62720534805E+02  0.28391596782E+02 -0.24017648806E+02  0.73036074020E+02  0.41800000000E+01 0. -1.
        -11    1    1    2    0    0  0.30653059385E+02 -0.41018543525E+02 -0.31581117632E+02  0.60162263533E+02  0.00000000000E+00 0.  1.
         11    1    1    2    0    0 -0.30597253964E+01  0.28054758052E+02  0.24137422720E+02  0.37135515944E+02  0.00000000000E+00 0. -1.
</event>
<event>
 6    1  0.6447971E-006  0.1115036E+03  0.7561462E-02  0.1257811E+00
         -2   -1    0    0    0  501 -0.00000000000E+00  0.00000000000E+00  0.10006852846E+03  0.10006852846E+03  0.00000000000E+00 0.  1.
          2   -1    0    0  501    0  0.00000000000E+00 -0.00000000000E+00 -0.13134229818E+03  0.13134229818E+03  0.00000000000E+00 0. -1.
          5    1    1    2  502    0  0.69187065561E+02 -0.29323794847E+02 -0.58458937785E+01  0.75487627193E+02  0.41800000000E+01 0.  1.
         -5    1    1    2    0  502 -0.53560328896E+02  0.19648224277E+01 -0.56302446436E+01  0.54053135093E+02  0.41800000000E+01 0.  1.
        -11    1    1    2    0    0  0.36951762223E+02  0.70247351320E+01 -0.25143616212E+02  0.45243574918E+02  0.00000000000E+00 0. -1.
         11    1    1    2    0    0 -0.52578498888E+02  0.20334237287E+02  0.53459849065E+01  0.56626489438E+02  0.00000000000E+00 0.  1.
</event>
<event>
 6    1  0.6447971E-006  0.1201976E+03  0.7561462E-02  0.1242771E+00
          2   -1    0    0  501    0  0.00000000000E+00  0.00000000000E+00  0.13156960574E+03  0.13156960574E+03  0.00000000000E+00 0. -1.
         -2   -1    0    0    0  501 -0.00000000000E+00 -0.00000000000E+00 -0.17727114611E+03  0.17727114611E+03  0.00000000000E+00 0.  1.
          5    1    1    2  502    0  0.20521074566E+02  0.75841963691E+01  0.32567831291E+02  0.39455932012E+02  0.41800000000E+01 0.  1.
         -5    1    1    2    0  502 -0.11480070711E+02  0.92891245858E+02 -0.93777909314E+02  0.13256071913E+03  0.41800000000E+01 0.  1.
        -11    1    1    2    0    0  0.31463345879E+02 -0.32030648358E+02 -0.20696480264E+02  0.49439345298E+02  0.00000000000E+00 0.  1.
         11    1    1    2    0    0 -0.40504349734E+02 -0.68444793869E+02  0.36205017916E+02  0.87384755406E+02  0.00000000000E+00 0. -1.
</event>
<event>
 6    1  0.6447971E-006  0.1408234E+03  0.7561462E-02  0.1212225E+00
          2   -1    0    0  501    0  0.00000000000E+00  0.00000000000E+00  0.29849674173E+03  0.29849674173E+03  0.00000000000E+00 0. -1.
         -2   -1    0    0    0  501 -0.00000000000E+00 -0.00000000000E+00 -0.85513024773E+02  0.85513024773E+02  0.00000000000E+00 0.  1.
          5    1    1    2  502    0 -0.23414156983E+02  0.41216450436E+01  0.58256268736E+02  0.63059305040E+02  0.41800000000E+01 0.  1.
         -5    1    1    2    0  502  0.21991238806E+02 -0.11492653669E+03  0.10186144000E+02  0.11752852143E+03  0.41800000000E+01 0.  1.
        -11    1    1    2    0    0  0.35677383715E+02  0.15045631724E+02  0.23367181768E+02  0.45224682713E+02  0.00000000000E+00 0.  1.
         11    1    1    2    0    0 -0.34254465538E+02  0.95759259925E+02  0.12117412245E+03  0.15819725732E+03  0.00000000000E+00 0. -1.
</event>
<event>
 6    1  0.6447971E-006  0.1907068E+03  0.7561462E-02  0.1157825E+00
         -1   -1    0    0    0  501 -0.00000000000E+00  0.00000000000E+00  0.62529593470E+02  0.62529593470E+02  0.00000000000E+00 0.  1.
          1   -1    0    0  501    0  0.00000000000E+00 -0.00000000000E+00 -0.61232288128E+03  0.61232288128E+03  0.00000000000E+00 0. -1.
          5    1    1    2  502    0 -0.15522989196E+02  0.11771549513E+02 -0.69711767472E+02  0.72503348168E+02  0.41800000000E+01 0. -1.
         -5    1    1    2    0  502  0.17541738729E+03  0.21040617780E+02 -0.20512332779E+03  0.27075269041E+03  0.41800000000E+01 0. -1.
        -11    1    1    2    0    0 -0.84840412580E+02 -0.61104855210E+02 -0.16852235567E+03  0.19832166623E+03  0.00000000000E+00 0. -1.
         11    1    1    2    0    0 -0.75053985511E+02  0.28292687917E+02 -0.10643583688E+03  0.13327476994E+03  0.00000000000E+00 0.  1.
</event>
<event>
 6    1  0.6447971E-006  0.2238276E+03  0.7561462E-02  0.1131061E+00
         -1   -1    0    0    0  501 -0.00000000000E+00  0.00000000000E+00  0.21907558052E+04  0.21907558052E+04  0.00000000000E+00 0.  1.
          1   -1    0    0  501    0  0.00000000000E+00 -0.00000000000E+00 -0.30012884281E+02  0.30012884281E+02  0.00000000000E+00 0. -1.
          5    1    1    2  502    0  0.55853142366E+02 -0.15497408904E+03  0.12331562851E+04  0.12441175337E+04  0.41800000000E+01 0. -1.
         -5    1    1    2    0  502  0.70392091332E+02 -0.11787044727E+02  0.30799293586E+03  0.31618207078E+03  0.41800000000E+01 0. -1.
        -11    1    1    2    0    0 -0.51239175676E+02  0.44120793706E+02  0.33352242484E+03  0.34030766291E+03  0.00000000000E+00 0.  1.
         11    1    1    2    0    0 -0.75006058023E+02  0.12264034006E+03  0.28607127518E+03  0.32016142215E+03  0.00000000000E+00 0. -1.
</event>
<event>
 6    1  0.6447971E-006  0.1112528E+03  0.7561462E-02  0.1258267E+00
          2   -1    0    0  501    0  0.00000000000E+00  0.00000000000E+00  0.13047247376E+03  0.13047247376E+03  0.00000000000E+00 0. -1.
         -2   -1    0    0    0  501 -0.00000000000E+00 -0.00000000000E+00 -0.16530009681E+03  0.16530009681E+03  0.00000000000E+00 0.  1.
          5    1    1    2  502    0  0.12765215448E+02 -0.40424116470E+02 -0.72357122821E+02  0.83964787505E+02  0.41800000000E+01 0. -1.
         -5    1    1    2    0  502  0.66613034096E+02 -0.17414721820E+02  0.37996213095E+02  0.78751212416E+02  0.41800000000E+01 0. -1.
        -11    1    1    2    0    0 -0.51161241131E+02  0.54829963651E+01  0.36448801305E+02  0.63055935166E+02  0.00000000000E+00 0. -1.
         11    1    1    2    0    0 -0.28217008413E+02  0.52355841925E+02 -0.36915514625E+02  0.70000635479E+02  0.00000000000E+00 0.  1.
</event>
<event>
 6    1  0.6447971E-006  0.9475457E+02  0.7561462E-02  0.1291730E+00
         -1   -1    0    0    0  501 -0.00000000000E+00  0.00000000000E+00  0.12573485116E+03  0.12573485116E+03  0.00000000000E+00 0. -1.
          1   -1    0    0  501    0  0.00000000000E+00 -0.00000000000E+00 -0.96016275352E+02  0.96016275352E+02  0.00000000000E+00 0.  1.
          5    1    1    2  502    0  0.40184187925E+02 -0.37474064900E+02  0.47436144001E+02  0.72709935064E+02  0.41800000000E+01 0.  1.
         -5    1    1    2    0  502 -0.31143225635E+02  0.39592445561E+02 -0.22251753072E+02  0.55227485578E+02  0.41800000000E+01 0.  1.
        -11    1    1    2    0    0 -0.30265839160E+02  0.31765277691E+02 -0.18561373445E+02  0.47640093105E+02  0.00000000000E+00 0.  1.
         11    1    1    2    0    0  0.21224876871E+02 -0.33883658352E+02  0.23095558326E+02  0.46173612766E+02  0.00000000000E+00 0. -1.
</event>
<event>
 6    1  0.6447971E-006  0.9594037E+02  0.7561462E-02  0.1289072E+00
          2   -1    0    0  501    0  0.00000000000E+00  0.00000000000E+00  0.44705399900E+03  0.44705399900E+03  0.00000000000E+00 0. -1.
         -2   -1    0    0    0  501 -0.00000000000E+00 -0.00000000000E+00 -0.34929073483E+02  0.34929073483E+02  0.00000000000E+00 0.  1.
          5    1    1    2  502    0 -0.39713633417E+02  0.16245547278E+02  0.21654098302E+02  0.48243785701E+02  0.41800000000E+01 0.  1.
         -5    1    1    2    0  502  0.18105553260E+02 -0.72322048654E+02  0.19761731176E+03  0.21125426407E+03  0.41800000000E+01 0.  1.
        -11    1    1    2    0    0  0.31850162380E+00  0.52511729110E+02  0.19388883375E+03  0.20087424671E+03  0.00000000000E+00 0. -1.
         11    1    1    2    0    0  0.21289578532E+02  0.35647722659E+01 -0.10353182993E+01  0.21610776001E+02  0.00000000000E+00 0.  1.
</event>
<event>
 6    1  0.6447971E-006  0.1174363E+03  0.7561462E-02  0.1247387E+00
         -2   -1    0    0    0  501 -0.00000000000E+00  0.00000000000E+00  0.24688110529E+02  0.24688110529E+02  0.00000000000E+00 0.  1.
          2   -1    0    0  501    0  0.00000000000E+00 -0.00000000000E+00 -0.70961493889E+03  0.70961493889E+03  0.00000000000E+00 0. -1.
          5    1    1    2  502    0  0.87619424686E+02 -0.12683074069E+02 -0.12195348856E+03  0.15075858092E+03  0.41800000000E+01 0. -1.
         -5    1    1    2    0  502 -0.27110642452E+02 -0.23632784413E+02 -0.18007634560E+03  0.18368031489E+03  0.41800000000E+01 0. -1.
        -11    1    1    2    0    0 -0.15881705061E+01  0.49607453387E+02 -0.11519261053E+03  0.12543029633E+03  0.00000000000E+00 0.  1.
         11    1    1    2    0    0 -0.58920611728E+02 -0.13291594905E+02 -0.26770438367E+03  0.27443385728E+03  0.00000000000E+00 0. -1.
</event>
<event>
 6    1  0.6447971E-006  0.1256744E+03  0.7561462E-02  0.1234019E+00
         -2   -1    0    0    0  501 -0.00000000000E+00  0.00000000000E+00  0.27098576193E+02  0.27098576193E+02  0.00000000000E+00 0.  1.
          2   -1    0    0  501    0  0.00000000000E+00 -0.00000000000E+00 -0.63354437631E+03  0.63354437631E+03  0.00000000000E+00 0. -1.
          5    1    1    2  502    0 -0.39294481314E+02 -0.36176579638E+02 -0.80838255699E+02  0.96979880184E+02  0.41800000000E+01 0. -1.
         -5    1    1    2    0  502  0.84686587835E+02 -0.21042571725E+02 -0.22714864410E+03  0.24336923984E+03  0.41800000000E+01 0. -1.
        -11    1    1    2    0    0 -0.43716361085E+02 -0.86145020016E+01 -0.74052459723E+02  0.86423935702E+02  0.00000000000E+00 0. -1.
         11    1    1    2    0    0 -0.16757454369E+01  0.65833653365E+02 -0.22440644059E+03  0.23386989678E+03  0.00000000000E+00 0.  1.
</event>
<event>
 6    1  0.6447971E-006  0.8433696E+02  0.7561462E-02  0.1317176E+00
         -3   -1    0    0    0  501 -0.00000000000E+00  0.00000000000E+00  0.80776459985E+02  0.80776459985E+02  0.00000000000E+00 0.  1.
          3   -1    0    0  501    0  0.00000000000E+00 -0.00000000000E+00 -0.14332837642E+03  0.14332837642E+03  0.00000000000E+00 0. -1.
          5    1    1    2  502    0  0.35418408240E+02  0.12536789548E+02 -0.66064497830E+02  0.76115865679E+02  0.41800000000E+01 0. -1.
         -5    1    1    2    0  502 -0.41835037930E+02  0.96322020369E+01  0.34166206781E+02  0.55025010681E+02  0.41800000000E+01 0. -1.
        -11    1    1    2    0    0 -0.36856477223E+02 -0.24737412260E+02 -0.16660870806E+02  0.47412277889E+02  0.00000000000E+00 0.  1.
         11    1    1    2    0    0  0.43273106913E+02  0.25684206754E+01 -0.13992754582E+02  0.45551682158E+02  0.00000000000E+00 0. -1.
</event>
<event>
 6    1  0.6447971E-006  0.8985833E+02  0.7561462E-02  0.1303195E+00
         -1   -1    0    0    0  501 -0.00000000000E+00  0.00000000000E+00  0.25357996769E+02  0.25357996769E+02  0.00000000000E+00 0.  1.
          1   -1    0    0  501    0  0.00000000000E+00 -0.00000000000E+00 -0.57490292811E+03  0.57490292811E+03  0.00000000000E+00 0. -1.
          5    1    1    2  502    0  0.31538551462E+02 -0.74153224200E+01 -0.12227340304E+02  0.34880474278E+02  0.41800000000E+01 0. -1.
         -5    1    1    2    0  502 -0.23803999554E+02 -0.42367068155E+02 -0.31955568923E+03  0.32325672426E+03  0.41800000000E+01 0. -1.
        -11    1    1    2    0    0  0.38442596923E+02  0.20107572686E+02 -0.53188566296E+02  0.68637972888E+02  0.00000000000E+00 0. -1.
         11    1    1    2    0    0 -0.46177148831E+02  0.29674817889E+02 -0.16457333550E+03  0.17348575345E+03  0.00000000000E+00 0.  1.
</event>
<event>
 6    1  0.6447971E-006  0.2494441E+03  0.7561462E-02  0.1113657E+00
         -2   -1    0    0    0  501 -0.00000000000E+00  0.00000000000E+00  0.25009772056E+03  0.25009772056E+03  0.00000000000E+00 0.  1.
          2   -1    0    0  501    0  0.00000000000E+00 -0.00000000000E+00 -0.37792442601E+03  0.37792442601E+03  0.00000000000E+00 0. -1.
          5    1    1    2  502    0 -0.72859842730E+02  0.98671374995E+02 -0.17146302807E+02  0.12391959097E+03  0.41800000000E+01 0. -1.
         -5    1    1    2    0  502 -0.93336538100E+02  0.75886570562E+02  0.11002261498E+03  0.16307338576E+03  0.41800000000E+01 0. -1.
        -11    1    1    2    0    0  0.10200938389E+03 -0.45583403993E+02 -0.12709517507E+03  0.16922453914E+03  0.00000000000E+00 0. -1.
         11    1    1    2    0    0  0.64186996944E+02 -0.12897454156E+03 -0.93607842550E+02  0.17180463071E+03  0.00000000000E+00 0.  1.
</event>
<event>
 6    1  0.6447971E-006  0.8917431E+02  0.7561462E-02  0.1304864E+00
         -1   -1    0    0    0  501 -0.00000000000E+00  0.00000000000E+00  0.28711167131E+02  0.28711167131E+02  0.00000000000E+00 0.  1.
          1   -1    0    0  501    0  0.00000000000E+00 -0.00000000000E+00 -0.67110330628E+03  0.67110330628E+03  0.00000000000E+00 0. -1.
          5    1    1    2  502    0  0.35078367190E+02  0.28615973656E+01 -0.21034161459E+03  0.21330669894E+03  0.41800000000E+01 0.  1.
         -5    1    1    2    0  502  0.24456856227E+02 -0.28030815887E+02  0.27435478123E+01  0.37534835958E+02  0.41800000000E+01 0.  1.
        -11    1    1    2    0    0  0.21435340404E+02  0.44469468691E+01 -0.41759455977E+02  0.47149775378E+02  0.00000000000E+00 0.  1.
         11    1    1    2    0    0 -0.80970563821E+02  0.20722271652E+02 -0.39303461640E+03  0.40182316314E+03  0.00000000000E+00 0. -1.
</event>
<event>
 6    1  0.6447971E-006  0.3632191E+03  0.7561462E-02  0.1057316E+00
         -2   -1    0    0    0  501 -0.00000000000E+00  0.00000000000E+00  0.18999518940E+03  0.18999518940E+03  0.00000000000E+00 0.  1.
          2   -1    0    0  501    0  0.00000000000E+00 -0.00000000000E+00 -0.77577394383E+03  0.77577394383E+03  0.00000000000E+00 0. -1.
          5    1    1    2  502    0 -0.22732472288E+03 -0.22763205229E+03 -0.11704109936E+03  0.34235795916E+03  0.41800000000E+01 0. -1.
         -5    1    1    2    0  502 -0.13490591735E+02 -0.35679030716E+02 -0.69230226684E+02  0.79153559522E+02  0.41800000000E+01 0. -1.
        -11    1    1    2    0    0  0.56325788379E+02  0.17478314176E+02 -0.93462216452E+02  0.11051367249E+03  0.00000000000E+00 0.  1.
         11    1    1    2    0    0  0.18448952624E+03  0.24583276883E+03 -0.30604521193E+03  0.43374394206E+03  0.00000000000E+00 0. -1.
</event>
<event>
 6    1  0.6447971E-006  0.1823494E+03  0.7561462E-02  0.1165548E+00
          1   -1    0    0  501    0  0.00000000000E+00  0.00000000000E+00  0.25759296169E+03  0.25759296169E+03  0.00000000000E+00 0. -1.
         -1   -1    0    0    0  501 -0.00000000000E+00 -0.00000000000E+00 -0.16548081328E+03  0.16548081328E+03  0.00000000000E+00 0.  1.
          5    1    1    2  502    0  0.10441166401E+03  0.10884897296E+03 -0.55463209325E+02  0.16075924385E+03  0.41800000000E+01 0.  1.
         -5    1    1    2    0  502 -0.16563574267E+02  0.26156225742E+02  0.31762726550E+02  0.44551580617E+02  0.41800000000E+01 0.  1.
        -11    1    1    2    0    0  0.18457579128E+01 -0.74165721239E+02  0.32187113848E+02  0.80870089199E+02  0.00000000000E+00 0. -1.
         11    1    1    2    0    0 -0.89693847659E+02 -0.60839477461E+02  0.83625517333E+02  0.13689286130E+03  0.00000000000E+00 0.  1.
</event>
<event>
 6    1  0.6862703E-006  0.1151258E+03  0.7561462E-02  0.1251362E+00
          1   -1    0    0  501    0  0.00000000000E+00  0.00000000000E+00  0.67465840992E+03  0.67465840992E+03  0.00000000000E+00 0. -1.
         -1   -1    0    0    0  501 -0.00000000000E+00 -0.00000000000E+00 -0.29539140271E+02  0.29539140271E+02  0.00000000000E+00 0.  1.
          5    1    1    2  502    0 -0.19686728543E+02 -0.12704321219E+02  0.11289508419E+02  0.26341838560E+02  0.41800000000E+01 0.  1.
         -5    1    1    2    0  502  0.56457935483E+02  0.94445152167E+02  0.33410703275E+03  0.35178454625E+03  0.41800000000E+01 0.  1.
        -11    1    1    2    0    0  0.53050919772E+01 -0.25801923664E+02  0.10266260215E+02  0.28271529220E+02  0.00000000000E+00 0.  1.
         11    1    1    2    0    0 -0.42076298917E+02 -0.55938907284E+02  0.28945646826E+03  0.29779963616E+03  0.00000000000E+00 0. -1.
</event>
<event>
 6    1  0.6447971E-006  0.1149860E+03  0.7561462E-02  0.1251606E+00
          2   -1    0    0  501    0  0.00000000000E+00  0.00000000000E+00  0.50206730393E+03  0.50206730393E+03  0.00000000000E+00 0.  1.
         -2   -1    0    0    0  501 -0.00000000000E+00 -0.00000000000E+00 -0.27122061690E+02  0.27122061690E+02  0.00000000000E+00 0. -1.
          5    1    1    2  502    0  0.80257948979E+02 -0.37020570265E+02  0.17872135637E+03  0.19942581733E+03  0.41800000000E+01 0.  1.
         -5    1    1    2    0  502 -0.45239890458E+02  0.33907837944E+01  0.82533586353E+02  0.94273062853E+02  0.41800000000E+01 0.  1.
        -11    1    1    2    0    0  0.19079985840E+02  0.37101512777E+02  0.65107338522E+02  0.77327444284E+02  0.00000000000E+00 0.  1.
         11    1    1    2    0    0 -0.54098044361E+02 -0.34717263065E+01  0.14858296100E+03  0.15816304115E+03  0.00000000000E+00 0. -1.
</event>
<event>
 6    1  0.6447971E-006  0.7789960E+02  0.7561462E-02  0.1335120E+00
         -1   -1    0    0    0  501 -0.00000000000E+00  0.00000000000E+00  0.49078208825E+02  0.49078208825E+02  0.00000000000E+00 0. -1.
          1   -1    0    0  501    0  0.00000000000E+00 -0.00000000000E+00 -0.26259570178E+03  0.26259570178E+03  0.00000000000E+00 0.  1.
          5    1    1    2  502    0 -0.46881110827E+02 -0.38737030551E+02 -0.11298652478E+03  0.12838155346E+03  0.41800000000E+01 0. -1.
         -5    1    1    2    0  502  0.23874381161E+02  0.17701511230E+02  0.14994747469E+02  0.33550624842E+02  0.41800000000E+01 0. -1.
        -11    1    1    2    0    0 -0.17581606652E+02 -0.27321905513E+01 -0.97913775936E+02  0.99517261194E+02  0.00000000000E+00 0.  1.
         11    1    1    2    0    0  0.40588336318E+02  0.23767709873E+02 -0.17611939716E+02  0.50224471109E+02  0.00000000000E+00 0. -1.
</event>
<event>
 6    1  0.6447971E-006  0.1695242E+03  0.7561462E-02  0.1178345E+00
         -2   -1    0    0    0  501 -0.00000000000E+00  0.00000000000E+00  0.24737399393E+02  0.24737399393E+02  0.00000000000E+00 0.  1.
          2   -1    0    0  501    0  0.00000000000E+00 -0.00000000000E+00 -0.12378874741E+04  0.12378874741E+04  0.00000000000E+00 0. -1.
          5    1    1    2  502    0  0.37778271244E+02  0.30906194337E+01 -0.88593499975E+02  0.96452217935E+02  0.41800000000E+01 0.  1.
         -5    1    1    2    0  502 -0.38357470616E+02 -0.13940123827E+03 -0.50481144073E+03  0.52512480790E+03  0.41800000000E+01 0.  1.
        -11    1    1    2    0    0  0.21147221587E+02  0.29710423328E+01 -0.35506695692E+02  0.41433772606E+02  0.00000000000E+00 0.  1.
         11    1    1    2    0    0 -0.20568022215E+02  0.13333957650E+03 -0.58423843830E+03  0.59961407504E+03  0.00000000000E+00 0. -1.
</event>
<event>
 6    1  0.6447971E-006  0.1411137E+03  0.7561462E-02  0.1211838E+00
         -2   -1    0    0    0  501 -0.00000000000E+00  0.00000000000E+00  0.20446286581E+02  0.20446286581E+02  0.00000000000E+00 0.  1.
          2   -1    0    0  501    0  0.00000000000E+00 -0.00000000000E+00 -0.97960534813E+03  0.97960534813E+03  0.00000000000E+00 0. -1.
          5    1    1    2  502    0  0.23479635878E+02 -0.22001917393E+02 -0.98915697108E+02  0.10410170606E+03  0.41800000000E+01 0.  1.
         -5    1    1    2    0  502 -0.74507943932E+02  0.95709486240E+02 -0.40305810756E+03  0.42093354575E+03  0.41800000000E+01 0.  1.
        -11    1    1    2    0    0  0.78091097975E+02 -0.54363424057E+02 -0.35641905782E+03  0.36890126896E+03  0.00000000000E+00 0. -1.
         11    1    1    2    0    0 -0.27062789921E+02 -0.19344144790E+02 -0.10076619905E+03  0.10611511394E+03  0.00000000000E+00 0.  1.
</event>
<event>
 6    1  0.6447971E-006  0.1136156E+03  0.7561462E-02  0.1254017E+00
          2   -1    0    0  501    0  0.00000000000E+00  0.00000000000E+00  0.53429446372E+02  0.53429446372E+02  0.00000000000E+00 0. -1.
         -2   -1    0    0    0  501 -0.00000000000E+00 -0.00000000000E+00 -0.27080569685E+03  0.27080569685E+03  0.00000000000E+00 0.  1.
          5    1    1    2  502    0  0.37867351570E+02 -0.13368693982E+02 -0.86039807896E+02  0.95041986703E+02  0.41800000000E+01 0. -1.
         -5    1    1    2    0  502 -0.53176881423E+02  0.62724936565E+02 -0.47375370787E+02  0.94995244840E+02  0.41800000000E+01 0. -1.
        -11    1    1    2    0    0  0.52664136462E+02 -0.39652863708E+02 -0.49224044229E+02  0.82273126839E+02  0.00000000000E+00 0. -1.
         11    1    1    2    0    0 -0.37354606608E+02 -0.97033788749E+01 -0.34737027562E+02  0.51924784836E+02  0.00000000000E+00 0.  1.
</event>
<event>
 6    1  0.6447971E-006  0.1120749E+03  0.7561462E-02  0.1256775E+00
         -1   -1    0    0    0  501 -0.00000000000E+00  0.00000000000E+00  0.14031429785E+03  0.14031429785E+03  0.00000000000E+00 0.  1.
          1   -1    0    0  501    0  0.00000000000E+00 -0.00000000000E+00 -0.14645637111E+03  0.14645637111E+03  0.00000000000E+00 0. -1.
          5    1    1    2  502    0  0.34377460674E+02 -0.45526322374E+02  0.57782033009E+02  0.81306159484E+02  0.41800000000E+01 0. -1.
         -5    1    1    2    0  502 -0.32139789810E+02 -0.46112486452E+02 -0.48066591667E+02  0.74075617651E+02  0.41800000000E+01 0. -1.
        -11    1    1    2    0    0  0.26444132754E+02  0.19210541048E+02  0.27073513510E+02  0.42441868223E+02  0.00000000000E+00 0.  1.
         11    1    1    2    0    0 -0.28681803618E+02  0.72428267778E+02 -0.42931028120E+02  0.88947023602E+02  0.00000000000E+00 0. -1.
</event>
<event>
 6    1  0.6447971E-006  0.1117220E+03  0.7561462E-02  0.1257414E+00
         -3   -1    0    0    0  501 -0.00000000000E+00  0.00000000000E+00  0.43484123546E+02  0.43484123546E+02  0.00000000000E+00 0.  1.
          3   -1    0    0  501    0  0.00000000000E+00 -0.00000000000E+00 -0.39077599620E+03  0.39077599620E+03  0.00000000000E+00 0. -1.
          5    1    1    2  502    0  0.17272415896E+02  0.78451888507E+02 -0.45258891348E+02  0.92297750824E+02  0.41800000000E+01 0. -1.
         -5    1    1    2    0  502 -0.12911602985E+02 -0.46181176898E+02 -0.39585710314E+02  0.62321035392E+02  0.41800000000E+01 0. -1.
        -11    1    1    2    0    0  0.42408868978E+02 -0.16668234234E+02 -0.10033263558E+03  0.11019519029E+03  0.00000000000E+00 0.  1.
         11    1    1    2    0    0 -0.46769681889E+02 -0.15602477375E+02 -0.16211463541E+03  0.16944614324E+03  0.00000000000E+00 0. -1.
</event>
<event>
 6    1  0.6447971E-006  0.8222863E+02  0.7561462E-02  0.1322843E+00
         -1   -1    0    0    0  501 -0.00000000000E+00  0.00000000000E+00  0.12089723242E+03  0.12089723242E+03  0.00000000000E+00 0.  1.
          1   -1    0    0  501    0  0.00000000000E+00 -0.00000000000E+00 -0.10955425246E+03  0.10955425246E+03  0.00000000000E+00 0. -1.
          5    1    1    2  502    0 -0.45340170932E+02 -0.28163280975E+02  0.42913607766E+02  0.68614514695E+02  0.41800000000E+01 0. -1.
         -5    1    1    2    0  502  0.63252933868E+02  0.14039516058E+02 -0.20041181560E+01  0.64957913634E+02  0.41800000000E+01 0. -1.
        -11    1    1    2    0    0 -0.30060075211E+02  0.15404133783E+02 -0.57333954851E+02  0.66543803905E+02  0.00000000000E+00 0. -1.
         11    1    1    2    0    0  0.12147312274E+02 -0.12803688654E+01  0.27767445198E+02  0.30335252640E+02  0.00000000000E+00 0.  1.
</event>
<event>
 6    1  0.6447971E-006  0.9383802E+02  0.7561462E-02  0.1293815E+00
          2   -1    0    0  501    0  0.00000000000E+00  0.00000000000E+00  0.30158800753E+03  0.30158800753E+03  0.00000000000E+00 0.  1.
         -2   -1    0    0    0  501 -0.00000000000E+00 -0.00000000000E+00 -0.67729331749E+02  0.67729331749E+02  0.00000000000E+00 0. -1.
          5    1    1    2  502    0  0.47754729117E+02 -0.43255835641E+02 -0.32314061340E+02  0.72202856109E+02  0.41800000000E+01 0. -1.
         -5    1    1    2    0  502  0.59971037824E+01  0.19281086803E+02  0.67317337205E+02  0.70404700485E+02  0.41800000000E+01 0. -1.
        -11    1    1    2    0    0  0.13330537665E+02  0.32250134163E+02  0.34831478536E+02  0.49305235878E+02  0.00000000000E+00 0. -1.
         11    1    1    2    0    0 -0.67082370564E+02 -0.82753853252E+01  0.16402392138E+03  0.17740454681E+03  0.00000000000E+00 0.  1.
</event>
<event>
 6    1  0.6447971E-006  0.2515691E+03  0.7561462E-02  0.1112317E+00
         -1   -1    0    0    0  501 -0.00000000000E+00  0.00000000000E+00  0.17664406475E+03  0.17664406475E+03  0.00000000000E+00 0.  1.
          1   -1    0    0  501    0  0.00000000000E+00 -0.00000000000E+00 -0.80189486747E+03  0.80189486747E+03  0.00000000000E+00 0. -1.
          5    1    1    2  502    0 -0.75677001763E+02  0.33505967583E+02 -0.12773647412E+02  0.83846865939E+02  0.41800000000E+01 0. -1.
         -5    1    1    2    0  502 -0.33375082571E+02  0.17798313960E+03  0.47128619847E+02  0.18716429501E+03  0.41800000000E+01 0. -1.
        -11    1    1    2    0    0  0.23368223847E+02 -0.69214457917E+02 -0.10029974835E+03  0.12408365964E+03  0.00000000000E+00 0.  1.
         11    1    1    2    0    0  0.85683860488E+02 -0.14227464927E+03 -0.55930602681E+03  0.58344411163E+03  0.00000000000E+00 0. -1.
</event>
<event>
 6    1  0.6447971E-006  0.1060120E+03  0.7561462E-02  0.1268139E+00
         -1   -1    0    0    0  501 -0.00000000000E+00  0.00000000000E+00  0.72288651958E+03  0.72288651958E+03  0.00000000000E+00 0.  1.
          1   -1    0    0  501    0  0.00000000000E+00 -0.00000000000E+00 -0.37904290928E+02  0.37904290928E+02  0.00000000000E+00 0. -1.
          5    1    1    2  502    0 -0.33992636869E+02  0.31913120741E+02  0.13773319736E+03  0.14547114041E+03  0.41800000000E+01 0.  1.
         -5    1    1    2    0  502  0.85588628184E+02 -0.18621265599E+01  0.48343130978E+03  0.49097065540E+03  0.41800000000E+01 0.  1.
        -11    1    1    2    0    0 -0.18632942348E+02  0.14830580525E+02  0.64397803852E+02  0.68660103409E+02  0.00000000000E+00 0. -1.
         11    1    1    2    0    0 -0.32963048968E+02 -0.44881574706E+02 -0.58008233735E+00  0.55688911291E+02  0.00000000000E+00 0.  1.
</event>
<event>
 6    1  0.6447971E-006  0.1709103E+03  0.7561462E-02  0.1176902E+00
          2   -1    0    0  501    0  0.00000000000E+00  0.00000000000E+00  0.46670432731E+03  0.46670432731E+03  0.00000000000E+00 0. -1.
         -2   -1    0    0    0  501 -0.00000000000E+00 -0.00000000000E+00 -0.85244890759E+02  0.85244890759E+02  0.00000000000E+00 0.  1.
          5    1    1    2  502    0  0.88675418501E+01 -0.14580913125E+02 -0.17669116970E+02  0.24917993910E+02  0.41800000000E+01 0. -1.
         -5    1    1    2    0  502  0.15721049655E+03  0.16521622709E+02  0.17472816290E+03  0.23565972832E+03  0.41800000000E+01 0. -1.
        -11    1    1    2    0    0 -0.83395754052E+02  0.59133992554E+00  0.17789637782E+03  0.19647473812E+03  0.00000000000E+00 0. -1.
         11    1    1    2    0    0 -0.82682284346E+02 -0.25320495094E+01  0.46504012798E+02  0.94896757719E+02  0.00000000000E+00 0.  1.
</event>
<event>
 6    1  0.6447971E-006  0.1433178E+03  0.7561462E-02  0.1208933E+00
          2   -1    0    0  501    0  0.00000000000E+00  0.00000000000E+00  0.25017042638E+03  0.25017042638E+03  0.00000000000E+00 0. -1.
         -2   -1    0    0    0  501 -0.00000000000E+00 -0.00000000000E+00 -0.10442452023E+03  0.10442452023E+03  0.00000000000E+00 0.  1.
          5    1    1    2  502    0  0.35526513079E+02 -0.11533700505E+03  0.77154387091E+01  0.12100313326E+03  0.41800000000E+01 0. -1.
         -5    1    1    2    0  502  0.25391327759E+02  0.32328049683E+02  0.34076927744E+01  0.41459704434E+02  0.41800000000E+01 0. -1.
        -11    1    1    2    0    0  0.67225435019E+00 -0.11627035624E+02  0.49165564692E+02  0.50526157926E+02  0.00000000000E+00 0. -1.
         11    1    1    2    0    0 -0.61590095189E+02  0.94635990991E+02  0.85457209982E+02  0.14160595098E+03  0.00000000000E+00 0.  1.
</event>
<event>
 6    1  0.6447971E-006  0.8921656E+02  0.7561462E-02  0.1304760E+00
         -2   -1    0    0    0  501 -0.00000000000E+00  0.00000000000E+00  0.11318924978E+03  0.11318924978E+03  0.00000000000E+00 0.  1.
          2   -1    0    0  501    0  0.00000000000E+00 -0.00000000000E+00 -0.11431200214E+03  0.11431200214E+03  0.00000000000E+00 0. -1.
          5    1    1    2  502    0 -0.69243905638E+02  0.30999782134E+02 -0.90169372747E+01  0.76514590231E+02  0.41800000000E+01 0.  1.
         -5    1    1    2    0  502  0.53185568446E+02 -0.21260024491E+01 -0.53628016355E+01  0.53660568565E+02  0.41800000000E+01 0.  1.
        -11    1    1    2    0    0  0.23989534450E+02 -0.58278525806E+01  0.48532020396E+02  0.54450148140E+02  0.00000000000E+00 0.  1.
         11    1    1    2    0    0 -0.79311972571E+01 -0.23045927105E+02 -0.35275033841E+02  0.42875944987E+02  0.00000000000E+00 0. -1.
</event>
<event>
 6    1  0.6447971E-006  0.1258932E+03  0.7561462E-02  0.1233680E+00
         -1   -1    0    0    0  501 -0.00000000000E+00  0.00000000000E+00  0.13242669628E+03  0.13242669628E+03  0.00000000000E+00 0.  1.
          1   -1    0    0  501    0  0.00000000000E+00 -0.00000000000E+00 -0.17567749934E+03  0.17567749934E+03  0.00000000000E+00 0. -1.
          5    1    1    2  502    0  0.17210893167E+02  0.10733748808E+03  0.40317108477E+02  0.11601936402E+03  0.41800000000E+01 0. -1.
         -5    1    1    2    0  502 -0.28334931548E+02 -0.26847191081E+02  0.33065337262E+01  0.39396009697E+02  0.41800000000E+01 0. -1.
        -11    1    1    2    0    0  0.24751918763E+02 -0.28524912335E+01 -0.66876139767E+02  0.71366744768E+02  0.00000000000E+00 0. -1.
         11    1    1    2    0    0 -0.13627880382E+02 -0.77637805764E+02 -0.19998305492E+02  0.81322077138E+02  0.00000000000E+00 0.  1.
</event>
<event>
 6    1  0.6447971E-006  0.1394097E+03  0.7561462E-02  0.1214125E+00
          2   -1    0    0  501    0  0.00000000000E+00  0.00000000000E+00  0.12478224479E+03  0.12478224479E+03  0.00000000000E+00 0. -1.
         -2   -1    0    0    0  501 -0.00000000000E+00 -0.00000000000E+00 -0.16569282897E+03  0.16569282897E+03  0.00000000000E+00 0.  1.
          5    1    1    2  502    0  0.18028427576E+02 -0.28055490175E+02 -0.81637108302E+01  0.34586894980E+02  0.41800000000E+01 0. -1.
         -5    1    1    2    0  502 -0.27778925120E+02  0.11587778907E+03 -0.47914676612E+02  0.12850143702E+03  0.41800000000E+01 0. -1.
        -11    1    1    2    0    0  0.48900614958E+02 -0.62471593251E+02  0.15028602276E+02  0.80745458033E+02  0.00000000000E+00 0.  1.
         11    1    1    2    0    0 -0.39150117413E+02 -0.25350705648E+02  0.13920098355E+00  0.46641283722E+02  0.00000000000E+00 0. -1.
</event>
<event>
 6    1  0.6447971E-006  0.1172947E+03  0.7561462E-02  0.1247628E+00
         -2   -1    0    0    0  501 -0.00000000000E+00  0.00000000000E+00  0.34025986922E+02  0.34025986922E+02  0.00000000000E+00 0.  1.
          2   -1    0    0  501    0  0.00000000000E+00 -0.00000000000E+00 -0.45131035592E+03  0.45131035592E+03  0.00000000000E+00 0. -1.
          5    1    1    2  502    0 -0.87703226860E+02 -0.10900068910E+02 -0.12998886240E+03  0.15724262860E+03  0.41800000000E+01 0.  1.
         -5    1    1    2    0  502  0.41827693289E+02 -0.23391455886E+02 -0.51081861119E+02  0.70167977524E+02  0.41800000000E+01 0.  1.
        -11    1    1    2    0    0  0.58549409848E+02  0.50577628027E+02 -0.21423247382E+03  0.22777550942E+03  0.00000000000E+00 0. -1.
         11    1    1    2    0    0 -0.12673876278E+02 -0.16286103231E+02 -0.21981171664E+02  0.30150227297E+02  0.00000000000E+00 0.  1.
</event>
<event>
 6    1  0.6447971E-006  0.9565251E+02  0.7561462E-02  0.1289713E+00
          1   -1    0    0  501    0  0.00000000000E+00  0.00000000000E+00  0.23051556756E+02  0.23051556756E+02  0.00000000000E+00 0. -1.
         -1   -1    0    0    0  501 -0.00000000000E+00 -0.00000000000E+00 -0.15667867688E+04  0.15667867688E+04  0.00000000000E+00 0.  1.
          5    1    1    2  502    0 -0.72615453589E+02 -0.54651221102E+01 -0.52830931287E+03  0.53332079851E+03  0.41800000000E+01 0.  1.
         -5    1    1    2    0  502  0.29973617518E+02  0.48476882457E+02 -0.87123279631E+03  0.87310508168E+03  0.41800000000E+01 0.  1.
        -11    1    1    2    0    0  0.26088310012E+02 -0.20016365264E+02 -0.15077927711E+03  0.15432318427E+03  0.00000000000E+00 0.  1.
         11    1    1    2    0    0  0.16553526059E+02 -0.22995395084E+02  0.65861742468E+01  0.29089261098E+02  0.00000000000E+00 0. -1.
</event>
<event>
 6    1  0.6447971E-006  0.1202003E+03  0.7561462E-02  0.1242767E+00
          1   -1    0    0  501    0  0.00000000000E+00  0.00000000000E+00  0.28852990780E+03  0.28852990780E+03  0.00000000000E+00 0. -1.
         -1   -1    0    0    0  501 -0.00000000000E+00 -0.00000000000E+00 -0.80096946995E+02  0.80096946995E+02  0.00000000000E+00 0.  1.
          5    1    1    2  502    0 -0.25871402326E+02 -0.20454599561E+02  0.15968528034E+02  0.36880704835E+02  0.41800000000E+01 0. -1.
         -5    1    1    2    0  502  0.74806277996E+02  0.89037815600E+02  0.18578334973E+02  0.11784031044E+03  0.41800000000E+01 0. -1.
        -11    1    1    2    0    0 -0.21283607444E+02 -0.56064019955E+01  0.13103260678E+03  0.13286823446E+03  0.00000000000E+00 0. -1.
         11    1    1    2    0    0 -0.27651268227E+02 -0.62976814043E+02  0.42853491020E+02  0.81037605062E+02  0.00000000000E+00 0.  1.
</event>
<event>
 6    1  0.6447971E-006  0.1267372E+03  0.7561462E-02  0.1232379E+00
          2   -1    0    0  501    0  0.00000000000E+00  0.00000000000E+00  0.14407341420E+02  0.14407341420E+02  0.00000000000E+00 0. -1.
         -2   -1    0    0    0  501 -0.00000000000E+00 -0.00000000000E+00 -0.11433125932E+04  0.11433125932E+04  0.00000000000E+00 0.  1.
          5    1    1    2  502    0 -0.52884767864E+02 -0.22077754750E+02 -0.20486444931E+03  0.21277015984E+03  0.41800000000E+01 0. -1.
         -5    1    1    2    0  502  0.17695402020E+02  0.80361298818E+02 -0.43749237679E+03  0.44518324064E+03  0.41800000000E+01 0. -1.
        -11    1    1    2    0    0 -0.19293824170E+02 -0.55844690385E+02 -0.27759360847E+03  0.28381172026E+03  0.00000000000E+00 0. -1.
         11    1    1    2    0    0  0.54483190014E+02 -0.24388536828E+01 -0.20895481726E+03  0.21595481392E+03  0.00000000000E+00 0.  1.
</event>
<event>
 6    1  0.6447971E-006  0.1228582E+03  0.7561462E-02  0.1238455E+00
         -2   -1    0    0    0  501 -0.00000000000E+00  0.00000000000E+00  0.25172256976E+02  0.25172256976E+02  0.00000000000E+00 0.  1.
          2   -1    0    0  501    0  0.00000000000E+00 -0.00000000000E+00 -0.63973177609E+03  0.63973177609E+03  0.00000000000E+00 0. -1.
          5    1    1    2  502    0 -0.67688220237E+02 -0.65253564453E+02 -0.27608374792E+03  0.29168378614E+03  0.41800000000E+01 0.  1.
         -5    1    1    2    0  502  0.38528785779E+02  0.73472056982E+01 -0.51170580004E+02  0.64609205406E+02  0.41800000000E+01 0.  1.
        -11    1    1    2    0    0  0.29413273528E+02 -0.19152496536E+02 -0.76660222666E+02  0.84313394680E+02  0.00000000000E+00 0. -1.
         11    1    1    2    0    0 -0.25383907009E+00  0.77058855290E+02 -0.21064496853E+03  0.22429764684E+03  0.00000000000E+00 0.  1.
</event>
<event>
 6    1  0.6447971E-006  0.1005236E+03  0.7561462E-02  0.1279199E+00
          2   -1    0    0  501    0  0.00000000000E+00  0.00000000000E+00  0.71316076586E+02  0.71316076586E+02  0.00000000000E+00 0. -1.
         -2   -1    0    0    0  501 -0.00000000000E+00 -0.00000000000E+00 -0.23663470989E+03  0.23663470989E+03  0.00000000000E+00 0.  1.
          5    1    1    2  502    0  0.79176607973E+02  0.36103601867E+02 -0.86782994960E+02  0.12296815007E+03  0.41800000000E+01 0.  1.
         -5    1    1    2    0  502 -0.24361296830E+02 -0.42685479559E+02 -0.58890441935E+02  0.76818484102E+02  0.41800000000E+01 0.  1.
        -11    1    1    2    0    0 -0.21178519906E+02  0.19287900097E+02 -0.52275170425E+02  0.59609112043E+02  0.00000000000E+00 0.  1.
         11    1    1    2    0    0 -0.33636791237E+02 -0.12706022405E+02  0.32629974018E+02  0.48555040258E+02  0.00000000000E+00 0. -1.
</event>
<event>
 6    1  0.6447971E-006  0.8621443E+02  0.7561462E-02  0.1312287E+00
          1   -1    0    0  501    0  0.00000000000E+00  0.00000000000E+00  0.60734780452E+02  0.60734780452E+02  0.00000000000E+00 0. -1.
         -1   -1    0    0    0  501 -0.00000000000E+00 -0.00000000000E+00 -0.22257523536E+03  0.22257523536E+03  0.00000000000E+00 0.  1.
          5    1    1    2  502    0 -0.22079621734E+02  0.48484910258E+02 -0.76184135621E+00  0.53444822208E+02  0.41800000000E+01 0.  1.
         -5    1    1    2    0  502 -0.14158633495E+02 -0.48335319799E+02 -0.97085578245E+02  0.10945251000E+03  0.41800000000E+01 0.  1.
        -11    1    1    2    0    0  0.20900822405E+02  0.28861160030E+02 -0.77209232649E+02  0.85035736851E+02  0.00000000000E+00 0.  1.
         11    1    1    2    0    0  0.15337432825E+02 -0.29010750488E+02  0.13216197339E+02  0.35376946754E+02  0.00000000000E+00 0. -1.
</event>
<event>
 6    1  0.6447971E-006  0.1041391E+03  0.7561462E-02  0.1271825E+00
          2   -1    0    0  501    0  0.00000000000E+00  0.00000000000E+00  0.67225430793E+03  0.67225430793E+03  0.00000000000E+00 0. -1.
         -2   -1    0    0    0  501 -0.00000000000E+00 -0.00000000000E+00 -0.23405474940E+02  0.23405474940E+02  0.00000000000E+00 0.  1.
          5    1    1    2  502    0 -0.58241271352E+02 -0.24857383931E+02  0.82807677475E+02  0.10432889855E+03  0.41800000000E+01 0. -1.
         -5    1    1    2    0  502  0.32410453345E+02 -0.28373423139E+02  0.29234941255E+03  0.29553534483E+03  0.41800000000E+01 0. -1.
        -11    1    1    2    0    0  0.42835255710E+02  0.67092180233E+02  0.14652855991E+03  0.16675382649E+03  0.00000000000E+00 0.  1.
         11    1    1    2    0    0 -0.17004437702E+02 -0.13861373163E+02  0.12716318306E+03  0.12904171300E+03  0.00000000000E+00 0. -1.
</event>
<event>
 6    1  0.6447971E-006  0.2160823E+03  0.7561462E-02  0.1136838E+00
         -1   -1    0    0    0  501 -0.00000000000E+00  0.00000000000E+00  0.14460258270E+03  0.14460258270E+03  0.00000000000E+00 0.  1.
          1   -1    0    0  501    0  0.00000000000E+00 -0.00000000000E+00 -0.47792122260E+03  0.47792122260E+03  0.00000000000E+00 0. -1.
          5    1    1    2  502    0  0.82317546842E+02 -0.74993105959E+02 -0.63673911142E+02  0.12834322662E+03  0.41800000000E+01 0.  1.
         -5    1    1    2    0  502  0.75263473336E+02 -0.37672159874E+01  0.46092491192E+02  0.88435131476E+02  0.41800000000E+01 0.  1.
        -11    1    1    2    0    0 -0.76270343797E+01 -0.48184757201E+02 -0.11470885997E+03  0.12465177510E+03  0.00000000000E+00 0. -1.
         11    1    1    2    0    0 -0.14995398580E+03  0.12694507915E+03 -0.20102835998E+03  0.28109367209E+03  0.00000000000E+00 0.  1.
</event>
<event>
 6    1  0.6447971E-006  0.1288455E+03  0.7561462E-02  0.1229179E+00
          3   -1    0    0  501    0  0.00000000000E+00  0.00000000000E+00  0.30183886110E+03  0.30183886110E+03  0.00000000000E+00 0. -1.
         -3   -1    0    0    0  501 -0.00000000000E+00 -0.00000000000E+00 -0.17553833176E+03  0.17553833176E+03  0.00000000000E+00 0.  1.
          5    1    1    2  502    0  0.12025293817E+02  0.38055236548E+01  0.19269413493E+02  0.23406674220E+02  0.41800000000E+01 0. -1.
         -5    1    1    2    0  502 -0.51725584277E+02 -0.11502517627E+03 -0.13002898799E+03  0.18119419793E+03  0.41800000000E+01 0. -1.
        -11    1    1    2    0    0  0.22150106691E+02  0.54104199817E+02  0.51768082062E+02  0.78088577812E+02  0.00000000000E+00 0.  1.
         11    1    1    2    0    0  0.17550183769E+02  0.57115452802E+02  0.18529202178E+03  0.19468774290E+03  0.00000000000E+00 0. -1.
</event>
<event>
 6    1  0.6447971E-006  0.9061341E+02  0.7561462E-02  0.1301373E+00
         -1   -1    0    0    0  501 -0.00000000000E+00  0.00000000000E+00  0.43928888896E+03  0.43928888896E+03  0.00000000000E+00 0.  1.
          1   -1    0    0  501    0  0.00000000000E+00 -0.00000000000E+00 -0.40068244435E+02  0.40068244435E+02  0.00000000000E+00 0. -1.
          5    1    1    2  502    0  0.35659180772E+02  0.67592028759E+01  0.32669735013E+01  0.36679824327E+02  0.41800000000E+01 0. -1.
         -5    1    1    2    0  502  0.13885640329E+02 -0.62367302426E+02  0.22609182079E+03  0.23498398934E+03  0.41800000000E+01 0. -1.
        -11    1    1    2    0    0 -0.18402219369E+02  0.17983554992E+01 -0.73459350027E+01  0.19895691023E+02  0.00000000000E+00 0. -1.
         11    1    1    2    0    0 -0.31142601731E+02  0.53809744051E+02  0.17720778523E+03  0.18779762870E+03  0.00000000000E+00 0.  1.
</event>
<event>
 6    1  0.6447971E-006  0.1423936E+03  0.7561462E-02  0.1210144E+00
         -3   -1    0    0    0  501 -0.00000000000E+00  0.00000000000E+00  0.42431090960E+03  0.42431090960E+03  0.00000000000E+00 0.  1.
          3   -1    0    0  501    0  0.00000000000E+00 -0.00000000000E+00 -0.86173266899E+02  0.86173266899E+02  0.00000000000E+00 0. -1.
          5    1    1    2  502    0 -0.22588516255E+02  0.12811055277E+02  0.23969964998E+02  0.35586455653E+02  0.41800000000E+01 0. -1.
         -5    1    1    2    0  502  0.13618178885E+03  0.21605412381E+02  0.29283720805E+03  0.32370260468E+03  0.41800000000E+01 0.  1.
        -11    1    1    2    0    0 -0.32230616891E+02 -0.19927082942E+02  0.50869509295E+02  0.63431918430E+02  0.00000000000E+00 0.  1.
         11    1    1    2    0    0 -0.81362655709E+02 -0.14489384716E+02 -0.29539039642E+02  0.87763197734E+02  0.00000000000E+00 0. -1.
</event>
<event>
 6    1  0.6447971E-006  0.1124044E+03  0.7561462E-02  0.1256181E+00
         -1   -1    0    0    0  501 -0.00000000000E+00  0.00000000000E+00  0.25561327091E+02  0.25561327091E+02  0.00000000000E+00 0.  1.
          1   -1    0    0  501    0  0.00000000000E+00 -0.00000000000E+00 -0.53675216090E+03  0.53675216090E+03  0.00000000000E+00 0. -1.
          5    1    1    2  502    0  0.29596800138E+01  0.38455811584E+02 -0.43867449637E+02  0.58561375393E+02  0.41800000000E+01 0. -1.
         -5    1    1    2    0  502 -0.23292894826E+02 -0.81485968065E+02 -0.23404079821E+03  0.24894796558E+03  0.41800000000E+01 0.  1.
        -11    1    1    2    0    0  0.39507930869E+02  0.62431890959E+02 -0.15076886629E+03  0.16789838788E+03  0.00000000000E+00 0. -1.
         11    1    1    2    0    0 -0.19174716057E+02 -0.19401734478E+02 -0.82513719673E+02  0.86905759135E+02  0.00000000000E+00 0.  1.
</event>
<event>
 6    1  0.6447971E-006  0.1585976E+03  0.7561462E-02  0.1190289E+00
          2   -1    0    0  501    0  0.00000000000E+00  0.00000000000E+00  0.15581414729E+03  0.15581414729E+03  0.00000000000E+00 0. -1.
         -2   -1    0    0    0  501 -0.00000000000E+00 -0.00000000000E+00 -0.17712265299E+03  0.17712265299E+03  0.00000000000E+00 0.  1.
          5    1    1    2  502    0 -0.18624914669E+02 -0.57707264872E+02 -0.22325320052E+02  0.64752669295E+02  0.41800000000E+01 0. -1.
         -5    1    1    2    0  502  0.11108319064E+03 -0.21822268779E+02 -0.20491455972E+02  0.11512193026E+03  0.41800000000E+01 0. -1.
        -11    1    1    2    0    0 -0.66234606674E+01  0.52821644117E+02 -0.16102552460E+02  0.55617340050E+02  0.00000000000E+00 0.  1.
         11    1    1    2    0    0 -0.85834815307E+02  0.26707889534E+02  0.37610822778E+02  0.97444860676E+02  0.00000000000E+00 0. -1.
</event>
<event>
 6    1  0.6447971E-006  0.1261651E+03  0.7561462E-02  0.1233260E+00
         -4   -1    0    0    0  501 -0.00000000000E+00  0.00000000000E+00  0.43501687009E+02  0.43501687009E+02  0.00000000000E+00 0. -1.
          4   -1    0    0  501    0  0.00000000000E+00 -0.00000000000E+00 -0.40381330075E+03  0.40381330075E+03  0.00000000000E+00 0.  1.
          5    1    1    2  502    0  0.15843396674E+02 -0.36864063641E+02 -0.24082755014E+02  0.46983229937E+02  0.41800000000E+01 0. -1.
         -5    1    1    2    0  502  0.10625069000E+02  0.98391809623E+02 -0.11394202594E+03  0.15097714386E+03  0.41800000000E+01 0. -1.
        -11    1    1    2    0    0  0.30339531968E+02 -0.16286167406E+01 -0.56511540431E+02  0.64161466586E+02  0.00000000000E+00 0. -1.
         11    1    1    2    0    0 -0.56807997642E+02 -0.59899129241E+02 -0.16577529235E+03  0.18519314738E+03  0.00000000000E+00 0.  1.
</event>
<event>
 6    1  0.6447971E-006  0.3434571E+03  0.7561462E-02  0.1065333E+00
          1   -1    0    0  501    0  0.00000000000E+00  0.00000000000E+00  0.50790679775E+03  0.50790679775E+03  0.00000000000E+00 0. -1.
         -1   -1    0    0    0  501 -0.00000000000E+00 -0.00000000000E+00 -0.25029492313E+03  0.25029492313E+03  0.00000000000E+00 0.  1.
          5    1    1    2  502    0 -0.15370973755E+03 -0.99446981099E+02  0.10500110604E+03  0.21109024169E+03  0.41800000000E+01 0.  1.
         -5    1    1    2    0  502 -0.10547479871E+03 -0.11480585952E+03 -0.21049276215E+02  0.15737173499E+03  0.41800000000E+01 0.  1.
        -11    1    1    2    0    0  0.13453511882E+03  0.54378192240E+02  0.57443755293E+02  0.15606559842E+03  0.00000000000E+00 0.  1.
         11    1    1    2    0    0  0.12464941744E+03  0.15987464838E+03  0.11621628950E+03  0.23367414578E+03  0.00000000000E+00 0. -1.
</event>
<event>
 6    1  0.6447971E-006  0.9419866E+02  0.7561462E-02  0.1292991E+00
          2   -1    0    0  501    0  0.00000000000E+00  0.00000000000E+00  0.56135292635E+03  0.56135292635E+03  0.00000000000E+00 0. -1.
         -2   -1    0    0    0  501 -0.00000000000E+00 -0.00000000000E+00 -0.28906720573E+02  0.28906720573E+02  0.00000000000E+00 0.  1.
          5    1    1    2  502    0  0.16281288601E+02  0.23966592462E+02 -0.71880057665E+00  0.29282537236E+02  0.41800000000E+01 0.  1.
         -5    1    1    2    0  502  0.49752032089E+02  0.26536480880E+02  0.30328127659E+03  0.30850681459E+03  0.41800000000E+01 0.  1.
        -11    1    1    2    0    0 -0.59568909919E+02 -0.86035602278E+01  0.15716971882E+03  0.16829972309E+03  0.00000000000E+00 0.  1.
         11    1    1    2    0    0 -0.64644107701E+01 -0.41899513114E+02  0.72714010937E+02  0.84170572009E+02  0.00000000000E+00 0. -1.
</event>
<event>
 6    1  0.6447971E-006  0.1020195E+03  0.7561462E-02  0.1276106E+00
         -1   -1    0    0    0  501 -0.00000000000E+00  0.00000000000E+00  0.13007930410E+03  0.13007930410E+03  0.00000000000E+00 0.  1.
          1   -1    0    0  501    0  0.00000000000E+00 -0.00000000000E+00 -0.97111123961E+02  0.97111123961E+02  0.00000000000E+00 0. -1.
          5    1    1    2  502    0  0.33847539821E+02 -0.55973876224E+02  0.72465636740E+01  0.65944794007E+02  0.41800000000E+01 0. -1.
         -5    1    1    2    0  502 -0.50378389315E+02  0.34579119153E+02  0.24109349868E+02  0.65821202834E+02  0.41800000000E+01 0. -1.
        -11    1    1    2    0    0  0.39248087838E+02  0.33414636291E+02  0.27940647183E+02  0.58631306333E+02  0.00000000000E+00 0.  1.
         11    1    1    2    0    0 -0.22717238343E+02 -0.12019879219E+02 -0.26328380588E+02  0.36793124885E+02  0.00000000000E+00 0. -1.
</event>
<event>
 6    1  0.6447971E-006  0.1471721E+03  0.7561462E-02  0.1203992E+00
         -1   -1    0    0    0  501 -0.00000000000E+00  0.00000000000E+00  0.90187260460E+03  0.90187260460E+03  0.00000000000E+00 0.  1.
          1   -1    0    0  501    0  0.00000000000E+00 -0.00000000000E+00 -0.36772634514E+02  0.36772634514E+02  0.00000000000E+00 0. -1.
          5    1    1    2  502    0 -0.22204828702E+02  0.28792910358E+02  0.18518415742E+03  0.18876633880E+03  0.41800000000E+01 0. -1.
         -5    1    1    2    0  502 -0.93202400006E+01 -0.12178540721E+03  0.54529022052E+03  0.55881790351E+03  0.41800000000E+01 0. -1.
        -11    1    1    2    0    0  0.60998426355E+02  0.34615810265E+02  0.67270230411E+02  0.97182026310E+02  0.00000000000E+00 0.  1.
         11    1    1    2    0    0 -0.29473357653E+02  0.58376686582E+02  0.67355361731E+02  0.93878970497E+02  0.00000000000E+00 0. -1.
</event>
<event>
 6    1  0.6447971E-006  0.1193057E+03  0.7561462E-02  0.1244247E+00
          2   -1    0    0  501    0  0.00000000000E+00  0.00000000000E+00  0.50287913345E+02  0.50287913345E+02  0.00000000000E+00 0. -1.
         -2   -1    0    0    0  501 -0.00000000000E+00 -0.00000000000E+00 -0.47658037879E+03  0.47658037879E+03  0.00000000000E+00 0.  1.
          5    1    1    2  502    0 -0.15424258437E+02  0.23504924936E+02 -0.23975904160E+03  0.24143790025E+03  0.41800000000E+01 0. -1.
         -5    1    1    2    0  502 -0.58393253033E+02  0.45867088353E+02 -0.48715837992E+02  0.88905945049E+02  0.41800000000E+01 0. -1.
        -11    1    1    2    0    0  0.59004374715E+02  0.57176608576E+01 -0.84607924913E+02  0.10330880330E+03  0.00000000000E+00 0.  1.
         11    1    1    2    0    0  0.14813136755E+02 -0.75089674146E+02 -0.53209660940E+02  0.93215643543E+02  0.00000000000E+00 0. -1.
</event>
<event>
 6    1  0.6447971E-006  0.8290468E+02  0.7561462E-02  0.1321005E+00
          4   -1    0    0  501    0  0.00000000000E+00  0.00000000000E+00  0.56631257675E+02  0.56631257675E+02  0.00000000000E+00 0. -1.
         -4   -1    0    0    0  501 -0.00000000000E+00 -0.00000000000E+00 -0.23515372023E+03  0.23515372023E+03  0.00000000000E+00 0.  1.
          5    1    1    2  502    0  0.57402568812E+02 -0.25105704040E+02 -0.37116727828E+02  0.72941587357E+02  0.41800000000E+01 0. -1.
         -5    1    1    2    0  502 -0.34406323808E+02  0.47799584959E+02 -0.94942552215E+02  0.11180409680E+03  0.41800000000E+01 0. -1.
        -11    1    1    2    0    0  0.26594745060E+01 -0.17622918262E+02  0.25136115215E+02  0.30813379250E+02  0.00000000000E+00 0. -1.
         11    1    1    2    0    0 -0.25655719510E+02 -0.50709626572E+01 -0.71599297726E+02  0.76225914495E+02  0.00000000000E+00 0.  1.
</event>
<event>
 6    1  0.6447971E-006  0.8029355E+02  0.7561462E-02  0.1328220E+00
         -2   -1    0    0    0  501 -0.00000000000E+00  0.00000000000E+00  0.59703358123E+02  0.59703358123E+02  0.00000000000E+00 0.  1.
          2   -1    0    0  501    0  0.00000000000E+00 -0.00000000000E+00 -0.24971490096E+03  0.24971490096E+03  0.00000000000E+00 0. -1.
          5    1    1    2  502    0 -0.30556924284E+02  0.20072585715E+02  0.19565397800E+02  0.41676270347E+02  0.41800000000E+01 0.  1.
         -5    1    1    2    0  502 -0.23320602690E+02 -0.36678256742E+02 -0.12192678791E+03  0.12950968704E+03  0.41800000000E+01 0.  1.
        -11    1    1    2    0    0  0.65656531681E+02  0.18454632315E+02 -0.22226799520E+02  0.71731333622E+02  0.00000000000E+00 0.  1.
         11    1    1    2    0    0 -0.11779004707E+02 -0.18489612871E+01 -0.65423353202E+02  0.66500968067E+02  0.00000000000E+00 0. -1.
</event>
<event>
 6    1  0.6447971E-006  0.8392994E+02  0.7561462E-02  0.1318255E+00
          1   -1    0    0  501    0  0.00000000000E+00  0.00000000000E+00  0.80132960919E+02  0.80132960919E+02  0.00000000000E+00 0. -1.
         -1   -1    0    0    0  501 -0.00000000000E+00 -0.00000000000E+00 -0.17262148204E+03  0.17262148204E+03  0.00000000000E+00 0.  1.
          5    1    1    2  502    0  0.54502516814E+02  0.78491079833E+01 -0.10542594843E+03  0.11901359518E+03  0.41800000000E+01 0.  1.
         -5    1    1    2    0  502 -0.14556141763E+02  0.18156603500E+01  0.29334976265E+02  0.33063440807E+02  0.41800000000E+01 0.  1.
        -11    1    1    2    0    0  0.15627054443E+02  0.26723353496E+02 -0.14598021395E+02  0.34226374060E+02  0.00000000000E+00 0.  1.
         11    1    1    2    0    0 -0.55573429494E+02 -0.36388121829E+02 -0.17995275632E+01  0.66451032915E+02  0.00000000000E+00 0. -1.
</event>
<event>
 6    1  0.6447971E-006  0.9253250E+02  0.7561462E-02  0.1296832E+00
         -2   -1    0    0    0  501 -0.00000000000E+00  0.00000000000E+00  0.80693321173E+02  0.80693321173E+02  0.00000000000E+00 0.  1.
          2   -1    0    0  501    0  0.00000000000E+00 -0.00000000000E+00 -0.16558904266E+03  0.16558904266E+03  0.00000000000E+00 0. -1.
          5    1    1    2  502    0 -0.25635237412E+02 -0.44272863538E+02  0.27917701457E+02  0.58430491164E+02  0.41800000000E+01 0.  1.
         -5    1    1    2    0  502  0.28635275087E+02  0.50370953809E+02 -0.33302279703E+02  0.66960631720E+02  0.41800000000E+01 0.  1.
        -11    1    1    2    0    0  0.14716446479E+02  0.31119722332E+02 -0.37302964416E+01  0.34625511209E+02  0.00000000000E+00 0.  1.
         11    1    1    2    0    0 -0.17716484154E+02 -0.37217812602E+02 -0.75780846801E+02  0.86265729740E+02  0.00000000000E+00 0. -1.
</event>
<event>
 6    1  0.7279402E-006  0.4406116E+03  0.7561462E-02  0.1030559E+00
          2   -1    0    0  501    0  0.00000000000E+00  0.00000000000E+00  0.33365646432E+03  0.33365646432E+03  0.00000000000E+00 0. -1.
         -2   -1    0    0    0  501 -0.00000000000E+00 -0.00000000000E+00 -0.58242535103E+03  0.58242535103E+03  0.00000000000E+00 0.  1.
          5    1    1    2  502    0  0.55454010175E+02  0.23974365564E+02 -0.18527266689E+02  0.63329688612E+02  0.41800000000E+01 0.  1.
         -5    1    1    2    0  502  0.34879715301E+03 -0.16067276417E+03 -0.94349813964E+02  0.39546750927E+03  0.41800000000E+01 0.  1.
        -11    1    1    2    0    0 -0.22629869955E+03  0.12440554287E+03 -0.81894129243E+02  0.27091417261E+03  0.00000000000E+00 0.  1.
         11    1    1    2    0    0 -0.17795246363E+03  0.12292855733E+02 -0.53997676806E+02  0.18637044486E+03  0.00000000000E+00 0. -1.
</event>
<event>
 6    1  0.6447971E-006  0.1172725E+03  0.7561462E-02  0.1247666E+00
         -1   -1    0    0    0  501 -0.00000000000E+00  0.00000000000E+00  0.60126357715E+02  0.60126357715E+02  0.00000000000E+00 0.  1.
          1   -1    0    0  501    0  0.00000000000E+00 -0.00000000000E+00 -0.30489397536E+03  0.30489397536E+03  0.00000000000E+00 0. -1.
          5    1    1    2  502    0  0.47279921020E+02 -0.12457781807E+02 -0.14255680711E+02  0.51100724963E+02  0.41800000000E+01 0. -1.
         -5    1    1    2    0  502 -0.71817622476E+02 -0.58366666807E+02 -0.81235062011E+02  0.12321138905E+03  0.41800000000E+01 0. -1.
        -11    1    1    2    0    0 -0.17699684258E+02  0.23147507724E+02 -0.80496689804E+00  0.29150195683E+02  0.00000000000E+00 0.  1.
         11    1    1    2    0    0  0.42237385714E+02  0.47676940890E+02 -0.14847190803E+03  0.16155802338E+03  0.00000000000E+00 0. -1.
</event>
<event>
 6    1  0.6447971E-006  0.1308033E+03  0.7561462E-02  0.1226269E+00
          3   -1    0    0  501    0  0.00000000000E+00  0.00000000000E+00  0.16614647595E+03  0.16614647595E+03  0.00000000000E+00 0. -1.
         -3   -1    0    0    0  501 -0.00000000000E+00 -0.00000000000E+00 -0.25402796489E+03  0.25402796489E+03  0.00000000000E+00 0.  1.
          5    1    1    2  502    0  0.54362468671E+02  0.92615321252E+01 -0.13022872963E+03  0.14148515257E+03  0.41800000000E+01 0. -1.
         -5    1    1    2    0  502 -0.23108174193E+01  0.85246400903E+02 -0.57575636081E+02  0.10297919700E+03  0.41800000000E+01 0.  1.
        -11    1    1    2    0    0 -0.42416068746E+02 -0.22008995132E+02 -0.47456524692E+01  0.48021245006E+02  0.00000000000E+00 0.  1.
         11    1    1    2    0    0 -0.96355825058E+01 -0.72498937896E+02  0.10466852924E+03  0.12768884626E+03  0.00000000000E+00 0. -1.
</event>
<event>
 6    1  0.6447971E-006  0.1263720E+03  0.7561462E-02  0.1232940E+00
          4   -1    0    0  501    0  0.00000000000E+00  0.00000000000E+00  0.39427424120E+02  0.39427424120E+02  0.00000000000E+00 0. -1.
         -4   -1    0    0    0  501 -0.00000000000E+00 -0.00000000000E+00 -0.60414181302E+03  0.60414181302E+03  0.00000000000E+00 0.  1.
          5    1    1    2  502    0 -0.47673918127E+02 -0.48415188532E+02 -0.12066185512E+03  0.13854092764E+03  0.41800000000E+01 0. -1.
         -5    1    1    2    0  502  0.54304386055E+02 -0.34345506930E+02 -0.33767154191E+03  0.34375590585E+03  0.41800000000E+01 0. -1.
        -11    1    1    2    0    0 -0.89650844101E+01  0.10124810177E+03 -0.96608656537E+02  0.14023117831E+03  0.00000000000E+00 0.  1.
         11    1    1    2    0    0  0.23346164827E+01 -0.18487406311E+02 -0.97723353363E+01  0.21041225348E+02  0.00000000000E+00 0. -1.
</event>
<event>
 6    1  0.6447971E-006  0.6722728E+02  0.7561462E-02  0.1369784E+00
          2   -1    0    0  501    0  0.00000000000E+00  0.00000000000E+00  0.13715822087E+03  0.13715822087E+03  0.00000000000E+00 0. -1.
         -2   -1    0    0    0  501 -0.00000000000E+00 -0.00000000000E+00 -0.94070175602E+02  0.94070175602E+02  0.00000000000E+00 0.  1.
          5    1    1    2  502    0 -0.13869521285E+02 -0.26222436066E+02 -0.39550512940E+02  0.49615473874E+02  0.41800000000E+01 0. -1.
         -5    1    1    2    0  502 -0.19471902638E+02  0.29614632470E+02  0.77520601498E+02  0.85341065762E+02  0.41800000000E+01 0. -1.
        -11    1    1    2    0    0  0.45078272980E+02 -0.19303070682E+02 -0.28904162718E+02  0.56921962853E+02  0.00000000000E+00 0. -1.
         11    1    1    2    0    0 -0.11736849056E+02  0.15910874278E+02  0.34022119428E+02  0.39349893982E+02  0.00000000000E+00 0.  1.
</event>
<event>
 6    1  0.6447971E-006  0.1124420E+03  0.7561462E-02  0.1256113E+00
         -1   -1    0    0    0  501 -0.00000000000E+00  0.00000000000E+00  0.23549121275E+02  0.23549121275E+02  0.00000000000E+00 0.  1.
          1   -1    0    0  501    0  0.00000000000E+00 -0.00000000000E+00 -0.79958457915E+03  0.79958457915E+03  0.00000000000E+00 0. -1.
          5    1    1    2  502    0 -0.36018501145E+02  0.23875905098E+02 -0.22111285544E+03  0.22533476986E+03  0.41800000000E+01 0. -1.
         -5    1    1    2    0  502  0.68388916374E+02  0.46357678601E+02 -0.11615593929E+03  0.14260348130E+03  0.41800000000E+01 0. -1.
        -11    1    1    2    0    0 -0.49163442299E+02 -0.64280764816E+02 -0.42511659423E+03  0.43275071286E+03  0.00000000000E+00 0. -1.
         11    1    1    2    0    0  0.16793027070E+02 -0.59528188834E+01 -0.13650068917E+02  0.22444736405E+02  0.00000000000E+00 0.  1.
</event>
<event>
 6    1  0.6447971E-006  0.1063587E+03  0.7561462E-02  0.1267465E+00
         -2   -1    0    0    0  501 -0.00000000000E+00  0.00000000000E+00  0.22889497531E+02  0.22889497531E+02  0.00000000000E+00 0.  1.
          2   -1    0    0  501    0  0.00000000000E+00 -0.00000000000E+00 -0.62510621474E+03  0.62510621474E+03  0.00000000000E+00 0. -1.
          5    1    1    2  502    0 -0.46018298033E+02  0.66278130514E+02 -0.20242678795E+03  0.21795538814E+03  0.41800000000E+01 0. -1.
         -5    1    1    2    0  502  0.14655639564E+02 -0.41821126301E+02 -0.52944475392E+02  0.69169243531E+02  0.41800000000E+01 0. -1.
        -11    1    1    2    0    0 -0.29872889835E+01  0.26109718530E+02 -0.39087558332E+02  0.47100727314E+02  0.00000000000E+00 0.  1.
         11    1    1    2    0    0  0.34349947452E+02 -0.50566722743E+02 -0.30775789553E+03  0.31377035329E+03  0.00000000000E+00 0. -1.
</event>
<event>
 6    1  0.6447971E-006  0.8529794E+02  0.7561462E-02  0.1314655E+00
         -3   -1    0    0    0  501 -0.00000000000E+00  0.00000000000E+00  0.90104964808E+03  0.90104964808E+03  0.00000000000E+00 0.  1.
          3   -1    0    0  501    0  0.00000000000E+00 -0.00000000000E+00 -0.13933628284E+02  0.13933628284E+02  0.00000000000E+00 0. -1.
          5    1    1    2  502    0  0.14802340443E+01 -0.41500555455E+02  0.52654689654E+03  0.52819844174E+03  0.41800000000E+01 0.  1.
         -5    1    1    2    0  502  0.23880743390E+02  0.27496207250E+02  0.47305623051E+02  0.59846684873E+02  0.41800000000E+01 0.  1.
        -11    1    1    2    0    0 -0.54757084275E+02 -0.81917191079E+01  0.21446670437E+03  0.22149810343E+03  0.00000000000E+00 0.  1.
         11    1    1    2    0    0  0.29396106841E+02  0.22196067313E+02  0.98796795829E+02  0.10544004632E+03  0.00000000000E+00 0. -1.
</event>
<event>
 6    1  0.6447971E-006  0.9528005E+02  0.7561462E-02  0.1290547E+00
         -1   -1    0    0    0  501 -0.00000000000E+00  0.00000000000E+00  0.18774959669E+03  0.18774959669E+03  0.00000000000E+00 0.  1.
          1   -1    0    0  501    0  0.00000000000E+00 -0.00000000000E+00 -0.91020567848E+02  0.91020567848E+02  0.00000000000E+00 0. -1.
          5    1    1    2  502    0  0.41715677376E+02  0.40426143419E+02  0.97308802642E+02  0.11340611219E+03  0.41800000000E+01 0.  1.
         -5    1    1    2    0  502  0.22239000795E+02 -0.49205383089E+02 -0.58291465937E+01  0.54471958211E+02  0.41800000000E+01 0.  1.
        -11    1    1    2    0    0 -0.60169897783E+02  0.22262365306E+02 -0.31567295650E+02  0.71501913700E+02  0.00000000000E+00 0. -1.
         11    1    1    2    0    0 -0.37847803887E+01 -0.13483125636E+02  0.36816668442E+02  0.39390180435E+02  0.00000000000E+00 0.  1.
</event>
<event>
 6    1  0.6447971E-006  0.1165305E+03  0.7561462E-02  0.1248933E+00
          1   -1    0    0  501    0  0.00000000000E+00  0.00000000000E+00  0.44111613866E+02  0.44111613866E+02  0.00000000000E+00 0. -1.
         -1   -1    0    0    0  501 -0.00000000000E+00 -0.00000000000E+00 -0.33206059703E+03  0.33206059703E+03  0.00000000000E+00 0.  1.
          5    1    1    2  502    0  0.15610334431E+02  0.56982135248E+02 -0.92390800207E+02  0.10974597323E+03  0.41800000000E+01 0.  1.
         -5    1    1    2    0  502  0.40293072239E+02 -0.63747984621E+02 -0.71827810513E+02  0.10423072473E+03  0.41800000000E+01 0.  1.
        -11    1    1    2    0    0  0.16633530467E+02 -0.15178278768E+02 -0.56750742788E+02  0.61054903891E+02  0.00000000000E+00 0.  1.
         11    1    1    2    0    0 -0.72536937137E+02  0.21944128142E+02 -0.66979629661E+02  0.10114060905E+03  0.00000000000E+00 0. -1.
</event>
<event>
 6    1  0.6447971E-006  0.7347902E+02  0.7561462E-02  0.1348647E+00
          1   -1    0    0  501    0  0.00000000000E+00  0.00000000000E+00  0.14001172077E+03  0.14001172077E+03  0.00000000000E+00 0. -1.
         -1   -1    0    0    0  501 -0.00000000000E+00 -0.00000000000E+00 -0.97061980016E+02  0.97061980016E+02  0.00000000000E+00 0.  1.
          5    1    1    2  502    0 -0.36528137303E+02 -0.19942091805E+02 -0.53343708198E+02  0.67786543242E+02  0.41800000000E+01 0.  1.
         -5    1    1    2    0  502  0.26518239746E+02 -0.13167575611E+02  0.54318603577E+02  0.62004719024E+02  0.41800000000E+01 0.  1.
        -11    1    1    2    0    0  0.38689340216E+02  0.21743885144E+02  0.57589472168E+02  0.72706319479E+02  0.00000000000E+00 0. -1.
         11    1    1    2    0    0 -0.28679442659E+02  0.11365782272E+02 -0.15614626795E+02  0.34576119040E+02  0.00000000000E+00 0.  1.
</event>
<event>
 6    1  0.6447971E-006  0.1452970E+03  0.7561462E-02  0.1206374E+00
         -2   -1    0    0    0  501 -0.00000000000E+00  0.00000000000E+00  0.59551103232E+02  0.59551103232E+02  0.00000000000E+00 0.  1.
          2   -1    0    0  501    0  0.00000000000E+00 -0.00000000000E+00 -0.48818635320E+03  0.48818635320E+03  0.00000000000E+00 0. -1.
          5    1    1    2  502    0  0.26549503458E+02  0.61205047660E+02 -0.13464661510E+03  0.15032670205E+03  0.41800000000E+01 0. -1.
         -5    1    1    2    0  502  0.60146839419E+02 -0.80471333738E+02 -0.30434481233E+02  0.10505716488E+03  0.41800000000E+01 0.  1.
        -11    1    1    2    0    0 -0.11065112046E+02  0.42626268413E+02 -0.64140206031E+02  0.77803608484E+02  0.00000000000E+00 0.  1.
         11    1    1    2    0    0 -0.75631230831E+02 -0.23359982334E+02 -0.19941394760E+03  0.21454998101E+03  0.00000000000E+00 0. -1.
</event>
<event>
 6    1  0.6447971E-006  0.9429633E+02  0.7561462E-02  0.1292769E+00
          2   -1    0    0  501    0  0.00000000000E+00  0.00000000000E+00  0.29949203122E+02  0.29949203122E+02  0.00000000000E+00 0.  1.
         -2   -1    0    0    0  501 -0.00000000000E+00 -0.00000000000E+00 -0.63276498576E+03  0.63276498576E+03  0.00000000000E+00 0. -1.
          5    1    1    2  502    0  0.22887838720E+02  0.62198111638E+02 -0.48069140842E+03  0.48525679880E+03  0.41800000000E+01 0. -1.
         -5    1    1    2    0  502 -0.16557469623E+02 -0.73609958928E+01 -0.49193328847E+01  0.19235547740E+02  0.41800000000E+01 0. -1.
        -11    1    1    2    0    0  0.18581715578E+02  0.18449048927E+02 -0.46599885221E+02  0.53452753556E+02  0.00000000000E+00 0. -1.
         11    1    1    2    0    0 -0.24912084675E+02 -0.73286164673E+02 -0.70605156112E+02  0.10476908879E+03  0.00000000000E+00 0.  1.
</event>
<event>
 6    1  0.6447971E-006  0.8619498E+02  0.7561462E-02  0.1312337E+00
          2   -1    0    0  501    0  0.00000000000E+00  0.00000000000E+00  0.28390896098E+03  0.28390896098E+03  0.00000000000E+00 0. -1.
         -2   -1    0    0    0  501 -0.00000000000E+00 -0.00000000000E+00 -0.49999476215E+02  0.49999476215E+02  0.00000000000E+00 0.  1.
          5    1    1    2  502    0 -0.57465587454E+02 -0.25383000837E+02  0.14510973951E+02  0.64611386287E+02  0.41800000000E+01 0.  1.
         -5    1    1    2    0  502  0.11101454721E+02  0.18257518395E+02  0.13152991047E+03  0.13331979981E+03  0.41800000000E+01 0.  1.
        -11    1    1    2    0    0  0.42707224087E+02 -0.28822299079E+02  0.85426755775E+02  0.99761528234E+02  0.00000000000E+00 0. -1.
         11    1    1    2    0    0  0.36569086463E+01  0.35947781521E+02  0.24418445689E+01  0.36215722857E+02  0.00000000000E+00 0.  1.
</event>
<event>
 6    1  0.6447971E-006  0.1257834E+03  0.7561462E-02  0.1233850E+00
         -1   -1    0    0    0  501 -0.00000000000E+00  0.00000000000E+00  0.11160625805E+03  0.11160625805E+03  0.00000000000E+00 0.  1.
          1   -1    0    0  501    0  0.00000000000E+00 -0.00000000000E+00 -0.14815584743E+03  0.14815584743E+03  0.00000000000E+00 0. -1.
          5    1    1    2  502    0 -0.44624416870E+01  0.44870029947E+02  0.10017428126E+02  0.46379459242E+02  0.41800000000E+01 0. -1.
         -5    1    1    2    0  502  0.68861596779E+02 -0.64970278717E+02 -0.14054989888E+02  0.95802253462E+02  0.41800000000E+01 0. -1.
        -11    1    1    2    0    0  0.16788052913E+02  0.25075933790E+02 -0.53659298083E+00  0.30181602145E+02  0.00000000000E+00 0.  1.
         11    1    1    2    0    0 -0.81187208005E+02 -0.49756850197E+01 -0.31975434636E+02  0.87398790640E+02  0.00000000000E+00 0. -1.
</event>
<event>
 6    1  0.6447971E-006  0.9540069E+02  0.7561462E-02  0.1290276E+00
          2   -1    0    0  501    0  0.00000000000E+00  0.00000000000E+00  0.34546462423E+03  0.34546462423E+03  0.00000000000E+00 0. -1.
         -2   -1    0    0    0  501 -0.00000000000E+00 -0.00000000000E+00 -0.45668053029E+02  0.45668053029E+02  0.00000000000E+00 0.  1.
          5    1    1    2  502    0  0.26645095282E+02 -0.52187697501E+02  0.45018111272E+02  0.74010942539E+02  0.41800000000E+01 0.  1.
         -5    1    1    2    0  502  0.29680444704E+02  0.67088772283E+02  0.12455234369E+03  0.14461186287E+03  0.41800000000E+01 0.  1.
        -11    1    1    2    0    0 -0.21764796037E+02 -0.88231011480E+01  0.13506062294E+03  0.13708729091E+03  0.00000000000E+00 0. -1.
         11    1    1    2    0    0 -0.34560743949E+02 -0.60779736339E+01 -0.48345066955E+01  0.35422580945E+02  0.00000000000E+00 0.  1.
</event>
<event>
 6    1  0.6447971E-006  0.9132116E+02  0.7561462E-02  0.1299683E+00
          1   -1    0    0  501    0  0.00000000000E+00  0.00000000000E+00  0.11970981774E+03  0.11970981774E+03  0.00000000000E+00 0. -1.
         -1   -1    0    0    0  501 -0.00000000000E+00 -0.00000000000E+00 -0.11504427218E+03  0.11504427218E+03  0.00000000000E+00 0.  1.
          5    1    1    2  502    0 -0.54567590537E+02 -0.51116197932E+02 -0.14350668355E+00  0.74886451526E+02  0.41800000000E+01 0.  1.
         -5    1    1    2    0  502  0.21226068882E+02  0.46743977878E+02 -0.24204680664E+02  0.56911197791E+02  0.41800000000E+01 0.  1.
        -11    1    1    2    0    0  0.37678157225E+02  0.18137432964E+02  0.57456073186E+02  0.71062017649E+02  0.00000000000E+00 0. -1.
         11    1    1    2    0    0 -0.43366355697E+01 -0.13765212910E+02 -0.28442340279E+02  0.31894422946E+02  0.00000000000E+00 0.  1.
</event>
<event>
 6    1  0.6447971E-006  0.1144493E+03  0.7561462E-02  0.1252546E+00
          1   -1    0    0  501    0  0.00000000000E+00  0.00000000000E+00  0.21422116735E+03  0.21422116735E+03  0.00000000000E+00 0. -1.
         -1   -1    0    0    0  501 -0.00000000000E+00 -0.00000000000E+00 -0.20896158383E+03  0.20896158383E+03  0.00000000000E+00 0.  1.
          5    1    1    2  502    0  0.25253829632E+02  0.27229225202E+02 -0.80994706101E+02  0.89200904887E+02  0.41800000000E+01 0.  1.
         -5    1    1    2    0  502 -0.61329877831E+02 -0.70761760193E+02 -0.88507462784E+02  0.12891712062E+03  0.41800000000E+01 0.  1.
        -11    1    1    2    0    0 -0.13565267962E+02  0.46130256069E+02  0.44013994174E+02  0.65186261613E+02  0.00000000000E+00 0.  1.
         11    1    1    2    0    0  0.49641316161E+02 -0.25977210776E+01  0.13074775823E+03  0.13987846406E+03  0.00000000000E+00 0. -1.
</event>
<event>
 6    1  0.6447971E-006  0.8863200E+02  0.7561462E-02  0.1306199E+00
         -1   -1    0    0    0  501 -0.00000000000E+00  0.00000000000E+00  0.77242198270E+02  0.77242198270E+02  0.00000000000E+00 0.  1.
          1   -1    0    0  501    0  0.00000000000E+00 -0.00000000000E+00 -0.17618841583E+03  0.17618841583E+03  0.00000000000E+00 0. -1.
          5    1    1    2  502    0 -0.44530216909E+02  0.41655247988E+02 -0.77898930395E+02  0.99014219482E+02  0.41800000000E+01 0.  1.
         -5    1    1    2    0  502  0.28205147155E+02 -0.29103414026E+01  0.29890798591E+02  0.41411745356E+02  0.41800000000E+01 0.  1.
        -11    1    1    2    0    0 -0.30051142172E+02 -0.58239574649E+01  0.74414415844E+01  0.31501820253E+02  0.00000000000E+00 0.  1.
         11    1    1    2    0    0  0.46376211927E+02 -0.32920949121E+02 -0.58379527335E+02  0.81502829004E+02  0.00000000000E+00 0. -1.
</event>
<event>
 6    1  0.6447971E-006  0.1363334E+03  0.7561462E-02  0.1218350E+00
          2   -1    0    0  501    0  0.00000000000E+00  0.00000000000E+00  0.15885201267E+03  0.15885201267E+03  0.00000000000E+00 0. -1.
         -2   -1    0    0    0  501 -0.00000000000E+00 -0.00000000000E+00 -0.14372042869E+03  0.14372042869E+03  0.00000000000E+00 0.  1.
          5    1    1    2  502    0 -0.71575475762E+02  0.30123346199E+02 -0.37046483830E+02  0.86141622233E+02  0.41800000000E+01 0. -1.
         -5    1    1    2    0  502  0.35443428538E+02  0.62952204256E+02  0.19288236444E+02  0.74891422155E+02  0.41800000000E+01 0. -1.
        -11    1    1    2    0    0 -0.21173901153E+02 -0.35261294778E+02  0.43008476425E+02  0.59509848293E+02  0.00000000000E+00 0. -1.
         11    1    1    2    0    0  0.57305948378E+02 -0.57814255678E+02 -0.10118645058E+02  0.82029548682E+02  0.00000000000E+00 0.  1.
</event>
<event>
 6    1  0.6447971E-006  0.1131653E+03  0.7561462E-02  0.1254818E+00
         -2   -1    0    0    0  501 -0.00000000000E+00  0.00000000000E+00  0.17075673426E+02  0.17075673426E+02  0.00000000000E+00 0.  1.
          2   -1    0    0  501    0  0.00000000000E+00 -0.00000000000E+00 -0.79566691863E+03  0.79566691863E+03  0.00000000000E+00 0. -1.
          5    1    1    2  502    0  0.54667659245E+02 -0.31259657209E+01 -0.14111857039E+03  0.15142736852E+03  0.41800000000E+01 0. -1.
         -5    1    1    2    0  502 -0.64843355525E+02  0.37372142798E+02 -0.21823792269E+03  0.23075225050E+03  0.41800000000E+01 0. -1.
        -11    1    1    2    0    0  0.15098365852E+02  0.29171495133E+02 -0.10756376066E+03  0.11246732586E+03  0.00000000000E+00 0. -1.
         11    1    1    2    0    0 -0.49226695724E+01 -0.63417672210E+02 -0.31167099147E+03  0.31809564717E+03  0.00000000000E+00 0.  1.
</event>
<event>
 6    1  0.6447971E-006  0.1146092E+03  0.7561462E-02  0.1252265E+00
         -3   -1    0    0    0  501 -0.00000000000E+00  0.00000000000E+00  0.17185634649E+03  0.17185634649E+03  0.00000000000E+00 0.  1.
          3   -1    0    0  501    0  0.00000000000E+00 -0.00000000000E+00 -0.14122658341E+03  0.14122658341E+03  0.00000000000E+00 0. -1.
          5    1    1    2  502    0 -0.21231342491E+02  0.41267649041E+02  0.49225149395E+02  0.67781830119E+02  0.41800000000E+01 0. -1.
         -5    1    1    2    0  502  0.28366935846E+02 -0.78887153447E+02  0.72523839141E+02  0.11092811038E+03  0.41800000000E+01 0. -1.
        -11    1    1    2    0    0 -0.48773072242E+02  0.26858767685E+02 -0.53985134650E+02  0.77553857033E+02  0.00000000000E+00 0.  1.
         11    1    1    2    0    0  0.41637478887E+02  0.10760736720E+02 -0.37134090808E+02  0.56819132367E+02  0.00000000000E+00 0. -1.
</event>
<event>
 6    1  0.6447971E-006  0.4144031E+03  0.7561462E-02  0.1038903E+00
          2   -1    0    0  501    0  0.00000000000E+00  0.00000000000E+00  0.10212702808E+04  0.10212702808E+04  0.00000000000E+00 0.  1.
         -2   -1    0    0    0  501 -0.00000000000E+00 -0.00000000000E+00 -0.17446131845E+03  0.17446131845E+03  0.00000000000E+00 0. -1.
          5    1    1    2  502    0  0.82813560239E+02  0.26298130199E+03  0.21378899836E+03  0.34891325451E+03  0.41800000000E+01 0.  1.
         -5    1    1    2    0  502  0.11272522799E+03  0.92731297707E+02  0.16339583070E+03  0.21913863304E+03  0.41800000000E+01 0.  1.
        -11    1    1    2    0    0 -0.49931166940E+02 -0.65671242826E+02  0.15543603444E+03  0.17597214089E+03  0.00000000000E+00 0.  1.
         11    1    1    2    0    0 -0.14560762129E+03 -0.29004135687E+03  0.31418809889E+03  0.45170757084E+03  0.00000000000E+00 0. -1.
</event>
<event>
 6    1  0.6447971E-006  0.1301083E+03  0.7561462E-02  0.1227295E+00
         -1   -1    0    0    0  501 -0.00000000000E+00  0.00000000000E+00  0.38634598064E+03  0.38634598064E+03  0.00000000000E+00 0.  1.
          1   -1    0    0  501    0  0.00000000000E+00 -0.00000000000E+00 -0.52615915115E+02  0.52615915115E+02  0.00000000000E+00 0. -1.
          5    1    1    2  502    0 -0.27412406668E+02  0.17479779283E+02  0.44040657238E+02  0.54900224162E+02  0.41800000000E+01 0.  1.
         -5    1    1    2    0  502  0.12101415642E+03 -0.18462248999E+02  0.11395943697E+03  0.16730064664E+03  0.41800000000E+01 0.  1.
        -11    1    1    2    0    0 -0.88028473476E+02  0.15517028696E+02  0.17969371363E+03  0.20069783517E+03  0.00000000000E+00 0.  1.
         11    1    1    2    0    0 -0.55732762753E+01 -0.14534558980E+02 -0.39637423059E+01  0.16063189791E+02  0.00000000000E+00 0. -1.
</event>
<event>
 6    1  0.6447971E-006  0.1104093E+03  0.7561462E-02  0.1259814E+00
         -1   -1    0    0    0  501 -0.00000000000E+00  0.00000000000E+00  0.46046593296E+03  0.46046593296E+03  0.00000000000E+00 0.  1.
          1   -1    0    0  501    0  0.00000000000E+00 -0.00000000000E+00 -0.29351971050E+02  0.29351971050E+02  0.00000000000E+00 0. -1.
          5    1    1    2  502    0 -0.27738179877E+02  0.65815945378E+02  0.18431024517E+03  0.19770908973E+03  0.41800000000E+01 0. -1.
         -5    1    1    2    0  502  0.44882429119E+02 -0.25088803563E+02  0.12761929710E+03  0.13765187213E+03  0.41800000000E+01 0.  1.
        -11    1    1    2    0    0 -0.52913785880E+02 -0.21934176955E+02  0.61664692309E+02  0.84163597431E+02  0.00000000000E+00 0. -1.
         11    1    1    2    0    0  0.35769536638E+02 -0.18792964861E+02  0.57519727331E+02  0.70293344719E+02  0.00000000000E+00 0.  1.
</event>
<event>
 6    1  0.6447971E-006  0.8995055E+02  0.7561462E-02  0.1302971E+00
          1   -1    0    0  501    0  0.00000000000E+00  0.00000000000E+00  0.45206882398E+03  0.45206882398E+03  0.00000000000E+00 0. -1.
         -1   -1    0    0    0  501 -0.00000000000E+00 -0.00000000000E+00 -0.26258498437E+02  0.26258498437E+02  0.00000000000E+00 0.  1.
          5    1    1    2  502    0 -0.27737721023E+02  0.77143311800E+01  0.14647944454E+02  0.32571870530E+02  0.41800000000E+01 0. -1.
         -5    1    1    2    0  502  0.63479274343E+02 -0.10919187403E+02  0.24025179581E+03  0.24877147086E+03  0.41800000000E+01 0.  1.
        -11    1    1    2    0    0  0.24565332155E+02 -0.59195212467E+01  0.10142985773E+03  0.10452995893E+03  0.00000000000E+00 0.  1.
         11    1    1    2    0    0 -0.60306885475E+02  0.91243774697E+01  0.69480727550E+02  0.92454022091E+02  0.00000000000E+00 0. -1.
</event>
<event>
 6    1  0.6447971E-006  0.1190447E+03  0.7561462E-02  0.1244681E+00
          2   -1    0    0  501    0  0.00000000000E+00  0.00000000000E+00  0.53285488154E+03  0.53285488154E+03  0.00000000000E+00 0. -1.
         -2   -1    0    0    0  501 -0.00000000000E+00 -0.00000000000E+00 -0.42153348826E+02  0.42153348826E+02  0.00000000000E+00 0.  1.
          5    1    1    2  502    0 -0.59190654541E+02  0.56712883248E+02  0.13275684912E+03  0.15608247211E+03  0.41800000000E+01 0. -1.
         -5    1    1    2    0  502  0.93844477815E+01 -0.54203303396E+02  0.99101431702E+01  0.56051309502E+02  0.41800000000E+01 0.  1.
        -11    1    1    2    0    0  0.74204573652E+02  0.72584857370E+01  0.28475904823E+03  0.29435814906E+03  0.00000000000E+00 0. -1.
         11    1    1    2    0    0 -0.24398366893E+02 -0.97680655889E+01  0.63275492196E+02  0.68516299704E+02  0.00000000000E+00 0.  1.
</event>
<event>
 6    1  0.6447971E-006  0.1496945E+03  0.7561462E-02  0.1200849E+00
         -4   -1    0    0    0  501 -0.00000000000E+00  0.00000000000E+00  0.17208125081E+03  0.17208125081E+03  0.00000000000E+00 0.  1.
          4   -1    0    0  501    0  0.00000000000E+00 -0.00000000000E+00 -0.17244636205E+03  0.17244636205E+03  0.00000000000E+00 0. -1.
          5    1    1    2  502    0 -0.48791054201E+02  0.26672537042E+02  0.54020666456E+02  0.77638238044E+02  0.41800000000E+01 0.  1.
         -5    1    1    2    0  502 -0.36901591340E+02 -0.96379351773E+02  0.21355919002E+02  0.10547158180E+03  0.41800000000E+01 0.  1.
        -11    1    1    2    0    0  0.10351853901E+03  0.54954351301E+02 -0.73099064496E+02  0.13812871489E+03  0.00000000000E+00 0.  1.
         11    1    1    2    0    0 -0.17825893472E+02  0.14752463429E+02 -0.26426322032E+01  0.23289078133E+02  0.00000000000E+00 0. -1.
</event>
<event>
 6    1  0.6447971E-006  0.9484289E+02  0.7561462E-02  0.1291530E+00
          2   -1    0    0  501    0  0.00000000000E+00  0.00000000000E+00  0.51273562213E+03  0.51273562213E+03  0.00000000000E+00 0.  1.
         -2   -1    0    0    0  501 -0.00000000000E+00 -0.00000000000E+00 -0.24536477952E+02  0.24536477952E+02  0.00000000000E+00 0. -1.
          5    1    1    2  502    0  0.40492520573E+02  0.16805462726E+02  0.22846090591E+03  0.23266698462E+03  0.41800000000E+01 0. -1.
         -5    1    1    2    0  502 -0.48973766265E+02  0.33994337306E+01  0.37027598635E+02  0.61631983520E+02  0.41800000000E+01 0. -1.
        -11    1    1    2    0    0  0.32736253224E+02  0.27568585272E+02  0.83998527231E+02  0.94273229212E+02  0.00000000000E+00 0. -1.
         11    1    1    2    0    0 -0.24255007532E+02 -0.47773481729E+02  0.13871211240E+03  0.14869990273E+03  0.00000000000E+00 0.  1.
</event>
<event>
 6    1  0.6447971E-006  0.9683252E+02  0.7561462E-02  0.1287101E+00
         -1   -1    0    0    0  501 -0.00000000000E+00  0.00000000000E+00  0.26493399945E+03  0.26493399945E+03  0.00000000000E+00 0.  1.
          1   -1    0    0  501    0  0.00000000000E+00 -0.00000000000E+00 -0.84576429564E+02  0.84576429564E+02  0.00000000000E+00 0. -1.
          5    1    1    2  502    0 -0.13506994306E+02  0.13973224717E+02  0.16299003218E+03  0.16419778589E+03  0.41800000000E+01 0.  1.
         -5    1    1    2    0  502  0.67014664667E+02 -0.13125499439E+02  0.37267405387E+02  0.77907483082E+02  0.41800000000E+01 0.  1.
        -11    1    1    2    0    0  0.13377692122E+02  0.29144842715E+02 -0.32239566155E+01  0.32230085318E+02  0.00000000000E+00 0. -1.
         11    1    1    2    0    0 -0.66885362482E+02 -0.29992567993E+02 -0.16675911062E+02  0.75175074719E+02  0.00000000000E+00 0.  1.
</event>
<event>
 6    1  0.6447971E-006  0.9871152E+02  0.7561462E-02  0.1283029E+00
         -2   -1    0    0    0  501 -0.00000000000E+00  0.00000000000E+00  0.28934256142E+02  0.28934256142E+02  0.00000000000E+00 0.  1.
          2   -1    0    0  501    0  0.00000000000E+00 -0.00000000000E+00 -0.41941289869E+03  0.41941289869E+03  0.00000000000E+00 0. -1.
          5    1    1    2  502    0 -0.49179761752E+02 -0.95563080656E+01 -0.14890047096E+03  0.15715850165E+03  0.41800000000E+01 0.  1.
         -5    1    1    2    0  502  0.54176135114E+02  0.22335952127E+02 -0.45023311315E+02  0.74017020577E+02  0.41800000000E+01 0.  1.
        -11    1    1    2    0    0  0.26441535647E+02 -0.39234511262E+02 -0.73249983902E+02  0.87201271912E+02  0.00000000000E+00 0.  1.
         11    1    1    2    0    0 -0.31437909009E+02  0.26454867201E+02 -0.12330487637E+03  0.12997036069E+03  0.00000000000E+00 0. -1.
</event>
<event>
 6    1  0.6447971E-006  0.1926555E+03  0.7561462E-02  0.1156088E+00
         -2   -1    0    0    0  501 -0.00000000000E+00  0.00000000000E+00  0.24555565387E+04  0.24555565387E+04  0.00000000000E+00 0. -1.
          2   -1    0    0  501    0  0.00000000000E+00 -0.00000000000E+00 -0.17155809643E+02  0.17155809643E+02  0.00000000000E+00 0.  1.
          5    1    1    2  502    0 -0.81348454102E+02 -0.10871501365E+03  0.10336721796E+04  0.10425603928E+04  0.41800000000E+01 0. -1.
         -5    1    1    2    0  502 -0.58084006633E+02  0.30509600022E+02  0.64414794117E+03  0.64749411583E+03  0.41800000000E+01 0. -1.
        -11    1    1    2    0    0  0.97937698399E+02  0.31824417140E+01  0.36780269261E+03  0.38063202886E+03  0.00000000000E+00 0. -1.
         11    1    1    2    0    0  0.41494762337E+02  0.75022971919E+02  0.39277791563E+03  0.40202581089E+03  0.00000000000E+00 0.  1.
</event>
<event>
 6    1  0.6447971E-006  0.1094142E+03  0.7561462E-02  0.1261659E+00
          3   -1    0    0  501    0  0.00000000000E+00  0.00000000000E+00  0.12402164677E+03  0.12402164677E+03  0.00000000000E+00 0. -1.
         -3   -1    0    0    0  501 -0.00000000000E+00 -0.00000000000E+00 -0.14448119234E+03  0.14448119234E+03  0.00000000000E+00 0.  1.
          5    1    1    2  502    0  0.43992196805E+02  0.53508595725E+02  0.22908844379E+02  0.73080577085E+02  0.41800000000E+01 0.  1.
         -5    1    1    2    0  502  0.26015914968E+02 -0.36326014782E+02 -0.61918252664E+02  0.76470579928E+02  0.41800000000E+01 0.  1.
        -11    1    1    2    0    0  0.83352932563E+01 -0.24491862537E+02  0.29804837197E+02  0.39467160584E+02  0.00000000000E+00 0. -1.
         11    1    1    2    0    0 -0.78343405030E+02  0.73092815939E+01 -0.11254974485E+02  0.79484521510E+02  0.00000000000E+00 0.  1.
</event>
<event>
 6    1  0.6447971E-006  0.1535247E+03  0.7561462E-02  0.1196208E+00
          3   -1    0    0  501    0  0.00000000000E+00  0.00000000000E+00  0.30815005486E+03  0.30815005486E+03  0.00000000000E+00 0. -1.
         -3   -1    0    0    0  501 -0.00000000000E+00 -0.00000000000E+00 -0.76945124342E+02  0.76945124342E+02  0.00000000000E+00 0.  1.
          5    1    1    2  502    0 -0.78915727213E+02  0.11219629885E+03  0.10348210191E+03  0.17187704702E+03  0.41800000000E+01 0.  1.
         -5    1    1    2    0  502  0.12151109413E+02 -0.25405495235E+02  0.14244127046E+02  0.31834826894E+02  0.41800000000E+01 0.  1.
        -11    1    1    2    0    0  0.24825023259E+01 -0.76147272512E+02  0.65399234840E+02  0.10040731969E+03  0.00000000000E+00 0. -1.
         11    1    1    2    0    0  0.64282115475E+02 -0.10643531098E+02  0.48079466720E+02  0.80975985602E+02  0.00000000000E+00 0.  1.
</event>
<event>
 6    1  0.6447971E-006  0.1347281E+03  0.7561462E-02  0.1220604E+00
          1   -1    0    0  501    0  0.00000000000E+00  0.00000000000E+00  0.89510727269E+02  0.89510727269E+02  0.00000000000E+00 0. -1.
         -1   -1    0    0    0  501 -0.00000000000E+00 -0.00000000000E+00 -0.26458301739E+03  0.26458301739E+03  0.00000000000E+00 0.  1.
          5    1    1    2  502    0 -0.48843695090E+02 -0.25183271137E+02 -0.46809149742E+02  0.72308177924E+02  0.41800000000E+01 0. -1.
         -5    1    1    2    0  502  0.75818478686E+02 -0.53025460829E+02 -0.12851454615E+03  0.15840960255E+03  0.41800000000E+01 0. -1.
        -11    1    1    2    0    0  0.32644602165E+02  0.19342013658E+02 -0.92478305975E+01  0.39055165005E+02  0.00000000000E+00 0.  1.
         11    1    1    2    0    0 -0.59619385760E+02  0.58866718309E+02  0.94992363720E+01  0.84320799181E+02  0.00000000000E+00 0. -1.
</event>
<event>
 6    1  0.6447971E-006  0.9087533E+02  0.7561462E-02  0.1300746E+00
         -2   -1    0    0    0  501 -0.00000000000E+00  0.00000000000E+00  0.17278506444E+02  0.17278506444E+02  0.00000000000E+00 0.  1.
          2   -1    0    0  501    0  0.00000000000E+00 -0.00000000000E+00 -0.74776310458E+03  0.74776310458E+03  0.00000000000E+00 0. -1.
          5    1    1    2  502    0 -0.50088250134E+02 -0.28369546123E+02 -0.91466975678E+02  0.10815426015E+03  0.41800000000E+01 0.  1.
         -5    1    1    2    0  502  0.16125953291E+02  0.25604751933E+02 -0.36765114740E+03  0.36891799668E+03  0.41800000000E+01 0.  1.
        -11    1    1    2    0    0  0.44889147110E+02 -0.33243165690E+02 -0.19488529459E+03  0.20273238922E+03  0.00000000000E+00 0.  1.
         11    1    1    2    0    0 -0.10926850268E+02  0.36007959880E+02 -0.76481180474E+02  0.85236964975E+02  0.00000000000E+00 0. -1.
</event>
<event>
 6    1  0.6447971E-006  0.1158148E+03  0.7561462E-02  0.1250165E+00
          1   -1    0    0  501    0  0.00000000000E+00  0.00000000000E+00  0.28867803294E+03  0.28867803294E+03  0.00000000000E+00 0. -1.
         -1   -1    0    0    0  501 -0.00000000000E+00 -0.00000000000E+00 -0.90050479773E+02  0.90050479773E+02  0.00000000000E+00 0.  1.
          5    1    1    2  502    0  0.44932730681E+02  0.56971571918E+02 -0.23029979753E+02  0.76240164354E+02  0.41800000000E+01 0.  1.
         -5    1    1    2    0  502 -0.10408915415E+01 -0.58282332050E+02 -0.72394915785E+00  0.58445788444E+02  0.41800000000E+01 0.  1.
        -11    1    1    2    0    0 -0.69019655034E+02 -0.14895961264E+02  0.15508573910E+03  0.17040301909E+03  0.00000000000E+00 0.  1.
         11    1    1    2    0    0  0.25127815894E+02  0.16206721396E+02  0.67295742983E+02  0.73639540830E+02  0.00000000000E+00 0. -1.
</event>
<event>
 6    1  0.6447971E-006  0.1423285E+03  0.7561462E-02  0.1210230E+00
          1   -1    0    0  501    0  0.00000000000E+00  0.00000000000E+00  0.67427308422E+03  0.67427308422E+03  0.00000000000E+00 0. -1.
         -1   -1    0    0    0  501 -0.00000000000E+00 -0.00000000000E+00 -0.35028868551E+02  0.35028868551E+02  0.00000000000E+00 0.  1.
          5    1    1    2  502    0 -0.24758927687E+02 -0.10708891227E+02  0.17264921789E+03  0.17479390633E+03  0.41800000000E+01 0.  1.
         -5    1    1    2    0  502 -0.33327711973E+01  0.11585568374E+03  0.16884398619E+03  0.20483996409E+03  0.41800000000E+01 0.  1.
        -11    1    1    2    0    0  0.18579768177E+02  0.13111437623E+02  0.53286037503E+02  0.57935475961E+02  0.00000000000E+00 0. -1.
         11    1    1    2    0    0  0.95119307071E+01 -0.11825823013E+03  0.24446497409E+03  0.27173260640E+03  0.00000000000E+00 0.  1.
</event>
<event>
 6    1  0.6447971E-006  0.4562351E+02  0.7561462E-02  0.1470486E+00
          1   -1    0    0  501    0  0.00000000000E+00  0.00000000000E+00  0.14613030834E+03  0.14613030834E+03  0.00000000000E+00 0. -1.
         -1   -1    0    0    0  501 -0.00000000000E+00 -0.00000000000E+00 -0.84351199085E+02  0.84351199085E+02  0.00000000000E+00 0.  1.
          5    1    1    2  502    0 -0.12330383697E+02  0.39408796933E+01 -0.60049125166E+02  0.61570599543E+02  0.41800000000E+01 0.  1.
         -5    1    1    2    0  502  0.11411029265E+02  0.39680166411E+01  0.62504567515E+02  0.63798511779E+02  0.41800000000E+01 0.  1.
        -11    1    1    2    0    0  0.30782932917E+02 -0.14884482865E+02 -0.43208415802E+01  0.34464568198E+02  0.00000000000E+00 0.  1.
         11    1    1    2    0    0 -0.29863578485E+02  0.69755865309E+01  0.63644508490E+02  0.70647827909E+02  0.00000000000E+00 0. -1.
</event>
<event>
 6    1  0.6447971E-006  0.9256154E+02  0.7561462E-02  0.1296764E+00
         -1   -1    0    0    0  501 -0.00000000000E+00  0.00000000000E+00  0.75654441821E+02  0.75654441821E+02  0.00000000000E+00 0.  1.
          1   -1    0    0  501    0  0.00000000000E+00 -0.00000000000E+00 -0.16962488280E+03  0.16962488280E+03  0.00000000000E+00 0. -1.
          5    1    1    2  502    0  0.44638278290E+02 -0.23043730073E+02 -0.37704186032E+02  0.62949721435E+02  0.41800000000E+01 0.  1.
         -5    1    1    2    0  502 -0.67104811101E+02  0.68975027621E+01  0.94627415712E+01  0.68246956675E+02  0.41800000000E+01 0.  1.
        -11    1    1    2    0    0 -0.20516108036E+02  0.12419735662E+02  0.10743730944E+02  0.26279046358E+02  0.00000000000E+00 0.  1.
         11    1    1    2    0    0  0.42982640848E+02  0.37264916489E+01 -0.76472727466E+02  0.87803600156E+02  0.00000000000E+00 0. -1.
</event>
<event>
 6    1  0.6447971E-006  0.1100330E+03  0.7561462E-02  0.1260509E+00
          1   -1    0    0  501    0  0.00000000000E+00  0.00000000000E+00  0.51271001471E+03  0.51271001471E+03  0.00000000000E+00 0. -1.
         -1   -1    0    0    0  501 -0.00000000000E+00 -0.00000000000E+00 -0.34237547242E+02  0.34237547242E+02  0.00000000000E+00 0.  1.
          5    1    1    2  502    0 -0.63264960155E+02 -0.36953344516E+02  0.11258377148E+03  0.13438966796E+03  0.41800000000E+01 0. -1.
         -5    1    1    2    0  502  0.52282670881E+02 -0.87761273858E+01  0.30102548591E+02  0.61107560236E+02  0.41800000000E+01 0. -1.
        -11    1    1    2    0    0  0.36193981593E+02 -0.53036076647E+01  0.63542049154E+02  0.73319332843E+02  0.00000000000E+00 0.  1.
         11    1    1    2    0    0 -0.25211692320E+02  0.51033079566E+02  0.27224409824E+03  0.27813100091E+03  0.00000000000E+00 0. -1.
</event>
<event>
 6    1  0.6447971E-006  0.1462456E+03  0.7561462E-02  0.1205164E+00
          1   -1    0    0  501    0  0.00000000000E+00  0.00000000000E+00  0.12861491596E+03  0.12861491596E+03  0.00000000000E+00 0. -1.
         -1   -1    0    0    0  501 -0.00000000000E+00 -0.00000000000E+00 -0.20197045133E+03  0.20197045133E+03  0.00000000000E+00 0.  1.
          5    1    1    2  502    0  0.92518547619E+02 -0.78984209569E+02 -0.81637004758E+02  0.14656145455E+03  0.41800000000E+01 0.  1.
         -5    1    1    2    0  502 -0.38403259497E+01  0.36848567610E+02 -0.26399447958E+02  0.45683348069E+02  0.41800000000E+01 0.  1.
        -11    1    1    2    0    0 -0.31950867499E+02  0.64919886998E+02  0.13240946521E+02  0.73557952164E+02  0.00000000000E+00 0.  1.
         11    1    1    2    0    0 -0.56727354170E+02 -0.22784245038E+02  0.21439970829E+02  0.64782612499E+02  0.00000000000E+00 0. -1.
</event>
<event>
 6    1  0.6447971E-006  0.2455702E+03  0.7561462E-02  0.1116137E+00
          1   -1    0    0  501    0  0.00000000000E+00  0.00000000000E+00  0.46865875680E+03  0.46865875680E+03  0.00000000000E+00 0. -1.
         -1   -1    0    0    0  501 -0.00000000000E+00 -0.00000000000E+00 -0.26700790506E+03  0.26700790506E+03  0.00000000000E+00 0.  1.
          5    1    1    2  502    0  0.93142075198E+02  0.10811421799E+03 -0.57324141001E+02  0.15384297139E+03  0.41800000000E+01 0. -1.
         -5    1    1    2    0  502 -0.22246878472E+02  0.10471459787E+03 -0.10166153628E+03  0.14769093055E+03  0.41800000000E+01 0.  1.
        -11    1    1    2    0    0 -0.33900926184E+02 -0.19881302188E+03  0.29129994180E+03  0.35430431349E+03  0.00000000000E+00 0. -1.
         11    1    1    2    0    0 -0.36994270543E+02 -0.14015793985E+02  0.69336587206E+02  0.79828446430E+02  0.00000000000E+00 0.  1.
</event>
<event>
 6    1  0.6447971E-006  0.1185424E+03  0.7561462E-02  0.1245521E+00
         -2   -1    0    0    0  501 -0.00000000000E+00  0.00000000000E+00  0.15719215542E+02  0.15719215542E+02  0.00000000000E+00 0.  1.
          2   -1    0    0  501    0  0.00000000000E+00 -0.00000000000E+00 -0.11946572341E+04  0.11946572341E+04  0.00000000000E+00 0. -1.
          5    1    1    2  502    0  0.66241519740E+02 -0.18738379749E+01 -0.17876425924E+03  0.19069762188E+03  0.41800000000E+01 0. -1.
         -5    1    1    2    0  502 -0.60689890511E+01  0.54139875276E+02 -0.57023633001E+03  0.57284806292E+03  0.41800000000E+01 0. -1.
        -11    1    1    2    0    0 -0.41175156932E+01 -0.59396635435E+02 -0.28737701454E+03  0.29347991877E+03  0.00000000000E+00 0. -1.
         11    1    1    2    0    0 -0.56055014996E+02  0.71305981343E+01 -0.14256041479E+03  0.15335084610E+03  0.00000000000E+00 0.  1.
</event>
<event>
 6    1  0.6447971E-006  0.6419435E+02  0.7561462E-02  0.1381028E+00
         -1   -1    0    0    0  501 -0.00000000000E+00  0.00000000000E+00  0.86039573494E+02  0.86039573494E+02  0.00000000000E+00 0. -1.
          1   -1    0    0  501    0  0.00000000000E+00 -0.00000000000E+00 -0.15538267633E+03  0.15538267633E+03  0.00000000000E+00 0.  1.
          5    1    1    2  502    0  0.16869888526E+01  0.11732241527E+02  0.54014622030E+02  0.55457580326E+02  0.41800000000E+01 0. -1.
         -5    1    1    2    0  502 -0.17605685701E+02  0.15279120402E+02 -0.70718912908E+02  0.74579144083E+02  0.41800000000E+01 0. -1.
        -11    1    1    2    0    0 -0.16445021520E+02 -0.49872324963E+02 -0.10518309584E+02  0.53556721021E+02  0.00000000000E+00 0. -1.
         11    1    1    2    0    0  0.32363718369E+02  0.22860963035E+02 -0.42120502376E+02  0.57828804397E+02  0.00000000000E+00 0.  1.
</event>
<event>
 6    1  0.6447971E-006  0.7010519E+02  0.7561462E-02  0.1359736E+00
          1   -1    0    0  501    0  0.00000000000E+00  0.00000000000E+00  0.10329452148E+03  0.10329452148E+03  0.00000000000E+00 0. -1.
         -1   -1    0    0    0  501 -0.00000000000E+00 -0.00000000000E+00 -0.12130232223E+03  0.12130232223E+03  0.00000000000E+00 0.  1.
          5    1    1    2  502    0 -0.18811602441E+02 -0.17866053070E+02  0.41495116695E+02  0.49116080343E+02  0.41800000000E+01 0. -1.
         -5    1    1    2    0  502  0.17342769707E+02 -0.96188723557E+01 -0.76568588390E+02  0.79205526919E+02  0.41800000000E+01 0.  1.
        -11    1    1    2    0    0  0.30674702588E+02  0.48707955817E+02  0.17521255064E+02  0.60169732572E+02  0.00000000000E+00 0.  1.
         11    1    1    2    0    0 -0.29205869855E+02 -0.21223030391E+02 -0.45558411933E+00  0.36105503872E+02  0.00000000000E+00 0. -1.
</event>
<event>
 6    1  0.6447971E-006  0.1580968E+03  0.7561462E-02  0.1190862E+00
         -2   -1    0    0    0  501 -0.00000000000E+00  0.00000000000E+00  0.50961375685E+02  0.50961375685E+02  0.00000000000E+00 0.  1.
          2   -1    0    0  501    0  0.00000000000E+00 -0.00000000000E+00 -0.52739641571E+03  0.52739641571E+03  0.00000000000E+00 0. -1.
          5    1    1    2  502    0 -0.90563605251E+02  0.29516983210E+02 -0.10007985964E+03  0.13822615382E+03  0.41800000000E+01 0. -1.
         -5    1    1    2    0  502 -0.18677045652E+02 -0.73150953558E+02 -0.10170927055E+03  0.12673650680E+03  0.41800000000E+01 0. -1.
        -11    1    1    2    0    0  0.31399243144E+02 -0.26021026949E+02 -0.42866879509E+02  0.59165662950E+02  0.00000000000E+00 0.  1.
         11    1    1    2    0    0  0.77841407760E+02  0.69654997297E+02 -0.23177903033E+03  0.25422946782E+03  0.00000000000E+00 0. -1.
</event>
<event>
 6    1  0.6447971E-006  0.1057067E+03  0.7561462E-02  0.1268734E+00
         -1   -1    0    0    0  501 -0.00000000000E+00  0.00000000000E+00  0.60966672648E+02  0.60966672648E+02  0.00000000000E+00 0.  1.
          1   -1    0    0  501    0  0.00000000000E+00 -0.00000000000E+00 -0.33265401904E+03  0.33265401904E+03  0.00000000000E+00 0. -1.
          5    1    1    2  502    0 -0.25623560408E+02  0.21080584992E+02  0.73186273446E+01  0.34234377719E+02  0.41800000000E+01 0. -1.
         -5    1    1    2    0  502  0.81160913218E+02 -0.54633721413E+02 -0.67842248041E+02  0.11913009850E+03  0.41800000000E+01 0. -1.
        -11    1    1    2    0    0 -0.79985411655E+01 -0.11857121144E+02  0.43408823490E+01  0.14946947587E+02  0.00000000000E+00 0.  1.
         11    1    1    2    0    0 -0.47538811644E+02  0.45410257565E+02 -0.21550460805E+03  0.22530926789E+03  0.00000000000E+00 0. -1.
</event>
<event>
 6    1  0.6447971E-006  0.1028685E+03  0.7561462E-02  0.1274377E+00
          2   -1    0    0  501    0  0.00000000000E+00  0.00000000000E+00  0.28516748310E+02  0.28516748310E+02  0.00000000000E+00 0. -1.
         -2   -1    0    0    0  501 -0.00000000000E+00 -0.00000000000E+00 -0.46708537507E+03  0.46708537507E+03  0.00000000000E+00 0.  1.
          5    1    1    2  502    0  0.46350949335E+02 -0.52125541991E+02 -0.10355726759E+03  0.12492823020E+03  0.41800000000E+01 0.  1.
         -5    1    1    2    0  502 -0.32178264518E+02  0.28110719031E+02 -0.20033609626E+03  0.20488454578E+03  0.41800000000E+01 0.  1.
        -11    1    1    2    0    0 -0.51870897843E+02  0.10827406093E+02 -0.98759821078E+02  0.11207731718E+03  0.00000000000E+00 0.  1.
         11    1    1    2    0    0  0.37698213026E+02  0.13187416867E+02 -0.35915441834E+02  0.53712030227E+02  0.00000000000E+00 0. -1.
</event>
<event>
 6    1  0.6447971E-006  0.1549354E+03  0.7561462E-02  0.1194536E+00
          1   -1    0    0  501    0  0.00000000000E+00  0.00000000000E+00  0.11847496506E+03  0.11847496506E+03  0.00000000000E+00 0. -1.
         -1   -1    0    0    0  501 -0.00000000000E+00 -0.00000000000E+00 -0.23910440164E+03  0.23910440164E+03  0.00000000000E+00 0.  1.
          5    1    1    2  502    0  0.21388804211E+02  0.37339676066E+02 -0.52515340755E+02  0.68022538683E+02  0.41800000000E+01 0. -1.
         -5    1    1    2    0  502  0.52960684229E+02 -0.64655968153E+02  0.14301190812E+02  0.84895375318E+02  0.41800000000E+01 0. -1.
        -11    1    1    2    0    0  0.13774332476E+02  0.79402491874E+02 -0.14680461685E+02  0.81914613509E+02  0.00000000000E+00 0.  1.
         11    1    1    2    0    0 -0.88123820915E+02 -0.52086199787E+02 -0.67734824951E+02  0.12274683919E+03  0.00000000000E+00 0. -1.
</event>
<event>
 6    1  0.6447971E-006  0.1059377E+03  0.7561462E-02  0.1268283E+00
          3   -1    0    0  501    0  0.00000000000E+00  0.00000000000E+00  0.35715224504E+02  0.35715224504E+02  0.00000000000E+00 0. -1.
         -3   -1    0    0    0  501 -0.00000000000E+00 -0.00000000000E+00 -0.38785337729E+03  0.38785337729E+03  0.00000000000E+00 0.  1.
          5    1    1    2  502    0  0.42559572876E+02  0.51189208900E+02 -0.14756657176E+03  0.16194140253E+03  0.41800000000E+01 0.  1.
         -5    1    1    2    0  502 -0.11915778529E+02 -0.60320008230E+02 -0.10631715051E+03  0.12288733891E+03  0.41800000000E+01 0.  1.
        -11    1    1    2    0    0 -0.53965240310E+02 -0.80729510543E+01 -0.25114969215E+02  0.60068139468E+02  0.00000000000E+00 0. -1.
         11    1    1    2    0    0  0.23321445963E+02  0.17203750384E+02 -0.73139461297E+02  0.78671720891E+02  0.00000000000E+00 0.  1.
</event>
<event>
 6    1  0.6447971E-006  0.7522886E+02  0.7561462E-02  0.1343164E+00
         -4   -1    0    0    0  501 -0.00000000000E+00  0.00000000000E+00  0.44427588271E+03  0.44427588271E+03  0.00000000000E+00 0.  1.
          4   -1    0    0  501    0  0.00000000000E+00 -0.00000000000E+00 -0.27575009928E+02  0.27575009928E+02  0.00000000000E+00 0. -1.
          5    1    1    2  502    0 -0.18899202874E+02  0.58299301168E+02  0.21326418105E+03  0.22193483662E+03  0.41800000000E+01 0.  1.
         -5    1    1    2    0  502  0.79216275633E+01 -0.35461121479E+02  0.14885733179E+02  0.39487982628E+02  0.41800000000E+01 0.  1.
        -11    1    1    2    0    0  0.27233548584E+02 -0.23803174458E+02  0.19061217505E+03  0.19401355252E+03  0.00000000000E+00 0.  1.
         11    1    1    2    0    0 -0.16255973274E+02  0.96499476834E+00 -0.20612165004E+01  0.16414520871E+02  0.00000000000E+00 0. -1.
</event>
<event>
 6    1  0.6447971E-006  0.1409452E+03  0.7561462E-02  0.1212063E+00
         -1   -1    0    0    0  501 -0.00000000000E+00  0.00000000000E+00  0.29825764276E+02  0.29825764276E+02  0.00000000000E+00 0.  1.
          1   -1    0    0  501    0  0.00000000000E+00 -0.00000000000E+00 -0.89758335914E+03  0.89758335914E+03  0.00000000000E+00 0. -1.
          5    1    1    2  502    0  0.84182535851E+02 -0.79267722909E+02 -0.29129644632E+03  0.31343446408E+03  0.41800000000E+01 0. -1.
         -5    1    1    2    0  502  0.20655951523E+02  0.37273983728E+02 -0.41636684555E+02  0.59725238359E+02  0.41800000000E+01 0. -1.
        -11    1    1    2    0    0 -0.64715891489E+02  0.50819625664E+02 -0.47244584864E+03  0.47955798488E+03  0.00000000000E+00 0. -1.
         11    1    1    2    0    0 -0.40122595885E+02 -0.88258864832E+01 -0.62378615352E+02  0.74691436096E+02  0.00000000000E+00 0.  1.
</event>
<event>
 6    1  0.6447971E-006  0.1517409E+03  0.7561462E-02  0.1198350E+00
         -2   -1    0    0    0  501 -0.00000000000E+00  0.00000000000E+00  0.35800076402E+02  0.35800076402E+02  0.00000000000E+00 0.  1.
          2   -1    0    0  501    0  0.00000000000E+00 -0.00000000000E+00 -0.85206307546E+03  0.85206307546E+03  0.00000000000E+00 0. -1.
          5    1    1    2  502    0  0.65995749531E+02 -0.12655592583E+03 -0.19906827848E+03  0.24498467956E+03  0.41800000000E+01 0.  1.
         -5    1    1    2    0  502 -0.10344417088E+02  0.24563899937E+02 -0.52776627512E+02  0.59272564957E+02  0.41800000000E+01 0.  1.
        -11    1    1    2    0    0 -0.36234943814E+02  0.71895720751E+01 -0.63821385225E+02  0.73741645709E+02  0.00000000000E+00 0. -1.
         11    1    1    2    0    0 -0.19416388629E+02  0.94802453823E+02 -0.50059670784E+03  0.50986426164E+03  0.00000000000E+00 0.  1.
</event>
<event>
 6    1  0.6447971E-006  0.1313104E+03  0.7561462E-02  0.1225524E+00
         -1   -1    0    0    0  501 -0.00000000000E+00  0.00000000000E+00  0.18783325276E+03  0.18783325276E+03  0.00000000000E+00 0.  1.
          1   -1    0    0  501    0  0.00000000000E+00 -0.00000000000E+00 -0.11349961316E+03  0.11349961316E+03  0.00000000000E+00 0. -1.
          5    1    1    2  502    0 -0.66141577104E+01 -0.33305921903E+02  0.14245598870E+02  0.37059964965E+02  0.41800000000E+01 0.  1.
         -5    1    1    2    0  502  0.12424323926E+02  0.11184061966E+03  0.82713053423E+02  0.13971975393E+03  0.41800000000E+01 0.  1.
        -11    1    1    2    0    0 -0.42227287911E+02 -0.19672088768E+02  0.10598982412E+02  0.47775237822E+02  0.00000000000E+00 0.  1.
         11    1    1    2    0    0  0.36417121696E+02 -0.58862608992E+02 -0.33223995104E+02  0.76777909197E+02  0.00000000000E+00 0. -1.
</event>
<event>
 6    1  0.6447971E-006  0.1469047E+03  0.7561462E-02  0.1204329E+00
          1   -1    0    0  501    0  0.00000000000E+00  0.00000000000E+00  0.16902462299E+03  0.16902462299E+03  0.00000000000E+00 0. -1.
         -1   -1    0    0    0  501 -0.00000000000E+00 -0.00000000000E+00 -0.17834798431E+03  0.17834798431E+03  0.00000000000E+00 0.  1.
          5    1    1    2  502    0  0.46943924287E+02 -0.10173712170E+03  0.60948181340E+02  0.12761789517E+03  0.41800000000E+01 0.  1.
         -5    1    1    2    0  502  0.24657919404E+01 -0.24067854486E+02 -0.51226985903E+02  0.56806850239E+02  0.41800000000E+01 0.  1.
        -11    1    1    2    0    0 -0.71777890436E+02  0.96497901227E+02 -0.30987324659E+02  0.12419389996E+03  0.00000000000E+00 0. -1.
         11    1    1    2    0    0  0.22368174208E+02  0.29307074958E+02  0.11942767899E+02  0.38753961928E+02  0.00000000000E+00 0.  1.
</event>
<event>
 6    1  0.6447971E-006  0.3975066E+02  0.7561462E-02  0.1510054E+00
          2   -1    0    0  501    0  0.00000000000E+00  0.00000000000E+00  0.20816291749E+03  0.20816291749E+03  0.00000000000E+00 0. -1.
         -2   -1    0    0    0  501 -0.00000000000E+00 -0.00000000000E+00 -0.20330055200E+03  0.20330055200E+03  0.00000000000E+00 0.  1.
          5    1    1    2  502    0 -0.30283994038E+02 -0.13850552917E+02  0.69674222791E+02  0.77336458624E+02  0.41800000000E+01 0. -1.
         -5    1    1    2    0  502 -0.89397949242E+00  0.19368804481E+01 -0.19628101467E+03  0.19633710761E+03  0.41800000000E+01 0.  1.
        -11    1    1    2    0    0  0.25128652205E+02 -0.28513448832E+01  0.81943019681E+02  0.85756852809E+02  0.00000000000E+00 0. -1.
         11    1    1    2    0    0  0.60493213247E+01  0.14765017352E+02  0.49526137680E+02  0.52033050453E+02  0.00000000000E+00 0.  1.
</event>
<event>
 6    1  0.6447971E-006  0.1263981E+03  0.7561462E-02  0.1232900E+00
         -2   -1    0    0    0  501 -0.00000000000E+00  0.00000000000E+00  0.65235181941E+02  0.65235181941E+02  0.00000000000E+00 0.  1.
          2   -1    0    0  501    0  0.00000000000E+00 -0.00000000000E+00 -0.41503091310E+03  0.41503091310E+03  0.00000000000E+00 0. -1.
          5    1    1    2  502    0 -0.33648389785E+02 -0.33991944887E+02  0.96133880699E+01  0.48964845374E+02  0.41800000000E+01 0.  1.
         -5    1    1    2    0  502 -0.83141017574E+02  0.28013320357E+02 -0.14415524418E+03  0.16880575152E+03  0.41800000000E+01 0.  1.
        -11    1    1    2    0    0  0.54270665439E+02  0.35029805314E+01 -0.20803393127E+02  0.58226773613E+02  0.00000000000E+00 0.  1.
         11    1    1    2    0    0  0.62518741921E+02  0.24756439980E+01 -0.19445048192E+03  0.20426872454E+03  0.00000000000E+00 0. -1.
</event>
<event>
 6    1  0.6447971E-006  0.2012578E+03  0.7561462E-02  0.1148682E+00
          2   -1    0    0  501    0  0.00000000000E+00  0.00000000000E+00  0.36916602529E+03  0.36916602529E+03  0.00000000000E+00 0.  1.
         -2   -1    0    0    0  501 -0.00000000000E+00 -0.00000000000E+00 -0.12860234186E+03  0.12860234186E+03  0.00000000000E+00 0. -1.
          5    1    1    2  502    0  0.43885502714E+02 -0.35757936324E+02 -0.19900151686E+02  0.60150276772E+02  0.41800000000E+01 0.  1.
         -5    1    1    2    0  502  0.13299203546E+03  0.61092206763E+02  0.76509152725E+02  0.16519764548E+03  0.41800000000E+01 0.  1.
        -11    1    1    2    0    0 -0.10484710833E+03 -0.58475546843E+02  0.12724321458E+03  0.17493753560E+03  0.00000000000E+00 0.  1.
         11    1    1    2    0    0 -0.72030429838E+02  0.33141276404E+02  0.56711467810E+02  0.97482909299E+02  0.00000000000E+00 0. -1.
</event>
<event>
 6    1  0.6447971E-006  0.1120282E+03  0.7561462E-02  0.1256860E+00
          2   -1    0    0  501    0  0.00000000000E+00  0.00000000000E+00  0.16980931056E+03  0.16980931056E+03  0.00000000000E+00 0. -1.
         -2   -1    0    0    0  501 -0.00000000000E+00 -0.00000000000E+00 -0.88987726645E+02  0.88987726645E+02  0.00000000000E+00 0.  1.
          5    1    1    2  502    0  0.37445194169E+02  0.37924952035E+02  0.21206590435E+02  0.57512054659E+02  0.41800000000E+01 0. -1.
         -5    1    1    2    0  502 -0.39474569121E+01 -0.80996632703E+02  0.42206266158E+01  0.81310042519E+02  0.41800000000E+01 0. -1.
        -11    1    1    2    0    0 -0.18207747617E+02 -0.18498525399E+02 -0.10958164161E+02  0.28174436588E+02  0.00000000000E+00 0.  1.
         11    1    1    2    0    0 -0.15289989640E+02  0.61570206068E+02  0.66352531029E+02  0.91800503443E+02  0.00000000000E+00 0. -1.
</event>
<event>
 6    1  0.6447971E-006  0.1348574E+03  0.7561462E-02  0.1220421E+00
          1   -1    0    0  501    0  0.00000000000E+00  0.00000000000E+00  0.67306533371E+02  0.67306533371E+02  0.00000000000E+00 0. -1.
         -1   -1    0    0    0  501 -0.00000000000E+00 -0.00000000000E+00 -0.28241250538E+03  0.28241250538E+03  0.00000000000E+00 0.  1.
          5    1    1    2  502    0  0.69102032840E+01 -0.53668344605E+02 -0.59465719980E+02  0.80508921088E+02  0.41800000000E+01 0. -1.
         -5    1    1    2    0  502  0.73135583325E+02  0.59310215802E+02 -0.93423264751E+02  0.13270981141E+03  0.41800000000E+01 0. -1.
        -11    1    1    2    0    0 -0.88222967005E+02 -0.31801332771E+02 -0.52134404871E+02  0.10729684452E+03  0.00000000000E+00 0.  1.
         11    1    1    2    0    0  0.81771803964E+01  0.26159461574E+02 -0.10082582403E+02  0.29203461730E+02  0.00000000000E+00 0. -1.
</event>
<event>
 6    1  0.6447971E-006  0.1285207E+03  0.7561462E-02  0.1229667E+00
         -2   -1    0    0    0  501 -0.00000000000E+00  0.00000000000E+00  0.30916836492E+03  0.30916836492E+03  0.00000000000E+00 0.  1.
          2   -1    0    0  501    0  0.00000000000E+00 -0.00000000000E+00 -0.69264799883E+02  0.69264799883E+02  0.00000000000E+00 0. -1.
          5    1    1    2  502    0 -0.64311328161E+02 -0.80212067232E+02  0.66573153712E+02  0.12255357953E+03  0.41800000000E+01 0. -1.
         -5    1    1    2    0  502  0.29870818213E+02 -0.13587391174E+02  0.92407041103E+02  0.98149970072E+02  0.41800000000E+01 0.  1.
        -11    1    1    2    0    0 -0.15833641291E+02  0.14267515009E+01 -0.99373123864E+01  0.18748066403E+02  0.00000000000E+00 0.  1.
         11    1    1    2    0    0  0.50274151239E+02  0.92372706905E+02  0.90860682612E+02  0.13898154881E+03  0.00000000000E+00 0. -1.
</event>
<event>
 6    1  0.6447971E-006  0.1089544E+03  0.7561462E-02  0.1262519E+00
          1   -1    0    0  501    0  0.00000000000E+00  0.00000000000E+00  0.25666824791E+03  0.25666824791E+03  0.00000000000E+00 0. -1.
         -1   -1    0    0    0  501 -0.00000000000E+00 -0.00000000000E+00 -0.89287531048E+02  0.89287531048E+02  0.00000000000E+00 0.  1.
          5    1    1    2  502    0  0.42885738384E+02 -0.32780768213E+02  0.56550268979E+02  0.78289019938E+02  0.41800000000E+01 0.  1.
         -5    1    1    2    0  502  0.35773484271E+02  0.42979260081E+02 -0.42689222469E+02  0.70475535393E+02  0.41800000000E+01 0.  1.
        -11    1    1    2    0    0 -0.60016582536E+02 -0.40295762810E+02  0.14304059907E+03  0.16026962177E+03  0.00000000000E+00 0. -1.
         11    1    1    2    0    0 -0.18642640119E+02  0.30097270942E+02  0.10479071283E+02  0.36921601858E+02  0.00000000000E+00 0.  1.
</event>
<event>
 6    1  0.6447971E-006  0.1040481E+03  0.7561462E-02  0.1272006E+00
         -1   -1    0    0    0  501 -0.00000000000E+00  0.00000000000E+00  0.10777996673E+03  0.10777996673E+03  0.00000000000E+00 0.  1.
          1   -1    0    0  501    0  0.00000000000E+00 -0.00000000000E+00 -0.17685051913E+03  0.17685051913E+03  0.00000000000E+00 0. -1.
          5    1    1    2  502    0 -0.10357435933E+02  0.13260021487E+02 -0.45583867288E+02  0.48769519230E+02  0.41800000000E+01 0. -1.
         -5    1    1    2    0  502  0.73847432772E+02  0.17869459401E+02  0.57580333336E+02  0.95423938786E+02  0.41800000000E+01 0. -1.
        -11    1    1    2    0    0 -0.96347081564E+01 -0.54942204966E+02 -0.38466303166E+02  0.67757877528E+02  0.00000000000E+00 0. -1.
         11    1    1    2    0    0 -0.53855288683E+02  0.23812724078E+02 -0.42600715280E+02  0.72679150308E+02  0.00000000000E+00 0.  1.
</event>
<event>
 6    1  0.6447971E-006  0.1039526E+03  0.7561462E-02  0.1272197E+00
         -2   -1    0    0    0  501 -0.00000000000E+00  0.00000000000E+00  0.35191120925E+02  0.35191120925E+02  0.00000000000E+00 0. -1.
          2   -1    0    0  501    0  0.00000000000E+00 -0.00000000000E+00 -0.63889561389E+03  0.63889561389E+03  0.00000000000E+00 0.  1.
          5    1    1    2  502    0 -0.71452557184E+02 -0.38152166862E+02 -0.31882284069E+02  0.87149344242E+02  0.41800000000E+01 0.  1.
         -5    1    1    2    0  502  0.13204710202E+02 -0.54972088344E+00 -0.12332568821E+03  0.12410223341E+03  0.41800000000E+01 0.  1.
        -11    1    1    2    0    0 -0.23240141630E+02  0.16422193526E+02 -0.14688097876E+03  0.14961221389E+03  0.00000000000E+00 0. -1.
         11    1    1    2    0    0  0.81487988612E+02  0.22279694220E+02 -0.30161554192E+03  0.31322294327E+03  0.00000000000E+00 0.  1.
</event>
<event>
 6    1  0.6447971E-006  0.1297189E+03  0.7561462E-02  0.1227873E+00
         -1   -1    0    0    0  501 -0.00000000000E+00  0.00000000000E+00  0.24841156884E+03  0.24841156884E+03  0.00000000000E+00 0.  1.
          1   -1    0    0  501    0  0.00000000000E+00 -0.00000000000E+00 -0.99309423982E+02  0.99309423982E+02  0.00000000000E+00 0. -1.
          5    1    1    2  502    0 -0.50218003453E+02  0.94036684261E+02  0.34880877376E+02  0.11224479437E+03  0.41800000000E+01 0. -1.
         -5    1    1    2    0  502 -0.16218564910E+02 -0.12782739051E+02  0.92455838141E+02  0.94826128635E+02  0.41800000000E+01 0. -1.
        -11    1    1    2    0    0  0.61738061182E+02 -0.97148792385E+02  0.34029755798E+02  0.12003124735E+03  0.00000000000E+00 0.  1.
         11    1    1    2    0    0  0.46985071816E+01  0.15894847175E+02 -0.12264326455E+02  0.20618822465E+02  0.00000000000E+00 0. -1.
</event>
<event>
 6    1  0.6447971E-006  0.1364699E+03  0.7561462E-02  0.1218159E+00
         -1   -1    0    0    0  501 -0.00000000000E+00  0.00000000000E+00  0.79213245956E+02  0.79213245956E+02  0.00000000000E+00 0.  1.
          1   -1    0    0  501    0  0.00000000000E+00 -0.00000000000E+00 -0.68972509820E+03  0.68972509820E+03  0.00000000000E+00 0. -1.
          5    1    1    2  502    0  0.42548840665E+02 -0.53337413034E+01 -0.78750238608E+02  0.89765946322E+02  0.41800000000E+01 0. -1.
         -5    1    1    2    0  502  0.71927184587E+02 -0.40525028141E+02  0.37277467834E+02  0.90680095923E+02  0.41800000000E+01 0. -1.
        -11    1    1    2    0    0 -0.10256946385E+03  0.28974058257E+01 -0.33964600973E+03  0.35480741509E+03  0.00000000000E+00 0. -1.
         11    1    1    2    0    0 -0.11906561406E+02  0.42961363619E+02 -0.22939307174E+03  0.23368488683E+03  0.00000000000E+00 0.  1.
</event>
<event>
 6    1  0.6447971E-006  0.1451304E+03  0.7561462E-02  0.1206588E+00
         -1   -1    0    0    0  501 -0.00000000000E+00  0.00000000000E+00  0.21653973784E+03  0.21653973784E+03  0.00000000000E+00 0.  1.
          1   -1    0    0  501    0  0.00000000000E+00 -0.00000000000E+00 -0.10425855943E+03  0.10425855943E+03  0.00000000000E+00 0. -1.
          5    1    1    2  502    0 -0.30379354835E+02 -0.22658899042E+02  0.15980911238E+00  0.38129107582E+02  0.41800000000E+01 0. -1.
         -5    1    1    2    0  502  0.10840712734E+03 -0.40514262567E+02  0.83530516810E+02  0.14278771084E+03  0.41800000000E+01 0. -1.
        -11    1    1    2    0    0 -0.37180169567E+01  0.61893883739E+02  0.19541025245E+02  0.65011754029E+02  0.00000000000E+00 0. -1.
         11    1    1    2    0    0 -0.74309755544E+02  0.12792778700E+01  0.90498272419E+01  0.74869724816E+02  0.00000000000E+00 0.  1.
</event>
<event>
 6    1  0.6447971E-006  0.1103001E+03  0.7561462E-02  0.1260015E+00
         -2   -1    0    0    0  501 -0.00000000000E+00  0.00000000000E+00  0.32681332863E+02  0.32681332863E+02  0.00000000000E+00 0.  1.
          2   -1    0    0  501    0  0.00000000000E+00 -0.00000000000E+00 -0.48240996274E+03  0.48240996274E+03  0.00000000000E+00 0. -1.
          5    1    1    2  502    0 -0.22511247153E+02  0.39193351011E+02 -0.20097307785E+02  0.49641204579E+02  0.41800000000E+01 0.  1.
         -5    1    1    2    0  502  0.69803990299E+02 -0.54308578922E+01 -0.18190587046E+03  0.19495976351E+03  0.41800000000E+01 0.  1.
        -11    1    1    2    0    0  0.24424144941E+02 -0.21031520220E+02 -0.11085276529E+03  0.11544348951E+03  0.00000000000E+00 0. -1.
         11    1    1    2    0    0 -0.71716888087E+02 -0.12730972899E+02 -0.13687268635E+03  0.15504683801E+03  0.00000000000E+00 0.  1.
</event>
<event>
 6    1  0.6447971E-006  0.1202471E+03  0.7561462E-02  0.1242690E+00
         -2   -1    0    0    0  501 -0.00000000000E+00  0.00000000000E+00  0.42274946996E+02  0.42274946996E+02  0.00000000000E+00 0.  1.
          2   -1    0    0  501    0  0.00000000000E+00 -0.00000000000E+00 -0.50278080235E+03  0.50278080235E+03  0.00000000000E+00 0. -1.
          5    1    1    2  502    0  0.65611665934E+02  0.89182199311E+01 -0.15168652497E+03  0.16556176977E+03  0.41800000000E+01 0. -1.
         -5    1    1    2    0  502  0.48298868920E+01 -0.65093022199E+02 -0.27885322529E+02  0.71101989838E+02  0.41800000000E+01 0. -1.
        -11    1    1    2    0    0 -0.50462372876E+02  0.14493020433E+01 -0.53265631411E+02  0.73387867133E+02  0.00000000000E+00 0.  1.
         11    1    1    2    0    0 -0.19979179949E+02  0.54725500225E+02 -0.22766837645E+03  0.23500412260E+03  0.00000000000E+00 0. -1.
</event>
<event>
 6    1  0.6447971E-006  0.8137924E+02  0.7561462E-02  0.1325182E+00
          2   -1    0    0  501    0  0.00000000000E+00  0.00000000000E+00  0.25740276140E+03  0.25740276140E+03  0.00000000000E+00 0. -1.
         -2   -1    0    0    0  501 -0.00000000000E+00 -0.00000000000E+00 -0.46415619368E+02  0.46415619368E+02  0.00000000000E+00 0.  1.
          5    1    1    2  502    0 -0.23597910398E+02  0.22237316606E+02  0.12122995530E+03  0.12556087801E+03  0.41800000000E+01 0.  1.
         -5    1    1    2    0  502  0.23637619744E+02 -0.36814037104E+02 -0.69515104566E+01  0.44495014245E+02  0.41800000000E+01 0.  1.
        -11    1    1    2    0    0 -0.41996414533E+02  0.96539385423E+00  0.23074739940E+02  0.47927804479E+02  0.00000000000E+00 0.  1.
         11    1    1    2    0    0  0.41956705186E+02  0.13611326643E+02  0.73633957254E+02  0.85834684039E+02  0.00000000000E+00 0. -1.
</event>
<event>
 6    1  0.6447971E-006  0.9272880E+02  0.7561462E-02  0.1296375E+00
          3   -1    0    0  501    0  0.00000000000E+00  0.00000000000E+00  0.34939963051E+03  0.34939963051E+03  0.00000000000E+00 0. -1.
         -3   -1    0    0    0  501 -0.00000000000E+00 -0.00000000000E+00 -0.42871657827E+02  0.42871657827E+02  0.00000000000E+00 0.  1.
          5    1    1    2  502    0 -0.28489871534E+02  0.74992011433E+02  0.32575364930E+02  0.86683916381E+02  0.41800000000E+01 0. -1.
         -5    1    1    2    0  502 -0.13209640827E+01 -0.26597866580E+02  0.73531098510E+02  0.78316577432E+02  0.41800000000E+01 0.  1.
        -11    1    1    2    0    0  0.29006252281E+02  0.75388135719E+00  0.16281507712E+03  0.16538041101E+03  0.00000000000E+00 0. -1.
         11    1    1    2    0    0  0.80458333520E+00 -0.49148026211E+02  0.37606432131E+02  0.61890383521E+02  0.00000000000E+00 0.  1.
</event>
<event>
 6    1  0.6447971E-006  0.1067535E+03  0.7561462E-02  0.1266703E+00
         -2   -1    0    0    0  501 -0.00000000000E+00  0.00000000000E+00  0.14568853461E+03  0.14568853461E+03  0.00000000000E+00 0. -1.
          2   -1    0    0  501    0  0.00000000000E+00 -0.00000000000E+00 -0.98365198206E+02  0.98365198206E+02  0.00000000000E+00 0.  1.
          5    1    1    2  502    0  0.57240146916E+02  0.89356496799E+01  0.36751169692E+02  0.68734279132E+02  0.41800000000E+01 0. -1.
         -5    1    1    2    0  502 -0.62759172308E+02  0.37278218847E+02  0.16436953500E+02  0.74940143778E+02  0.41800000000E+01 0. -1.
        -11    1    1    2    0    0  0.30723218962E+02 -0.12344743033E+01  0.25571624829E+02  0.39991850502E+02  0.00000000000E+00 0. -1.
         11    1    1    2    0    0 -0.25204193570E+02 -0.44979394223E+02 -0.31436411615E+02  0.60387459405E+02  0.00000000000E+00 0.  1.
</event>
<event>
 6    1  0.6447971E-006  0.9708791E+02  0.7561462E-02  0.1286542E+00
         -1   -1    0    0    0  501 -0.00000000000E+00  0.00000000000E+00  0.13738396937E+03  0.13738396937E+03  0.00000000000E+00 0.  1.
          1   -1    0    0  501    0  0.00000000000E+00 -0.00000000000E+00 -0.85137093622E+02  0.85137093622E+02  0.00000000000E+00 0. -1.
          5    1    1    2  502    0  0.34847068135E+01 -0.33902952223E+02  0.15933714713E+02  0.37853784692E+02  0.41800000000E+01 0. -1.
         -5    1    1    2    0  502 -0.80013757764E+01  0.92581680880E+02  0.60574345042E+02  0.11100501487E+03  0.41800000000E+01 0.  1.
        -11    1    1    2    0    0 -0.98244183682E+01 -0.47849366289E+02 -0.26466636341E+02  0.55556852770E+02  0.00000000000E+00 0. -1.
         11    1    1    2    0    0  0.14341087331E+02 -0.10829362369E+02  0.22054523317E+01  0.18105410659E+02  0.00000000000E+00 0.  1.
</event>
<event>
 6    1  0.6447971E-006  0.9035377E+02  0.7561462E-02  0.1301997E+00
         -2   -1    0    0    0  501 -0.00000000000E+00  0.00000000000E+00  0.11634598740E+03  0.11634598740E+03  0.00000000000E+00 0.  1.
          2   -1    0    0  501    0  0.00000000000E+00 -0.00000000000E+00 -0.13514203877E+03  0.13514203877E+03  0.00000000000E+00 0. -1.
          5    1    1    2  502    0 -0.82854879364E+01 -0.10709046533E+02 -0.58405299325E+02  0.60099786831E+02  0.41800000000E+01 0.  1.
         -5    1    1    2    0  502  0.67840591799E+02  0.29608642276E+02  0.34473162709E+02  0.81761170125E+02  0.41800000000E+01 0.  1.
        -11    1    1    2    0    0 -0.74893701305E+02 -0.13273827569E+02 -0.20908427214E+02  0.78882338467E+02  0.00000000000E+00 0. -1.
         11    1    1    2    0    0  0.15338597443E+02 -0.56257681742E+01  0.26044512460E+02  0.30744730741E+02  0.00000000000E+00 0.  1.
</event>
<event>
 6    1  0.6447971E-006  0.8467361E+02  0.7561462E-02  0.1316288E+00
          2   -1    0    0  501    0  0.00000000000E+00  0.00000000000E+00  0.99975033283E+02  0.99975033283E+02  0.00000000000E+00 0. -1.
         -2   -1    0    0    0  501 -0.00000000000E+00 -0.00000000000E+00 -0.17342492916E+03  0.17342492916E+03  0.00000000000E+00 0.  1.
          5    1    1    2  502    0  0.30321877398E+02  0.27002682098E+02 -0.69965669027E+02  0.81001409443E+02  0.41800000000E+01 0. -1.
         -5    1    1    2    0  502 -0.71421788003E+02 -0.36500935126E+02 -0.34808497600E+02  0.87535672568E+02  0.41800000000E+01 0. -1.
        -11    1    1    2    0    0  0.36264786469E+01  0.10103433791E+02 -0.30628928175E+02  0.32455538246E+02  0.00000000000E+00 0.  1.
         11    1    1    2    0    0  0.37473431959E+02 -0.60518076256E+00  0.61953198921E+02  0.72407342190E+02  0.00000000000E+00 0. -1.
</event>
<event>
 6    1  0.6447971E-006  0.1062050E+03  0.7561462E-02  0.1267763E+00
          1   -1    0    0  501    0  0.00000000000E+00  0.00000000000E+00  0.26951261697E+03  0.26951261697E+03  0.00000000000E+00 0.  1.
         -1   -1    0    0    0  501 -0.00000000000E+00 -0.00000000000E+00 -0.53300634799E+02  0.53300634799E+02  0.00000000000E+00 0. -1.
          5    1    1    2  502    0  0.45429896664E+02  0.14466327509E+02  0.50675564177E+01  0.48127982199E+02  0.41800000000E+01 0.  1.
         -5    1    1    2    0  502 -0.61816999552E+02 -0.42651712302E+02  0.62145049189E+02  0.97570433711E+02  0.41800000000E+01 0.  1.
        -11    1    1    2    0    0  0.50542226598E+02  0.15039339587E+02  0.11764503295E+03  0.12892265969E+03  0.00000000000E+00 0.  1.
         11    1    1    2    0    0 -0.34155123710E+02  0.13146045206E+02  0.31354343621E+02  0.48192176171E+02  0.00000000000E+00 0. -1.
</event>
<event>
 6    1  0.6447971E-006  0.1277131E+03  0.7561462E-02  0.1230889E+00
          1   -1    0    0  501    0  0.00000000000E+00  0.00000000000E+00  0.70945792357E+03  0.70945792357E+03  0.00000000000E+00 0. -1.
         -1   -1    0    0    0  501 -0.00000000000E+00 -0.00000000000E+00 -0.29767340472E+02  0.29767340472E+02  0.00000000000E+00 0.  1.
          5    1    1    2  502    0  0.42350817712E+02  0.59585284472E+02  0.69809343594E+02  0.10116726120E+03  0.41800000000E+01 0.  1.
         -5    1    1    2    0  502 -0.61575263081E+02  0.20075368703E+02  0.16400653502E+03  0.17638069447E+03  0.41800000000E+01 0.  1.
        -11    1    1    2    0    0  0.44950192862E+02 -0.14471062344E+02  0.22687657894E+03  0.23173889090E+03  0.00000000000E+00 0. -1.
         11    1    1    2    0    0 -0.25725747493E+02 -0.65189590832E+02  0.21899812555E+03  0.22993841747E+03  0.00000000000E+00 0.  1.
</event>
<event>
 6    1  0.6447971E-006  0.1698356E+03  0.7561462E-02  0.1178019E+00
         -1   -1    0    0    0  501 -0.00000000000E+00  0.00000000000E+00  0.22618785053E+03  0.22618785053E+03  0.00000000000E+00 0.  1.
          1   -1    0    0  501    0  0.00000000000E+00 -0.00000000000E+00 -0.13633097212E+03  0.13633097212E+03  0.00000000000E+00 0. -1.
          5    1    1    2  502    0 -0.63177495456E+02 -0.13740984270E+03  0.30184064679E+02  0.15427705910E+03  0.41800000000E+01 0.  1.
         -5    1    1    2    0  502  0.33840637190E+02  0.34952208314E+01  0.75119258861E+01  0.35089980402E+02  0.41800000000E+01 0.  1.
        -11    1    1    2    0    0  0.50722876521E+02  0.11442995163E+03  0.65526449313E+02  0.14128248155E+03  0.00000000000E+00 0.  1.
         11    1    1    2    0    0 -0.21386018255E+02  0.19484670236E+02 -0.13365561468E+02  0.31869301598E+02  0.00000000000E+00 0. -1.
</event>
<event>
 6    1  0.6447971E-006  0.1134577E+03  0.7561462E-02  0.1254297E+00
         -1   -1    0    0    0  501 -0.00000000000E+00  0.00000000000E+00  0.20298202087E+03  0.20298202087E+03  0.00000000000E+00 0.  1.
          1   -1    0    0  501    0  0.00000000000E+00 -0.00000000000E+00 -0.24365338445E+03  0.24365338445E+03  0.00000000000E+00 0. -1.
          5    1    1    2  502    0  0.65244332247E+01 -0.30966707658E+02  0.11802385020E+03  0.12226449537E+03  0.41800000000E+01 0. -1.
         -5    1    1    2    0  502 -0.14745777865E+02  0.86173319113E+02  0.41652230535E+02  0.96931210662E+02  0.41800000000E+01 0.  1.
        -11    1    1    2    0    0 -0.35963771653E+02 -0.51922655750E+02 -0.11108690519E+03  0.12778754069E+03  0.00000000000E+00 0.  1.
         11    1    1    2    0    0  0.44185116293E+02 -0.32839557050E+01 -0.89260539133E+02  0.99652158598E+02  0.00000000000E+00 0. -1.
</event>
<event>
 6    1  0.6447971E-006  0.9073492E+02  0.7561462E-02  0.1301082E+00
          1   -1    0    0  501    0  0.00000000000E+00  0.00000000000E+00  0.53767537157E+03  0.53767537157E+03  0.00000000000E+00 0. -1.
         -1   -1    0    0    0  501 -0.00000000000E+00 -0.00000000000E+00 -0.33246662363E+02  0.33246662363E+02  0.00000000000E+00 0.  1.
          5    1    1    2  502    0  0.42246068754E+02 -0.32579409450E+02  0.14097297328E+03  0.15078793002E+03  0.41800000000E+01 0. -1.
         -5    1    1    2    0  502 -0.26655194927E+02 -0.76242527373E+01 -0.12803689441E+02  0.30822646053E+02  0.41800000000E+01 0.  1.
        -11    1    1    2    0    0 -0.16173249102E+02 -0.27666445148E+02  0.11548263943E+03  0.11984676125E+03  0.00000000000E+00 0.  1.
         11    1    1    2    0    0  0.58237527523E+00  0.67870107335E+02  0.26077678594E+03  0.26946469660E+03  0.00000000000E+00 0. -1.
</event>
<event>
 6    1  0.6447971E-006  0.8667422E+02  0.7561462E-02  0.1311111E+00
          2   -1    0    0  501    0  0.00000000000E+00  0.00000000000E+00  0.89000337701E+02  0.89000337701E+02  0.00000000000E+00 0. -1.
         -2   -1    0    0    0  501 -0.00000000000E+00 -0.00000000000E+00 -0.15404160581E+03  0.15404160581E+03  0.00000000000E+00 0.  1.
          5    1    1    2  502    0 -0.55427416854E+02  0.21794188265E+02 -0.14227790864E+02  0.61376604778E+02  0.41800000000E+01 0. -1.
         -5    1    1    2    0  502  0.39319588115E+02 -0.56184835170E+02 -0.44935551854E+02  0.82094104131E+02  0.41800000000E+01 0. -1.
        -11    1    1    2    0    0  0.10244837111E+02  0.19666892620E+00 -0.45654786198E+02  0.46790542515E+02  0.00000000000E+00 0.  1.
         11    1    1    2    0    0  0.58629916272E+01  0.34193977979E+02  0.39776860810E+02  0.52780692083E+02  0.00000000000E+00 0. -1.
</event>
<event>
 6    1  0.6447971E-006  0.8991248E+02  0.7561462E-02  0.1303064E+00
         -3   -1    0    0    0  501 -0.00000000000E+00  0.00000000000E+00  0.34062566343E+02  0.34062566343E+02  0.00000000000E+00 0.  1.
          3   -1    0    0  501    0  0.00000000000E+00 -0.00000000000E+00 -0.37721037575E+03  0.37721037575E+03  0.00000000000E+00 0. -1.
          5    1    1    2  502    0 -0.49046264421E+02  0.10077443646E+02 -0.39309153014E+02  0.63794771218E+02  0.41800000000E+01 0.  1.
         -5    1    1    2    0  502  0.61824912911E+02  0.17678592158E+02 -0.17180459266E+03  0.18349153369E+03  0.41800000000E+01 0.  1.
        -11    1    1    2    0    0 -0.27177533781E+01  0.18044922985E+02  0.51894788502E+01  0.18971982492E+02  0.00000000000E+00 0.  1.
         11    1    1    2    0    0 -0.10060895112E+02 -0.45800958788E+02 -0.13722354259E+03  0.14501465470E+03  0.00000000000E+00 0. -1.
</event>
<event>
 6    1  0.6447971E-006  0.1057332E+03  0.7561462E-02  0.1268682E+00
         -1   -1    0    0    0  501 -0.00000000000E+00  0.00000000000E+00  0.57740674751E+02  0.57740674751E+02  0.00000000000E+00 0.  1.
          1   -1    0    0  501    0  0.00000000000E+00 -0.00000000000E+00 -0.23223670703E+03  0.23223670703E+03  0.00000000000E+00 0. -1.
          5    1    1    2  502    0  0.79368804505E+01 -0.45493942508E+02 -0.56057722257E+02  0.72750487976E+02  0.41800000000E+01 0.  1.
         -5    1    1    2    0  502 -0.25488722577E+02  0.78839653989E+02 -0.65573507184E+02  0.10574839604E+03  0.41800000000E+01 0.  1.
        -11    1    1    2    0    0 -0.24668924654E+02 -0.31314238621E+02  0.46144451245E+01  0.40130169297E+02  0.00000000000E+00 0.  1.
         11    1    1    2    0    0  0.42220766781E+02 -0.20314728610E+01 -0.57479247968E+02  0.71348328477E+02  0.00000000000E+00 0. -1.
</event>
<event>
 6    1  0.6447971E-006  0.1033807E+03  0.7561462E-02  0.1273343E+00
          2   -1    0    0  501    0  0.00000000000E+00  0.00000000000E+00  0.19634647756E+02  0.19634647756E+02  0.00000000000E+00 0. -1.
         -2   -1    0    0    0  501 -0.00000000000E+00 -0.00000000000E+00 -0.60441504999E+03  0.60441504999E+03  0.00000000000E+00 0.  1.
          5    1    1    2  502    0 -0.17132332830E+02  0.58686182864E+02 -0.25542477285E+03  0.26267255638E+03  0.41800000000E+01 0.  1.
         -5    1    1    2    0  502  0.12311591833E+02 -0.55164888106E+02 -0.11230484117E+03  0.12579582633E+03  0.41800000000E+01 0.  1.
        -11    1    1    2    0    0 -0.41890536726E+02 -0.41084245068E+01 -0.74463703924E+02  0.85536772333E+02  0.00000000000E+00 0.  1.
         11    1    1    2    0    0  0.46711277723E+02  0.58712974917E+00 -0.14258708430E+03  0.15004454271E+03  0.00000000000E+00 0. -1.
</event>
<event>
 6    1  0.6447971E-006  0.9341748E+02  0.7561462E-02  0.1294781E+00
          2   -1    0    0  501    0  0.00000000000E+00  0.00000000000E+00  0.41162138368E+03  0.41162138368E+03  0.00000000000E+00 0. -1.
         -2   -1    0    0    0  501 -0.00000000000E+00 -0.00000000000E+00 -0.36547090145E+02  0.36547090145E+02  0.00000000000E+00 0.  1.
          5    1    1    2  502    0 -0.36105251800E+02 -0.88075037180E+01  0.10012962594E+03  0.10688580692E+03  0.41800000000E+01 0. -1.
         -5    1    1    2    0  502  0.69774812310E+02 -0.11774613850E+01  0.27154070530E+02  0.74998178608E+02  0.41800000000E+01 0. -1.
        -11    1    1    2    0    0  0.21304397687E+02  0.12121470413E+02  0.19113660858E+02  0.31082783613E+02  0.00000000000E+00 0.  1.
         11    1    1    2    0    0 -0.54973958197E+02 -0.21365053102E+01  0.22867693621E+03  0.23520170469E+03  0.00000000000E+00 0. -1.
</event>
<event>
 6    1  0.6447971E-006  0.1259960E+03  0.7561462E-02  0.1233521E+00
         -2   -1    0    0    0  501 -0.00000000000E+00  0.00000000000E+00  0.35096329399E+03  0.35096329399E+03  0.00000000000E+00 0.  1.
          2   -1    0    0  501    0  0.00000000000E+00 -0.00000000000E+00 -0.55534412683E+02  0.55534412683E+02  0.00000000000E+00 0. -1.
          5    1    1    2  502    0  0.46881759381E+02  0.94775468869E+02  0.13637758899E+03  0.17261694019E+03  0.41800000000E+01 0.  1.
         -5    1    1    2    0  502 -0.42734160296E+02 -0.11203261379E+02  0.67607081879E+02  0.80869718943E+02  0.41800000000E+01 0.  1.
        -11    1    1    2    0    0 -0.30780150567E+02 -0.52645562515E+02  0.94075932244E+02  0.11211268416E+03  0.00000000000E+00 0. -1.
         11    1    1    2    0    0  0.26632551481E+02 -0.30926644975E+02 -0.26317218035E+01  0.40898363384E+02  0.00000000000E+00 0.  1.
</event>
<event>
 6    1  0.6447971E-006  0.7122570E+02  0.7561462E-02  0.1355974E+00
          2   -1    0    0  501    0  0.00000000000E+00  0.00000000000E+00  0.10246684219E+03  0.10246684219E+03  0.00000000000E+00 0. -1.
         -2   -1    0    0    0  501 -0.00000000000E+00 -0.00000000000E+00 -0.13967967529E+03  0.13967967529E+03  0.00000000000E+00 0.  1.
          5    1    1    2  502    0 -0.30980134339E+02  0.27950452233E+01  0.31846347557E+02  0.44712898075E+02  0.41800000000E+01 0. -1.
         -5    1    1    2    0  502  0.13627104081E+02  0.92895622968E+01 -0.96611948911E+02  0.98098598388E+02  0.41800000000E+01 0.  1.
        -11    1    1    2    0    0 -0.22208048469E+02 -0.39918746079E+02  0.49652900904E+01  0.45949513719E+02  0.00000000000E+00 0.  1.
         11    1    1    2    0    0  0.39561078728E+02  0.27834138559E+02  0.22587478164E+02  0.53385507296E+02  0.00000000000E+00 0. -1.
</event>
<event>
 6    1  0.6447971E-006  0.1073011E+03  0.7561462E-02  0.1265651E+00
          2   -1    0    0  501    0  0.00000000000E+00  0.00000000000E+00  0.12296287680E+03  0.12296287680E+03  0.00000000000E+00 0. -1.
         -2   -1    0    0    0  501 -0.00000000000E+00 -0.00000000000E+00 -0.12612914516E+03  0.12612914516E+03  0.00000000000E+00 0.  1.
          5    1    1    2  502    0 -0.61737540390E+02  0.35702000323E+01  0.11606548787E+02  0.63059135710E+02  0.41800000000E+01 0.  1.
         -5    1    1    2    0  502  0.39210944813E+02  0.37005314756E+02 -0.55259894548E+02  0.77317655544E+02  0.41800000000E+01 0.  1.
        -11    1    1    2    0    0 -0.28640963347E+02  0.61014096150E+01  0.16962757098E+01  0.29332734820E+02  0.00000000000E+00 0.  1.
         11    1    1    2    0    0  0.51167558923E+02 -0.46676924403E+02  0.38790801683E+02  0.79382495886E+02  0.00000000000E+00 0. -1.
</event>
<event>
 6    1  0.6447971E-006  0.9527226E+02  0.7561462E-02  0.1290564E+00
         -1   -1    0    0    0  501 -0.00000000000E+00  0.00000000000E+00  0.65276612393E+02  0.65276612393E+02  0.00000000000E+00 0.  1.
          1   -1    0    0  501    0  0.00000000000E+00 -0.00000000000E+00 -0.18441333712E+03  0.18441333712E+03  0.00000000000E+00 0. -1.
          5    1    1    2  502    0 -0.28938827423E+02 -0.30522059414E+02  0.14464149499E+02  0.44673659624E+02  0.41800000000E+01 0.  1.
         -5    1    1    2    0  502  0.38992654237E+02  0.42406756363E+02 -0.76356919957E+02  0.95742423695E+02  0.41800000000E+01 0.  1.
        -11    1    1    2    0    0 -0.49702674329E+02 -0.10750480379E+02 -0.19326301474E+02  0.54400685588E+02  0.00000000000E+00 0.  1.
         11    1    1    2    0    0  0.39648847515E+02 -0.11342165696E+01 -0.37917652799E+02  0.54873180611E+02  0.00000000000E+00 0. -1.
</event>
<event>
 6    1  0.6447971E-006  0.1041271E+03  0.7561462E-02  0.1271849E+00
          1   -1    0    0  501    0  0.00000000000E+00  0.00000000000E+00  0.19374286465E+03  0.19374286465E+03  0.00000000000E+00 0. -1.
         -1   -1    0    0    0  501 -0.00000000000E+00 -0.00000000000E+00 -0.82521249512E+02  0.82521249512E+02  0.00000000000E+00 0.  1.
          5    1    1    2  502    0  0.38542678530E+02  0.14824789983E+02  0.19924443368E+02  0.46040941670E+02  0.41800000000E+01 0.  1.
         -5    1    1    2    0  502 -0.70818424303E+02 -0.59566301755E+02  0.37566845684E+01  0.92709107451E+02  0.41800000000E+01 0.  1.
        -11    1    1    2    0    0  0.35708661534E+02  0.72133642077E+01  0.92583834109E+02  0.99493253390E+02  0.00000000000E+00 0. -1.
         11    1    1    2    0    0 -0.34329157608E+01  0.37528147564E+02 -0.50433469125E+01  0.38020811647E+02  0.00000000000E+00 0.  1.
</event>
<event>
 6    1  0.6447971E-006  0.1787037E+03  0.7561462E-02  0.1169064E+00
          2   -1    0    0  501    0  0.00000000000E+00  0.00000000000E+00  0.63445995247E+03  0.63445995247E+03  0.00000000000E+00 0. -1.
         -2   -1    0    0    0  501 -0.00000000000E+00 -0.00000000000E+00 -0.76403606357E+02  0.76403606357E+02  0.00000000000E+00 0.  1.
          5    1    1    2  502    0 -0.12175639589E+03 -0.21237047374E+02  0.16841124541E+03  0.20893887169E+03  0.41800000000E+01 0. -1.
         -5    1    1    2    0  502 -0.52771242262E+02  0.26125888369E+02 -0.73976013899E+01  0.59494226268E+02  0.41800000000E+01 0. -1.
        -11    1    1    2    0    0  0.35158591035E+02  0.15401884539E+01  0.18694043428E+03  0.19022414324E+03  0.00000000000E+00 0.  1.
         11    1    1    2    0    0  0.13936904711E+03 -0.64290294491E+01  0.21010226782E+03  0.25220631764E+03  0.00000000000E+00 0. -1.
</event>
<event>
 6    1  0.6447971E-006  0.1553909E+03  0.7561462E-02  0.1194001E+00
         -1   -1    0    0    0  501 -0.00000000000E+00  0.00000000000E+00  0.68294045191E+02  0.68294045191E+02  0.00000000000E+00 0.  1.
          1   -1    0    0  501    0  0.00000000000E+00 -0.00000000000E+00 -0.63502333336E+03  0.63502333336E+03  0.00000000000E+00 0. -1.
          5    1    1    2  502    0 -0.63449863657E+02 -0.12259762562E+03 -0.43298623692E+02  0.14473529707E+03  0.41800000000E+01 0. -1.
         -5    1    1    2    0  502  0.12942397365E+02 -0.14676822756E+02 -0.83216593766E+02  0.85588484352E+02  0.41800000000E+01 0. -1.
        -11    1    1    2    0    0 -0.74952120651E+00  0.59588135946E+02 -0.29170424476E+03  0.29772919598E+03  0.00000000000E+00 0. -1.
         11    1    1    2    0    0  0.51256987498E+02  0.77686312426E+02 -0.14850982595E+03  0.17526440115E+03  0.00000000000E+00 0.  1.
</event>
<event>
 6    1  0.6447971E-006  0.1131916E+03  0.7561462E-02  0.1254771E+00
          2   -1    0    0  501    0  0.00000000000E+00  0.00000000000E+00  0.41137962579E+03  0.41137962579E+03  0.00000000000E+00 0. -1.
         -2   -1    0    0    0  501 -0.00000000000E+00 -0.00000000000E+00 -0.37955787599E+02  0.37955787599E+02  0.00000000000E+00 0.  1.
          5    1    1    2  502    0 -0.21354596982E+02 -0.81947689309E+02  0.80219831724E+02  0.11672247597E+03  0.41800000000E+01 0.  1.
         -5    1    1    2    0  502  0.40505227755E+02  0.26250055141E+02  0.93508653314E+02  0.10531419427E+03  0.41800000000E+01 0.  1.
        -11    1    1    2    0    0 -0.38932316528E+02  0.61272943927E+02  0.89680591776E+02  0.11538070666E+03  0.00000000000E+00 0.  1.
         11    1    1    2    0    0  0.19781685754E+02 -0.55753097598E+01  0.11001476138E+03  0.11191803649E+03  0.00000000000E+00 0. -1.
</event>
<event>
 6    1  0.6447971E-006  0.9068581E+02  0.7561462E-02  0.1301199E+00
          2   -1    0    0  501    0  0.00000000000E+00  0.00000000000E+00  0.18564656265E+03  0.18564656265E+03  0.00000000000E+00 0. -1.
         -2   -1    0    0    0  501 -0.00000000000E+00 -0.00000000000E+00 -0.11077832224E+03  0.11077832224E+03  0.00000000000E+00 0.  1.
          5    1    1    2  502    0  0.10558210552E+02 -0.63996394100E+02  0.33072321022E+02  0.72926436124E+02  0.41800000000E+01 0. -1.
         -5    1    1    2    0  502 -0.43538236636E+01  0.23415085129E+02 -0.55613299442E+02  0.60642670348E+02  0.41800000000E+01 0. -1.
        -11    1    1    2    0    0  0.37223538650E+02  0.84439809547E+01  0.10173249127E+03  0.10865722444E+03  0.00000000000E+00 0.  1.
         11    1    1    2    0    0 -0.43427925539E+02  0.32137328016E+02 -0.43232724426E+01  0.54198553977E+02  0.00000000000E+00 0. -1.
</event>
<event>
 6    1  0.6447971E-006  0.6741443E+02  0.7561462E-02  0.1369113E+00
         -4   -1    0    0    0  501 -0.00000000000E+00  0.00000000000E+00  0.73437866650E+02  0.73437866650E+02  0.00000000000E+00 0.  1.
          4   -1    0    0  501    0  0.00000000000E+00 -0.00000000000E+00 -0.16268593129E+03  0.16268593129E+03  0.00000000000E+00 0. -1.
          5    1    1    2  502    0 -0.80711736356E+01  0.52305082844E+02  0.12519141546E+02  0.54545089974E+02  0.41800000000E+01 0.  1.
         -5    1    1    2    0  502 -0.91275680883E+01 -0.45929144230E+02 -0.70052227440E+02  0.84365785471E+02  0.41800000000E+01 0.  1.
        -11    1    1    2    0    0  0.17899487477E+02  0.85131360789E+01  0.28759758228E+02  0.34928338511E+02  0.00000000000E+00 0.  1.
         11    1    1    2    0    0 -0.70074575325E+00 -0.14889074693E+02 -0.60474736974E+02  0.62284583983E+02  0.00000000000E+00 0. -1.
</event>
<event>
 6    1  0.6447971E-006  0.1251083E+03  0.7561462E-02  0.1234900E+00
         -2   -1    0    0    0  501 -0.00000000000E+00  0.00000000000E+00  0.27362195143E+02  0.27362195143E+02  0.00000000000E+00 0.  1.
          2   -1    0    0  501    0  0.00000000000E+00 -0.00000000000E+00 -0.68225125952E+03  0.68225125952E+03  0.00000000000E+00 0. -1.
          5    1    1    2  502    0 -0.55033310496E+02  0.78202035418E+02 -0.13401462304E+03  0.16468641473E+03  0.41800000000E+01 0.  1.
         -5    1    1    2    0  502  0.42173368243E+02 -0.90816918771E+01 -0.11232495176E+03  0.12039699874E+03  0.41800000000E+01 0.  1.
        -11    1    1    2    0    0 -0.36587729673E+02 -0.21129614672E+02 -0.10343786598E+03  0.11173412503E+03  0.00000000000E+00 0.  1.
         11    1    1    2    0    0  0.49447671926E+02 -0.47990728869E+02 -0.30511162360E+03  0.31279591616E+03  0.00000000000E+00 0. -1.
</event>
<event>
 6    1  0.6447971E-006  0.1846631E+03  0.7561462E-02  0.1163365E+00
         -2   -1    0    0    0  501 -0.00000000000E+00  0.00000000000E+00  0.82300081102E+02  0.82300081102E+02  0.00000000000E+00 0. -1.
          2   -1    0    0  501    0  0.00000000000E+00 -0.00000000000E+00 -0.66028122362E+03  0.66028122362E+03  0.00000000000E+00 0.  1.
          5    1    1    2  502    0  0.45201871295E+02 -0.15732261023E+02 -0.11139190249E+03  0.12131092921E+03  0.41800000000E+01 0.  1.
         -5    1    1    2    0  502  0.12813475953E+03 -0.15935213005E+02 -0.17680348064E+02  0.13039369126E+03  0.41800000000E+01 0.  1.
        -11    1    1    2    0    0 -0.50532972748E+02 -0.25537673903E+02 -0.19542703950E+03  0.20346371149E+03  0.00000000000E+00 0. -1.
         11    1    1    2    0    0 -0.12280365807E+03  0.57205147931E+02 -0.25348185246E+03  0.28741297276E+03  0.00000000000E+00 0.  1.
</event>
<event>
 6    1  0.6447971E-006  0.1279857E+03  0.7561462E-02  0.1230476E+00
          4   -1    0    0  501    0  0.00000000000E+00  0.00000000000E+00  0.12721513494E+03  0.12721513494E+03  0.00000000000E+00 0. -1.
         -4   -1    0    0    0  501 -0.00000000000E+00 -0.00000000000E+00 -0.16650346751E+03  0.16650346751E+03  0.00000000000E+00 0.  1.
          5    1    1    2  502    0  0.72431100840E+02  0.17690761834E+02 -0.34666519027E+02  0.82331448212E+02  0.41800000000E+01 0. -1.
         -5    1    1    2    0  502 -0.21276811579E+02  0.69081502673E+02 -0.74278095289E+01  0.72784623904E+02  0.41800000000E+01 0.  1.
        -11    1    1    2    0    0 -0.17412379262E+02 -0.18511225553E+01 -0.35449905877E+02  0.39538758617E+02  0.00000000000E+00 0.  1.
         11    1    1    2    0    0 -0.33741909999E+02 -0.84921141951E+02  0.38255901860E+02  0.99063771722E+02  0.00000000000E+00 0. -1.
</event>
<event>
 6    1  0.6447971E-006  0.1291187E+03  0.7561462E-02  0.1228769E+00
         -1   -1    0    0    0  501 -0.00000000000E+00  0.00000000000E+00  0.51464256795E+02  0.51464256795E+02  0.00000000000E+00 0.  1.
          1   -1    0    0  501    0  0.00000000000E+00 -0.00000000000E+00 -0.41157513251E+03  0.41157513251E+03  0.00000000000E+00 0. -1.
          5    1    1    2  502    0 -0.25038734074E+02 -0.93875484101E+02 -0.14731505414E+03  0.17651839082E+03  0.41800000000E+01 0.  1.
         -5    1    1    2    0  502 -0.34804977628E+02  0.22075019785E+02 -0.51887497240E+01  0.41750311255E+02  0.41800000000E+01 0.  1.
        -11    1    1    2    0    0 -0.17059656412E+02  0.22415479680E+02 -0.15789096058E+02  0.32292122267E+02  0.00000000000E+00 0.  1.
         11    1    1    2    0    0  0.76903368114E+02  0.49384984636E+02 -0.19181797579E+03  0.21247856497E+03  0.00000000000E+00 0. -1.
</event>
<event>
 6    1  0.6447971E-006  0.1370952E+03  0.7561462E-02  0.1217292E+00
          1   -1    0    0  501    0  0.00000000000E+00  0.00000000000E+00  0.46503093889E+03  0.46503093889E+03  0.00000000000E+00 0. -1.
         -1   -1    0    0    0  501 -0.00000000000E+00 -0.00000000000E+00 -0.46785907163E+02  0.46785907163E+02  0.00000000000E+00 0.  1.
          5    1    1    2  502    0 -0.81701448405E+00 -0.60944725188E+02  0.43288045104E+02  0.74874924306E+02  0.41800000000E+01 0.  1.
         -5    1    1    2    0  502 -0.87422105584E+02  0.27536123810E+02  0.12503842053E+03  0.15509010822E+03  0.41800000000E+01 0.  1.
        -11    1    1    2    0    0  0.24325368291E+02  0.49747622951E+02  0.64299872969E+02  0.84858842766E+02  0.00000000000E+00 0.  1.
         11    1    1    2    0    0  0.63913751776E+02 -0.16339021572E+02  0.18561869312E+03  0.19699297076E+03  0.00000000000E+00 0. -1.
</event>
<event>
 6    1  0.6447971E-006  0.1233498E+03  0.7561462E-02  0.1237671E+00
         -1   -1    0    0    0  501 -0.00000000000E+00  0.00000000000E+00  0.13753695607E+03  0.13753695607E+03  0.00000000000E+00 0.  1.
          1   -1    0    0  501    0  0.00000000000E+00 -0.00000000000E+00 -0.17123773792E+03  0.17123773792E+03  0.00000000000E+00 0. -1.
          5    1    1    2  502    0 -0.19349870623E+02 -0.20792595301E+02  0.40052081830E+02  0.49278709108E+02  0.41800000000E+01 0.  1.
         -5    1    1    2    0  502  0.10039382834E+03 -0.45924170878E+02 -0.29537244695E+02  0.11435852161E+03  0.41800000000E+01 0.  1.
        -11    1    1    2    0    0 -0.48302452320E+02  0.53834325775E+02  0.17211599201E+02  0.74347163220E+02  0.00000000000E+00 0.  1.
         11    1    1    2    0    0 -0.32741505399E+02  0.12882440404E+02 -0.61427218192E+02  0.70790300051E+02  0.00000000000E+00 0. -1.
</event>
<event>
 6    1  0.6447971E-006  0.1057423E+03  0.7561462E-02  0.1268664E+00
         -1   -1    0    0    0  501 -0.00000000000E+00  0.00000000000E+00  0.24935867374E+03  0.24935867374E+03  0.00000000000E+00 0.  1.
          1   -1    0    0  501    0  0.00000000000E+00 -0.00000000000E+00 -0.54957965865E+02  0.54957965865E+02  0.00000000000E+00 0. -1.
          5    1    1    2  502    0  0.14610188352E+02 -0.75881834039E+02  0.11311810160E+03  0.13705724224E+03  0.41800000000E+01 0. -1.
         -5    1    1    2    0  502 -0.49585286474E+01  0.33678788308E+02 -0.39483148963E+01  0.34524040592E+02  0.41800000000E+01 0. -1.
        -11    1    1    2    0    0 -0.98003467970E+01  0.70662375868E+02  0.48477579897E+02  0.86251341516E+02  0.00000000000E+00 0. -1.
         11    1    1    2    0    0  0.14868709245E+00 -0.28459330136E+02  0.36753341270E+02  0.46484015255E+02  0.00000000000E+00 0.  1.
</event>
<event>
 6    1  0.6447971E-006  0.1629037E+03  0.7561462E-02  0.1185457E+00
         -1   -1    0    0    0  501 -0.00000000000E+00  0.00000000000E+00  0.63949109332E+02  0.63949109332E+02  0.00000000000E+00 0.  1.
          1   -1    0    0  501    0  0.00000000000E+00 -0.00000000000E+00 -0.45295447771E+03  0.45295447771E+03  0.00000000000E+00 0. -1.
          5    1    1    2  502    0  0.68273556117E+02 -0.12552181313E+03 -0.16698776468E+03  0.21981671909E+03  0.41800000000E+01 0.  1.
         -5    1    1    2    0  502 -0.31174838757E+02  0.77799212157E+01 -0.47112306173E+02  0.57179013095E+02  0.41800000000E+01 0.  1.
        -11    1    1    2    0    0 -0.63170920693E+02  0.60101876131E+02 -0.14666902738E+03  0.17063002177E+03  0.00000000000E+00 0.  1.
         11    1    1    2    0    0  0.26072203332E+02  0.57640015783E+02 -0.28236270137E+02  0.69277833088E+02  0.00000000000E+00 0. -1.
</event>
<event>
 6    1  0.6447971E-006  0.1259679E+03  0.7561462E-02  0.1233564E+00
         -1   -1    0    0    0  501 -0.00000000000E+00  0.00000000000E+00  0.64219989287E+02  0.64219989287E+02  0.00000000000E+00 0.  1.
          1   -1    0    0  501    0  0.00000000000E+00 -0.00000000000E+00 -0.52239683617E+03  0.52239683617E+03  0.00000000000E+00 0. -1.
          5    1    1    2  502    0 -0.28422979443E+02 -0.21531442521E+02 -0.33347635512E+02  0.49000060935E+02  0.41800000000E+01 0.  1.
         -5    1    1    2    0  502  0.98160384311E+02  0.11192495565E+02 -0.21331706688E+01  0.98907814767E+02  0.41800000000E+01 0.  1.
        -11    1    1    2    0    0 -0.46052876110E+02 -0.40331431620E+02 -0.23640474794E+03  0.24420216343E+03  0.00000000000E+00 0.  1.
         11    1    1    2    0    0 -0.23684528757E+02  0.50670378576E+02 -0.18629129276E+03  0.19450678632E+03  0.00000000000E+00 0. -1.
</event>
<event>
 6    1  0.6447971E-006  0.8715384E+02  0.7561462E-02  0.1309894E+00
         -2   -1    0    0    0  501 -0.00000000000E+00  0.00000000000E+00  0.23735101722E+03  0.23735101722E+03  0.00000000000E+00 0.  1.
          2   -1    0    0  501    0  0.00000000000E+00 -0.00000000000E+00 -0.39102373406E+02  0.39102373406E+02  0.00000000000E+00 0. -1.
          5    1    1    2  502    0 -0.59967477281E+01 -0.45188028998E+02  0.29853583552E+02  0.54650048481E+02  0.41800000000E+01 0. -1.
         -5    1    1    2    0  502 -0.17273818332E+02  0.73752825113E+02  0.14298442339E+03  0.16186377526E+03  0.41800000000E+01 0. -1.
        -11    1    1    2    0    0  0.69431854143E+01 -0.34578465011E+02  0.99040714297E+01  0.36632890919E+02  0.00000000000E+00 0.  1.
         11    1    1    2    0    0  0.16327380646E+02  0.60136688963E+01  0.15506565443E+02  0.23306675958E+02  0.00000000000E+00 0. -1.
</event>
<event>
 6    1  0.6447971E-006  0.1087129E+03  0.7561462E-02  0.1262972E+00
          1   -1    0    0  501    0  0.00000000000E+00  0.00000000000E+00  0.19417410756E+03  0.19417410756E+03  0.00000000000E+00 0. -1.
         -1   -1    0    0    0  501 -0.00000000000E+00 -0.00000000000E+00 -0.89134782806E+02  0.89134782806E+02  0.00000000000E+00 0.  1.
          5    1    1    2  502    0  0.13770863794E+02  0.57766254142E+02  0.66581547565E+02  0.89314901799E+02  0.41800000000E+01 0. -1.
         -5    1    1    2    0  502  0.38881911612E+02 -0.34518673502E+02 -0.37098005526E+02  0.64008407924E+02  0.41800000000E+01 0.  1.
        -11    1    1    2    0    0 -0.77871503596E+02 -0.19036489793E+02  0.58779525088E+02  0.99405188926E+02  0.00000000000E+00 0.  1.
         11    1    1    2    0    0  0.25218728190E+02 -0.42110908469E+01  0.16776257627E+02  0.30580391717E+02  0.00000000000E+00 0. -1.
</event>
<event>
 6    1  0.6447971E-006  0.9697890E+02  0.7561462E-02  0.1286780E+00
          2   -1    0    0  501    0  0.00000000000E+00  0.00000000000E+00  0.37759006730E+03  0.37759006730E+03  0.00000000000E+00 0. -1.
         -2   -1    0    0    0  501 -0.00000000000E+00 -0.00000000000E+00 -0.45739093043E+02  0.45739093043E+02  0.00000000000E+00 0.  1.
          5    1    1    2  502    0 -0.24987906097E+01 -0.83641243113E+01 -0.20483825035E+02  0.22655286757E+02  0.41800000000E+01 0.  1.
         -5    1    1    2    0  502  0.62521239549E+02  0.43131829309E+02  0.15994761802E+03  0.17711570513E+03  0.41800000000E+01 0.  1.
        -11    1    1    2    0    0 -0.80928190909E+02 -0.22620736642E+02  0.11464360777E+03  0.14214157243E+03  0.00000000000E+00 0.  1.
         11    1    1    2    0    0  0.20905741970E+02 -0.12146968356E+02  0.77743573499E+02  0.81416596022E+02  0.00000000000E+00 0. -1.
</event>
<event>
 6    1  0.6447971E-006  0.9993933E+02  0.7561462E-02  0.1280424E+00
         -2   -1    0    0    0  501 -0.00000000000E+00  0.00000000000E+00  0.65464714182E+02  0.65464714182E+02  0.00000000000E+00 0.  1.
          2   -1    0    0  501    0  0.00000000000E+00 -0.00000000000E+00 -0.31166548177E+03  0.31166548177E+03  0.00000000000E+00 0. -1.
          5    1    1    2  502    0  0.13159091742E+02 -0.31207639728E+02 -0.13255748733E+03  0.13687964903E+03  0.41800000000E+01 0.  1.
         -5    1    1    2    0  502  0.11049740644E+02 -0.56353553562E+02  0.12425937596E+02  0.58904126277E+02  0.41800000000E+01 0.  1.
        -11    1    1    2    0    0 -0.58315580633E+01  0.89505006880E+02 -0.49231307557E+02  0.10231752035E+03  0.00000000000E+00 0.  1.
         11    1    1    2    0    0 -0.18377274322E+02 -0.19438135905E+01 -0.76837910300E+02  0.79028900297E+02  0.00000000000E+00 0. -1.
</event>
<event>
 6    1  0.6447971E-006  0.1708341E+03  0.7561462E-02  0.1176981E+00
          2   -1    0    0  501    0  0.00000000000E+00  0.00000000000E+00  0.78424673530E+02  0.78424673530E+02  0.00000000000E+00 0. -1.
         -2   -1    0    0    0  501 -0.00000000000E+00 -0.00000000000E+00 -0.49953596131E+03  0.49953596131E+03  0.00000000000E+00 0.  1.
          5    1    1    2  502    0  0.73261765334E+02 -0.30559199100E+02 -0.18272552783E+03  0.19926676048E+03  0.41800000000E+01 0.  1.
         -5    1    1    2    0  502 -0.17530982602E+02 -0.10804704532E+03 -0.14064238939E+03  0.17826736506E+03  0.41800000000E+01 0.  1.
        -11    1    1    2    0    0 -0.30708884878E+02  0.11191966642E+03 -0.11188514289E+03  0.16120587006E+03  0.00000000000E+00 0. -1.
         11    1    1    2    0    0 -0.25021897854E+02  0.26686578001E+02  0.14141772332E+02  0.39220639239E+02  0.00000000000E+00 0.  1.
</event>
<event>
 6    1  0.6447971E-006  0.2736013E+03  0.7561462E-02  0.1099236E+00
          1   -1    0    0  501    0  0.00000000000E+00  0.00000000000E+00  0.49056918179E+03  0.49056918179E+03  0.00000000000E+00 0. -1.
         -1   -1    0    0    0  501 -0.00000000000E+00 -0.00000000000E+00 -0.26979717469E+03  0.26979717469E+03  0.00000000000E+00 0.  1.
          5    1    1    2  502    0  0.10739267667E+03  0.61313431650E+01 -0.40596561202E+01  0.10772526899E+03  0.41800000000E+01 0.  1.
         -5    1    1    2    0  502  0.12657733236E+03  0.11877285951E+03 -0.11786561489E+03  0.20985373191E+03  0.41800000000E+01 0.  1.
        -11    1    1    2    0    0 -0.12442920409E+03 -0.55466515006E+02  0.10496712267E+03  0.17198039993E+03  0.00000000000E+00 0.  1.
         11    1    1    2    0    0 -0.10954080494E+03 -0.69437687672E+02  0.23773015544E+03  0.27080695564E+03  0.00000000000E+00 0. -1.
</event>
<event>
 6    1  0.6447971E-006  0.2085118E+03  0.7561462E-02  0.1142750E+00
          2   -1    0    0  501    0  0.00000000000E+00  0.00000000000E+00  0.39328487051E+03  0.39328487051E+03  0.00000000000E+00 0.  1.
         -2   -1    0    0    0  501 -0.00000000000E+00 -0.00000000000E+00 -0.22004967957E+03  0.22004967957E+03  0.00000000000E+00 0. -1.
          5    1    1    2  502    0  0.16415146041E+02  0.34529438468E+02  0.26795504635E+02  0.46874413160E+02  0.41800000000E+01 0. -1.
         -5    1    1    2    0  502 -0.38836390123E+01  0.16544633849E+03 -0.13188383412E+03  0.21165630553E+03  0.41800000000E+01 0. -1.
        -11    1    1    2    0    0 -0.34038225671E+02 -0.18150353410E+03  0.26617045461E+03  0.32395809082E+03  0.00000000000E+00 0.  1.
         11    1    1    2    0    0  0.21506718643E+02 -0.18472242855E+02  0.12153065813E+02  0.30845740573E+02  0.00000000000E+00 0. -1.
</event>
<event>
 6    1  0.6447971E-006  0.1304540E+03  0.7561462E-02  0.1226784E+00
         -2   -1    0    0    0  501 -0.00000000000E+00  0.00000000000E+00  0.19196578503E+03  0.19196578503E+03  0.00000000000E+00 0. -1.
          2   -1    0    0  501    0  0.00000000000E+00 -0.00000000000E+00 -0.12724170709E+03  0.12724170709E+03  0.00000000000E+00 0.  1.
          5    1    1    2  502    0  0.17942768324E+02  0.12456341342E+03  0.87025840220E+02  0.15306520233E+03  0.41800000000E+01 0.  1.
         -5    1    1    2    0  502  0.11884905436E+02 -0.23712800880E+02 -0.86147578553E+01  0.28199899924E+02  0.41800000000E+01 0.  1.
        -11    1    1    2    0    0 -0.30005469403E+02 -0.58135468445E+02 -0.49629732578E+02  0.82116814607E+02  0.00000000000E+00 0.  1.
         11    1    1    2    0    0  0.17779564203E+00 -0.42715144096E+02  0.35942728152E+02  0.55825575263E+02  0.00000000000E+00 0. -1.
</event>
<event>
 6    1  0.6447971E-006  0.3673443E+03  0.7561462E-02  0.1055713E+00
         -1   -1    0    0    0  501 -0.00000000000E+00  0.00000000000E+00  0.18966469439E+03  0.18966469439E+03  0.00000000000E+00 0.  1.
          1   -1    0    0  501    0  0.00000000000E+00 -0.00000000000E+00 -0.81509442965E+03  0.81509442965E+03  0.00000000000E+00 0. -1.
          5    1    1    2  502    0  0.17106962475E+03 -0.25861669523E+03 -0.13753828133E+03  0.33923688301E+03  0.41800000000E+01 0.  1.
         -5    1    1    2    0  502  0.64696759684E+02 -0.69326117698E+01 -0.14504989708E+02  0.66795201519E+02  0.41800000000E+01 0.  1.
        -11    1    1    2    0    0 -0.19029752066E+03  0.17722523779E+03 -0.39146631121E+03  0.46996574779E+03  0.00000000000E+00 0.  1.
         11    1    1    2    0    0 -0.45468863779E+02  0.88324069207E+02 -0.81920153017E+02  0.12876129172E+03  0.00000000000E+00 0. -1.
</event>
<event>
 6    1  0.6447971E-006  0.1213813E+03  0.7561462E-02  0.1240836E+00
         -1   -1    0    0    0  501 -0.00000000000E+00  0.00000000000E+00  0.80339738632E+02  0.80339738632E+02  0.00000000000E+00 0.  1.
          1   -1    0    0  501    0  0.00000000000E+00 -0.00000000000E+00 -0.30392146894E+03  0.30392146894E+03  0.00000000000E+00 0. -1.
          5    1    1    2  502    0  0.44843946150E+02 -0.29861321342E+02 -0.80084469612E+02  0.96610934638E+02  0.41800000000E+01 0. -1.
         -5    1    1    2    0  502  0.52857562238E+02  0.38462635660E+02  0.27176511878E+02  0.70917779333E+02  0.41800000000E+01 0. -1.
        -11    1    1    2    0    0 -0.49501849321E+02  0.33047157355E+02 -0.12469428439E+03  0.13817095300E+03  0.00000000000E+00 0. -1.
         11    1    1    2    0    0 -0.48199659067E+02 -0.41648471673E+02 -0.45979488183E+02  0.78561540593E+02  0.00000000000E+00 0.  1.
</event>
<event>
 6    1  0.6447971E-006  0.8008067E+02  0.7561462E-02  0.1328823E+00
         -1   -1    0    0    0  501 -0.00000000000E+00  0.00000000000E+00  0.30618809014E+02  0.30618809014E+02  0.00000000000E+00 0.  1.
          1   -1    0    0  501    0  0.00000000000E+00 -0.00000000000E+00 -0.59393989832E+03  0.59393989832E+03  0.00000000000E+00 0. -1.
          5    1    1    2  502    0  0.12869353255E+02  0.17569020518E+02 -0.14843913119E+03  0.15008643777E+03  0.41800000000E+01 0.  1.
         -5    1    1    2    0  502 -0.52647855828E+02 -0.81050026248E+00 -0.57983086091E+01  0.53137053142E+02  0.41800000000E+01 0.  1.
        -11    1    1    2    0    0 -0.21718632583E+02 -0.74917737883E+01 -0.33399862065E+02  0.40538579918E+02  0.00000000000E+00 0.  1.
         11    1    1    2    0    0  0.61497135157E+02 -0.92667464670E+01 -0.37568378744E+03  0.38079663650E+03  0.00000000000E+00 0. -1.
</event>
<event>
 6    1  0.6447971E-006  0.1050147E+03  0.7561462E-02  0.1270091E+00
         -1   -1    0    0    0  501 -0.00000000000E+00  0.00000000000E+00  0.14177001368E+03  0.14177001368E+03  0.00000000000E+00 0. -1.
          1   -1    0    0  501    0  0.00000000000E+00 -0.00000000000E+00 -0.13903474851E+03  0.13903474851E+03  0.00000000000E+00 0.  1.
          5    1    1    2  502    0  0.22717772124E+02 -0.31615258500E+02 -0.31301158743E+02  0.50128401919E+02  0.41800000000E+01 0.  1.
         -5    1    1    2    0  502  0.51618788761E+02  0.64131611618E+02  0.59383651563E+02  0.10159356985E+03  0.41800000000E+01 0.  1.
        -11    1    1    2    0    0 -0.32005168060E+02 -0.33189280271E+02 -0.59086046220E+02  0.74946780887E+02  0.00000000000E+00 0.  1.
         11    1    1    2    0    0 -0.42331392825E+02  0.67292715260E+00  0.33738818572E+02  0.54136009532E+02  0.00000000000E+00 0. -1.
</event>
<event>
 6    1  0.6447971E-006  0.1772715E+03  0.7561462E-02  0.1170470E+00
          1   -1    0    0  501    0  0.00000000000E+00  0.00000000000E+00  0.19709157018E+03  0.19709157018E+03  0.00000000000E+00 0. -1.
         -1   -1    0    0    0  501 -0.00000000000E+00 -0.00000000000E+00 -0.18191046314E+03  0.18191046314E+03  0.00000000000E+00 0.  1.
          5    1    1    2  502    0 -0.13539937502E+03  0.87773891567E+02  0.23438260527E+02  0.16310754505E+03  0.41800000000E+01 0. -1.
         -5    1    1    2    0  502  0.23165892109E+02  0.10303796722E+02  0.28328738108E+02  0.38246785314E+02  0.41800000000E+01 0. -1.
        -11    1    1    2    0    0  0.94011171972E+02 -0.11072408451E+03 -0.47641065089E+02  0.15286462779E+03  0.00000000000E+00 0.  1.
         11    1    1    2    0    0  0.18222310935E+02  0.12646396225E+02  0.11055173498E+02  0.24783075159E+02  0.00000000000E+00 0. -1.
</event>
<event>
 6    1  0.6447971E-006  0.2006398E+03  0.7561462E-02  0.1149200E+00
         -2   -1    0    0    0  501 -0.00000000000E+00  0.00000000000E+00  0.57139060792E+02  0.57139060792E+02  0.00000000000E+00 0. -1.
          2   -1    0    0  501    0  0.00000000000E+00 -0.00000000000E+00 -0.80541795638E+03  0.80541795638E+03  0.00000000000E+00 0.  1.
          5    1    1    2  502    0  0.14939397858E+02 -0.15124401092E+02 -0.14737159906E+02  0.26202850968E+02  0.41800000000E+01 0.  1.
         -5    1    1    2    0  502 -0.19320094126E+03  0.93105131541E+01 -0.27819599074E+03  0.33885656409E+03  0.41800000000E+01 0.  1.
        -11    1    1    2    0    0  0.12097459940E+03 -0.21181019859E+02 -0.20242182882E+03  0.23676588877E+03  0.00000000000E+00 0. -1.
         11    1    1    2    0    0  0.57286944003E+02  0.26994907797E+02 -0.25292391612E+03  0.26073171335E+03  0.00000000000E+00 0.  1.
</event>
<event>
 6    1  0.6447971E-006  0.1238295E+03  0.7561462E-02  0.1236910E+00
          1   -1    0    0  501    0  0.00000000000E+00  0.00000000000E+00  0.43095390356E+02  0.43095390356E+02  0.00000000000E+00 0. -1.
         -1   -1    0    0    0  501 -0.00000000000E+00 -0.00000000000E+00 -0.44042082042E+03  0.44042082042E+03  0.00000000000E+00 0.  1.
          5    1    1    2  502    0  0.29983177386E+02 -0.67053925720E+02 -0.56836851139E+02  0.92968381335E+02  0.41800000000E+01 0.  1.
         -5    1    1    2    0  502 -0.50710299587E+02 -0.13081018265E+02 -0.17880514017E+03  0.18636361789E+03  0.41800000000E+01 0.  1.
        -11    1    1    2    0    0 -0.32606035179E+02  0.11377765233E+02 -0.27001386106E+02  0.43836992637E+02  0.00000000000E+00 0. -1.
         11    1    1    2    0    0  0.53333157381E+02  0.68757178752E+02 -0.13468205265E+03  0.16034721891E+03  0.00000000000E+00 0.  1.
</event>
<event>
 6    1  0.6447971E-006  0.1224907E+03  0.7561462E-02  0.1239044E+00
          1   -1    0    0  501    0  0.00000000000E+00  0.00000000000E+00  0.53695938510E+02  0.53695938510E+02  0.00000000000E+00 0. -1.
         -1   -1    0    0    0  501 -0.00000000000E+00 -0.00000000000E+00 -0.39938720493E+03  0.39938720493E+03  0.00000000000E+00 0.  1.
          5    1    1    2  502    0  0.43794025858E+01 -0.11362084094E+03 -0.21335008523E+03  0.24179455314E+03  0.41800000000E+01 0. -1.
         -5    1    1    2    0  502 -0.52110544736E+01  0.16037046235E+02  0.67990105606E+01  0.18655853914E+02  0.41800000000E+01 0. -1.
        -11    1    1    2    0    0 -0.12147861795E+02  0.99905275380E+02 -0.70843595892E+02  0.12307497582E+03  0.00000000000E+00 0. -1.
         11    1    1    2    0    0  0.12979513682E+02 -0.23214806759E+01 -0.68296595859E+02  0.69557760558E+02  0.00000000000E+00 0.  1.
</event>
<event>
 6    1  0.6447971E-006  0.9326395E+02  0.7561462E-02  0.1295135E+00
         -2   -1    0    0    0  501 -0.00000000000E+00  0.00000000000E+00  0.52459794339E+02  0.52459794339E+02  0.00000000000E+00 0.  1.
          2   -1    0    0  501    0  0.00000000000E+00 -0.00000000000E+00 -0.26863042820E+03  0.26863042820E+03  0.00000000000E+00 0. -1.
          5    1    1    2  502    0  0.13924167150E+02 -0.23179987586E+02  0.19729110522E+02  0.33732839449E+02  0.41800000000E+01 0. -1.
         -5    1    1    2    0  502 -0.88459666223E+01  0.61253885298E+02 -0.10658063168E+03  0.12331744823E+03  0.41800000000E+01 0. -1.
        -11    1    1    2    0    0 -0.33234772434E+02 -0.55015845771E+02 -0.62875482661E+02  0.89914513314E+02  0.00000000000E+00 0.  1.
         11    1    1    2    0    0  0.28156571906E+02  0.16941948059E+02 -0.66443630043E+02  0.74125421542E+02  0.00000000000E+00 0. -1.
</event>
<event>
 6    1  0.6447971E-006  0.1240292E+03  0.7561462E-02  0.1236594E+00
         -2   -1    0    0    0  501 -0.00000000000E+00  0.00000000000E+00  0.47009190321E+02  0.47009190321E+02  0.00000000000E+00 0. -1.
          2   -1    0    0  501    0  0.00000000000E+00 -0.00000000000E+00 -0.36831939932E+03  0.36831939932E+03  0.00000000000E+00 0.  1.
          5    1    1    2  502    0 -0.10488287400E+03  0.22243832924E+02 -0.12752590642E+03  0.16665993691E+03  0.41800000000E+01 0.  1.
         -5    1    1    2    0  502  0.30622615229E+02 -0.22374071765E+02 -0.43654917716E+02  0.57979029757E+02  0.41800000000E+01 0.  1.
        -11    1    1    2    0    0  0.66567364250E+02  0.29087123488E+02 -0.55468658263E+02  0.91400474756E+02  0.00000000000E+00 0. -1.
         11    1    1    2    0    0  0.76928945184E+01 -0.28956884647E+02 -0.94660726595E+02  0.99289148219E+02  0.00000000000E+00 0.  1.
</event>
<event>
 6    1  0.6447971E-006  0.1390650E+03  0.7561462E-02  0.1214593E+00
         -1   -1    0    0    0  501 -0.00000000000E+00  0.00000000000E+00  0.20943032097E+03  0.20943032097E+03  0.00000000000E+00 0.  1.
          1   -1    0    0  501    0  0.00000000000E+00 -0.00000000000E+00 -0.10648861115E+03  0.10648861115E+03  0.00000000000E+00 0. -1.
          5    1    1    2  502    0 -0.48602348116E+02  0.83432630920E+02  0.64742661045E+01  0.96863722137E+02  0.41800000000E+01 0. -1.
         -5    1    1    2    0  502 -0.35884456600E+02 -0.36612346302E+02  0.47864995288E+02  0.70261570585E+02  0.41800000000E+01 0. -1.
        -11    1    1    2    0    0  0.64967475294E+02  0.13752439591E+02  0.53054351891E+02  0.84998039362E+02  0.00000000000E+00 0. -1.
         11    1    1    2    0    0  0.19519329422E+02 -0.60572724209E+02 -0.44519034558E+01  0.63795600033E+02  0.00000000000E+00 0.  1.
</event>
<event>
 6    1  0.6447971E-006  0.9020350E+02  0.7561462E-02  0.1302360E+00
          1   -1    0    0  501    0  0.00000000000E+00  0.00000000000E+00  0.91550617000E+02  0.91550617000E+02  0.00000000000E+00 0. -1.
         -1   -1    0    0    0  501 -0.00000000000E+00 -0.00000000000E+00 -0.14393582067E+03  0.14393582067E+03  0.00000000000E+00 0.  1.
          5    1    1    2  502    0  0.92705513734E+01 -0.24606461190E+02  0.27153335563E+02  0.38028898055E+02  0.41800000000E+01 0. -1.
         -5    1    1    2    0  502 -0.17410828016E+02  0.66385813307E+02 -0.58618308071E+02  0.90353702646E+02  0.41800000000E+01 0.  1.
        -11    1    1    2    0    0  0.29142839810E+02 -0.53536308729E+02  0.16010418940E+02  0.63022019796E+02  0.00000000000E+00 0. -1.
         11    1    1    2    0    0 -0.21002563167E+02  0.11756956611E+02 -0.36930650099E+02  0.44081817171E+02  0.00000000000E+00 0.  1.
</event>
<event>
 6    1  0.6447971E-006  0.1979401E+03  0.7561462E-02  0.1151489E+00
          2   -1    0    0  501    0  0.00000000000E+00  0.00000000000E+00  0.33747366979E+03  0.33747366979E+03  0.00000000000E+00 0. -1.
         -2   -1    0    0    0  501 -0.00000000000E+00 -0.00000000000E+00 -0.35760025591E+03  0.35760025591E+03  0.00000000000E+00 0.  1.
          5    1    1    2  502    0 -0.10051480774E+03 -0.76545140034E+02  0.13110529927E+03  0.18212209348E+03  0.41800000000E+01 0. -1.
         -5    1    1    2    0  502 -0.51099171849E+00  0.13210636546E+03 -0.28453628250E+03  0.31373670707E+03  0.41800000000E+01 0.  1.
        -11    1    1    2    0    0 -0.12221742026E+02 -0.39742592770E+01  0.44542135524E+02  0.46359115090E+02  0.00000000000E+00 0.  1.
         11    1    1    2    0    0  0.11324754149E+03 -0.51586966145E+02  0.88762261578E+02  0.15285601005E+03  0.00000000000E+00 0. -1.
</event>
<event>
 6    1  0.6447971E-006  0.8486281E+02  0.7561462E-02  0.1315792E+00
         -2   -1    0    0    0  501 -0.00000000000E+00  0.00000000000E+00  0.47472246044E+02  0.47472246044E+02  0.00000000000E+00 0. -1.
          2   -1    0    0  501    0  0.00000000000E+00 -0.00000000000E+00 -0.29505217263E+03  0.29505217263E+03  0.00000000000E+00 0.  1.
          5    1    1    2  502    0 -0.59687024051E+02 -0.15714523884E+02 -0.52760249776E+02  0.81305617625E+02  0.41800000000E+01 0.  1.
         -5    1    1    2    0  502  0.51935157107E+02  0.34632018678E+02 -0.24851946554E+02  0.67318117242E+02  0.41800000000E+01 0.  1.
        -11    1    1    2    0    0  0.78415043969E+01 -0.31630009586E+02 -0.17658640087E+03  0.17956810316E+03  0.00000000000E+00 0.  1.
         11    1    1    2    0    0 -0.89637453063E-01  0.12712514792E+02  0.66186706215E+01  0.14332580647E+02  0.00000000000E+00 0. -1.
</event>
<event>
 6    1  0.6447971E-006  0.1166786E+03  0.7561462E-02  0.1248679E+00
         -2   -1    0    0    0  501 -0.00000000000E+00  0.00000000000E+00  0.15685420134E+03  0.15685420134E+03  0.00000000000E+00 0.  1.
          2   -1    0    0  501    0  0.00000000000E+00 -0.00000000000E+00 -0.19225537282E+03  0.19225537282E+03  0.00000000000E+00 0. -1.
          5    1    1    2  502    0  0.83659675990E+02 -0.42536847669E+02  0.97306801769E+02  0.13525683298E+03  0.41800000000E+01 0.  1.
         -5    1    1    2    0  502  0.20572862823E+02 -0.72330878686E+00 -0.37940209275E+02  0.43367012120E+02  0.41800000000E+01 0.  1.
        -11    1    1    2    0    0 -0.68700012297E+02  0.46140772550E+02 -0.16365599615E+02  0.84359323325E+02  0.00000000000E+00 0.  1.
         11    1    1    2    0    0 -0.35532526516E+02 -0.28806160949E+01 -0.78402164360E+02  0.86126405742E+02  0.00000000000E+00 0. -1.
</event>
<event>
 6    1  0.6447971E-006  0.1256629E+03  0.7561462E-02  0.1234037E+00
         -2   -1    0    0    0  501 -0.00000000000E+00  0.00000000000E+00  0.91021697899E+02  0.91021697899E+02  0.00000000000E+00 0.  1.
          2   -1    0    0  501    0  0.00000000000E+00 -0.00000000000E+00 -0.19074154542E+03  0.19074154542E+03  0.00000000000E+00 0. -1.
          5    1    1    2  502    0  0.10664255287E+01  0.97272465127E+02 -0.62785032288E+02  0.11585552388E+03  0.41800000000E+01 0.  1.
         -5    1    1    2    0  502 -0.33245833808E+02 -0.22099296053E+02  0.12161907793E+02  0.41941015161E+02  0.41800000000E+01 0.  1.
        -11    1    1    2    0    0 -0.86163522491E+01 -0.72419284593E+02 -0.32294706833E+02  0.79760531571E+02  0.00000000000E+00 0. -1.
         11    1    1    2    0    0  0.40795760528E+02 -0.27538844807E+01 -0.16802016194E+02  0.44206172702E+02  0.00000000000E+00 0.  1.
</event>
<event>
 6    1  0.6447971E-006  0.1136459E+03  0.7561462E-02  0.1253963E+00
         -2   -1    0    0    0  501 -0.00000000000E+00  0.00000000000E+00  0.68830572715E+02  0.68830572715E+02  0.00000000000E+00 0. -1.
          2   -1    0    0  501    0  0.00000000000E+00 -0.00000000000E+00 -0.40681341989E+03  0.40681341989E+03  0.00000000000E+00 0.  1.
          5    1    1    2  502    0 -0.94083251842E+02 -0.29505615467E+02 -0.34509286036E+02  0.10454952340E+03  0.41800000000E+01 0. -1.
         -5    1    1    2    0  502  0.36076612837E+02  0.35165177141E+01  0.10121556544E+02  0.37865633463E+02  0.41800000000E+01 0. -1.
        -11    1    1    2    0    0  0.35112542419E+02 -0.20238733036E+02 -0.23974022449E+03  0.24314167102E+03  0.00000000000E+00 0.  1.
         11    1    1    2    0    0  0.22894096586E+02  0.46227830789E+02 -0.73854893198E+02  0.90087164719E+02  0.00000000000E+00 0. -1.
</event>
<event>
 6    1  0.6447971E-006  0.1454579E+03  0.7561462E-02  0.1206168E+00
         -1   -1    0    0    0  501 -0.00000000000E+00  0.00000000000E+00  0.85959312425E+02  0.85959312425E+02  0.00000000000E+00 0.  1.
          1   -1    0    0  501    0  0.00000000000E+00 -0.00000000000E+00 -0.63746486798E+03  0.63746486798E+03  0.00000000000E+00 0. -1.
          5    1    1    2  502    0 -0.95916187226E+02 -0.91012808713E+02  0.99443939047E+01  0.13266352058E+03  0.41800000000E+01 0. -1.
         -5    1    1    2    0  502 -0.85018596138E+01  0.22194714813E+02 -0.40045275812E+02  0.46754502429E+02  0.41800000000E+01 0. -1.
        -11    1    1    2    0    0  0.33861694452E+02  0.51846137564E+02 -0.10984396603E+03  0.12609652337E+03  0.00000000000E+00 0.  1.
         11    1    1    2    0    0  0.70556352388E+02  0.16971956336E+02 -0.41156070762E+03  0.41790963403E+03  0.00000000000E+00 0. -1.
</event>
<event>
 6    1  0.6447971E-006  0.6965670E+02  0.7561462E-02  0.1361264E+00
         -1   -1    0    0    0  501 -0.00000000000E+00  0.00000000000E+00  0.21475244557E+03  0.21475244557E+03  0.00000000000E+00 0.  1.
          1   -1    0    0  501    0  0.00000000000E+00 -0.00000000000E+00 -0.12512667485E+03  0.12512667485E+03  0.00000000000E+00 0. -1.
          5    1    1    2  502    0  0.39776527488E+02 -0.32035210670E+02 -0.90787834707E-02  0.51243529777E+02  0.41800000000E+01 0. -1.
         -5    1    1    2    0  502  0.33327805880E+01  0.63170484205E+01  0.16388034709E+03  0.16408916202E+03  0.41800000000E+01 0.  1.
        -11    1    1    2    0    0 -0.44140937049E+02  0.43505538204E+02 -0.16530308252E+02  0.64143629995E+02  0.00000000000E+00 0. -1.
         11    1    1    2    0    0  0.10316289735E+01 -0.17787375955E+02 -0.57715189344E+02  0.60402798633E+02  0.00000000000E+00 0.  1.
</event>
<event>
 6    1  0.6447971E-006  0.1184893E+03  0.7561462E-02  0.1245610E+00
          1   -1    0    0  501    0  0.00000000000E+00  0.00000000000E+00  0.69324961700E+03  0.69324961700E+03  0.00000000000E+00 0. -1.
         -1   -1    0    0    0  501 -0.00000000000E+00 -0.00000000000E+00 -0.28264846899E+02  0.28264846899E+02  0.00000000000E+00 0.  1.
          5    1    1    2  502    0  0.12204473688E+02 -0.10133493184E+03  0.17221549421E+03  0.20023328004E+03  0.41800000000E+01 0. -1.
         -5    1    1    2    0  502 -0.81729758860E+01  0.14623378902E+02  0.21727260368E+03  0.21795755884E+03  0.41800000000E+01 0. -1.
        -11    1    1    2    0    0  0.37093545555E+02  0.31174339509E+02  0.17336496149E+03  0.18000883433E+03  0.00000000000E+00 0. -1.
         11    1    1    2    0    0 -0.41125043357E+02  0.55537213433E+02  0.10213171072E+03  0.12331479068E+03  0.00000000000E+00 0.  1.
</event>
<event>
 6    1  0.6447971E-006  0.1166365E+03  0.7561462E-02  0.1248751E+00
         -1   -1    0    0    0  501 -0.00000000000E+00  0.00000000000E+00  0.11962978021E+03  0.11962978021E+03  0.00000000000E+00 0.  1.
          1   -1    0    0  501    0  0.00000000000E+00 -0.00000000000E+00 -0.16001889835E+03  0.16001889835E+03  0.00000000000E+00 0. -1.
          5    1    1    2  502    0  0.65977657398E+02 -0.63281736234E+02 -0.50737568826E+02  0.10463939367E+03  0.41800000000E+01 0.  1.
         -5    1    1    2    0  502  0.17635086979E+02  0.48173346469E+02  0.89613454599E+01  0.52244097420E+02  0.41800000000E+01 0.  1.
        -11    1    1    2    0    0 -0.61736149246E+02  0.24578843982E+02 -0.38132066231E+02  0.76612832935E+02  0.00000000000E+00 0. -1.
         11    1    1    2    0    0 -0.21876595131E+02 -0.94704542167E+01  0.39519171450E+02  0.46152354541E+02  0.00000000000E+00 0.  1.
</event>
<event>
 6    1  0.6447971E-006  0.1020305E+03  0.7561462E-02  0.1276083E+00
          1   -1    0    0  501    0  0.00000000000E+00  0.00000000000E+00  0.53799064874E+02  0.53799064874E+02  0.00000000000E+00 0. -1.
         -1   -1    0    0    0  501 -0.00000000000E+00 -0.00000000000E+00 -0.29954227332E+03  0.29954227332E+03  0.00000000000E+00 0.  1.
          5    1    1    2  502    0  0.26702484000E+02 -0.39406863685E+02 -0.16586678486E+02  0.50581754225E+02  0.41800000000E+01 0. -1.
         -5    1    1    2    0  502 -0.53499621107E+02 -0.34145172875E+01 -0.17984599781E+03  0.18771234300E+03  0.41800000000E+01 0. -1.
        -11    1    1    2    0    0  0.23034658054E+02  0.70708143379E+02 -0.26925025383E+02  0.79089784446E+02  0.00000000000E+00 0.  1.
         11    1    1    2    0    0  0.37624790528E+01 -0.27886762407E+02 -0.22385506762E+02  0.35957456517E+02  0.00000000000E+00 0. -1.
</event>
<event>
 6    1  0.6447971E-006  0.1655257E+03  0.7561462E-02  0.1182596E+00
          2   -1    0    0  501    0  0.00000000000E+00  0.00000000000E+00  0.43902767836E+02  0.43902767836E+02  0.00000000000E+00 0. -1.
         -2   -1    0    0    0  501 -0.00000000000E+00 -0.00000000000E+00 -0.97930571111E+03  0.97930571111E+03  0.00000000000E+00 0.  1.
          5    1    1    2  502    0 -0.32512004098E+02 -0.13039626943E+03 -0.26076165823E+03  0.29338427411E+03  0.41800000000E+01 0. -1.
         -5    1    1    2    0  502 -0.86159872318E+01 -0.29603620768E+02 -0.35392194230E+03  0.35528695901E+03  0.41800000000E+01 0. -1.
        -11    1    1    2    0    0  0.23823977398E+02  0.73308624365E+02 -0.24913420770E+03  0.26078648307E+03  0.00000000000E+00 0.  1.
         11    1    1    2    0    0  0.17304013932E+02  0.86691265831E+02 -0.71585135043E+02  0.11375076276E+03  0.00000000000E+00 0. -1.
</event>
<event>
 6    1  0.6447971E-006  0.2255719E+03  0.7561462E-02  0.1129796E+00
          1   -1    0    0  501    0  0.00000000000E+00  0.00000000000E+00  0.52226071998E+02  0.52226071998E+02  0.00000000000E+00 0. -1.
         -1   -1    0    0    0  501 -0.00000000000E+00 -0.00000000000E+00 -0.10594784309E+04  0.10594784309E+04  0.00000000000E+00 0.  1.
          5    1    1    2  502    0 -0.11071924791E+03  0.18186160702E+03 -0.59424873863E+03  0.63125385680E+03  0.41800000000E+01 0. -1.
         -5    1    1    2    0  502  0.23395810723E+02 -0.12522977387E+00 -0.51851216206E+02  0.57038589252E+02  0.41800000000E+01 0. -1.
        -11    1    1    2    0    0  0.54334998973E+02 -0.17147036620E+03 -0.25710913970E+03  0.31378254941E+03  0.00000000000E+00 0. -1.
         11    1    1    2    0    0  0.32988438214E+02 -0.10266011043E+02 -0.10404326432E+03  0.10962950738E+03  0.00000000000E+00 0.  1.
</event>
<event>
 6    1  0.6447971E-006  0.3250961E+03  0.7561462E-02  0.1073328E+00
          1   -1    0    0  501    0  0.00000000000E+00  0.00000000000E+00  0.23363165620E+03  0.23363165620E+03  0.00000000000E+00 0.  1.
         -1   -1    0    0    0  501 -0.00000000000E+00 -0.00000000000E+00 -0.61558539213E+03  0.61558539213E+03  0.00000000000E+00 0. -1.
          5    1    1    2  502    0 -0.95376900224E+02 -0.44558257955E+02 -0.85185978661E+02  0.13548547822E+03  0.41800000000E+01 0. -1.
         -5    1    1    2    0  502 -0.89142147666E+02 -0.21122731827E+03 -0.30513412207E+03  0.38169046009E+03  0.41800000000E+01 0. -1.
        -11    1    1    2    0    0  0.15726400311E+03  0.22343669842E+03 -0.30075807026E+02  0.27488266413E+03  0.00000000000E+00 0. -1.
         11    1    1    2    0    0  0.27255044783E+02  0.32348877805E+02  0.38442171827E+02  0.57158445886E+02  0.00000000000E+00 0.  1.
</event>
<event>
 6    1  0.6447971E-006  0.1162935E+03  0.7561462E-02  0.1249340E+00
         -2   -1    0    0    0  501 -0.00000000000E+00  0.00000000000E+00  0.25782717437E+03  0.25782717437E+03  0.00000000000E+00 0.  1.
          2   -1    0    0  501    0  0.00000000000E+00 -0.00000000000E+00 -0.11912280846E+03  0.11912280846E+03  0.00000000000E+00 0. -1.
          5    1    1    2  502    0 -0.65311444223E+00 -0.92000628883E+02  0.11651193535E+03  0.14851614644E+03  0.41800000000E+01 0. -1.
         -5    1    1    2    0  502 -0.46771716328E+02  0.29469353827E+02  0.77977245741E+02  0.95676326835E+02  0.41800000000E+01 0. -1.
        -11    1    1    2    0    0  0.25019082221E+02  0.56583690565E+02  0.10304531167E+02  0.62720426304E+02  0.00000000000E+00 0.  1.
         11    1    1    2    0    0  0.22405748549E+02  0.59475844908E+01 -0.66089346347E+02  0.70037083248E+02  0.00000000000E+00 0. -1.
</event>
<event>
 6    1  0.6447971E-006  0.1540216E+03  0.7561462E-02  0.1195617E+00
         -1   -1    0    0    0  501 -0.00000000000E+00  0.00000000000E+00  0.58193824405E+02  0.58193824405E+02  0.00000000000E+00 0.  1.
          1   -1    0    0  501    0  0.00000000000E+00 -0.00000000000E+00 -0.45206519189E+03  0.45206519189E+03  0.00000000000E+00 0. -1.
          5    1    1    2  502    0  0.80238001353E+02  0.26348465366E+02 -0.66736573750E+02  0.10772010566E+03  0.41800000000E+01 0. -1.
         -5    1    1    2    0  502  0.22697204540E+02 -0.81267026048E+02 -0.10362460838E+03  0.13369751112E+03  0.41800000000E+01 0. -1.
        -11    1    1    2    0    0 -0.65247200719E+02 -0.79259615389E+01 -0.15568703147E+03  0.16899251415E+03  0.00000000000E+00 0.  1.
         11    1    1    2    0    0 -0.37688005175E+02  0.62844522221E+02 -0.67823153882E+02  0.99848885371E+02  0.00000000000E+00 0. -1.
</event>
<event>
 6    1  0.6447971E-006  0.1036051E+03  0.7561462E-02  0.1272893E+00
         -1   -1    0    0    0  501 -0.00000000000E+00  0.00000000000E+00  0.32607554082E+02  0.32607554082E+02  0.00000000000E+00 0.  1.
          1   -1    0    0  501    0  0.00000000000E+00 -0.00000000000E+00 -0.39971534964E+03  0.39971534964E+03  0.00000000000E+00 0. -1.
          5    1    1    2  502    0  0.71567895399E+02  0.55754182651E+01 -0.12981303600E+03  0.14839793010E+03  0.41800000000E+01 0. -1.
         -5    1    1    2    0  502 -0.46195282420E+02 -0.99049559002E+01 -0.29787859340E+02  0.56008046148E+02  0.41800000000E+01 0. -1.
        -11    1    1    2    0    0 -0.25159078035E+02 -0.37983703422E+02 -0.14832263294E+03  0.15516231622E+03  0.00000000000E+00 0. -1.
         11    1    1    2    0    0 -0.21353494420E+00  0.42313241057E+02 -0.59184267273E+02  0.72754611253E+02  0.00000000000E+00 0.  1.
</event>
<event>
 6    1  0.6447971E-006  0.1399511E+03  0.7561462E-02  0.1213395E+00
          2   -1    0    0  501    0  0.00000000000E+00  0.00000000000E+00  0.11192007694E+04  0.11192007694E+04  0.00000000000E+00 0. -1.
         -2   -1    0    0    0  501 -0.00000000000E+00 -0.00000000000E+00 -0.18779792757E+02  0.18779792757E+02  0.00000000000E+00 0.  1.
          5    1    1    2  502    0  0.53844171589E+02  0.41758985052E+02  0.24233321775E+03  0.25176550294E+03  0.41800000000E+01 0.  1.
         -5    1    1    2    0  502 -0.70309248365E+02  0.46662149805E+02  0.22739877384E+03  0.24258693570E+03  0.41800000000E+01 0.  1.
        -11    1    1    2    0    0 -0.24798221854E+02 -0.81648251346E+02  0.46349326461E+03  0.47128271249E+03  0.00000000000E+00 0. -1.
         11    1    1    2    0    0  0.41263298630E+02 -0.67728835106E+01  0.16719572046E+03  0.17234541104E+03  0.00000000000E+00 0.  1.
</event>
<event>
 6    1  0.6447971E-006  0.7849514E+02  0.7561462E-02  0.1333377E+00
         -2   -1    0    0    0  501 -0.00000000000E+00  0.00000000000E+00  0.18964492271E+02  0.18964492271E+02  0.00000000000E+00 0.  1.
          2   -1    0    0  501    0  0.00000000000E+00 -0.00000000000E+00 -0.70456828780E+03  0.70456828780E+03  0.00000000000E+00 0. -1.
          5    1    1    2  502    0 -0.20692829786E+02 -0.19953573380E+02 -0.40022480948E+01  0.29322835555E+02  0.41800000000E+01 0.  1.
         -5    1    1    2    0  502  0.16443544663E+02  0.32414054201E+02 -0.26642017762E+03  0.26892051710E+03  0.41800000000E+01 0.  1.
        -11    1    1    2    0    0  0.45281056913E+01 -0.51808933799E+02 -0.26379850610E+03  0.26887603312E+03  0.00000000000E+00 0. -1.
         11    1    1    2    0    0 -0.27882056811E+00  0.39348452977E+02 -0.15138286370E+03  0.15641339430E+03  0.00000000000E+00 0.  1.
</event>
<event>
 6    1  0.6447971E-006  0.1251632E+03  0.7561462E-02  0.1234815E+00
          2   -1    0    0  501    0  0.00000000000E+00  0.00000000000E+00  0.26921405505E+03  0.26921405505E+03  0.00000000000E+00 0. -1.
         -2   -1    0    0    0  501 -0.00000000000E+00 -0.00000000000E+00 -0.69337695594E+02  0.69337695594E+02  0.00000000000E+00 0.  1.
          5    1    1    2  502    0  0.56114636429E+01  0.66151910372E+02  0.67658710018E+02  0.94882755079E+02  0.41800000000E+01 0. -1.
         -5    1    1    2    0  502 -0.76958312673E+02 -0.20917203248E+02  0.32200544712E+02  0.86107251501E+02  0.41800000000E+01 0. -1.
        -11    1    1    2    0    0  0.30221976719E+02 -0.54013981213E+02  0.16500424698E+02  0.64055773031E+02  0.00000000000E+00 0.  1.
         11    1    1    2    0    0  0.41124872311E+02  0.87792740889E+01  0.83516680024E+02  0.93505971030E+02  0.00000000000E+00 0. -1.
</event>
<event>
 6    1  0.6447971E-006  0.1313323E+03  0.7561462E-02  0.1225492E+00
         -1   -1    0    0    0  501 -0.00000000000E+00  0.00000000000E+00  0.19286004610E+03  0.19286004610E+03  0.00000000000E+00 0.  1.
          1   -1    0    0  501    0  0.00000000000E+00 -0.00000000000E+00 -0.10813681602E+03  0.10813681602E+03  0.00000000000E+00 0. -1.
          5    1    1    2  502    0  0.26164947133E+02 -0.18059351866E+02  0.54329957294E+01  0.32522830302E+02  0.41800000000E+01 0.  1.
         -5    1    1    2    0  502 -0.68058519018E+02  0.10547846608E+03  0.49339317981E+02  0.13494261564E+03  0.41800000000E+01 0.  1.
        -11    1    1    2    0    0  0.15126394329E+02 -0.73089049778E+02  0.56172567539E+02  0.93413994384E+02  0.00000000000E+00 0.  1.
         11    1    1    2    0    0  0.26767177556E+02 -0.14330064432E+02 -0.26221651169E+02  0.40117421788E+02  0.00000000000E+00 0. -1.
</event>
<event>
 6    1  0.6447971E-006  0.1301277E+03  0.7561462E-02  0.1227266E+00
         -2   -1    0    0    0  501 -0.00000000000E+00  0.00000000000E+00  0.31281533911E+02  0.31281533911E+02  0.00000000000E+00 0.  1.
          2   -1    0    0  501    0  0.00000000000E+00 -0.00000000000E+00 -0.69462820633E+03  0.69462820633E+03  0.00000000000E+00 0. -1.
          5    1    1    2  502    0  0.20879353945E+02 -0.59520214502E+02 -0.90179775798E+02  0.11012932270E+03  0.41800000000E+01 0.  1.
         -5    1    1    2    0  502 -0.83359451939E+02  0.12300912632E+02 -0.11851535131E+03  0.14547670458E+03  0.41800000000E+01 0.  1.
        -11    1    1    2    0    0  0.17152623169E+02  0.62523637918E+02 -0.17571901227E+03  0.18729812881E+03  0.00000000000E+00 0.  1.
         11    1    1    2    0    0  0.45327474825E+02 -0.15304336047E+02 -0.27893253304E+03  0.28300558415E+03  0.00000000000E+00 0. -1.
</event>
<event>
 6    1  0.6447971E-006  0.1221654E+03  0.7561462E-02  0.1239567E+00
         -1   -1    0    0    0  501 -0.00000000000E+00  0.00000000000E+00  0.35577050913E+02  0.35577050913E+02  0.00000000000E+00 0.  1.
          1   -1    0    0  501    0  0.00000000000E+00 -0.00000000000E+00 -0.44705173858E+03  0.44705173858E+03  0.00000000000E+00 0. -1.
          5    1    1    2  502    0  0.38930102535E+02 -0.76736074597E+02 -0.97473446253E+02  0.13008659867E+03  0.41800000000E+01 0. -1.
         -5    1    1    2    0  502 -0.44653389051E+02  0.19149611996E+02 -0.11224791567E+03  0.12238341295E+03  0.41800000000E+01 0.  1.
        -11    1    1    2    0    0  0.40238218713E+01 -0.25750385289E+02 -0.34021152426E+02  0.42856881564E+02  0.00000000000E+00 0. -1.
         11    1    1    2    0    0  0.16994646447E+01  0.83336847890E+02 -0.16773217332E+03  0.18730189631E+03  0.00000000000E+00 0.  1.
</event>
<event>
 6    1  0.6447971E-006  0.1074449E+03  0.7561462E-02  0.1265376E+00
          2   -1    0    0  501    0  0.00000000000E+00  0.00000000000E+00  0.53307869038E+03  0.53307869038E+03  0.00000000000E+00 0. -1.
         -2   -1    0    0    0  501 -0.00000000000E+00 -0.00000000000E+00 -0.28539580575E+02  0.28539580575E+02  0.00000000000E+00 0.  1.
          5    1    1    2  502    0  0.26321486354E+02 -0.49457997210E+02  0.20859326036E+03  0.21602669927E+03  0.41800000000E+01 0. -1.
         -5    1    1    2    0  502 -0.58635105175E+02  0.16446984596E+02  0.50344705829E+02  0.79124210367E+02  0.41800000000E+01 0.  1.
        -11    1    1    2    0    0  0.32387775126E+02  0.61325248016E+02  0.20891462301E+03  0.22012513198E+03  0.00000000000E+00 0.  1.
         11    1    1    2    0    0 -0.74156305088E-01 -0.28314235403E+02  0.36686520614E+02  0.46342229341E+02  0.00000000000E+00 0. -1.
</event>
<event>
 6    1  0.6447971E-006  0.1260945E+03  0.7561462E-02  0.1233369E+00
          1   -1    0    0  501    0  0.00000000000E+00  0.00000000000E+00  0.53729316603E+03  0.53729316603E+03  0.00000000000E+00 0. -1.
         -1   -1    0    0    0  501 -0.00000000000E+00 -0.00000000000E+00 -0.44447135462E+02  0.44447135462E+02  0.00000000000E+00 0.  1.
          5    1    1    2  502    0  0.21558758448E+02 -0.19678988963E+02 -0.80434551606E+01  0.30564885790E+02  0.41800000000E+01 0. -1.
         -5    1    1    2    0  502  0.77009050013E+02 -0.18845819226E+02  0.24475425981E+03  0.25730852839E+03  0.41800000000E+01 0. -1.
        -11    1    1    2    0    0 -0.61631566518E+02  0.71076887711E+02  0.18193237930E+03  0.20481641681E+03  0.00000000000E+00 0.  1.
         11    1    1    2    0    0 -0.36936241944E+02 -0.32552079522E+02  0.74202846618E+02  0.89050470500E+02  0.00000000000E+00 0. -1.
</event>
<event>
 6    1  0.6447971E-006  0.9935190E+02  0.7561462E-02  0.1281665E+00
         -2   -1    0    0    0  501 -0.00000000000E+00  0.00000000000E+00  0.43749250232E+03  0.43749250232E+03  0.00000000000E+00 0.  1.
          2   -1    0    0  501    0  0.00000000000E+00 -0.00000000000E+00 -0.39110440485E+02  0.39110440485E+02  0.00000000000E+00 0. -1.
          5    1    1    2  502    0 -0.27935563633E+02 -0.98029081120E+01  0.22803045684E+03  0.22998229143E+03  0.41800000000E+01 0.  1.
         -5    1    1    2    0  502  0.45957685040E+02 -0.49515973832E+02  0.61502438979E+02  0.91454703975E+02  0.41800000000E+01 0.  1.
        -11    1    1    2    0    0 -0.47580583665E+02  0.19251091939E+02  0.86515786098E+02  0.10059571426E+03  0.00000000000E+00 0.  1.
         11    1    1    2    0    0  0.29558462258E+02  0.40067790005E+02  0.22333379916E+02  0.54570233144E+02  0.00000000000E+00 0. -1.
</event>
<event>
 6    1  0.6447971E-006  0.1098626E+03  0.7561462E-02  0.1260825E+00
          2   -1    0    0  501    0  0.00000000000E+00  0.00000000000E+00  0.12339235908E+03  0.12339235908E+03  0.00000000000E+00 0. -1.
         -2   -1    0    0    0  501 -0.00000000000E+00 -0.00000000000E+00 -0.11600118326E+03  0.11600118326E+03  0.00000000000E+00 0.  1.
          5    1    1    2  502    0  0.50305679764E+02 -0.33874686519E+02  0.26015467945E+02  0.66124373537E+02  0.41800000000E+01 0. -1.
         -5    1    1    2    0  502 -0.11996916378E+02  0.59351714947E+02 -0.28812772786E+02  0.67187799081E+02  0.41800000000E+01 0. -1.
        -11    1    1    2    0    0 -0.66592015990E+02 -0.18084077930E+02 -0.11136050614E+02  0.69896652934E+02  0.00000000000E+00 0.  1.
         11    1    1    2    0    0  0.28283252604E+02 -0.73929504978E+01  0.21324531273E+02  0.36184716787E+02  0.00000000000E+00 0. -1.
</event>
<event>
 6    1  0.6447971E-006  0.1098085E+03  0.7561462E-02  0.1260925E+00
         -1   -1    0    0    0  501 -0.00000000000E+00  0.00000000000E+00  0.57398728371E+02  0.57398728371E+02  0.00000000000E+00 0.  1.
          1   -1    0    0  501    0  0.00000000000E+00 -0.00000000000E+00 -0.36475695646E+03  0.36475695646E+03  0.00000000000E+00 0. -1.
          5    1    1    2  502    0 -0.10362792786E+03 -0.25149722896E+02 -0.15536351102E+03  0.18848487725E+03  0.41800000000E+01 0. -1.
         -5    1    1    2    0  502  0.10437070943E+02  0.13997104614E+02  0.13655250113E+02  0.22556365911E+02  0.41800000000E+01 0. -1.
        -11    1    1    2    0    0  0.48050127255E+02 -0.14721623141E+01 -0.15602579092E+03  0.16326368067E+03  0.00000000000E+00 0. -1.
         11    1    1    2    0    0  0.45140729664E+02  0.12624780596E+02 -0.96241762515E+01  0.47850761000E+02  0.00000000000E+00 0.  1.
</event>
<event>
 6    1  0.6447971E-006  0.1121318E+03  0.7561462E-02  0.1256672E+00
         -4   -1    0    0    0  501 -0.00000000000E+00  0.00000000000E+00  0.19237621779E+02  0.19237621779E+02  0.00000000000E+00 0.  1.
          4   -1    0    0  501    0  0.00000000000E+00 -0.00000000000E+00 -0.78781662659E+03  0.78781662659E+03  0.00000000000E+00 0. -1.
          5    1    1    2  502    0 -0.87860411597E+02  0.12045719513E+02 -0.36554856461E+03  0.37617519426E+03  0.41800000000E+01 0. -1.
         -5    1    1    2    0  502  0.30298183101E+02 -0.45986205233E+01 -0.31530024145E+02  0.44167205396E+02  0.41800000000E+01 0. -1.
        -11    1    1    2    0    0 -0.18154632597E+02 -0.20864765503E+02 -0.63580309499E+02  0.69335307602E+02  0.00000000000E+00 0.  1.
         11    1    1    2    0    0  0.75716861093E+02  0.13417666513E+02 -0.30792010656E+03  0.31737654112E+03  0.00000000000E+00 0. -1.
</event>
<event>
 6    1  0.6447971E-006  0.1132759E+03  0.7561462E-02  0.1254621E+00
         -3   -1    0    0    0  501 -0.00000000000E+00  0.00000000000E+00  0.90212552278E+02  0.90212552278E+02  0.00000000000E+00 0.  1.
          3   -1    0    0  501    0  0.00000000000E+00 -0.00000000000E+00 -0.19615751383E+03  0.19615751383E+03  0.00000000000E+00 0. -1.
          5    1    1    2  502    0  0.47321671283E+02 -0.63904263236E+02 -0.62459272643E+01  0.79872269532E+02  0.41800000000E+01 0. -1.
         -5    1    1    2    0  502 -0.25686615296E+01  0.52076465973E+02  0.11818922768E+02  0.53625699676E+02  0.41800000000E+01 0. -1.
        -11    1    1    2    0    0 -0.52680119951E+02 -0.24023893889E+02 -0.34116775547E+02  0.67203399389E+02  0.00000000000E+00 0.  1.
         11    1    1    2    0    0  0.79271101976E+01  0.35851691152E+02 -0.77401181511E+02  0.85668697514E+02  0.00000000000E+00 0. -1.
</event>
<event>
 6    1  0.6447971E-006  0.1179521E+03  0.7561462E-02  0.1246514E+00
         -2   -1    0    0    0  501 -0.00000000000E+00  0.00000000000E+00  0.12938390206E+03  0.12938390206E+03  0.00000000000E+00 0.  1.
          2   -1    0    0  501    0  0.00000000000E+00 -0.00000000000E+00 -0.16901335346E+03  0.16901335346E+03  0.00000000000E+00 0. -1.
          5    1    1    2  502    0  0.65921660142E+02  0.49316358597E+02 -0.71197017268E+02  0.10892316636E+03  0.41800000000E+01 0. -1.
         -5    1    1    2    0  502 -0.52741774580E+02  0.21487319127E+02  0.43769627596E+02  0.71948956692E+02  0.41800000000E+01 0.  1.
        -11    1    1    2    0    0 -0.24585164432E+02  0.65999319712E-01 -0.34496698147E+02  0.42361029840E+02  0.00000000000E+00 0.  1.
         11    1    1    2    0    0  0.11405278870E+02 -0.70869677044E+02  0.22294636422E+02  0.75164102626E+02  0.00000000000E+00 0. -1.
</event>
<event>
 6    1  0.6447971E-006  0.1052645E+03  0.7561462E-02  0.1269599E+00
         -2   -1    0    0    0  501 -0.00000000000E+00  0.00000000000E+00  0.11628453269E+03  0.11628453269E+03  0.00000000000E+00 0.  1.
          2   -1    0    0  501    0  0.00000000000E+00 -0.00000000000E+00 -0.26844922081E+03  0.26844922081E+03  0.00000000000E+00 0. -1.
          5    1    1    2  502    0  0.63241770162E+01  0.45037486492E+02 -0.45196944407E+02  0.64254234010E+02  0.41800000000E+01 0. -1.
         -5    1    1    2    0  502 -0.21905918600E+02  0.42977529865E+02  0.79773156124E+02  0.93317555588E+02  0.41800000000E+01 0. -1.
        -11    1    1    2    0    0  0.37653854946E+02 -0.86470151083E+02 -0.18131978376E+03  0.20438141746E+03  0.00000000000E+00 0. -1.
         11    1    1    2    0    0 -0.22072113361E+02 -0.15448652742E+01 -0.54211160773E+01  0.22780546448E+02  0.00000000000E+00 0.  1.
</event>
<event>
 6    1  0.6447971E-006  0.9466581E+02  0.7561462E-02  0.1291931E+00
         -4   -1    0    0    0  501 -0.00000000000E+00  0.00000000000E+00  0.88723458849E+02  0.88723458849E+02  0.00000000000E+00 0. -1.
          4   -1    0    0  501    0  0.00000000000E+00 -0.00000000000E+00 -0.20494721439E+03  0.20494721439E+03  0.00000000000E+00 0.  1.
          5    1    1    2  502    0 -0.13518956108E+02  0.81583493236E+02 -0.52945244907E+01  0.82970675135E+02  0.41800000000E+01 0.  1.
         -5    1    1    2    0  502 -0.25452597535E+02 -0.16349327158E+02 -0.81872478911E+02  0.87382552165E+02  0.41800000000E+01 0.  1.
        -11    1    1    2    0    0  0.22423598141E+02 -0.36910712055E+02 -0.62826016582E+02  0.76238617364E+02  0.00000000000E+00 0.  1.
         11    1    1    2    0    0  0.16547955502E+02 -0.28323454022E+02  0.33769264443E+02  0.47078828576E+02  0.00000000000E+00 0. -1.
</event>
<event>
 6    1  0.6447971E-006  0.1019291E+03  0.7561462E-02  0.1276291E+00
         -2   -1    0    0    0  501 -0.00000000000E+00  0.00000000000E+00  0.13687700441E+03  0.13687700441E+03  0.00000000000E+00 0.  1.
          2   -1    0    0  501    0  0.00000000000E+00 -0.00000000000E+00 -0.13229783197E+03  0.13229783197E+03  0.00000000000E+00 0. -1.
          5    1    1    2  502    0 -0.74461233717E+02 -0.62212776413E+02 -0.22286513202E+02  0.99644698536E+02  0.41800000000E+01 0.  1.
         -5    1    1    2    0  502  0.11135995639E+02  0.21503502759E+02  0.40662574810E+02  0.47511350433E+02  0.41800000000E+01 0.  1.
        -11    1    1    2    0    0  0.27920867224E+01  0.16879823425E+02  0.36154892650E+02  0.39998755602E+02  0.00000000000E+00 0.  1.
         11    1    1    2    0    0  0.60533151356E+02  0.23829450229E+02 -0.49951781823E+02  0.82020031813E+02  0.00000000000E+00 0. -1.
</event>
<event>
 6    1  0.6447971E-006  0.1695294E+03  0.7561462E-02  0.1178340E+00
          2   -1    0    0  501    0  0.00000000000E+00  0.00000000000E+00  0.15631872564E+03  0.15631872564E+03  0.00000000000E+00 0. -1.
         -2   -1    0    0    0  501 -0.00000000000E+00 -0.00000000000E+00 -0.39220547403E+03  0.39220547403E+03  0.00000000000E+00 0.  1.
          5    1    1    2  502    0 -0.14362129090E+03  0.51797243250E+02 -0.29419335520E+03  0.33147734802E+03  0.41800000000E+01 0. -1.
         -5    1    1    2    0  502 -0.48318517692E+01 -0.26743960858E+02 -0.81215176496E+01  0.28670850752E+02  0.41800000000E+01 0. -1.
        -11    1    1    2    0    0  0.51523480386E+02  0.15430668361E+02  0.63600746548E+02  0.83293634322E+02  0.00000000000E+00 0. -1.
         11    1    1    2    0    0  0.96929662285E+02 -0.40483950754E+02  0.28273779134E+01  0.10508236658E+03  0.00000000000E+00 0.  1.
</event>
<event>
 6    1  0.6447971E-006  0.1111778E+03  0.7561462E-02  0.1258404E+00
         -2   -1    0    0    0  501 -0.00000000000E+00  0.00000000000E+00  0.15387837826E+02  0.15387837826E+02  0.00000000000E+00 0.  1.
          2   -1    0    0  501    0  0.00000000000E+00 -0.00000000000E+00 -0.83896986420E+03  0.83896986420E+03  0.00000000000E+00 0. -1.
          5    1    1    2  502    0 -0.27942410776E+02  0.44679491813E+02 -0.13919606610E+03  0.14889611320E+03  0.41800000000E+01 0. -1.
         -5    1    1    2    0  502  0.45559601525E+01 -0.72492650578E+02 -0.33929453413E+03  0.34700748472E+03  0.41800000000E+01 0. -1.
        -11    1    1    2    0    0  0.53577143822E+02 -0.29180918054E+01 -0.20341310848E+03  0.21037090650E+03  0.00000000000E+00 0.  1.
         11    1    1    2    0    0 -0.30190693198E+02  0.30731250570E+02 -0.14167831767E+03  0.14808319761E+03  0.00000000000E+00 0. -1.
</event>
<event>
 6    1  0.6447971E-006  0.1036662E+03  0.7561462E-02  0.1272770E+00
          2   -1    0    0  501    0  0.00000000000E+00  0.00000000000E+00  0.52408883213E+02  0.52408883213E+02  0.00000000000E+00 0. -1.
         -2   -1    0    0    0  501 -0.00000000000E+00 -0.00000000000E+00 -0.33502006941E+03  0.33502006941E+03  0.00000000000E+00 0.  1.
          5    1    1    2  502    0 -0.58649580414E+02  0.30403811566E+02 -0.12438235880E+03  0.14089928538E+03  0.41800000000E+01 0.  1.
         -5    1    1    2    0  502  0.63571998077E+02  0.55500516601E+01 -0.13117745903E+03  0.14593560282E+03  0.41800000000E+01 0.  1.
        -11    1    1    2    0    0  0.62710326283E+01  0.19568313449E+02  0.18700812848E+02  0.27784260700E+02  0.00000000000E+00 0. -1.
         11    1    1    2    0    0 -0.11193450291E+02 -0.55522176675E+02 -0.45752181215E+02  0.72809803722E+02  0.00000000000E+00 0.  1.
</event>
<event>
 6    1  0.6447971E-006  0.1269303E+03  0.7561462E-02  0.1232083E+00
         -1   -1    0    0    0  501 -0.00000000000E+00  0.00000000000E+00  0.31602407908E+03  0.31602407908E+03  0.00000000000E+00 0.  1.
          1   -1    0    0  501    0  0.00000000000E+00 -0.00000000000E+00 -0.72142224264E+02  0.72142224264E+02  0.00000000000E+00 0. -1.
          5    1    1    2  502    0  0.50398293836E+02  0.70887862691E+02  0.24899671414E+02  0.90567892407E+02  0.41800000000E+01 0. -1.
         -5    1    1    2    0  502 -0.10226812629E+02  0.27167963797E+02  0.12756956542E+03  0.13089748804E+03  0.41800000000E+01 0.  1.
        -11    1    1    2    0    0  0.21462486956E+02 -0.62984213119E+02  0.30414975655E+02  0.73162286683E+02  0.00000000000E+00 0.  1.
         11    1    1    2    0    0 -0.61633968163E+02 -0.35071613369E+02  0.60997642332E+02  0.93538636220E+02  0.00000000000E+00 0. -1.
</event>
<event>
 6    1  0.6447971E-006  0.1020358E+03  0.7561462E-02  0.1276072E+00
          2   -1    0    0  501    0  0.00000000000E+00  0.00000000000E+00  0.16749759660E+03  0.16749759660E+03  0.00000000000E+00 0.  1.
         -2   -1    0    0    0  501 -0.00000000000E+00 -0.00000000000E+00 -0.98448367602E+02  0.98448367602E+02  0.00000000000E+00 0. -1.
          5    1    1    2  502    0  0.20541669861E+02  0.79682259394E+02 -0.39174191826E+02  0.91232189319E+02  0.41800000000E+01 0. -1.
         -5    1    1    2    0  502 -0.13594890890E+02 -0.28243912309E+02  0.31216077854E+02  0.44434846207E+02  0.41800000000E+01 0. -1.
        -11    1    1    2    0    0 -0.92580591930E+01 -0.70373281013E+02  0.83990013116E+02  0.10996559755E+03  0.00000000000E+00 0.  1.
         11    1    1    2    0    0  0.23112802221E+01  0.18934933929E+02 -0.69826701467E+01  0.20313331129E+02  0.00000000000E+00 0. -1.
</event>
<event>
 6    1  0.6447971E-006  0.1119748E+03  0.7561462E-02  0.1256956E+00
          1   -1    0    0  501    0  0.00000000000E+00  0.00000000000E+00  0.23031561027E+03  0.23031561027E+03  0.00000000000E+00 0. -1.
         -1   -1    0    0    0  501 -0.00000000000E+00 -0.00000000000E+00 -0.83213618029E+02  0.83213618029E+02  0.00000000000E+00 0.  1.
          5    1    1    2  502    0 -0.31939932101E+02 -0.81685165604E+02  0.75697161760E+02  0.11593169645E+03  0.41800000000E+01 0.  1.
         -5    1    1    2    0  502  0.50957299094E+02 -0.11414470071E+01 -0.42721458255E+01  0.51319322503E+02  0.41800000000E+01 0.  1.
        -11    1    1    2    0    0 -0.27861757283E+01  0.15276597646E+02  0.75217789789E+02  0.76803991508E+02  0.00000000000E+00 0. -1.
         11    1    1    2    0    0 -0.16231191265E+02  0.67550014966E+02  0.45918651376E+00  0.69474217837E+02  0.00000000000E+00 0.  1.
</event>
<event>
 6    1  0.6447971E-006  0.1551078E+03  0.7561462E-02  0.1194333E+00
         -2   -1    0    0    0  501 -0.00000000000E+00  0.00000000000E+00  0.59083787907E+03  0.59083787907E+03  0.00000000000E+00 0. -1.
          2   -1    0    0  501    0  0.00000000000E+00 -0.00000000000E+00 -0.52882813657E+02  0.52882813657E+02  0.00000000000E+00 0.  1.
          5    1    1    2  502    0  0.73226163322E+02 -0.83011141615E+02  0.31125019159E+03  0.33037414365E+03  0.41800000000E+01 0.  1.
         -5    1    1    2    0  502 -0.33464218075E+02 -0.43142541108E+02  0.50039225676E+02  0.74179035117E+02  0.41800000000E+01 0.  1.
        -11    1    1    2    0    0  0.14592524939E+02  0.14861680902E+02 -0.29005848344E+01  0.21029140156E+02  0.00000000000E+00 0. -1.
         11    1    1    2    0    0 -0.54354470185E+02  0.11129200182E+03  0.17956623298E+03  0.21813837380E+03  0.00000000000E+00 0.  1.
</event>
<event>
 6    1  0.6447971E-006  0.1665116E+03  0.7561462E-02  0.1181535E+00
          2   -1    0    0  501    0  0.00000000000E+00  0.00000000000E+00  0.69572059831E+03  0.69572059831E+03  0.00000000000E+00 0. -1.
         -2   -1    0    0    0  501 -0.00000000000E+00 -0.00000000000E+00 -0.45331440017E+02  0.45331440017E+02  0.00000000000E+00 0.  1.
          5    1    1    2  502    0 -0.49338819724E+02 -0.14318502236E+03  0.25971306136E+03  0.30067360443E+03  0.41800000000E+01 0. -1.
         -5    1    1    2    0  502  0.17528968628E+02  0.72544715279E+01  0.13382594612E+03  0.13522850422E+03  0.41800000000E+01 0. -1.
        -11    1    1    2    0    0 -0.16241305875E+02  0.10196114241E+03  0.18878778313E+03  0.21517593182E+03  0.00000000000E+00 0.  1.
         11    1    1    2    0    0  0.48051156971E+02  0.33969408429E+02  0.68062367688E+02  0.89973997858E+02  0.00000000000E+00 0. -1.
</event>
<event>
 6    1  0.6447971E-006  0.1535889E+03  0.7561462E-02  0.1196131E+00
         -1   -1    0    0    0  501 -0.00000000000E+00  0.00000000000E+00  0.89009842001E+02  0.89009842001E+02  0.00000000000E+00 0.  1.
          1   -1    0    0  501    0  0.00000000000E+00 -0.00000000000E+00 -0.35939319395E+03  0.35939319395E+03  0.00000000000E+00 0. -1.
          5    1    1    2  502    0  0.22149164204E+01 -0.10705916711E+01  0.24557644092E+02  0.25032025580E+02  0.41800000000E+01 0.  1.
         -5    1    1    2    0  502  0.68743784589E+02  0.11974551250E+03 -0.12735249336E+03  0.18788513951E+03  0.41800000000E+01 0.  1.
        -11    1    1    2    0    0  0.15567371220E+02 -0.53901265921E+02 -0.43988873658E+02  0.71293130947E+02  0.00000000000E+00 0.  1.
         11    1    1    2    0    0 -0.86526072230E+02 -0.64773654908E+02 -0.12359962902E+03  0.16419273991E+03  0.00000000000E+00 0. -1.
</event>
<event>
 6    1  0.6447971E-006  0.1172498E+03  0.7561462E-02  0.1247704E+00
         -2   -1    0    0    0  501 -0.00000000000E+00  0.00000000000E+00  0.24456204389E+03  0.24456204389E+03  0.00000000000E+00 0.  1.
          2   -1    0    0  501    0  0.00000000000E+00 -0.00000000000E+00 -0.59182707642E+02  0.59182707642E+02  0.00000000000E+00 0. -1.
          5    1    1    2  502    0 -0.42305290148E+02  0.43808993116E+02  0.55791521342E+02  0.82699042957E+02  0.41800000000E+01 0. -1.
         -5    1    1    2    0  502  0.53738847686E+02 -0.56634448701E+02  0.83931311662E+02  0.11470510890E+03  0.41800000000E+01 0.  1.
        -11    1    1    2    0    0 -0.11610427365E+02 -0.40404951186E+02  0.26863000963E+02  0.49889707603E+02  0.00000000000E+00 0.  1.
         11    1    1    2    0    0  0.17686982668E+00  0.53230406771E+02  0.18793502281E+02  0.56450892074E+02  0.00000000000E+00 0. -1.
</event>
<event>
 6    1  0.6447971E-006  0.9870871E+02  0.7561462E-02  0.1283035E+00
         -2   -1    0    0    0  501 -0.00000000000E+00  0.00000000000E+00  0.55113422632E+02  0.55113422632E+02  0.00000000000E+00 0.  1.
          2   -1    0    0  501    0  0.00000000000E+00 -0.00000000000E+00 -0.22206777800E+03  0.22206777800E+03  0.00000000000E+00 0. -1.
          5    1    1    2  502    0  0.29764642591E+02  0.46061536921E+02 -0.82757291459E+02  0.99367201942E+02  0.41800000000E+01 0.  1.
         -5    1    1    2    0  502 -0.22168564157E+02 -0.44300095053E+02  0.19654938817E+01  0.49752178090E+02  0.41800000000E+01 0.  1.
        -11    1    1    2    0    0 -0.16357599416E+02 -0.45367253616E+02 -0.57946952592E+02  0.75389708011E+02  0.00000000000E+00 0. -1.
         11    1    1    2    0    0  0.87615209828E+01  0.43605811747E+02 -0.28215605202E+02  0.52672112592E+02  0.00000000000E+00 0.  1.
</event>
<event>
 6    1  0.6447971E-006  0.1192703E+03  0.7561462E-02  0.1244306E+00
         -1   -1    0    0    0  501 -0.00000000000E+00  0.00000000000E+00  0.51741471144E+02  0.51741471144E+02  0.00000000000E+00 0.  1.
          1   -1    0    0  501    0  0.00000000000E+00 -0.00000000000E+00 -0.71442100337E+03  0.71442100337E+03  0.00000000000E+00 0. -1.
          5    1    1    2  502    0 -0.29608976045E+02 -0.38360001567E+02  0.21999108510E+02  0.53381779268E+02  0.41800000000E+01 0. -1.
         -5    1    1    2    0  502 -0.63379160516E+01 -0.55555830528E+02 -0.12587782056E+03  0.13780173292E+03  0.41800000000E+01 0. -1.
        -11    1    1    2    0    0  0.49801595610E+02  0.12637795044E+02 -0.25899710168E+03  0.26404433618E+03  0.00000000000E+00 0. -1.
         11    1    1    2    0    0 -0.13854703514E+02  0.81278037051E+02 -0.29980371850E+03  0.31093462615E+03  0.00000000000E+00 0.  1.
</event>
<event>
 6    1  0.6447971E-006  0.2069031E+03  0.7561462E-02  0.1144042E+00
          4   -1    0    0  501    0  0.00000000000E+00  0.00000000000E+00  0.43845655203E+03  0.43845655203E+03  0.00000000000E+00 0.  1.
         -4   -1    0    0    0  501 -0.00000000000E+00 -0.00000000000E+00 -0.11015771410E+03  0.11015771410E+03  0.00000000000E+00 0. -1.
          5    1    1    2  502    0  0.16321615882E+03  0.25722534104E+02  0.17378532490E+03  0.23983322291E+03  0.41800000000E+01 0. -1.
         -5    1    1    2    0  502  0.23761435194E+02 -0.52728146475E+02  0.31909890899E+02  0.66185925772E+02  0.41800000000E+01 0. -1.
        -11    1    1    2    0    0 -0.64897008270E+02 -0.24861875971E+01 -0.29453806095E+01  0.65011368838E+02  0.00000000000E+00 0. -1.
         11    1    1    2    0    0 -0.12208058574E+03  0.29491799967E+02  0.12554900274E+03  0.17758374861E+03  0.00000000000E+00 0.  1.
</event>
<event>
 6    1  0.6447971E-006  0.6276610E+02  0.7561462E-02  0.1386577E+00
         -2   -1    0    0    0  501 -0.00000000000E+00  0.00000000000E+00  0.40514816306E+03  0.40514816306E+03  0.00000000000E+00 0. -1.
          2   -1    0    0  501    0  0.00000000000E+00 -0.00000000000E+00 -0.14306884921E+03  0.14306884921E+03  0.00000000000E+00 0.  1.
          5    1    1    2  502    0  0.68589413577E+01 -0.15584033824E+02 -0.11987497480E+01  0.17573178078E+02  0.41800000000E+01 0. -1.
         -5    1    1    2    0  502 -0.28978717661E+02  0.28682834075E+02  0.37936290831E+03  0.38157064830E+03  0.41800000000E+01 0. -1.
        -11    1    1    2    0    0 -0.20860632510E+02 -0.11899042105E+02 -0.10051443699E+03  0.10334362697E+03  0.00000000000E+00 0.  1.
         11    1    1    2    0    0  0.42980408814E+02 -0.11997581450E+01 -0.15570407717E+02  0.45729558907E+02  0.00000000000E+00 0. -1.
</event>
<event>
 6    1  0.6447971E-006  0.1175179E+03  0.7561462E-02  0.1247249E+00
         -1   -1    0    0    0  501 -0.00000000000E+00  0.00000000000E+00  0.24675129494E+03  0.24675129494E+03  0.00000000000E+00 0.  1.
          1   -1    0    0  501    0  0.00000000000E+00 -0.00000000000E+00 -0.58258224830E+02  0.58258224830E+02  0.00000000000E+00 0. -1.
          5    1    1    2  502    0 -0.13034774722E+02 -0.70156080438E+02  0.78668510016E+02  0.10629199331E+03  0.41800000000E+01 0.  1.
         -5    1    1    2    0  502 -0.31984727645E+02  0.49554140998E+02  0.28139075908E+02  0.65482178381E+02  0.41800000000E+01 0.  1.
        -11    1    1    2    0    0  0.71723981884E+02  0.27553400243E+02  0.52424929088E+02  0.93015550485E+02  0.00000000000E+00 0.  1.
         11    1    1    2    0    0 -0.26704479517E+02 -0.69514608028E+01  0.29260555099E+02  0.40219797592E+02  0.00000000000E+00 0. -1.
</event>
<event>
 6    1  0.6447971E-006  0.1372078E+03  0.7561462E-02  0.1217136E+00
          1   -1    0    0  501    0  0.00000000000E+00  0.00000000000E+00  0.65439586023E+02  0.65439586023E+02  0.00000000000E+00 0. -1.
         -1   -1    0    0    0  501 -0.00000000000E+00 -0.00000000000E+00 -0.38755623440E+03  0.38755623440E+03  0.00000000000E+00 0.  1.
          5    1    1    2  502    0 -0.44005805361E+02  0.15594784021E+02 -0.56626301262E+02  0.73509989721E+02  0.41800000000E+01 0. -1.
         -5    1    1    2    0  502  0.62724949573E+01 -0.10683574558E+03 -0.20647281243E+03  0.23259775450E+03  0.41800000000E+01 0.  1.
        -11    1    1    2    0    0 -0.15099674864E+02  0.10790090462E+00 -0.36033649675E+02  0.39069626726E+02  0.00000000000E+00 0.  1.
         11    1    1    2    0    0  0.52832985268E+02  0.91133060655E+02 -0.22983885010E+02  0.10781844947E+03  0.00000000000E+00 0. -1.
</event>
<event>
 6    1  0.6447971E-006  0.9174240E+02  0.7561462E-02  0.1298686E+00
         -1   -1    0    0    0  501 -0.00000000000E+00  0.00000000000E+00  0.26764995777E+03  0.26764995777E+03  0.00000000000E+00 0.  1.
          1   -1    0    0  501    0  0.00000000000E+00 -0.00000000000E+00 -0.66388899592E+02  0.66388899592E+02  0.00000000000E+00 0. -1.
          5    1    1    2  502    0  0.38029549578E+02  0.37382283506E+02 -0.12559146440E+02  0.54944392986E+02  0.41800000000E+01 0. -1.
         -5    1    1    2    0  502 -0.71505666203E+01  0.31576118853E+02  0.12570531384E+03  0.12987486367E+03  0.41800000000E+01 0. -1.
        -11    1    1    2    0    0 -0.12438572606E+02  0.10191792349E+02  0.61705357148E+02  0.63766306311E+02  0.00000000000E+00 0.  1.
         11    1    1    2    0    0 -0.18440410352E+02 -0.79150194709E+02  0.26409533626E+02  0.85453294394E+02  0.00000000000E+00 0. -1.
</event>
<event>
 6    1  0.6447971E-006  0.1341616E+03  0.7561462E-02  0.1221408E+00
          2   -1    0    0  501    0  0.00000000000E+00  0.00000000000E+00  0.40708298357E+03  0.40708298357E+03  0.00000000000E+00 0. -1.
         -2   -1    0    0    0  501 -0.00000000000E+00 -0.00000000000E+00 -0.58470037035E+02  0.58470037035E+02  0.00000000000E+00 0.  1.
          5    1    1    2  502    0  0.84205733450E+02  0.36199410775E+02  0.15556369082E+03  0.18060602755E+03  0.41800000000E+01 0. -1.
         -5    1    1    2    0  502  0.18118287232E+02 -0.66483471981E+02  0.67933449438E+02  0.96854273687E+02  0.41800000000E+01 0. -1.
        -11    1    1    2    0    0 -0.24762689368E+02  0.13410188729E+02 -0.11236226527E+02  0.30319576729E+02  0.00000000000E+00 0.  1.
         11    1    1    2    0    0 -0.77561331314E+02  0.16873872477E+02  0.13635203280E+03  0.15777314263E+03  0.00000000000E+00 0. -1.
</event>
<event>
 6    1  0.6447971E-006  0.1624019E+03  0.7561462E-02  0.1186011E+00
          2   -1    0    0  501    0  0.00000000000E+00  0.00000000000E+00  0.90738575232E+03  0.90738575232E+03  0.00000000000E+00 0. -1.
         -2   -1    0    0    0  501 -0.00000000000E+00 -0.00000000000E+00 -0.40770545042E+02  0.40770545042E+02  0.00000000000E+00 0.  1.
          5    1    1    2  502    0 -0.45518299550E+02  0.11906164859E+03  0.20046424736E+03  0.23759414687E+03  0.41800000000E+01 0. -1.
         -5    1    1    2    0  502 -0.26588285236E+02  0.19294785900E+02  0.29275471752E+03  0.29462182998E+03  0.41800000000E+01 0. -1.
        -11    1    1    2    0    0  0.48816368770E+02 -0.40102670495E+02  0.24265863527E+03  0.25074783212E+03  0.00000000000E+00 0. -1.
         11    1    1    2    0    0  0.23290216016E+02 -0.98253763996E+02  0.13073760714E+03  0.16519248839E+03  0.00000000000E+00 0.  1.
</event>
<event>
 6    1  0.6447971E-006  0.2220243E+03  0.7561462E-02  0.1132383E+00
         -1   -1    0    0    0  501 -0.00000000000E+00  0.00000000000E+00  0.63272447070E+02  0.63272447070E+02  0.00000000000E+00 0.  1.
          1   -1    0    0  501    0  0.00000000000E+00 -0.00000000000E+00 -0.10423725357E+04  0.10423725357E+04  0.00000000000E+00 0. -1.
          5    1    1    2  502    0  0.17240048316E+03  0.93498497223E+02 -0.21626316468E+03  0.29197795186E+03  0.41800000000E+01 0. -1.
         -5    1    1    2    0  502 -0.18432223198E+02  0.33660797659E+02 -0.30284933251E+02  0.49065728703E+02  0.41800000000E+01 0. -1.
        -11    1    1    2    0    0 -0.12839537629E+02 -0.43190180634E+02 -0.27065464175E+03  0.27437962849E+03  0.00000000000E+00 0. -1.
         11    1    1    2    0    0 -0.14112872233E+03 -0.83969114248E+02 -0.46189734895E+03  0.49022167372E+03  0.00000000000E+00 0.  1.
</event>
<event>
 6    1  0.6447971E-006  0.9612687E+02  0.7561462E-02  0.1288658E+00
         -2   -1    0    0    0  501 -0.00000000000E+00  0.00000000000E+00  0.52872845569E+03  0.52872845569E+03  0.00000000000E+00 0.  1.
          2   -1    0    0  501    0  0.00000000000E+00 -0.00000000000E+00 -0.72857367794E+02  0.72857367794E+02  0.00000000000E+00 0. -1.
          5    1    1    2  502    0 -0.39447636331E+02  0.27813056510E+02  0.96798687648E+02  0.10824574105E+03  0.41800000000E+01 0. -1.
         -5    1    1    2    0  502  0.60298625448E+02 -0.24153249850E+02  0.38684007952E+03  0.39227799229E+03  0.41800000000E+01 0.  1.
        -11    1    1    2    0    0  0.24602145690E+02  0.15835723978E+02  0.17435438595E+02  0.34059216748E+02  0.00000000000E+00 0.  1.
         11    1    1    2    0    0 -0.45453134808E+02 -0.19495530638E+02 -0.45203117870E+02  0.67002873400E+02  0.00000000000E+00 0. -1.
</event>
<event>
 6    1  0.6447971E-006  0.1460859E+03  0.7561462E-02  0.1205367E+00
          4   -1    0    0  501    0  0.00000000000E+00  0.00000000000E+00  0.10205024672E+04  0.10205024672E+04  0.00000000000E+00 0.  1.
         -4   -1    0    0    0  501 -0.00000000000E+00 -0.00000000000E+00 -0.26204688363E+02  0.26204688363E+02  0.00000000000E+00 0. -1.
          5    1    1    2  502    0  0.14120176787E+02  0.97583686357E+01  0.12860753396E+02  0.21851236323E+02  0.41800000000E+01 0.  1.
         -5    1    1    2    0  502 -0.12720672538E+03 -0.32433164460E+02  0.59869704828E+03  0.61293481641E+03  0.41800000000E+01 0.  1.
        -11    1    1    2    0    0  0.10181413121E+03 -0.15834442518E+02  0.20177735173E+03  0.22656333895E+03  0.00000000000E+00 0. -1.
         11    1    1    2    0    0  0.11272417383E+02  0.38509238343E+02  0.18096262545E+03  0.18535776391E+03  0.00000000000E+00 0.  1.
</event>
<event>
 6    1  0.6447971E-006  0.7180890E+02  0.7561462E-02  0.1354048E+00
          1   -1    0    0  501    0  0.00000000000E+00  0.00000000000E+00  0.27050880310E+03  0.27050880310E+03  0.00000000000E+00 0. -1.
         -1   -1    0    0    0  501 -0.00000000000E+00 -0.00000000000E+00 -0.64436503361E+02  0.64436503361E+02  0.00000000000E+00 0.  1.
          5    1    1    2  502    0  0.49552874320E+01 -0.60100588165E+01 -0.36180730732E+02  0.37245044728E+02  0.41800000000E+01 0. -1.
         -5    1    1    2    0  502  0.45757667779E+02 -0.31163820045E+02  0.10042846581E+03  0.11475320033E+03  0.41800000000E+01 0. -1.
        -11    1    1    2    0    0 -0.55286600055E+02  0.15941931910E+02  0.14927911161E+03  0.15998439455E+03  0.00000000000E+00 0. -1.
         11    1    1    2    0    0  0.45736448441E+01  0.21231946952E+02 -0.74545469488E+01  0.22962666848E+02  0.00000000000E+00 0.  1.
</event>
<event>
 6    1  0.6447971E-006  0.8894407E+02  0.7561462E-02  0.1305429E+00
          2   -1    0    0  501    0  0.00000000000E+00  0.00000000000E+00  0.29939042804E+03  0.29939042804E+03  0.00000000000E+00 0. -1.
         -2   -1    0    0    0  501 -0.00000000000E+00 -0.00000000000E+00 -0.41893915172E+02  0.41893915172E+02  0.00000000000E+00 0.  1.
          5    1    1    2  502    0  0.48150504456E+02 -0.38906611501E+02  0.18644967279E+02  0.64786593541E+02  0.41800000000E+01 0. -1.
         -5    1    1    2    0  502 -0.37265622850E+02  0.93150408631E+01  0.11346368211E+03  0.11986232181E+03  0.41800000000E+01 0. -1.
        -11    1    1    2    0    0  0.29889735600E+02  0.17668660619E+02  0.10283399185E+03  0.10853758678E+03  0.00000000000E+00 0. -1.
         11    1    1    2    0    0 -0.40774617206E+02  0.11922910018E+02  0.22553871626E+02  0.48097841084E+02  0.00000000000E+00 0.  1.
</event>
<event>
 6    1  0.6447971E-006  0.1078154E+03  0.7561462E-02  0.1264670E+00
         -1   -1    0    0    0  501 -0.00000000000E+00  0.00000000000E+00  0.23554403538E+02  0.23554403538E+02  0.00000000000E+00 0.  1.
          1   -1    0    0  501    0  0.00000000000E+00 -0.00000000000E+00 -0.88368980017E+03  0.88368980017E+03  0.00000000000E+00 0. -1.
          5    1    1    2  502    0  0.22738271424E+02  0.73127117308E+02 -0.39023676905E+03  0.39770191424E+03  0.41800000000E+01 0.  1.
         -5    1    1    2    0  502  0.20935044156E+02  0.81705659572E+01 -0.55097321233E+00  0.22865043043E+02  0.41800000000E+01 0.  1.
        -11    1    1    2    0    0 -0.18904608963E+02 -0.88329703185E+02 -0.43181639147E+03  0.44116314063E+03  0.00000000000E+00 0. -1.
         11    1    1    2    0    0 -0.24768706617E+02  0.70320199191E+01 -0.37531262896E+02  0.45514105793E+02  0.00000000000E+00 0.  1.
</event>
<event>
 6    1  0.6447971E-006  0.9792386E+02  0.7561462E-02  0.1284723E+00
          1   -1    0    0  501    0  0.00000000000E+00  0.00000000000E+00  0.37420442823E+03  0.37420442823E+03  0.00000000000E+00 0. -1.
         -1   -1    0    0    0  501 -0.00000000000E+00 -0.00000000000E+00 -0.36545038586E+02  0.36545038586E+02  0.00000000000E+00 0.  1.
          5    1    1    2  502    0 -0.53591876115E+02  0.29618214698E+02  0.86428055248E+02  0.10600287242E+03  0.41800000000E+01 0.  1.
         -5    1    1    2    0  502  0.56014012084E+02 -0.14490275758E+02  0.28840046597E+02  0.64782392122E+02  0.41800000000E+01 0.  1.
        -11    1    1    2    0    0 -0.37432331748E+02  0.20074201512E+01  0.17315674757E+03  0.17716791026E+03  0.00000000000E+00 0.  1.
         11    1    1    2    0    0  0.35010195779E+02 -0.17135359090E+02  0.49234540226E+02  0.62796292015E+02  0.00000000000E+00 0. -1.
</event>
<event>
 6    1  0.6447971E-006  0.2965250E+03  0.7561462E-02  0.1086991E+00
         -2   -1    0    0    0  501 -0.00000000000E+00  0.00000000000E+00  0.12138745943E+03  0.12138745943E+03  0.00000000000E+00 0.  1.
          2   -1    0    0  501    0  0.00000000000E+00 -0.00000000000E+00 -0.94442368531E+03  0.94442368531E+03  0.00000000000E+00 0. -1.
          5    1    1    2  502    0 -0.11638941037E+03  0.55194431186E+02 -0.51099213941E+02  0.13864170421E+03  0.41800000000E+01 0. -1.
         -5    1    1    2    0  502 -0.61234745939E+02  0.16762014803E+03 -0.13667305000E+03  0.22481815570E+03  0.41800000000E+01 0. -1.
        -11    1    1    2    0    0  0.10534652636E+03 -0.11603063709E+03 -0.24045117577E+03  0.28701527362E+03  0.00000000000E+00 0.  1.
         11    1    1    2    0    0  0.72277629948E+02 -0.10678394212E+03 -0.39481278617E+03  0.41533601121E+03  0.00000000000E+00 0. -1.
</event>
<event>
 6    1  0.6447971E-006  0.5801086E+02  0.7561462E-02  0.1406374E+00
          3   -1    0    0  501    0  0.00000000000E+00  0.00000000000E+00  0.14314130506E+03  0.14314130506E+03  0.00000000000E+00 0. -1.
         -3   -1    0    0    0  501 -0.00000000000E+00 -0.00000000000E+00 -0.90717952716E+02  0.90717952716E+02  0.00000000000E+00 0.  1.
          5    1    1    2  502    0  0.31796178361E+02 -0.15716847347E+02  0.52052599524E+02  0.63126553574E+02  0.41800000000E+01 0. -1.
         -5    1    1    2    0  502 -0.26794153269E+02  0.78476452788E+01 -0.55602151458E+02  0.62358510507E+02  0.41800000000E+01 0. -1.
        -11    1    1    2    0    0  0.21757612928E+02  0.12237500495E+02 -0.17216287361E+02  0.30324094203E+02  0.00000000000E+00 0.  1.
         11    1    1    2    0    0 -0.26759638020E+02 -0.43682984267E+01  0.73189191639E+02  0.78050099493E+02  0.00000000000E+00 0. -1.
</event>
<event>
 6    1  0.6447971E-006  0.1104163E+03  0.7561462E-02  0.1259801E+00
          2   -1    0    0  501    0  0.00000000000E+00  0.00000000000E+00  0.71916847629E+03  0.71916847629E+03  0.00000000000E+00 0. -1.
         -2   -1    0    0    0  501 -0.00000000000E+00 -0.00000000000E+00 -0.29447501781E+02  0.29447501781E+02  0.00000000000E+00 0.  1.
          5    1    1    2  502    0 -0.10571768585E+02 -0.20540497587E+02 -0.21053169190E+01  0.23570725307E+02  0.41800000000E+01 0.  1.
         -5    1    1    2    0  502  0.12594994274E+01  0.89740226551E+02  0.21521396672E+03  0.23321539072E+03  0.41800000000E+01 0.  1.
        -11    1    1    2    0    0 -0.30657049021E+02 -0.38388180502E+01  0.53023816547E+02  0.61368691528E+02  0.00000000000E+00 0.  1.
         11    1    1    2    0    0  0.39969318178E+02 -0.65360910914E+02  0.42358850816E+03  0.43046117051E+03  0.00000000000E+00 0. -1.
</event>
<event>
 6    1  0.6447971E-006  0.1061480E+03  0.7561462E-02  0.1267874E+00
          1   -1    0    0  501    0  0.00000000000E+00  0.00000000000E+00  0.26566021608E+03  0.26566021608E+03  0.00000000000E+00 0. -1.
         -1   -1    0    0    0  501 -0.00000000000E+00 -0.00000000000E+00 -0.12674829385E+03  0.12674829385E+03  0.00000000000E+00 0.  1.
          5    1    1    2  502    0  0.80750559105E+01 -0.39197290361E+02 -0.23257539405E+01  0.40305280436E+02  0.41800000000E+01 0. -1.
         -5    1    1    2    0  502 -0.49203738110E+02  0.75961745360E+02 -0.70454291192E+02  0.11477139953E+03  0.41800000000E+01 0.  1.
        -11    1    1    2    0    0  0.21506955142E+02  0.14917915056E+02  0.97036617909E+01  0.27915127821E+02  0.00000000000E+00 0.  1.
         11    1    1    2    0    0  0.19621727057E+02 -0.51682370054E+02  0.20198830558E+03  0.20941670214E+03  0.00000000000E+00 0. -1.
</event>
<event>
 6    1  0.6447971E-006  0.1195053E+03  0.7561462E-02  0.1243915E+00
          2   -1    0    0  501    0  0.00000000000E+00  0.00000000000E+00  0.10085719811E+03  0.10085719811E+03  0.00000000000E+00 0. -1.
         -2   -1    0    0    0  501 -0.00000000000E+00 -0.00000000000E+00 -0.22040190099E+03  0.22040190099E+03  0.00000000000E+00 0.  1.
          5    1    1    2  502    0  0.73005149379E+02  0.64339958088E+02 -0.44446843126E+02  0.10706248786E+03  0.41800000000E+01 0.  1.
         -5    1    1    2    0  502 -0.26775516993E+02  0.12537048615E+01 -0.87717918194E+02  0.91817240529E+02  0.41800000000E+01 0.  1.
        -11    1    1    2    0    0 -0.67813993796E+02 -0.33071722785E+02 -0.11758083987E+02  0.76359211242E+02  0.00000000000E+00 0.  1.
         11    1    1    2    0    0  0.21584361410E+02 -0.32521940165E+02  0.24378142433E+02  0.46020159474E+02  0.00000000000E+00 0. -1.
</event>
<event>
 6    1  0.6447971E-006  0.1003613E+03  0.7561462E-02  0.1279538E+00
          1   -1    0    0  501    0  0.00000000000E+00  0.00000000000E+00  0.16057405136E+03  0.16057405136E+03  0.00000000000E+00 0. -1.
         -1   -1    0    0    0  501 -0.00000000000E+00 -0.00000000000E+00 -0.29933728023E+03  0.29933728023E+03  0.00000000000E+00 0.  1.
          5    1    1    2  502    0  0.40687187638E+02 -0.14973612887E+01 -0.41241329863E+02  0.58103433784E+02  0.41800000000E+01 0. -1.
         -5    1    1    2    0  502 -0.63193738469E+02  0.26321300969E+02 -0.22891157214E+03  0.23896493409E+03  0.41800000000E+01 0.  1.
        -11    1    1    2    0    0  0.54111300375E+02 -0.60468644631E+01  0.51702782576E+02  0.75085119192E+02  0.00000000000E+00 0. -1.
         11    1    1    2    0    0 -0.31604749543E+02 -0.18777075217E+02  0.79686890561E+02  0.87757844519E+02  0.00000000000E+00 0.  1.
</event>
<event>
 6    1  0.6447971E-006  0.1073709E+03  0.7561462E-02  0.1265517E+00
          2   -1    0    0  501    0  0.00000000000E+00  0.00000000000E+00  0.61854607907E+03  0.61854607907E+03  0.00000000000E+00 0. -1.
         -2   -1    0    0    0  501 -0.00000000000E+00 -0.00000000000E+00 -0.34055798242E+02  0.34055798242E+02  0.00000000000E+00 0.  1.
          5    1    1    2  502    0  0.64602537733E+02 -0.32703083946E+02  0.26052037330E+03  0.27042802533E+03  0.41800000000E+01 0.  1.
         -5    1    1    2    0  502  0.30214527677E+02  0.35710450165E+02  0.20021850076E+02  0.51053901067E+02  0.41800000000E+01 0.  1.
        -11    1    1    2    0    0 -0.17787378784E+02 -0.39176796542E+01  0.68606837799E+00  0.18226621950E+02  0.00000000000E+00 0.  1.
         11    1    1    2    0    0 -0.77029686626E+02  0.91031343524E+00  0.30326198908E+03  0.31289332897E+03  0.00000000000E+00 0. -1.
</event>
<event>
 6    1  0.6447971E-006  0.6718806E+03  0.7561462E-02  0.9766567E-01
          2   -1    0    0  501    0  0.00000000000E+00  0.00000000000E+00  0.18205550358E+04  0.18205550358E+04  0.00000000000E+00 0. -1.
         -2   -1    0    0    0  501 -0.00000000000E+00 -0.00000000000E+00 -0.31325182556E+03  0.31325182556E+03  0.00000000000E+00 0.  1.
          5    1    1    2  502    0 -0.61780883359E+03  0.18372242898E+03  0.71476583632E+03  0.96247044575E+03  0.41800000000E+01 0. -1.
         -5    1    1    2    0  502  0.36636766127E+03  0.24626718999E+02  0.71809722223E+02  0.37417355213E+03  0.41800000000E+01 0.  1.
        -11    1    1    2    0    0  0.80511449557E+02 -0.32723409899E+02  0.11828597504E+03  0.14678040386E+03  0.00000000000E+00 0. -1.
         11    1    1    2    0    0  0.17092972277E+03 -0.17562573808E+03  0.60244167663E+03  0.65038245959E+03  0.00000000000E+00 0.  1.
</event>
<event>
 6    1  0.6447971E-006  0.1190772E+03  0.7561462E-02  0.1244627E+00
         -2   -1    0    0    0  501 -0.00000000000E+00  0.00000000000E+00  0.12098229924E+03  0.12098229924E+03  0.00000000000E+00 0.  1.
          2   -1    0    0  501    0  0.00000000000E+00 -0.00000000000E+00 -0.19729056655E+03  0.19729056655E+03  0.00000000000E+00 0. -1.
          5    1    1    2  502    0  0.18260250295E+01 -0.15025493901E+02 -0.32957101324E+02  0.36506749541E+02  0.41800000000E+01 0. -1.
         -5    1    1    2    0  502 -0.28262123183E+02  0.98818465545E+02  0.58940032706E+02  0.11855478310E+03  0.41800000000E+01 0. -1.
        -11    1    1    2    0    0  0.54218722101E+02 -0.70075702546E+02 -0.97693781919E+02  0.13188763755E+03  0.00000000000E+00 0. -1.
         11    1    1    2    0    0 -0.27782623947E+02 -0.13717269098E+02 -0.45974167796E+01  0.31323695599E+02  0.00000000000E+00 0.  1.
</event>
<event>
 6    1  0.6447971E-006  0.1346533E+03  0.7561462E-02  0.1220710E+00
         -1   -1    0    0    0  501 -0.00000000000E+00  0.00000000000E+00  0.80896351377E+02  0.80896351377E+02  0.00000000000E+00 0.  1.
          1   -1    0    0  501    0  0.00000000000E+00 -0.00000000000E+00 -0.24918039308E+03  0.24918039308E+03  0.00000000000E+00 0. -1.
          5    1    1    2  502    0  0.35187885828E+02 -0.93709694074E+01  0.57534341509E+01  0.37102247657E+02  0.41800000000E+01 0. -1.
         -5    1    1    2    0  502 -0.37782612205E+02  0.10016804120E+03 -0.84065941377E+02  0.13618266102E+03  0.41800000000E+01 0. -1.
        -11    1    1    2    0    0  0.38771687028E+02 -0.78064516707E+02 -0.46392516778E+02  0.98739951877E+02  0.00000000000E+00 0.  1.
         11    1    1    2    0    0 -0.36176960651E+02 -0.12732555084E+02 -0.43579017697E+02  0.58051883901E+02  0.00000000000E+00 0. -1.
</event>
<event>
 6    1  0.6447971E-006  0.1149276E+03  0.7561462E-02  0.1251708E+00
          2   -1    0    0  501    0  0.00000000000E+00  0.00000000000E+00  0.57947297646E+03  0.57947297646E+03  0.00000000000E+00 0. -1.
         -2   -1    0    0    0  501 -0.00000000000E+00 -0.00000000000E+00 -0.34132451875E+02  0.34132451875E+02  0.00000000000E+00 0.  1.
          5    1    1    2  502    0 -0.77978467082E+01  0.52326218296E+02  0.21430870952E+03  0.22078164532E+03  0.41800000000E+01 0. -1.
         -5    1    1    2    0  502  0.86164541953E+02 -0.14267497416E+02  0.14193436557E+03  0.16670550772E+03  0.41800000000E+01 0. -1.
        -11    1    1    2    0    0 -0.45185469189E+02 -0.32607883405E+02  0.29564023663E+02  0.63079570236E+02  0.00000000000E+00 0.  1.
         11    1    1    2    0    0 -0.33181226055E+02 -0.54508374751E+01  0.15953342582E+03  0.16303870505E+03  0.00000000000E+00 0. -1.
</event>
<event>
 6    1  0.6447971E-006  0.7381709E+02  0.7561462E-02  0.1347574E+00
          1   -1    0    0  501    0  0.00000000000E+00  0.00000000000E+00  0.15254294372E+03  0.15254294372E+03  0.00000000000E+00 0.  1.
         -1   -1    0    0    0  501 -0.00000000000E+00 -0.00000000000E+00 -0.14899128294E+03  0.14899128294E+03  0.00000000000E+00 0. -1.
          5    1    1    2  502    0  0.33372013536E+02  0.38101469561E+01  0.19401176272E+02  0.39013927616E+02  0.41800000000E+01 0.  1.
         -5    1    1    2    0  502 -0.19356209206E+02 -0.15200859056E+02 -0.11987550120E+03  0.12244728310E+03  0.41800000000E+01 0.  1.
        -11    1    1    2    0    0  0.22130251796E+02  0.37975058312E+02  0.29014116543E+02  0.52665662980E+02  0.00000000000E+00 0. -1.
         11    1    1    2    0    0 -0.36146056126E+02 -0.26584346212E+02  0.75011869163E+02  0.87407352965E+02  0.00000000000E+00 0.  1.
</event>
<event>
 6    1  0.6447971E-006  0.1256745E+03  0.7561462E-02  0.1234019E+00
         -2   -1    0    0    0  501 -0.00000000000E+00  0.00000000000E+00  0.27062786349E+02  0.27062786349E+02  0.00000000000E+00 0.  1.
          2   -1    0    0  501    0  0.00000000000E+00 -0.00000000000E+00 -0.70215877900E+03  0.70215877900E+03  0.00000000000E+00 0. -1.
          5    1    1    2  502    0  0.34570757002E+02 -0.11574097888E+01 -0.10318753516E+03  0.10891104926E+03  0.41800000000E+01 0. -1.
         -5    1    1    2    0  502 -0.10634515340E+03 -0.40393376345E+02 -0.23765516941E+03  0.26351160971E+03  0.41800000000E+01 0. -1.
        -11    1    1    2    0    0  0.36484308614E+02 -0.12114773478E+02 -0.39463227202E+02  0.55092819974E+02  0.00000000000E+00 0.  1.
         11    1    1    2    0    0  0.35290087787E+02  0.53665559611E+02 -0.29479006087E+03  0.30170608641E+03  0.00000000000E+00 0. -1.
</event>
<event>
 6    1  0.6447971E-006  0.1239562E+03  0.7561462E-02  0.1236710E+00
          2   -1    0    0  501    0  0.00000000000E+00  0.00000000000E+00  0.88809949719E+03  0.88809949719E+03  0.00000000000E+00 0. -1.
         -2   -1    0    0    0  501 -0.00000000000E+00 -0.00000000000E+00 -0.19615493765E+02  0.19615493765E+02  0.00000000000E+00 0.  1.
          5    1    1    2  502    0 -0.32048542012E+02  0.24585066907E+02  0.12207958827E+03  0.12865625842E+03  0.41800000000E+01 0. -1.
         -5    1    1    2    0  502  0.49313999480E+02 -0.84454197552E+02  0.21370989884E+03  0.23506121605E+03  0.41800000000E+01 0. -1.
        -11    1    1    2    0    0 -0.53201638372E+02  0.23088973411E+02  0.24748738878E+03  0.25419190118E+03  0.00000000000E+00 0. -1.
         11    1    1    2    0    0  0.35936180904E+02  0.36780157235E+02  0.28520712754E+03  0.28980561530E+03  0.00000000000E+00 0.  1.
</event>
<event>
 6    1  0.6447971E-006  0.3060577E+03  0.7561462E-02  0.1082251E+00
         -1   -1    0    0    0  501 -0.00000000000E+00  0.00000000000E+00  0.14932884229E+03  0.14932884229E+03  0.00000000000E+00 0.  1.
          1   -1    0    0  501    0  0.00000000000E+00 -0.00000000000E+00 -0.64681855668E+03  0.64681855668E+03  0.00000000000E+00 0. -1.
          5    1    1    2  502    0  0.59685321192E+02 -0.44229115352E+02 -0.85275480808E+02  0.11317213543E+03  0.41800000000E+01 0.  1.
         -5    1    1    2    0  502  0.22485391130E+03  0.77549006086E+02 -0.23619795979E+03  0.33523138036E+03  0.41800000000E+01 0.  1.
        -11    1    1    2    0    0 -0.19495487037E+02 -0.28754030049E+02 -0.17801926924E+02  0.39035584548E+02  0.00000000000E+00 0.  1.
         11    1    1    2    0    0 -0.26504374546E+03 -0.45658606851E+01 -0.15821434687E+03  0.30870829863E+03  0.00000000000E+00 0. -1.
</event>
<event>
 6    1  0.6447971E-006  0.1231246E+03  0.7561462E-02  0.1238030E+00
         -2   -1    0    0    0  501 -0.00000000000E+00  0.00000000000E+00  0.48824809029E+02  0.48824809029E+02  0.00000000000E+00 0.  1.
          2   -1    0    0  501    0  0.00000000000E+00 -0.00000000000E+00 -0.54317665135E+03  0.54317665135E+03  0.00000000000E+00 0. -1.
          5    1    1    2  502    0  0.40503153735E+02  0.13755950841E+01  0.24551015278E+01  0.40815409441E+02  0.41800000000E+01 0.  1.
         -5    1    1    2    0  502  0.65538869085E+02 -0.54673934177E+02 -0.22525038117E+03  0.24091448494E+03  0.41800000000E+01 0.  1.
        -11    1    1    2    0    0 -0.71817344932E+02  0.26364450876E+02 -0.68797484705E+02  0.10288784770E+03  0.00000000000E+00 0.  1.
         11    1    1    2    0    0 -0.34224677888E+02  0.26933888218E+02 -0.20275907798E+03  0.20738371830E+03  0.00000000000E+00 0. -1.
</event>
<event>
 6    1  0.6447971E-006  0.1059033E+03  0.7561462E-02  0.1268350E+00
         -4   -1    0    0    0  501 -0.00000000000E+00  0.00000000000E+00  0.27235547877E+03  0.27235547877E+03  0.00000000000E+00 0.  1.
          4   -1    0    0  501    0  0.00000000000E+00 -0.00000000000E+00 -0.46336731242E+02  0.46336731242E+02  0.00000000000E+00 0. -1.
          5    1    1    2  502    0 -0.34270142750E+02 -0.38925716490E+02  0.10231955547E+03  0.11478857923E+03  0.41800000000E+01 0.  1.
         -5    1    1    2    0  502  0.46026178380E+02  0.52462012278E+02  0.70370712332E+02  0.99197688394E+02  0.41800000000E+01 0.  1.
        -11    1    1    2    0    0 -0.20689243992E+02 -0.49053418522E+02  0.27764311647E+02  0.60042815448E+02  0.00000000000E+00 0. -1.
         11    1    1    2    0    0  0.89332083623E+01  0.35517122735E+02  0.25564168075E+02  0.44663126944E+02  0.00000000000E+00 0.  1.
</event>
<event>
 6    1  0.6447971E-006  0.1215063E+03  0.7561462E-02  0.1240633E+00
          1   -1    0    0  501    0  0.00000000000E+00  0.00000000000E+00  0.38720168461E+03  0.38720168461E+03  0.00000000000E+00 0. -1.
         -1   -1    0    0    0  501 -0.00000000000E+00 -0.00000000000E+00 -0.51169318732E+02  0.51169318732E+02  0.00000000000E+00 0.  1.
          5    1    1    2  502    0  0.10310610809E+02 -0.74104522440E+02  0.61059557171E+02  0.96661941131E+02  0.41800000000E+01 0. -1.
         -5    1    1    2    0  502  0.16714671949E+02  0.48107471894E+02  0.10210358494E+02  0.52109816071E+02  0.41800000000E+01 0. -1.
        -11    1    1    2    0    0 -0.61691863306E+02  0.46000346803E+02  0.18470109861E+03  0.20009101362E+03  0.00000000000E+00 0.  1.
         11    1    1    2    0    0  0.34666580548E+02 -0.20003296257E+02  0.80061351598E+02  0.89508232513E+02  0.00000000000E+00 0. -1.
</event>
<event>
 6    1  0.6447971E-006  0.1559407E+03  0.7561462E-02  0.1193357E+00
          2   -1    0    0  501    0  0.00000000000E+00  0.00000000000E+00  0.13831144011E+03  0.13831144011E+03  0.00000000000E+00 0. -1.
         -2   -1    0    0    0  501 -0.00000000000E+00 -0.00000000000E+00 -0.19319318875E+03  0.19319318875E+03  0.00000000000E+00 0.  1.
          5    1    1    2  502    0 -0.96671304004E+02 -0.55777451921E+02 -0.97814076060E+01  0.11211428765E+03  0.41800000000E+01 0.  1.
         -5    1    1    2    0  502  0.37409061585E+02 -0.49522976159E+02 -0.31393581275E+01  0.62283954802E+02  0.41800000000E+01 0.  1.
        -11    1    1    2    0    0  0.30814101427E+01 -0.96040781122E+01  0.14198719898E+02  0.17416574049E+02  0.00000000000E+00 0. -1.
         11    1    1    2    0    0  0.56180832276E+02  0.11490450619E+03 -0.56159702800E+02  0.13968981236E+03  0.00000000000E+00 0.  1.
</event>
<event>
 6    1  0.6447971E-006  0.1300489E+03  0.7561462E-02  0.1227383E+00
         -1   -1    0    0    0  501 -0.00000000000E+00  0.00000000000E+00  0.46284771845E+02  0.46284771845E+02  0.00000000000E+00 0.  1.
          1   -1    0    0  501    0  0.00000000000E+00 -0.00000000000E+00 -0.57192257878E+03  0.57192257878E+03  0.00000000000E+00 0. -1.
          5    1    1    2  502    0 -0.75051225507E+02 -0.54695356065E+02 -0.14855577307E+03  0.17524428246E+03  0.41800000000E+01 0. -1.
         -5    1    1    2    0  502 -0.20673502247E+02  0.34568593725E+02  0.24021071767E+01  0.40566290022E+02  0.41800000000E+01 0. -1.
        -11    1    1    2    0    0  0.80146562698E+02 -0.20841198263E+02 -0.30432739859E+03  0.31539339338E+03  0.00000000000E+00 0.  1.
         11    1    1    2    0    0  0.15578165056E+02  0.40967960602E+02 -0.75156742458E+02  0.87003384758E+02  0.00000000000E+00 0. -1.
</event>
<event>
 6    1  0.6447971E-006  0.1267415E+03  0.7561462E-02  0.1232373E+00
         -1   -1    0    0    0  501 -0.00000000000E+00  0.00000000000E+00  0.11783863888E+03  0.11783863888E+03  0.00000000000E+00 0.  1.
          1   -1    0    0  501    0  0.00000000000E+00 -0.00000000000E+00 -0.26483888933E+03  0.26483888933E+03  0.00000000000E+00 0. -1.
          5    1    1    2  502    0  0.15635033822E+02  0.56382598591E+02  0.32841382903E+01  0.58751252504E+02  0.41800000000E+01 0. -1.
         -5    1    1    2    0  502  0.58421182841E+02 -0.47284297211E+02  0.49662904931E+02  0.90181571807E+02  0.41800000000E+01 0.  1.
        -11    1    1    2    0    0  0.21051643571E+02 -0.12309810986E+02 -0.27284510696E+02  0.36594366609E+02  0.00000000000E+00 0.  1.
         11    1    1    2    0    0 -0.95107860234E+02  0.32115096061E+01 -0.17266278297E+03  0.19715033729E+03  0.00000000000E+00 0. -1.
</event>
<event>
 6    1  0.6447971E-006  0.1098723E+03  0.7561462E-02  0.1260807E+00
         -2   -1    0    0    0  501 -0.00000000000E+00  0.00000000000E+00  0.32657390554E+03  0.32657390554E+03  0.00000000000E+00 0.  1.
          2   -1    0    0  501    0  0.00000000000E+00 -0.00000000000E+00 -0.44297569836E+02  0.44297569836E+02  0.00000000000E+00 0. -1.
          5    1    1    2  502    0 -0.33756930056E+02 -0.39635037417E+02  0.87681245962E+02  0.10205851170E+03  0.41800000000E+01 0. -1.
         -5    1    1    2    0  502  0.62397411476E+02  0.43399132773E+02  0.13500916801E+03  0.15498990139E+03  0.41800000000E+01 0. -1.
        -11    1    1    2    0    0 -0.44808064427E+02  0.30023923733E+02  0.15803975314E+02  0.56204664128E+02  0.00000000000E+00 0. -1.
         11    1    1    2    0    0  0.16167583007E+02 -0.33788019090E+02  0.43781946416E+02  0.57618398158E+02  0.00000000000E+00 0.  1.
</event>
<event>
 6    1  0.6447971E-006  0.1045751E+03  0.7561462E-02  0.1270959E+00
          2   -1    0    0  501    0  0.00000000000E+00  0.00000000000E+00  0.21334420442E+03  0.21334420442E+03  0.00000000000E+00 0. -1.
         -2   -1    0    0    0  501 -0.00000000000E+00 -0.00000000000E+00 -0.83732184398E+02  0.83732184398E+02  0.00000000000E+00 0.  1.
          5    1    1    2  502    0 -0.49139791772E+02 -0.22896235248E+02  0.24598360965E+02  0.59678375364E+02  0.41800000000E+01 0.  1.
         -5    1    1    2    0  502  0.65454023457E+02 -0.22924337799E+02 -0.27044476897E+02  0.74556224293E+02  0.41800000000E+01 0.  1.
        -11    1    1    2    0    0  0.14173276840E+02 -0.12881208897E+02  0.68430729499E+02  0.71060340970E+02  0.00000000000E+00 0. -1.
         11    1    1    2    0    0 -0.30487508526E+02  0.58701781945E+02  0.63627406453E+02  0.91781448188E+02  0.00000000000E+00 0.  1.
</event>
<event>
 6    1  0.6447971E-006  0.9392971E+02  0.7561462E-02  0.1293605E+00
          2   -1    0    0  501    0  0.00000000000E+00  0.00000000000E+00  0.34901498299E+03  0.34901498299E+03  0.00000000000E+00 0. -1.
         -2   -1    0    0    0  501 -0.00000000000E+00 -0.00000000000E+00 -0.28614097783E+02  0.28614097783E+02  0.00000000000E+00 0.  1.
          5    1    1    2  502    0  0.39505119067E+02 -0.29727030586E+02  0.69252695986E+02  0.85192482540E+02  0.41800000000E+01 0. -1.
         -5    1    1    2    0  502 -0.49997471228E+02  0.40107225360E+02  0.75796705271E+02  0.99352652633E+02  0.41800000000E+01 0.  1.
        -11    1    1    2    0    0  0.11099836379E+02 -0.41462193972E+02  0.13782055157E+03  0.14434965996E+03  0.00000000000E+00 0. -1.
         11    1    1    2    0    0 -0.60748421773E+00  0.31081999198E+02  0.37530932378E+02  0.48734285635E+02  0.00000000000E+00 0.  1.
</event>
<event>
 6    1  0.6447971E-006  0.9535506E+02  0.7561462E-02  0.1290378E+00
          2   -1    0    0  501    0  0.00000000000E+00  0.00000000000E+00  0.53271453839E+02  0.53271453839E+02  0.00000000000E+00 0.  1.
         -2   -1    0    0    0  501 -0.00000000000E+00 -0.00000000000E+00 -0.23595411247E+03  0.23595411247E+03  0.00000000000E+00 0. -1.
          5    1    1    2  502    0  0.67910209257E+02 -0.34861090811E+02 -0.43938971421E+02  0.88177081963E+02  0.41800000000E+01 0.  1.
         -5    1    1    2    0  502 -0.45313444099E+02  0.20896679205E+02 -0.47627288977E+02  0.69107238935E+02  0.41800000000E+01 0.  1.
        -11    1    1    2    0    0 -0.82863534430E+01  0.36533958773E+02 -0.97513848627E+02  0.10446216765E+03  0.00000000000E+00 0. -1.
         11    1    1    2    0    0 -0.14310411715E+02 -0.22569547167E+02  0.63974503957E+01  0.27479077757E+02  0.00000000000E+00 0.  1.
</event>
<event>
 6    1  0.6447971E-006  0.1194025E+03  0.7561462E-02  0.1244086E+00
         -1   -1    0    0    0  501 -0.00000000000E+00  0.00000000000E+00  0.38390108228E+02  0.38390108228E+02  0.00000000000E+00 0.  1.
          1   -1    0    0  501    0  0.00000000000E+00 -0.00000000000E+00 -0.52620913452E+03  0.52620913452E+03  0.00000000000E+00 0. -1.
          5    1    1    2  502    0 -0.96212162695E+02  0.17097362525E+02 -0.67004554141E+02  0.11855877332E+03  0.41800000000E+01 0. -1.
         -5    1    1    2    0  502  0.25673190137E+02  0.11596345085E+02 -0.98037001374E+02  0.10208973479E+03  0.41800000000E+01 0. -1.
        -11    1    1    2    0    0 -0.15593762522E-01  0.24285711845E+02 -0.32572240656E+02  0.40629384740E+02  0.00000000000E+00 0.  1.
         11    1    1    2    0    0  0.70554566320E+02 -0.52979419455E+02 -0.29020523012E+03  0.30332134990E+03  0.00000000000E+00 0. -1.
</event>
<event>
 6    1  0.6447971E-006  0.1077958E+03  0.7561462E-02  0.1264707E+00
         -2   -1    0    0    0  501 -0.00000000000E+00  0.00000000000E+00  0.45412283888E+02  0.45412283888E+02  0.00000000000E+00 0.  1.
          2   -1    0    0  501    0  0.00000000000E+00 -0.00000000000E+00 -0.28829075406E+03  0.28829075406E+03  0.00000000000E+00 0. -1.
          5    1    1    2  502    0 -0.11752326611E+02  0.52215751695E+02 -0.21559496820E+02  0.57852279203E+02  0.41800000000E+01 0.  1.
         -5    1    1    2    0  502 -0.14219228324E+02 -0.66488736835E+02 -0.86378190021E+02  0.11000728472E+03  0.41800000000E+01 0.  1.
        -11    1    1    2    0    0  0.15705327858E+02  0.52190993721E+02 -0.58855191732E+02  0.80215277488E+02  0.00000000000E+00 0.  1.
         11    1    1    2    0    0  0.10266227076E+02 -0.37918008581E+02 -0.76085591595E+02  0.85628196533E+02  0.00000000000E+00 0. -1.
</event>
<event>
 6    1  0.6447971E-006  0.8472345E+02  0.7561462E-02  0.1316157E+00
          2   -1    0    0  501    0  0.00000000000E+00  0.00000000000E+00  0.16150995386E+02  0.16150995386E+02  0.00000000000E+00 0.  1.
         -2   -1    0    0    0  501 -0.00000000000E+00 -0.00000000000E+00 -0.57674224514E+03  0.57674224514E+03  0.00000000000E+00 0. -1.
          5    1    1    2  502    0  0.11577638041E+02  0.59250889048E+02 -0.12905528413E+03  0.14253928693E+03  0.41800000000E+01 0.  1.
         -5    1    1    2    0  502 -0.99221205510E+01 -0.51595217805E+02 -0.29418295755E+03  0.29886719440E+03  0.41800000000E+01 0.  1.
        -11    1    1    2    0    0 -0.28639155003E+02 -0.54267937519E+01 -0.10659909787E+03  0.11051252850E+03  0.00000000000E+00 0.  1.
         11    1    1    2    0    0  0.26983637514E+02 -0.22288774914E+01 -0.30753910214E+02  0.40974230704E+02  0.00000000000E+00 0. -1.
</event>
<event>
 6    1  0.6447971E-006  0.2132466E+03  0.7561462E-02  0.1139020E+00
         -2   -1    0    0    0  501 -0.00000000000E+00  0.00000000000E+00  0.82851205370E+02  0.82851205370E+02  0.00000000000E+00 0.  1.
          2   -1    0    0  501    0  0.00000000000E+00 -0.00000000000E+00 -0.62988351345E+03  0.62988351345E+03  0.00000000000E+00 0. -1.
          5    1    1    2  502    0  0.16512696551E+02 -0.25635353906E+02  0.49840011434E+01  0.31179371140E+02  0.41800000000E+01 0. -1.
         -5    1    1    2    0  502 -0.11314573376E+03 -0.14040424157E+03 -0.20506945228E+03  0.27310485308E+03  0.41800000000E+01 0. -1.
        -11    1    1    2    0    0  0.53093846264E+02  0.10884445872E+02 -0.79865648154E+02  0.96519166118E+02  0.00000000000E+00 0.  1.
         11    1    1    2    0    0  0.43539190940E+02  0.15515514961E+03 -0.26708120879E+03  0.31193132848E+03  0.00000000000E+00 0. -1.
</event>
<event>
 6    1  0.6447971E-006  0.1322567E+03  0.7561462E-02  0.1224145E+00
          2   -1    0    0  501    0  0.00000000000E+00  0.00000000000E+00  0.10609543317E+04  0.10609543317E+04  0.00000000000E+00 0. -1.
         -2   -1    0    0    0  501 -0.00000000000E+00 -0.00000000000E+00 -0.25935615295E+02  0.25935615295E+02  0.00000000000E+00 0.  1.
          5    1    1    2  502    0 -0.55438282233E+02 -0.85186840500E+00  0.37042277550E+03  0.37457260155E+03  0.41800000000E+01 0. -1.
         -5    1    1    2    0  502 -0.57714501343E+02 -0.42121846648E+02  0.75091381543E+02  0.10373717565E+03  0.41800000000E+01 0. -1.
        -11    1    1    2    0    0  0.62836190973E+02  0.57281612914E+02  0.47686737430E+03  0.48438833878E+03  0.00000000000E+00 0.  1.
         11    1    1    2    0    0  0.50316592603E+02 -0.14307897861E+02  0.11263718501E+03  0.12419183097E+03  0.00000000000E+00 0. -1.
</event>
<event>
 6    1  0.6447971E-006  0.1080794E+03  0.7561462E-02  0.1264168E+00
         -2   -1    0    0    0  501 -0.00000000000E+00  0.00000000000E+00  0.64268061393E+02  0.64268061393E+02  0.00000000000E+00 0.  1.
          2   -1    0    0  501    0  0.00000000000E+00 -0.00000000000E+00 -0.21541162925E+03  0.21541162925E+03  0.00000000000E+00 0. -1.
          5    1    1    2  502    0  0.45925208725E+02  0.41477226499E+01 -0.35339584514E+02  0.58246777020E+02  0.41800000000E+01 0.  1.
         -5    1    1    2    0  502 -0.76895095414E+02 -0.19666153059E+02 -0.14507867197E+02  0.80793340601E+02  0.41800000000E+01 0.  1.
        -11    1    1    2    0    0  0.57396285895E+02 -0.39834538121E+01 -0.88146792685E+02  0.10526185729E+03  0.00000000000E+00 0.  1.
         11    1    1    2    0    0 -0.26426399205E+02  0.19501884221E+02 -0.13149323461E+02  0.35377715735E+02  0.00000000000E+00 0. -1.
</event>
<event>
 6    1  0.6447971E-006  0.9999485E+02  0.7561462E-02  0.1280307E+00
          1   -1    0    0  501    0  0.00000000000E+00  0.00000000000E+00  0.13131410043E+04  0.13131410043E+04  0.00000000000E+00 0. -1.
         -1   -1    0    0    0  501 -0.00000000000E+00 -0.00000000000E+00 -0.10875938008E+02  0.10875938008E+02  0.00000000000E+00 0.  1.
          5    1    1    2  502    0 -0.29845725722E+02 -0.41799399037E+02  0.64329101824E+03  0.64535165891E+03  0.41800000000E+01 0. -1.
         -5    1    1    2    0  502  0.43777025660E+02  0.34605420137E+02  0.12807860015E+03  0.13976967946E+03  0.41800000000E+01 0.  1.
        -11    1    1    2    0    0 -0.49798190715E+02  0.21029865966E+02  0.30587169125E+03  0.31061166521E+03  0.00000000000E+00 0. -1.
         11    1    1    2    0    0  0.35866890776E+02 -0.13835887066E+02  0.22502375666E+03  0.22828393874E+03  0.00000000000E+00 0.  1.
</event>
<event>
 6    1  0.6447971E-006  0.1277033E+03  0.7561462E-02  0.1230904E+00
         -3   -1    0    0    0  501 -0.00000000000E+00  0.00000000000E+00  0.15077317965E+03  0.15077317965E+03  0.00000000000E+00 0.  1.
          3   -1    0    0  501    0  0.00000000000E+00 -0.00000000000E+00 -0.16812145692E+03  0.16812145692E+03  0.00000000000E+00 0. -1.
          5    1    1    2  502    0  0.83117603445E+02  0.19941828146E+02  0.58995457960E+02  0.10394300829E+03  0.41800000000E+01 0. -1.
         -5    1    1    2    0  502 -0.31190422380E+02  0.55292873156E+02  0.53515883157E+01  0.63845564980E+02  0.41800000000E+01 0. -1.
        -11    1    1    2    0    0 -0.46232151144E+02 -0.19490016385E+02 -0.80744860368E+02  0.95063163286E+02  0.00000000000E+00 0. -1.
         11    1    1    2    0    0 -0.56950299209E+01 -0.55744684917E+02 -0.95046317896E+00  0.56042900019E+02  0.00000000000E+00 0.  1.
</event>
<event>
 6    1  0.6447971E-006  0.1106133E+03  0.7561462E-02  0.1259438E+00
          1   -1    0    0  501    0  0.00000000000E+00  0.00000000000E+00  0.11993693309E+03  0.11993693309E+03  0.00000000000E+00 0. -1.
         -1   -1    0    0    0  501 -0.00000000000E+00 -0.00000000000E+00 -0.12680844296E+03  0.12680844296E+03  0.00000000000E+00 0.  1.
          5    1    1    2  502    0  0.19773508994E+02 -0.46604654923E+02  0.14226907382E+02  0.52752846484E+02  0.41800000000E+01 0. -1.
         -5    1    1    2    0  502 -0.69874128643E+02  0.30368834728E+02 -0.37252894142E+02  0.84911191831E+02  0.41800000000E+01 0. -1.
        -11    1    1    2    0    0 -0.21295887910E+02  0.28658809091E+01 -0.18726504277E+02  0.28502808242E+02  0.00000000000E+00 0.  1.
         11    1    1    2    0    0  0.71396507558E+02  0.13369939287E+02  0.34880981167E+02  0.80578529493E+02  0.00000000000E+00 0. -1.
</event>
<event>
 6    1  0.6447971E-006  0.1079200E+03  0.7561462E-02  0.1264471E+00
         -1   -1    0    0    0  501 -0.00000000000E+00  0.00000000000E+00  0.21307703698E+02  0.21307703698E+02  0.00000000000E+00 0.  1.
          1   -1    0    0  501    0  0.00000000000E+00 -0.00000000000E+00 -0.60063518095E+03  0.60063518095E+03  0.00000000000E+00 0. -1.
          5    1    1    2  502    0  0.41781084987E+01 -0.46446293238E+02 -0.66654567109E+02  0.81455622658E+02  0.41800000000E+01 0. -1.
         -5    1    1    2    0  502 -0.33261501070E+02  0.66080434584E+02 -0.25192744706E+03  0.26259829068E+03  0.41800000000E+01 0. -1.
        -11    1    1    2    0    0  0.58085058343E+02 -0.28355985756E+02 -0.15620207471E+03  0.16904740186E+03  0.00000000000E+00 0.  1.
         11    1    1    2    0    0 -0.29001665771E+02  0.87218444089E+01 -0.10454338838E+03  0.10884156945E+03  0.00000000000E+00 0. -1.
</event>
<event>
 6    1  0.6447971E-006  0.1244759E+03  0.7561462E-02  0.1235891E+00
         -1   -1    0    0    0  501 -0.00000000000E+00  0.00000000000E+00  0.15863410861E+03  0.15863410861E+03  0.00000000000E+00 0.  1.
          1   -1    0    0  501    0  0.00000000000E+00 -0.00000000000E+00 -0.11442143361E+03  0.11442143361E+03  0.00000000000E+00 0. -1.
          5    1    1    2  502    0  0.30225176391E+01 -0.54549030553E+02  0.44659082629E+02  0.70686904080E+02  0.41800000000E+01 0. -1.
         -5    1    1    2    0  502  0.70252564388E+02  0.44351114259E+02  0.64422342308E+01  0.83435118032E+02  0.41800000000E+01 0. -1.
        -11    1    1    2    0    0 -0.52483647054E+02 -0.33720101447E+02 -0.24821203505E+02  0.67139188207E+02  0.00000000000E+00 0. -1.
         11    1    1    2    0    0 -0.20791434973E+02  0.43918017740E+02  0.17932561644E+02  0.51794331906E+02  0.00000000000E+00 0.  1.
</event>
<event>
 6    1  0.6447971E-006  0.2029254E+03  0.7561462E-02  0.1147294E+00
          2   -1    0    0  501    0  0.00000000000E+00  0.00000000000E+00  0.17415968789E+03  0.17415968789E+03  0.00000000000E+00 0. -1.
         -2   -1    0    0    0  501 -0.00000000000E+00 -0.00000000000E+00 -0.26327434194E+03  0.26327434194E+03  0.00000000000E+00 0.  1.
          5    1    1    2  502    0  0.28996576343E+02  0.85631663925E+02 -0.40000157792E+02  0.98949827335E+02  0.41800000000E+01 0.  1.
         -5    1    1    2    0  502  0.12613389269E+03 -0.44771413566E+00 -0.59277983303E+02  0.13943210189E+03  0.41800000000E+01 0.  1.
        -11    1    1    2    0    0 -0.72446215519E+02 -0.29184209049E+01  0.33876271937E+02  0.80028576921E+02  0.00000000000E+00 0. -1.
         11    1    1    2    0    0 -0.82684253515E+02 -0.82265528885E+02 -0.23712784890E+02  0.11902352368E+03  0.00000000000E+00 0.  1.
</event>
<event>
 6    1  0.6447971E-006  0.1050965E+03  0.7561462E-02  0.1269930E+00
          1   -1    0    0  501    0  0.00000000000E+00  0.00000000000E+00  0.55084371085E+03  0.55084371085E+03  0.00000000000E+00 0. -1.
         -1   -1    0    0    0  501 -0.00000000000E+00 -0.00000000000E+00 -0.25830786724E+02  0.25830786724E+02  0.00000000000E+00 0.  1.
          5    1    1    2  502    0 -0.39246263621E+02 -0.54308785938E+02  0.28935429920E+03  0.29704056340E+03  0.41800000000E+01 0. -1.
         -5    1    1    2    0  502 -0.58522629665E+01  0.39093382778E+02  0.31868871646E+02  0.50947413466E+02  0.41800000000E+01 0. -1.
        -11    1    1    2    0    0  0.69092384124E+02  0.29782899603E+02  0.15756102199E+03  0.17460313372E+03  0.00000000000E+00 0. -1.
         11    1    1    2    0    0 -0.23993857536E+02 -0.14567496443E+02  0.46228731288E+02  0.54083386992E+02  0.00000000000E+00 0.  1.
</event>
<event>
 6    1  0.6447971E-006  0.1502610E+03  0.7561462E-02  0.1200153E+00
          1   -1    0    0  501    0  0.00000000000E+00  0.00000000000E+00  0.41872207381E+03  0.41872207381E+03  0.00000000000E+00 0. -1.
         -1   -1    0    0    0  501 -0.00000000000E+00 -0.00000000000E+00 -0.67421538588E+02  0.67421538588E+02  0.00000000000E+00 0.  1.
          5    1    1    2  502    0  0.31607884720E+02 -0.15128948671E+02  0.56477090906E+02  0.66596378742E+02  0.41800000000E+01 0.  1.
         -5    1    1    2    0  502 -0.94088094313E+02 -0.81722003450E+02  0.51738389121E+02  0.13500143943E+03  0.41800000000E+01 0.  1.
        -11    1    1    2    0    0 -0.17686828326E+02  0.45096824288E+01  0.71831205262E+02  0.74113987757E+02  0.00000000000E+00 0. -1.
         11    1    1    2    0    0  0.80167037919E+02  0.92341269692E+02  0.17125384993E+03  0.21043180647E+03  0.00000000000E+00 0.  1.
</event>
<event>
 6    1  0.7861016E-006  0.3867913E+03  0.7561462E-02  0.1048452E+00
         -1   -1    0    0    0  501 -0.00000000000E+00  0.00000000000E+00  0.39901692260E+03  0.39901692260E+03  0.00000000000E+00 0.  1.
          1   -1    0    0  501    0  0.00000000000E+00 -0.00000000000E+00 -0.39218054378E+03  0.39218054378E+03  0.00000000000E+00 0. -1.
          5    1    1    2  502    0  0.47356919156E+02  0.56174402286E+02 -0.20111210845E+02  0.76290067936E+02  0.41800000000E+01 0. -1.
         -5    1    1    2    0  502  0.31618625187E+03  0.52415684699E+02  0.49049031699E+02  0.32425981833E+03  0.41800000000E+01 0. -1.
        -11    1    1    2    0    0 -0.26010040966E+03 -0.80519439409E+02 -0.56500781212E+02  0.27807902026E+03  0.00000000000E+00 0. -1.
         11    1    1    2    0    0 -0.10344276136E+03 -0.28070647575E+02  0.34399339176E+02  0.11256855986E+03  0.00000000000E+00 0.  1.
</event>
<event>
 6    1  0.6447971E-006  0.1964037E+03  0.7561462E-02  0.1152809E+00
          2   -1    0    0  501    0  0.00000000000E+00  0.00000000000E+00  0.44330120956E+03  0.44330120956E+03  0.00000000000E+00 0. -1.
         -2   -1    0    0    0  501 -0.00000000000E+00 -0.00000000000E+00 -0.11410775127E+03  0.11410775127E+03  0.00000000000E+00 0.  1.
          5    1    1    2  502    0 -0.24576628433E+02 -0.18541076168E+03  0.16029605882E+03  0.24636042719E+03  0.41800000000E+01 0. -1.
         -5    1    1    2    0  502 -0.50183886984E+01 -0.69766332140E+01 -0.21443939396E+02  0.23477064828E+02  0.41800000000E+01 0. -1.
        -11    1    1    2    0    0  0.12423821455E+02  0.14889176316E+03  0.84001705395E+02  0.17140418602E+03  0.00000000000E+00 0.  1.
         11    1    1    2    0    0  0.17171195677E+02  0.43495631736E+02  0.10633963347E+03  0.11616728278E+03  0.00000000000E+00 0. -1.
</event>
<event>
 6    1  0.6447971E-006  0.9389948E+02  0.7561462E-02  0.1293674E+00
          2   -1    0    0  501    0  0.00000000000E+00  0.00000000000E+00  0.24098816712E+03  0.24098816712E+03  0.00000000000E+00 0. -1.
         -2   -1    0    0    0  501 -0.00000000000E+00 -0.00000000000E+00 -0.55515025628E+02  0.55515025628E+02  0.00000000000E+00 0.  1.
          5    1    1    2  502    0 -0.20826788384E+02 -0.29161947093E+02 -0.11904412550E+02  0.37991600530E+02  0.41800000000E+01 0. -1.
         -5    1    1    2    0  502  0.27816221754E+02  0.60132638124E+02  0.93482319648E+02  0.11465641215E+03  0.41800000000E+01 0. -1.
        -11    1    1    2    0    0 -0.35261358847E+02 -0.42130518568E+02  0.27091835286E+02  0.61256114484E+02  0.00000000000E+00 0.  1.
         11    1    1    2    0    0  0.28271925478E+02  0.11159827537E+02  0.76803399107E+02  0.82599065583E+02  0.00000000000E+00 0. -1.
</event>
<event>
 6    1  0.6447971E-006  0.1520551E+03  0.7561462E-02  0.1197970E+00
         -2   -1    0    0    0  501 -0.00000000000E+00  0.00000000000E+00  0.42760586765E+02  0.42760586765E+02  0.00000000000E+00 0.  1.
          2   -1    0    0  501    0  0.00000000000E+00 -0.00000000000E+00 -0.56771590059E+03  0.56771590059E+03  0.00000000000E+00 0. -1.
          5    1    1    2  502    0 -0.11070679430E+03  0.30369083130E+02 -0.22621078526E+03  0.25370665597E+03  0.41800000000E+01 0. -1.
         -5    1    1    2    0  502  0.91388774993E+02 -0.21296711068E+01 -0.11179930620E+03  0.14447491464E+03  0.41800000000E+01 0.  1.
        -11    1    1    2    0    0  0.55839428075E+02 -0.24626172003E+02 -0.90993278229E+02  0.10956398477E+03  0.00000000000E+00 0.  1.
         11    1    1    2    0    0 -0.36521408767E+02 -0.36132400196E+01 -0.95951944131E+02  0.10273093197E+03  0.00000000000E+00 0. -1.
</event>
<event>
 6    1  0.6447971E-006  0.1032500E+03  0.7561462E-02  0.1273606E+00
         -1   -1    0    0    0  501 -0.00000000000E+00  0.00000000000E+00  0.33838162096E+02  0.33838162096E+02  0.00000000000E+00 0.  1.
          1   -1    0    0  501    0  0.00000000000E+00 -0.00000000000E+00 -0.47635222531E+03  0.47635222531E+03  0.00000000000E+00 0. -1.
          5    1    1    2  502    0 -0.47474963901E+02 -0.42827984029E+02 -0.31979919546E+02  0.71612122351E+02  0.41800000000E+01 0. -1.
         -5    1    1    2    0  502  0.17451119606E+02  0.49896301665E+02 -0.97853517828E+02  0.11129674679E+03  0.41800000000E+01 0. -1.
        -11    1    1    2    0    0  0.55380970993E+02 -0.22432360175E+02 -0.26051125727E+03  0.26727584608E+03  0.00000000000E+00 0. -1.
         11    1    1    2    0    0 -0.25357126698E+02  0.15364042539E+02 -0.52169368563E+02  0.60005672180E+02  0.00000000000E+00 0.  1.
</event>
<event>
 6    1  0.6447971E-006  0.9561427E+02  0.7561462E-02  0.1289799E+00
          2   -1    0    0  501    0  0.00000000000E+00  0.00000000000E+00  0.31088411528E+03  0.31088411528E+03  0.00000000000E+00 0. -1.
         -2   -1    0    0    0  501 -0.00000000000E+00 -0.00000000000E+00 -0.50082431041E+02  0.50082431041E+02  0.00000000000E+00 0.  1.
          5    1    1    2  502    0 -0.37003454047E+02 -0.13509455364E+02 -0.11949163523E+02  0.41376513925E+02  0.41800000000E+01 0. -1.
         -5    1    1    2    0  502  0.66808431652E+02  0.64113887959E+01  0.79259685007E+02  0.10394249619E+03  0.41800000000E+01 0. -1.
        -11    1    1    2    0    0  0.27097966668E+02  0.38960044270E+01  0.22589287288E+02  0.35493021120E+02  0.00000000000E+00 0.  1.
         11    1    1    2    0    0 -0.56902944273E+02  0.32020621409E+01  0.17090187546E+03  0.18015451508E+03  0.00000000000E+00 0. -1.
</event>
<event>
 6    1  0.6447971E-006  0.1070103E+03  0.7561462E-02  0.1266209E+00
         -1   -1    0    0    0  501 -0.00000000000E+00  0.00000000000E+00  0.10515409367E+03  0.10515409367E+03  0.00000000000E+00 0.  1.
          1   -1    0    0  501    0  0.00000000000E+00 -0.00000000000E+00 -0.15389091496E+03  0.15389091496E+03  0.00000000000E+00 0. -1.
          5    1    1    2  502    0  0.61957312344E+02 -0.40400156931E+02 -0.82261217688E+01  0.74538732967E+02  0.41800000000E+01 0. -1.
         -5    1    1    2    0  502 -0.10168508344E+02  0.58963445316E+02  0.17265034226E+02  0.62415064306E+02  0.41800000000E+01 0. -1.
        -11    1    1    2    0    0 -0.45203360226E+01  0.19031845434E+02  0.17038205901E+02  0.25941184219E+02  0.00000000000E+00 0.  1.
         11    1    1    2    0    0 -0.47268467978E+02 -0.37595133819E+02 -0.74813939647E+02  0.96150027131E+02  0.00000000000E+00 0. -1.
</event>
<event>
 6    1  0.6447971E-006  0.9027481E+02  0.7561462E-02  0.1302188E+00
          1   -1    0    0  501    0  0.00000000000E+00  0.00000000000E+00  0.83654863763E+02  0.83654863763E+02  0.00000000000E+00 0. -1.
         -1   -1    0    0    0  501 -0.00000000000E+00 -0.00000000000E+00 -0.16429886878E+03  0.16429886878E+03  0.00000000000E+00 0.  1.
          5    1    1    2  502    0  0.12686586213E+02  0.46767519205E+02  0.16108617116E+02  0.51235829921E+02  0.41800000000E+01 0.  1.
         -5    1    1    2    0  502  0.19294499124E+02 -0.32102110380E+02 -0.91610246996E+02  0.99059239559E+02  0.41800000000E+01 0.  1.
        -11    1    1    2    0    0  0.29741849567E+02 -0.13055758188E+02 -0.13836741245E+02  0.35305606436E+02  0.00000000000E+00 0. -1.
         11    1    1    2    0    0 -0.61722934904E+02 -0.16096506363E+01  0.86943661121E+01  0.62353056624E+02  0.00000000000E+00 0.  1.
</event>
<event>
 6    1  0.6447971E-006  0.1061287E+03  0.7561462E-02  0.1267912E+00
          1   -1    0    0  501    0  0.00000000000E+00  0.00000000000E+00  0.11309504166E+03  0.11309504166E+03  0.00000000000E+00 0. -1.
         -1   -1    0    0    0  501 -0.00000000000E+00 -0.00000000000E+00 -0.13820591203E+03  0.13820591203E+03  0.00000000000E+00 0.  1.
          5    1    1    2  502    0 -0.34753965832E+02 -0.11966804202E+02  0.30843224768E+02  0.48164504129E+02  0.41800000000E+01 0.  1.
         -5    1    1    2    0  502  0.13483293387E+02  0.66396265080E+02 -0.65181875144E+02  0.94108514304E+02  0.41800000000E+01 0.  1.
        -11    1    1    2    0    0  0.27832688768E+01 -0.77651448822E+02 -0.77571196565E+00  0.77705185277E+02  0.00000000000E+00 0.  1.
         11    1    1    2    0    0  0.18487403568E+02  0.23221987944E+02  0.10003491968E+02  0.31322749981E+02  0.00000000000E+00 0. -1.
</event>
<event>
 6    1  0.6447971E-006  0.1610366E+03  0.7561462E-02  0.1187531E+00
         -2   -1    0    0    0  501 -0.00000000000E+00  0.00000000000E+00  0.19814704363E+03  0.19814704363E+03  0.00000000000E+00 0. -1.
          2   -1    0    0  501    0  0.00000000000E+00 -0.00000000000E+00 -0.18155072006E+03  0.18155072006E+03  0.00000000000E+00 0.  1.
          5    1    1    2  502    0  0.58083995943E+02 -0.67671528688E+02  0.78454499878E+02  0.11885187138E+03  0.41800000000E+01 0. -1.
         -5    1    1    2    0  502 -0.49596510996E+02 -0.67440039548E+02  0.63896309560E+01  0.84061124315E+02  0.41800000000E+01 0. -1.
        -11    1    1    2    0    0 -0.35312502927E+02  0.86978242733E+02 -0.76461433481E+02  0.12107245096E+03  0.00000000000E+00 0.  1.
         11    1    1    2    0    0  0.26825017980E+02  0.48133325503E+02  0.82136262107E+01  0.55712317033E+02  0.00000000000E+00 0. -1.
</event>
<event>
 6    1  0.6447971E-006  0.8555340E+02  0.7561462E-02  0.1313992E+00
         -1   -1    0    0    0  501 -0.00000000000E+00  0.00000000000E+00  0.45235442140E+02  0.45235442140E+02  0.00000000000E+00 0.  1.
          1   -1    0    0  501    0  0.00000000000E+00 -0.00000000000E+00 -0.25999698733E+03  0.25999698733E+03  0.00000000000E+00 0. -1.
          5    1    1    2  502    0 -0.21116586971E+02  0.38178383853E+02 -0.14648400370E+03  0.15290040869E+03  0.41800000000E+01 0. -1.
         -5    1    1    2    0  502  0.68126118933E+01 -0.40533852238E+02 -0.14044544487E+01  0.41338235936E+02  0.41800000000E+01 0. -1.
        -11    1    1    2    0    0  0.26473515762E+02  0.39120787376E+02 -0.49896558758E+02  0.68709166911E+02  0.00000000000E+00 0.  1.
         11    1    1    2    0    0 -0.12169540684E+02 -0.36765318991E+02 -0.16976528287E+02  0.42284617932E+02  0.00000000000E+00 0. -1.
</event>
<event>
 6    1  0.6447971E-006  0.1792040E+03  0.7561462E-02  0.1168576E+00
          2   -1    0    0  501    0  0.00000000000E+00  0.00000000000E+00  0.13957803283E+03  0.13957803283E+03  0.00000000000E+00 0. -1.
         -2   -1    0    0    0  501 -0.00000000000E+00 -0.00000000000E+00 -0.27743431406E+03  0.27743431406E+03  0.00000000000E+00 0.  1.
          5    1    1    2  502    0  0.77636388536E+02  0.94395298239E+02 -0.96221828458E+02  0.15560846322E+03  0.41800000000E+01 0.  1.
         -5    1    1    2    0  502 -0.49845302661E+02  0.49139947350E+02 -0.54595034599E+02  0.88867197693E+02  0.41800000000E+01 0.  1.
        -11    1    1    2    0    0  0.19181699874E+02 -0.10042137653E+03 -0.14228381964E+02  0.10322227147E+03  0.00000000000E+00 0. -1.
         11    1    1    2    0    0 -0.46972785749E+02 -0.43113869060E+02  0.27188963792E+02  0.69314414506E+02  0.00000000000E+00 0.  1.
</event>
<event>
 6    1  0.6447971E-006  0.1435224E+03  0.7561462E-02  0.1208666E+00
          2   -1    0    0  501    0  0.00000000000E+00  0.00000000000E+00  0.20032234767E+03  0.20032234767E+03  0.00000000000E+00 0. -1.
         -2   -1    0    0    0  501 -0.00000000000E+00 -0.00000000000E+00 -0.11796750509E+03  0.11796750509E+03  0.00000000000E+00 0.  1.
          5    1    1    2  502    0 -0.80175457936E+01  0.17994760790E+02 -0.22183115482E+02  0.29960899001E+02  0.41800000000E+01 0.  1.
         -5    1    1    2    0  502  0.95221924327E+02 -0.84353298685E+02  0.59370624567E+02  0.14044585196E+03  0.41800000000E+01 0.  1.
        -11    1    1    2    0    0 -0.10340834759E+03  0.44896421915E+02  0.28629217151E+02  0.11631254071E+03  0.00000000000E+00 0.  1.
         11    1    1    2    0    0  0.16203969056E+02  0.21462115979E+02  0.16538116335E+02  0.31570561088E+02  0.00000000000E+00 0. -1.
</event>
<event>
 6    1  0.6447971E-006  0.8628085E+02  0.7561462E-02  0.1312117E+00
         -2   -1    0    0    0  501 -0.00000000000E+00  0.00000000000E+00  0.21640300575E+02  0.21640300575E+02  0.00000000000E+00 0.  1.
          2   -1    0    0  501    0  0.00000000000E+00 -0.00000000000E+00 -0.75323567124E+03  0.75323567124E+03  0.00000000000E+00 0. -1.
          5    1    1    2  502    0  0.49749105387E+02  0.32249964758E+02 -0.44681069061E+02  0.74356600555E+02  0.41800000000E+01 0. -1.
         -5    1    1    2    0  502 -0.11758186712E+02  0.82907353785E+01 -0.25123069598E+03  0.25167702765E+03  0.41800000000E+01 0. -1.
        -11    1    1    2    0    0  0.16157866668E+02  0.13933825395E+02 -0.36019093498E+02  0.41864104455E+02  0.00000000000E+00 0.  1.
         11    1    1    2    0    0 -0.54148785343E+02 -0.54474525531E+02 -0.39966451213E+03  0.40697823915E+03  0.00000000000E+00 0. -1.
</event>
<event>
 6    1  0.6447971E-006  0.3288968E+03  0.7561462E-02  0.1071626E+00
          1   -1    0    0  501    0  0.00000000000E+00  0.00000000000E+00  0.66325146135E+03  0.66325146135E+03  0.00000000000E+00 0. -1.
         -1   -1    0    0    0  501 -0.00000000000E+00 -0.00000000000E+00 -0.25716222486E+03  0.25716222486E+03  0.00000000000E+00 0.  1.
          5    1    1    2  502    0  0.73970286692E+01 -0.93785411551E+02 -0.73224815484E+02  0.11928858057E+03  0.41800000000E+01 0.  1.
         -5    1    1    2    0  502  0.42190975753E+01 -0.23217731847E+03  0.24021591571E+02  0.23349222098E+03  0.41800000000E+01 0.  1.
        -11    1    1    2    0    0 -0.30320423012E+02  0.28158192897E+03  0.42506390368E+03  0.51077101816E+03  0.00000000000E+00 0. -1.
         11    1    1    2    0    0  0.18704296767E+02  0.44380801051E+02  0.30228556722E+02  0.56861866492E+02  0.00000000000E+00 0.  1.
</event>
<event>
 6    1  0.6447971E-006  0.1501687E+03  0.7561462E-02  0.1200266E+00
          1   -1    0    0  501    0  0.00000000000E+00  0.00000000000E+00  0.56652400536E+03  0.56652400536E+03  0.00000000000E+00 0. -1.
         -1   -1    0    0    0  501 -0.00000000000E+00 -0.00000000000E+00 -0.68971934448E+02  0.68971934448E+02  0.00000000000E+00 0.  1.
          5    1    1    2  502    0 -0.15511858059E+02 -0.94315323566E+01  0.56409988205E+02  0.59406487124E+02  0.41800000000E+01 0. -1.
         -5    1    1    2    0  502 -0.32634425649E+02  0.13718369997E+03  0.46349244252E+02  0.14849275443E+03  0.41800000000E+01 0.  1.
        -11    1    1    2    0    0  0.23556241441E+02 -0.22597014203E+02  0.21719886371E+02  0.39208098981E+02  0.00000000000E+00 0.  1.
         11    1    1    2    0    0  0.24590042267E+02 -0.10515515341E+03  0.37307295208E+03  0.38838859927E+03  0.00000000000E+00 0. -1.
</event>
<event>
 6    1  0.6447971E-006  0.1034317E+03  0.7561462E-02  0.1273241E+00
          1   -1    0    0  501    0  0.00000000000E+00  0.00000000000E+00  0.74998476382E+02  0.74998476382E+02  0.00000000000E+00 0. -1.
         -1   -1    0    0    0  501 -0.00000000000E+00 -0.00000000000E+00 -0.36131488220E+03  0.36131488220E+03  0.00000000000E+00 0.  1.
          5    1    1    2  502    0  0.12816742487E+02 -0.26844776623E+02 -0.17072860417E+03  0.17335120306E+03  0.41800000000E+01 0.  1.
         -5    1    1    2    0  502 -0.20520212431E+02  0.86865326869E+02 -0.12785156118E+03  0.15598127525E+03  0.41800000000E+01 0.  1.
        -11    1    1    2    0    0  0.35560980128E+02 -0.30113759971E+02  0.36740917411E+02  0.59340684689E+02  0.00000000000E+00 0. -1.
         11    1    1    2    0    0 -0.27857510184E+02 -0.29906790275E+02 -0.24477157880E+02  0.47640195593E+02  0.00000000000E+00 0.  1.
</event>
<event>
 6    1  0.6447971E-006  0.1868430E+03  0.7561462E-02  0.1161340E+00
         -1   -1    0    0    0  501 -0.00000000000E+00  0.00000000000E+00  0.37050832590E+03  0.37050832590E+03  0.00000000000E+00 0.  1.
          1   -1    0    0  501    0  0.00000000000E+00 -0.00000000000E+00 -0.16800229487E+03  0.16800229487E+03  0.00000000000E+00 0. -1.
          5    1    1    2  502    0 -0.15244360291E+03 -0.87831403586E+01  0.15156525515E+03  0.21518758002E+03  0.41800000000E+01 0. -1.
         -5    1    1    2    0  502 -0.96738862207E+01  0.40391043563E+02  0.11559336841E+03  0.12289963261E+03  0.41800000000E+01 0. -1.
        -11    1    1    2    0    0  0.14961948842E+02 -0.28282247523E+02 -0.39931077668E+02  0.51168705298E+02  0.00000000000E+00 0. -1.
         11    1    1    2    0    0  0.14715554029E+03 -0.33256556812E+01 -0.24721514872E+02  0.14925470285E+03  0.00000000000E+00 0.  1.
</event>
<event>
 6    1  0.6447971E-006  0.1163953E+03  0.7561462E-02  0.1249165E+00
          2   -1    0    0  501    0  0.00000000000E+00  0.00000000000E+00  0.19368728969E+02  0.19368728969E+02  0.00000000000E+00 0. -1.
         -2   -1    0    0    0  501 -0.00000000000E+00 -0.00000000000E+00 -0.75267219808E+03  0.75267219808E+03  0.00000000000E+00 0.  1.
          5    1    1    2  502    0  0.60250223222E+01 -0.41308322194E+02 -0.18921728371E+03  0.19381261887E+03  0.41800000000E+01 0.  1.
         -5    1    1    2    0  502  0.41082408752E+02  0.88785434025E+02 -0.30225122721E+03  0.31771668882E+03  0.41800000000E+01 0.  1.
        -11    1    1    2    0    0 -0.37183784300E+02  0.67487226229E+01 -0.13635439886E+03  0.14149452697E+03  0.00000000000E+00 0.  1.
         11    1    1    2    0    0 -0.99236467736E+01 -0.54225834454E+02 -0.10548055933E+03  0.11901709240E+03  0.00000000000E+00 0. -1.
</event>
<event>
 6    1  0.6447971E-006  0.1089929E+03  0.7561462E-02  0.1262446E+00
         -2   -1    0    0    0  501 -0.00000000000E+00  0.00000000000E+00  0.48693101215E+02  0.48693101215E+02  0.00000000000E+00 0.  1.
          2   -1    0    0  501    0  0.00000000000E+00 -0.00000000000E+00 -0.31541520481E+03  0.31541520481E+03  0.00000000000E+00 0. -1.
          5    1    1    2  502    0  0.53826196090E+02 -0.57881280302E+02 -0.46905493347E+02  0.92005976442E+02  0.41800000000E+01 0. -1.
         -5    1    1    2    0  502 -0.45058085967E+02  0.18155500671E+01 -0.96360723328E+02  0.10647247876E+03  0.41800000000E+01 0. -1.
        -11    1    1    2    0    0 -0.40060671181E+02  0.45254838860E+02 -0.11729988020E+03  0.13195499123E+03  0.00000000000E+00 0. -1.
         11    1    1    2    0    0  0.31292561058E+02  0.10810891375E+02 -0.61560067211E+01  0.33674859593E+02  0.00000000000E+00 0.  1.
</event>
<event>
 6    1  0.6447971E-006  0.6663077E+02  0.7561462E-02  0.1371940E+00
          1   -1    0    0  501    0  0.00000000000E+00  0.00000000000E+00  0.11647672992E+03  0.11647672992E+03  0.00000000000E+00 0. -1.
         -1   -1    0    0    0  501 -0.00000000000E+00 -0.00000000000E+00 -0.12747644238E+03  0.12747644238E+03  0.00000000000E+00 0.  1.
          5    1    1    2  502    0 -0.14535843266E+02 -0.25486292562E+02 -0.54991701893E+02  0.62469204614E+02  0.41800000000E+01 0. -1.
         -5    1    1    2    0  502 -0.14096255320E+02 -0.17229858754E+02  0.70013766263E+02  0.73586495453E+02  0.41800000000E+01 0. -1.
        -11    1    1    2    0    0  0.76475403521E+01 -0.16480627260E+02 -0.39663673007E+02  0.43626859900E+02  0.00000000000E+00 0.  1.
         11    1    1    2    0    0  0.20984558234E+02  0.59196778576E+02  0.13641896179E+02  0.64270612331E+02  0.00000000000E+00 0. -1.
</event>
<event>
 6    1  0.6447971E-006  0.9730523E+02  0.7561462E-02  0.1286067E+00
         -1   -1    0    0    0  501 -0.00000000000E+00  0.00000000000E+00  0.67696771824E+02  0.67696771824E+02  0.00000000000E+00 0.  1.
          1   -1    0    0  501    0  0.00000000000E+00 -0.00000000000E+00 -0.26499697020E+03  0.26499697020E+03  0.00000000000E+00 0. -1.
          5    1    1    2  502    0 -0.58066192704E+02 -0.76401648249E+02 -0.13148986671E+03  0.16283719488E+03  0.41800000000E+01 0.  1.
         -5    1    1    2    0  502  0.10174765412E+02  0.99366546867E+01  0.19130068942E+02  0.24201134174E+02  0.41800000000E+01 0.  1.
        -11    1    1    2    0    0  0.18030725410E+02  0.12123052448E+02  0.16144260736E+02  0.27068664802E+02  0.00000000000E+00 0.  1.
         11    1    1    2    0    0  0.29860701882E+02  0.54341941115E+02 -0.10108466134E+03  0.11858674816E+03  0.00000000000E+00 0. -1.
</event>
<event>
 6    1  0.6447971E-006  0.9512014E+02  0.7561462E-02  0.1290906E+00
          2   -1    0    0  501    0  0.00000000000E+00  0.00000000000E+00  0.90981578946E+02  0.90981578946E+02  0.00000000000E+00 0. -1.
         -2   -1    0    0    0  501 -0.00000000000E+00 -0.00000000000E+00 -0.17663012585E+03  0.17663012585E+03  0.00000000000E+00 0.  1.
          5    1    1    2  502    0 -0.47731217114E+02  0.90583512086E+00  0.52002994551E+01  0.48203787599E+02  0.41800000000E+01 0. -1.
         -5    1    1    2    0  502  0.32372802121E+02  0.28490344497E+02 -0.11031504570E+03  0.11851826760E+03  0.41800000000E+01 0. -1.
        -11    1    1    2    0    0  0.35438715842E+02  0.23425853091E+02  0.80070561728E+01  0.43229458962E+02  0.00000000000E+00 0.  1.
         11    1    1    2    0    0 -0.20080300850E+02 -0.52822032709E+02  0.11459143171E+02  0.57660190634E+02  0.00000000000E+00 0. -1.
</event>
<event>
 6    1  0.6447971E-006  0.1585860E+03  0.7561462E-02  0.1190302E+00
          1   -1    0    0  501    0  0.00000000000E+00  0.00000000000E+00  0.76963012352E+03  0.76963012352E+03  0.00000000000E+00 0. -1.
         -1   -1    0    0    0  501 -0.00000000000E+00 -0.00000000000E+00 -0.70767387020E+02  0.70767387020E+02  0.00000000000E+00 0.  1.
          5    1    1    2  502    0  0.77922785284E+02  0.35231535879E+02  0.88231265259E+02  0.12294490700E+03  0.41800000000E+01 0. -1.
         -5    1    1    2    0  502  0.52692118413E+02 -0.49194670631E+02 -0.13113990225E+02  0.73389536727E+02  0.41800000000E+01 0. -1.
        -11    1    1    2    0    0 -0.60112912652E+02  0.51780657130E+02  0.27208496184E+03  0.28341669884E+03  0.00000000000E+00 0.  1.
         11    1    1    2    0    0 -0.70501991046E+02 -0.37817522378E+02  0.35166049962E+03  0.36064636797E+03  0.00000000000E+00 0. -1.
</event>
<event>
 6    1  0.6447971E-006  0.1621719E+03  0.7561462E-02  0.1186266E+00
          1   -1    0    0  501    0  0.00000000000E+00  0.00000000000E+00  0.16083948032E+04  0.16083948032E+04  0.00000000000E+00 0. -1.
         -1   -1    0    0    0  501 -0.00000000000E+00 -0.00000000000E+00 -0.17985989190E+02  0.17985989190E+02  0.00000000000E+00 0.  1.
          5    1    1    2  502    0 -0.26428829757E+02  0.17595847759E+02  0.57597735982E+02  0.65901961207E+02  0.41800000000E+01 0.  1.
         -5    1    1    2    0  502 -0.46304256485E+02 -0.12537522422E+03  0.72491481420E+03  0.73714448466E+03  0.41800000000E+01 0.  1.
        -11    1    1    2    0    0  0.83353306363E+02  0.44599707464E+02  0.46782202430E+03  0.47727806780E+03  0.00000000000E+00 0.  1.
         11    1    1    2    0    0 -0.10620220121E+02  0.63179668995E+02  0.34007423950E+03  0.34605627869E+03  0.00000000000E+00 0. -1.
</event>
<event>
 6    1  0.6447971E-006  0.1084940E+03  0.7561462E-02  0.1263384E+00
          2   -1    0    0  501    0  0.00000000000E+00  0.00000000000E+00  0.67359577578E+03  0.67359577578E+03  0.00000000000E+00 0. -1.
         -2   -1    0    0    0  501 -0.00000000000E+00 -0.00000000000E+00 -0.19011346355E+02  0.19011346355E+02  0.00000000000E+00 0.  1.
          5    1    1    2  502    0 -0.22942960259E+02 -0.56811337469E+02  0.21884546955E+03  0.22729874490E+03  0.41800000000E+01 0. -1.
         -5    1    1    2    0  502  0.46631387807E+02  0.38760002070E+02  0.10796654682E+03  0.12389944197E+03  0.41800000000E+01 0. -1.
        -11    1    1    2    0    0 -0.56361221234E+02 -0.21142582855E+01  0.17384440003E+03  0.18276469235E+03  0.00000000000E+00 0. -1.
         11    1    1    2    0    0  0.32672793686E+02  0.20165593684E+02  0.15392801302E+03  0.15864424291E+03  0.00000000000E+00 0.  1.
</event>
<event>
 6    1  0.6447971E-006  0.1174193E+03  0.7561462E-02  0.1247416E+00
         -1   -1    0    0    0  501 -0.00000000000E+00  0.00000000000E+00  0.45520319837E+02  0.45520319837E+02  0.00000000000E+00 0.  1.
          1   -1    0    0  501    0  0.00000000000E+00 -0.00000000000E+00 -0.52966244385E+03  0.52966244385E+03  0.00000000000E+00 0. -1.
          5    1    1    2  502    0  0.38850039679E+02 -0.83627913928E+01 -0.16486491000E+03  0.16963835891E+03  0.41800000000E+01 0.  1.
         -5    1    1    2    0  502  0.36148812219E+02 -0.62464886219E+02 -0.17500433470E+02  0.74379676034E+02  0.41800000000E+01 0.  1.
        -11    1    1    2    0    0 -0.26752423833E+02  0.69336424434E+02 -0.24802780862E+03  0.25892281820E+03  0.00000000000E+00 0. -1.
         11    1    1    2    0    0 -0.48246428065E+02  0.14912531776E+01 -0.53748971917E+02  0.72241910546E+02  0.00000000000E+00 0.  1.
</event>
<event>
 6    1  0.6447971E-006  0.1413531E+03  0.7561462E-02  0.1211520E+00
         -1   -1    0    0    0  501 -0.00000000000E+00  0.00000000000E+00  0.84444572995E+02  0.84444572995E+02  0.00000000000E+00 0.  1.
          1   -1    0    0  501    0  0.00000000000E+00 -0.00000000000E+00 -0.62810833483E+03  0.62810833483E+03  0.00000000000E+00 0. -1.
          5    1    1    2  502    0  0.37329378899E+02  0.12376655864E+03 -0.39673211049E+02  0.13528887479E+03  0.41800000000E+01 0.  1.
         -5    1    1    2    0  502  0.51483521653E+01 -0.22384884476E+02  0.22115856263E+02  0.32158546007E+02  0.41800000000E+01 0.  1.
        -11    1    1    2    0    0 -0.14178227676E+02 -0.10071823131E+03 -0.48259249633E+03  0.49319438538E+03  0.00000000000E+00 0. -1.
         11    1    1    2    0    0 -0.28299503389E+02 -0.66344285511E+00 -0.43513910720E+02  0.51911101651E+02  0.00000000000E+00 0.  1.
</event>
<event>
 6    1  0.6447971E-006  0.1158677E+03  0.7561462E-02  0.1250074E+00
         -3   -1    0    0    0  501 -0.00000000000E+00  0.00000000000E+00  0.15455937211E+04  0.15455937211E+04  0.00000000000E+00 0.  1.
          3   -1    0    0  501    0  0.00000000000E+00 -0.00000000000E+00 -0.11206602960E+02  0.11206602960E+02  0.00000000000E+00 0. -1.
          5    1    1    2  502    0 -0.17636877982E+02  0.11943255544E+02  0.36390720290E+02  0.42372842024E+02  0.41800000000E+01 0.  1.
         -5    1    1    2    0  502  0.87207352892E+02 -0.41021420991E+02  0.93061705639E+03  0.93560325856E+03  0.41800000000E+01 0.  1.
        -11    1    1    2    0    0 -0.41511815843E+02 -0.27924743156E+02  0.28784743916E+03  0.29216291751E+03  0.00000000000E+00 0.  1.
         11    1    1    2    0    0 -0.28058659067E+02  0.57002908604E+02  0.27953190228E+03  0.28666130595E+03  0.00000000000E+00 0. -1.
</event>
<event>
 6    1  0.6447971E-006  0.1370658E+03  0.7561462E-02  0.1217333E+00
          1   -1    0    0  501    0  0.00000000000E+00  0.00000000000E+00  0.41167348524E+02  0.41167348524E+02  0.00000000000E+00 0. -1.
         -1   -1    0    0    0  501 -0.00000000000E+00 -0.00000000000E+00 -0.55523427440E+03  0.55523427440E+03  0.00000000000E+00 0.  1.
          5    1    1    2  502    0 -0.11279200307E+02  0.10003679502E+03 -0.18622960197E+03  0.21173926836E+03  0.41800000000E+01 0. -1.
         -5    1    1    2    0  502 -0.34004034926E+02 -0.43456664543E+02 -0.20928531818E+03  0.21647764986E+03  0.41800000000E+01 0.  1.
        -11    1    1    2    0    0  0.34226597872E+02 -0.82792273952E+02 -0.78870527612E+02  0.11935904136E+03  0.00000000000E+00 0.  1.
         11    1    1    2    0    0  0.11056637360E+02  0.26212143471E+02 -0.39681478115E+02  0.48825663338E+02  0.00000000000E+00 0. -1.
</event>
<event>
 6    1  0.6447971E-006  0.1004681E+03  0.7561462E-02  0.1279315E+00
         -2   -1    0    0    0  501 -0.00000000000E+00  0.00000000000E+00  0.43849667959E+02  0.43849667959E+02  0.00000000000E+00 0.  1.
          2   -1    0    0  501    0  0.00000000000E+00 -0.00000000000E+00 -0.34815490667E+03  0.34815490667E+03  0.00000000000E+00 0. -1.
          5    1    1    2  502    0  0.63117791143E+02  0.44358950669E+02 -0.32208296881E+02  0.83704353837E+02  0.41800000000E+01 0.  1.
         -5    1    1    2    0  502 -0.37914870867E+02 -0.24019641203E+02 -0.60045201218E+02  0.75082482549E+02  0.41800000000E+01 0.  1.
        -11    1    1    2    0    0  0.26383251293E+01 -0.42767005985E+02 -0.44042662158E+02  0.61446998709E+02  0.00000000000E+00 0.  1.
         11    1    1    2    0    0 -0.27841245406E+02  0.22427696520E+02 -0.16800907846E+03  0.17177073954E+03  0.00000000000E+00 0. -1.
</event>
<event>
 6    1  0.6447971E-006  0.1187197E+03  0.7561462E-02  0.1245224E+00
         -3   -1    0    0    0  501 -0.00000000000E+00  0.00000000000E+00  0.87751602438E+02  0.87751602438E+02  0.00000000000E+00 0.  1.
          3   -1    0    0  501    0  0.00000000000E+00 -0.00000000000E+00 -0.19242868835E+03  0.19242868835E+03  0.00000000000E+00 0. -1.
          5    1    1    2  502    0  0.38727664337E+02  0.69568176706E+02 -0.54000888492E+02  0.96297100440E+02  0.41800000000E+01 0. -1.
         -5    1    1    2    0  502 -0.45337210520E+02 -0.19858069167E+01  0.20425886110E+02  0.49940918195E+02  0.41800000000E+01 0. -1.
        -11    1    1    2    0    0 -0.32030953243E+02 -0.66117008542E+02 -0.36419668187E+02  0.81998981793E+02  0.00000000000E+00 0.  1.
         11    1    1    2    0    0  0.38640499426E+02 -0.14653612475E+01 -0.34682415345E+02  0.51943290362E+02  0.00000000000E+00 0. -1.
</event>
<event>
 6    1  0.6447971E-006  0.1029037E+03  0.7561462E-02  0.1274306E+00
         -2   -1    0    0    0  501 -0.00000000000E+00  0.00000000000E+00  0.27438384099E+02  0.27438384099E+02  0.00000000000E+00 0.  1.
          2   -1    0    0  501    0  0.00000000000E+00 -0.00000000000E+00 -0.61516573367E+03  0.61516573367E+03  0.00000000000E+00 0. -1.
          5    1    1    2  502    0  0.11634636548E+02  0.76121449526E+01  0.72625108118E+01  0.16233483350E+02  0.41800000000E+01 0.  1.
         -5    1    1    2    0  502 -0.74189300034E+02 -0.33108392710E+02 -0.27669252698E+03  0.28840326766E+03  0.41800000000E+01 0.  1.
        -11    1    1    2    0    0  0.58481011845E+02 -0.21841945351E+02 -0.13709057470E+03  0.15063507226E+03  0.00000000000E+00 0.  1.
         11    1    1    2    0    0  0.40736516409E+01  0.47338193108E+02 -0.18120675871E+03  0.18733229451E+03  0.00000000000E+00 0. -1.
</event>
<event>
 6    1  0.6447971E-006  0.9614883E+02  0.7561462E-02  0.1288609E+00
         -2   -1    0    0    0  501 -0.00000000000E+00  0.00000000000E+00  0.70210548288E+02  0.70210548288E+02  0.00000000000E+00 0.  1.
          2   -1    0    0  501    0  0.00000000000E+00 -0.00000000000E+00 -0.26132099161E+03  0.26132099161E+03  0.00000000000E+00 0. -1.
          5    1    1    2  502    0  0.28083288775E+01 -0.62093225502E+01  0.20716167880E+02  0.22205278860E+02  0.41800000000E+01 0.  1.
         -5    1    1    2    0  502 -0.66793678865E+02 -0.26361503020E+02 -0.17386388895E+03  0.18815538435E+03  0.41800000000E+01 0.  1.
        -11    1    1    2    0    0  0.11112314241E+02  0.54141417520E+02 -0.31723473237E+02  0.63727194926E+02  0.00000000000E+00 0. -1.
         11    1    1    2    0    0  0.52873035746E+02 -0.21570591951E+02 -0.62392490101E+01  0.57443681761E+02  0.00000000000E+00 0.  1.
</event>
<event>
 6    1  0.6447971E-006  0.8623963E+02  0.7561462E-02  0.1312222E+00
          1   -1    0    0  501    0  0.00000000000E+00  0.00000000000E+00  0.12968036360E+03  0.12968036360E+03  0.00000000000E+00 0. -1.
         -1   -1    0    0    0  501 -0.00000000000E+00 -0.00000000000E+00 -0.10813241166E+03  0.10813241166E+03  0.00000000000E+00 0.  1.
          5    1    1    2  502    0 -0.49992891306E+02  0.10516563966E+02 -0.11896368019E+02  0.52620179312E+02  0.41800000000E+01 0. -1.
         -5    1    1    2    0  502  0.72772817793E+02 -0.23220506594E+02 -0.14487721263E+02  0.77861681227E+02  0.41800000000E+01 0. -1.
        -11    1    1    2    0    0 -0.16702148730E+02 -0.11164130105E+02  0.70877150814E+02  0.73669329308E+02  0.00000000000E+00 0. -1.
         11    1    1    2    0    0 -0.60777777576E+01  0.23868072733E+02 -0.22945109596E+02  0.33661585418E+02  0.00000000000E+00 0.  1.
</event>
<event>
 6    1  0.6447971E-006  0.1708884E+03  0.7561462E-02  0.1176925E+00
         -1   -1    0    0    0  501 -0.00000000000E+00  0.00000000000E+00  0.21987887646E+02  0.21987887646E+02  0.00000000000E+00 0.  1.
          1   -1    0    0  501    0  0.00000000000E+00 -0.00000000000E+00 -0.13657338966E+04  0.13657338966E+04  0.00000000000E+00 0. -1.
          5    1    1    2  502    0 -0.38645848708E+01  0.89977783269E+02 -0.26420120264E+03  0.27916067841E+03  0.41800000000E+01 0.  1.
         -5    1    1    2    0  502 -0.90250511764E+02  0.39748221026E+01 -0.36086203563E+03  0.37202128332E+03  0.41800000000E+01 0.  1.
        -11    1    1    2    0    0 -0.18374923312E+02 -0.15498250681E+02 -0.10339203873E+03  0.10614964556E+03  0.00000000000E+00 0. -1.
         11    1    1    2    0    0  0.11249001995E+03 -0.78454354690E+02 -0.61529073194E+03  0.63039017693E+03  0.00000000000E+00 0.  1.
</event>
<event>
 6    1  0.6447971E-006  0.1520640E+03  0.7561462E-02  0.1197959E+00
         -2   -1    0    0    0  501 -0.00000000000E+00  0.00000000000E+00  0.37811488686E+02  0.37811488686E+02  0.00000000000E+00 0.  1.
          2   -1    0    0  501    0  0.00000000000E+00 -0.00000000000E+00 -0.71563587367E+03  0.71563587367E+03  0.00000000000E+00 0. -1.
          5    1    1    2  502    0 -0.11999163933E+03  0.63200354030E+01 -0.21488927109E+03  0.24623729934E+03  0.41800000000E+01 0. -1.
         -5    1    1    2    0  502  0.11455695789E+02 -0.40278998621E+02 -0.31468527543E+02  0.52548751856E+02  0.41800000000E+01 0. -1.
        -11    1    1    2    0    0  0.73263357770E+02  0.62608690469E+02 -0.26035695388E+03  0.27762044439E+03  0.00000000000E+00 0.  1.
         11    1    1    2    0    0  0.35272585774E+02 -0.28649727251E+02 -0.17110963247E+03  0.17704086676E+03  0.00000000000E+00 0. -1.
</event>
<event>
 6    1  0.6447971E-006  0.1084668E+03  0.7561462E-02  0.1263436E+00
         -1   -1    0    0    0  501 -0.00000000000E+00  0.00000000000E+00  0.10159272155E+03  0.10159272155E+03  0.00000000000E+00 0.  1.
          1   -1    0    0  501    0  0.00000000000E+00 -0.00000000000E+00 -0.12708844959E+03  0.12708844959E+03  0.00000000000E+00 0. -1.
          5    1    1    2  502    0 -0.27636108501E+02 -0.68630489255E+02  0.10635359527E+02  0.74863087170E+02  0.41800000000E+01 0.  1.
         -5    1    1    2    0  502 -0.62344275121E+01  0.52599920817E+02 -0.17338205199E+02  0.55890120021E+02  0.41800000000E+01 0.  1.
        -11    1    1    2    0    0  0.41336527590E+02  0.44222237593E+02 -0.28879143813E+02  0.67069514374E+02  0.00000000000E+00 0.  1.
         11    1    1    2    0    0 -0.74659915775E+01 -0.28191669156E+02  0.10086261453E+02  0.30858449574E+02  0.00000000000E+00 0. -1.
</event>
<event>
 6    1  0.6447971E-006  0.1697728E+03  0.7561462E-02  0.1178085E+00
          1   -1    0    0  501    0  0.00000000000E+00  0.00000000000E+00  0.47514509345E+03  0.47514509345E+03  0.00000000000E+00 0. -1.
         -1   -1    0    0    0  501 -0.00000000000E+00 -0.00000000000E+00 -0.75697019901E+02  0.75697019901E+02  0.00000000000E+00 0.  1.
          5    1    1    2  502    0  0.13803166939E+03  0.13057273148E+02  0.75410749384E+02  0.15788441233E+03  0.41800000000E+01 0.  1.
         -5    1    1    2    0  502 -0.40236401747E+01  0.50063924043E+02  0.61255376612E+02  0.79323891323E+02  0.41800000000E+01 0.  1.
        -11    1    1    2    0    0 -0.31226691268E+02 -0.30207246569E+01  0.79573491782E+01  0.32365883750E+02  0.00000000000E+00 0.  1.
         11    1    1    2    0    0 -0.10278133794E+03 -0.60100472534E+02  0.25482459838E+03  0.28126792594E+03  0.00000000000E+00 0. -1.
</event>
<event>
 6    1  0.6447971E-006  0.1189723E+03  0.7561462E-02  0.1244802E+00
         -2   -1    0    0    0  501 -0.00000000000E+00  0.00000000000E+00  0.60924337779E+02  0.60924337779E+02  0.00000000000E+00 0.  1.
          2   -1    0    0  501    0  0.00000000000E+00 -0.00000000000E+00 -0.27287046576E+03  0.27287046576E+03  0.00000000000E+00 0. -1.
          5    1    1    2  502    0  0.47943868528E+02  0.26767862611E+02 -0.64010976464E+02  0.84439389541E+02  0.41800000000E+01 0. -1.
         -5    1    1    2    0  502 -0.72455164604E+02  0.36070224723E+02 -0.32347702248E+02  0.87262009089E+02  0.41800000000E+01 0. -1.
        -11    1    1    2    0    0 -0.27285158613E+02 -0.14117410607E+02 -0.57617967343E+01  0.31256670718E+02  0.00000000000E+00 0.  1.
         11    1    1    2    0    0  0.51796454689E+02 -0.48720676727E+02 -0.10982565254E+03  0.13083673420E+03  0.00000000000E+00 0. -1.
</event>
<event>
 6    1  0.6447971E-006  0.1113815E+03  0.7561462E-02  0.1258033E+00
         -1   -1    0    0    0  501 -0.00000000000E+00  0.00000000000E+00  0.11682819244E+03  0.11682819244E+03  0.00000000000E+00 0.  1.
          1   -1    0    0  501    0  0.00000000000E+00 -0.00000000000E+00 -0.31192476210E+03  0.31192476210E+03  0.00000000000E+00 0. -1.
          5    1    1    2  502    0 -0.55676308195E+02  0.17408006614E+02  0.16416689038E+02  0.60744300699E+02  0.41800000000E+01 0.  1.
         -5    1    1    2    0  502  0.67305863023E+02  0.28895205870E+02  0.49404110157E+02  0.88449141432E+02  0.41800000000E+01 0.  1.
        -11    1    1    2    0    0 -0.40706693627E+02 -0.46546856749E+02 -0.11301300477E+03  0.12882384882E+03  0.00000000000E+00 0.  1.
         11    1    1    2    0    0  0.29077138799E+02  0.24364426538E+00 -0.14790436408E+03  0.15073566359E+03  0.00000000000E+00 0. -1.
</event>
<event>
 6    1  0.6447971E-006  0.1047191E+03  0.7561462E-02  0.1270674E+00
         -1   -1    0    0    0  501 -0.00000000000E+00  0.00000000000E+00  0.36380742748E+02  0.36380742748E+02  0.00000000000E+00 0.  1.
          1   -1    0    0  501    0  0.00000000000E+00 -0.00000000000E+00 -0.33117650848E+03  0.33117650848E+03  0.00000000000E+00 0. -1.
          5    1    1    2  502    0 -0.49554296266E+02  0.29122835384E+01 -0.33547633685E+02  0.60058519792E+02  0.41800000000E+01 0.  1.
         -5    1    1    2    0  502  0.65842408300E+02 -0.20710933896E+02 -0.13007339960E+03  0.14731166687E+03  0.41800000000E+01 0.  1.
        -11    1    1    2    0    0  0.13190363050E+02  0.47098402060E+02 -0.56538464079E+02  0.74758565225E+02  0.00000000000E+00 0.  1.
         11    1    1    2    0    0 -0.29478475085E+02 -0.29299751703E+02 -0.74636268369E+02  0.85428499339E+02  0.00000000000E+00 0. -1.
</event>
<event>
 6    1  0.6447971E-006  0.2224233E+03  0.7561462E-02  0.1132089E+00
         -2   -1    0    0    0  501 -0.00000000000E+00  0.00000000000E+00  0.19219569378E+03  0.19219569378E+03  0.00000000000E+00 0.  1.
          2   -1    0    0  501    0  0.00000000000E+00 -0.00000000000E+00 -0.31775572776E+03  0.31775572776E+03  0.00000000000E+00 0. -1.
          5    1    1    2  502    0  0.38622063555E+02  0.28728094520E+02  0.46779049449E+02  0.67251164119E+02  0.41800000000E+01 0. -1.
         -5    1    1    2    0  502  0.44935996412E+02  0.16769324659E+03 -0.47959192454E+02  0.18016055413E+03  0.41800000000E+01 0. -1.
        -11    1    1    2    0    0 -0.59822085226E+02 -0.61196888399E+02 -0.14735057909E+02  0.86838142323E+02  0.00000000000E+00 0. -1.
         11    1    1    2    0    0 -0.23735974741E+02 -0.13522445271E+03 -0.10964483307E+03  0.17570156097E+03  0.00000000000E+00 0.  1.
</event>
<event>
 6    1  0.6447971E-006  0.8972167E+02  0.7561462E-02  0.1303527E+00
         -2   -1    0    0    0  501 -0.00000000000E+00  0.00000000000E+00  0.11458246796E+03  0.11458246796E+03  0.00000000000E+00 0.  1.
          2   -1    0    0  501    0  0.00000000000E+00 -0.00000000000E+00 -0.13490437143E+03  0.13490437143E+03  0.00000000000E+00 0. -1.
          5    1    1    2  502    0 -0.50164377962E+02 -0.11180522073E+02 -0.25956549444E+02  0.57729401081E+02  0.41800000000E+01 0. -1.
         -5    1    1    2    0  502  0.27586687097E+01  0.28058418425E+02  0.65311551639E+02  0.71259780207E+02  0.41800000000E+01 0.  1.
        -11    1    1    2    0    0  0.72463207286E+02 -0.85223301275E+01 -0.59396365078E+02  0.94082276255E+02  0.00000000000E+00 0. -1.
         11    1    1    2    0    0 -0.25057498033E+02 -0.83555662241E+01 -0.28054058752E+00  0.26415381838E+02  0.00000000000E+00 0.  1.
</event>
<event>
 6    1  0.6447971E-006  0.1357370E+03  0.7561462E-02  0.1219183E+00
         -1   -1    0    0    0  501 -0.00000000000E+00  0.00000000000E+00  0.99664737554E+03  0.99664737554E+03  0.00000000000E+00 0.  1.
          1   -1    0    0  501    0  0.00000000000E+00 -0.00000000000E+00 -0.28078807279E+02  0.28078807279E+02  0.00000000000E+00 0. -1.
          5    1    1    2  502    0  0.15425536590E+02 -0.12580386000E+02  0.34009610852E+03  0.34070375507E+03  0.41800000000E+01 0. -1.
         -5    1    1    2    0  502 -0.11366246269E+03 -0.34258185142E+02  0.37503370585E+03  0.39339615097E+03  0.41800000000E+01 0. -1.
        -11    1    1    2    0    0 -0.93303741486E+01 -0.73734442709E+01  0.71130573874E+02  0.72117834839E+02  0.00000000000E+00 0.  1.
         11    1    1    2    0    0  0.10756730025E+03  0.54212015413E+02  0.18230818001E+03  0.21850844194E+03  0.00000000000E+00 0. -1.
</event>
<event>
 6    1  0.6447971E-006  0.1066619E+03  0.7561462E-02  0.1266879E+00
         -1   -1    0    0    0  501 -0.00000000000E+00  0.00000000000E+00  0.11250356627E+03  0.11250356627E+03  0.00000000000E+00 0.  1.
          1   -1    0    0  501    0  0.00000000000E+00 -0.00000000000E+00 -0.12795378208E+03  0.12795378208E+03  0.00000000000E+00 0. -1.
          5    1    1    2  502    0  0.40345165677E+02  0.40100192523E+02  0.23331089588E+02  0.61624426774E+02  0.41800000000E+01 0.  1.
         -5    1    1    2    0  502 -0.70786495650E+02 -0.10192920497E+02 -0.49863040588E+01  0.71811971305E+02  0.41800000000E+01 0.  1.
        -11    1    1    2    0    0 -0.18277430474E+02  0.10740066387E+02  0.15840709329E+02  0.26463967254E+02  0.00000000000E+00 0.  1.
         11    1    1    2    0    0  0.48718760447E+02 -0.40647338413E+02 -0.49635710665E+02  0.80556983017E+02  0.00000000000E+00 0. -1.
</event>
<event>
 6    1  0.6447971E-006  0.9724411E+02  0.7561462E-02  0.1286200E+00
         -2   -1    0    0    0  501 -0.00000000000E+00  0.00000000000E+00  0.99847498404E+02  0.99847498404E+02  0.00000000000E+00 0.  1.
          2   -1    0    0  501    0  0.00000000000E+00 -0.00000000000E+00 -0.21827069128E+03  0.21827069128E+03  0.00000000000E+00 0. -1.
          5    1    1    2  502    0  0.21097526037E+01 -0.58863610470E+02 -0.42651790823E+02  0.72842455711E+02  0.41800000000E+01 0. -1.
         -5    1    1    2    0  502 -0.51135376863E+02 -0.12920628094E+01  0.54467708670E+02  0.74837823866E+02  0.41800000000E+01 0. -1.
        -11    1    1    2    0    0  0.51824810504E+02  0.44789767888E+02 -0.40975325457E+02  0.79817990375E+02  0.00000000000E+00 0.  1.
         11    1    1    2    0    0 -0.27991862443E+01  0.15365905392E+02 -0.89263785269E+02  0.90619919734E+02  0.00000000000E+00 0. -1.
</event>
<event>
 6    1  0.6447971E-006  0.6140658E+02  0.7561462E-02  0.1392022E+00
         -1   -1    0    0    0  501 -0.00000000000E+00  0.00000000000E+00  0.59150106746E+02  0.59150106746E+02  0.00000000000E+00 0.  1.
          1   -1    0    0  501    0  0.00000000000E+00 -0.00000000000E+00 -0.23067538552E+03  0.23067538552E+03  0.00000000000E+00 0. -1.
          5    1    1    2  502    0  0.88590225946E+01 -0.34087270708E+01 -0.10119705295E+03  0.10172717251E+03  0.41800000000E+01 0.  1.
         -5    1    1    2    0  502 -0.13924741901E+02  0.38468825163E+02  0.25811507642E+02  0.48553632955E+02  0.41800000000E+01 0.  1.
        -11    1    1    2    0    0  0.30247103796E+02 -0.34835421644E+02 -0.66891001328E+01  0.46616927717E+02  0.00000000000E+00 0.  1.
         11    1    1    2    0    0 -0.25181384490E+02 -0.22467644824E+00 -0.89450633338E+02  0.92927759086E+02  0.00000000000E+00 0. -1.
</event>
<event>
 6    1  0.6447971E-006  0.2153883E+03  0.7561462E-02  0.1137369E+00
         -2   -1    0    0    0  501 -0.00000000000E+00  0.00000000000E+00  0.11290545082E+03  0.11290545082E+03  0.00000000000E+00 0.  1.
          2   -1    0    0  501    0  0.00000000000E+00 -0.00000000000E+00 -0.48503522312E+03  0.48503522312E+03  0.00000000000E+00 0. -1.
          5    1    1    2  502    0  0.79901684682E+02  0.12712252497E+03 -0.24231920846E+03  0.28509732857E+03  0.41800000000E+01 0. -1.
         -5    1    1    2    0  502 -0.13434370148E+03 -0.25096576161E+02 -0.45265511273E+02  0.14402953577E+03  0.41800000000E+01 0.  1.
        -11    1    1    2    0    0  0.77446162825E+02 -0.86398853511E+02 -0.55560503229E+02  0.12864540234E+03  0.00000000000E+00 0.  1.
         11    1    1    2    0    0 -0.23004146026E+02 -0.15627095302E+02 -0.28984549329E+02  0.40168407260E+02  0.00000000000E+00 0. -1.
</event>
<event>
 6    1  0.6447971E-006  0.3325507E+03  0.7561462E-02  0.1070014E+00
         -2   -1    0    0    0  501 -0.00000000000E+00  0.00000000000E+00  0.37765615899E+03  0.37765615899E+03  0.00000000000E+00 0.  1.
          2   -1    0    0  501    0  0.00000000000E+00 -0.00000000000E+00 -0.35255443535E+03  0.35255443535E+03  0.00000000000E+00 0. -1.
          5    1    1    2  502    0 -0.17783456042E+03 -0.26566497663E+03  0.15124522728E+03  0.35368856620E+03  0.41800000000E+01 0. -1.
         -5    1    1    2    0  502  0.17072546639E+02 -0.10144578282E+02 -0.17327623128E+01  0.20368092264E+02  0.41800000000E+01 0. -1.
        -11    1    1    2    0    0  0.35956940518E+02  0.12103195541E+03 -0.88301628203E+02  0.15407405150E+03  0.00000000000E+00 0. -1.
         11    1    1    2    0    0  0.12480507326E+03  0.15477759950E+03 -0.36109113127E+02  0.20207988438E+03  0.00000000000E+00 0.  1.
</event>
<event>
 6    1  0.6447971E-006  0.1197965E+03  0.7561462E-02  0.1243433E+00
          2   -1    0    0  501    0  0.00000000000E+00  0.00000000000E+00  0.61891588963E+03  0.61891588963E+03  0.00000000000E+00 0. -1.
         -2   -1    0    0    0  501 -0.00000000000E+00 -0.00000000000E+00 -0.27543587534E+02  0.27543587534E+02  0.00000000000E+00 0.  1.
          5    1    1    2  502    0  0.46913977700E+02  0.56691495165E+02  0.91748747847E+02  0.11768666900E+03  0.41800000000E+01 0. -1.
         -5    1    1    2    0  502  0.10693372120E+02 -0.60041284954E+02  0.12481332880E+03  0.13897893204E+03  0.41800000000E+01 0. -1.
        -11    1    1    2    0    0 -0.80646138192E+02 -0.35058726844E+01  0.31845351237E+03  0.32852508320E+03  0.00000000000E+00 0.  1.
         11    1    1    2    0    0  0.23038788372E+02  0.68556624729E+01  0.56356713078E+02  0.61268792925E+02  0.00000000000E+00 0. -1.
</event>
<event>
 6    1  0.6447971E-006  0.2382034E+03  0.7561462E-02  0.1120995E+00
          1   -1    0    0  501    0  0.00000000000E+00  0.00000000000E+00  0.25428405029E+03  0.25428405029E+03  0.00000000000E+00 0. -1.
         -1   -1    0    0    0  501 -0.00000000000E+00 -0.00000000000E+00 -0.24763098910E+03  0.24763098910E+03  0.00000000000E+00 0.  1.
          5    1    1    2  502    0 -0.17272126096E+02 -0.14012195439E+02  0.21451378800E+02  0.31181757701E+02  0.41800000000E+01 0.  1.
         -5    1    1    2    0  502  0.15280730461E+03 -0.16664308532E+03 -0.19735942400E+02  0.22699552869E+03  0.41800000000E+01 0.  1.
        -11    1    1    2    0    0 -0.10763191662E+03  0.12203662331E+03  0.43231509553E+02  0.16836427864E+03  0.00000000000E+00 0.  1.
         11    1    1    2    0    0 -0.27903261894E+02  0.58618657441E+02 -0.38293884767E+02  0.75373474347E+02  0.00000000000E+00 0. -1.
</event>
<event>
 6    1  0.6447971E-006  0.1334146E+03  0.7561462E-02  0.1222475E+00
         -1   -1    0    0    0  501 -0.00000000000E+00  0.00000000000E+00  0.98849937984E+02  0.98849937984E+02  0.00000000000E+00 0.  1.
          1   -1    0    0  501    0  0.00000000000E+00 -0.00000000000E+00 -0.29286201328E+03  0.29286201328E+03  0.00000000000E+00 0. -1.
          5    1    1    2  502    0 -0.39974487171E+02  0.99765742643E+02  0.56321867558E+01  0.10770495326E+03  0.41800000000E+01 0. -1.
         -5    1    1    2    0  502  0.31938614655E+02 -0.22087765261E+02  0.11715942256E+02  0.40775975564E+02  0.41800000000E+01 0. -1.
        -11    1    1    2    0    0  0.49889951614E+02 -0.42826735378E+02 -0.10949498648E+03  0.12771957015E+03  0.00000000000E+00 0. -1.
         11    1    1    2    0    0 -0.41854079097E+02 -0.34851242004E+02 -0.10186521782E+03  0.11551145228E+03  0.00000000000E+00 0.  1.
</event>
<event>
 6    1  0.6447971E-006  0.1225400E+03  0.7561462E-02  0.1238965E+00
          2   -1    0    0  501    0  0.00000000000E+00  0.00000000000E+00  0.18890926088E+03  0.18890926088E+03  0.00000000000E+00 0. -1.
         -2   -1    0    0    0  501 -0.00000000000E+00 -0.00000000000E+00 -0.90136799650E+02  0.90136799650E+02  0.00000000000E+00 0.  1.
          5    1    1    2  502    0 -0.37799554689E+02 -0.10534074181E+02  0.14837147365E+02  0.42159060657E+02  0.41800000000E+01 0.  1.
         -5    1    1    2    0  502  0.97253797241E+02  0.62744281598E+01  0.32919117942E+01  0.97601119921E+02  0.41800000000E+01 0.  1.
        -11    1    1    2    0    0  0.24183333523E+02 -0.15523668995E+01  0.19683854100E+01  0.24312918468E+02  0.00000000000E+00 0.  1.
         11    1    1    2    0    0 -0.83637576075E+02  0.58120129208E+01  0.78675016662E+02  0.11497296149E+03  0.00000000000E+00 0. -1.
</event>
<event>
 6    1  0.6447971E-006  0.1042857E+03  0.7561462E-02  0.1271533E+00
          1   -1    0    0  501    0  0.00000000000E+00  0.00000000000E+00  0.12957770050E+03  0.12957770050E+03  0.00000000000E+00 0. -1.
         -1   -1    0    0    0  501 -0.00000000000E+00 -0.00000000000E+00 -0.96726527725E+02  0.96726527725E+02  0.00000000000E+00 0.  1.
          5    1    1    2  502    0 -0.64038538016E+02 -0.70637335085E+01 -0.25878182236E+02  0.69555613707E+02  0.41800000000E+01 0. -1.
         -5    1    1    2    0  502  0.47933170054E+02  0.18562185798E+02  0.24503565387E+02  0.57096765668E+02  0.41800000000E+01 0. -1.
        -11    1    1    2    0    0 -0.32672302690E+02  0.16067588767E+02  0.59477912678E+01  0.36892045116E+02  0.00000000000E+00 0.  1.
         11    1    1    2    0    0  0.48777670652E+02 -0.27566041057E+02  0.28277998357E+02  0.62759803735E+02  0.00000000000E+00 0. -1.
</event>
<event>
 6    1  0.6447971E-006  0.1988877E+03  0.7561462E-02  0.1150681E+00
          1   -1    0    0  501    0  0.00000000000E+00  0.00000000000E+00  0.38851222677E+02  0.38851222677E+02  0.00000000000E+00 0. -1.
         -1   -1    0    0    0  501 -0.00000000000E+00 -0.00000000000E+00 -0.10458415905E+04  0.10458415905E+04  0.00000000000E+00 0.  1.
          5    1    1    2  502    0  0.69678167054E+02  0.11661578884E+03 -0.28337293249E+03  0.31428009870E+03  0.41800000000E+01 0. -1.
         -5    1    1    2    0  502  0.68383526905E+02 -0.12753550554E+02 -0.21976280202E+03  0.23054743840E+03  0.41800000000E+01 0.  1.
        -11    1    1    2    0    0 -0.23175350008E+01 -0.43592385946E+02 -0.86912047183E+02  0.97259297892E+02  0.00000000000E+00 0. -1.
         11    1    1    2    0    0 -0.13574415896E+03 -0.60269852341E+02 -0.41694258615E+03  0.44260597820E+03  0.00000000000E+00 0.  1.
</event>
<event>
 6    1  0.6447971E-006  0.9351611E+02  0.7561462E-02  0.1294554E+00
          1   -1    0    0  501    0  0.00000000000E+00  0.00000000000E+00  0.33127205392E+03  0.33127205392E+03  0.00000000000E+00 0. -1.
         -1   -1    0    0    0  501 -0.00000000000E+00 -0.00000000000E+00 -0.52364649401E+02  0.52364649401E+02  0.00000000000E+00 0.  1.
          5    1    1    2  502    0 -0.29693168091E+02 -0.38795363911E+02 -0.39769925651E+01  0.49194037872E+02  0.41800000000E+01 0. -1.
         -5    1    1    2    0  502  0.24947473137E+01 -0.25736155234E+02  0.16224669189E+03  0.16434729958E+03  0.41800000000E+01 0. -1.
        -11    1    1    2    0    0 -0.31889120080E+02  0.18173539754E+02  0.71428401712E+02  0.80306974155E+02  0.00000000000E+00 0. -1.
         11    1    1    2    0    0  0.59087540857E+02  0.46357979391E+02  0.49209303485E+02  0.89788391718E+02  0.00000000000E+00 0.  1.
</event>
<event>
 6    1  0.6447971E-006  0.1384057E+03  0.7561462E-02  0.1215490E+00
         -1   -1    0    0    0  501 -0.00000000000E+00  0.00000000000E+00  0.62932745816E+02  0.62932745816E+02  0.00000000000E+00 0. -1.
          1   -1    0    0  501    0  0.00000000000E+00 -0.00000000000E+00 -0.42562083209E+03  0.42562083209E+03  0.00000000000E+00 0.  1.
          5    1    1    2  502    0 -0.55824373883E+02  0.63526650900E+02 -0.48969827617E+02  0.97813662190E+02  0.41800000000E+01 0.  1.
         -5    1    1    2    0  502 -0.62091192039E+02 -0.32309769184E+02 -0.15920466385E+03  0.17396216458E+03  0.41800000000E+01 0.  1.
        -11    1    1    2    0    0  0.74838719904E+02 -0.18222574639E+02 -0.15353527927E+03  0.17177304272E+03  0.00000000000E+00 0.  1.
         11    1    1    2    0    0  0.43076846019E+02 -0.12994307077E+02 -0.97831554291E+00  0.45004708428E+02  0.00000000000E+00 0. -1.
</event>
<event>
 6    1  0.6447971E-006  0.9106323E+02  0.7561462E-02  0.1300297E+00
          1   -1    0    0  501    0  0.00000000000E+00  0.00000000000E+00  0.28572338774E+03  0.28572338774E+03  0.00000000000E+00 0. -1.
         -1   -1    0    0    0  501 -0.00000000000E+00 -0.00000000000E+00 -0.45125453720E+02  0.45125453720E+02  0.00000000000E+00 0.  1.
          5    1    1    2  502    0 -0.33319164515E+02 -0.33911449398E+01 -0.11499581263E+02  0.35656406959E+02  0.41800000000E+01 0. -1.
         -5    1    1    2    0  502  0.45717235890E+02 -0.26650593026E+02  0.12712169699E+03  0.13775963855E+03  0.41800000000E+01 0. -1.
        -11    1    1    2    0    0  0.67622343041E+01 -0.30785204490E+02  0.48691704229E+02  0.58002919659E+02  0.00000000000E+00 0.  1.
         11    1    1    2    0    0 -0.19160305679E+02  0.60826942456E+02  0.76284114064E+02  0.99429876298E+02  0.00000000000E+00 0. -1.
</event>
<event>
 6    1  0.6447971E-006  0.2705262E+03  0.7561462E-02  0.1100979E+00
         -2   -1    0    0    0  501 -0.00000000000E+00  0.00000000000E+00  0.53403972881E+02  0.53403972881E+02  0.00000000000E+00 0.  1.
          2   -1    0    0  501    0  0.00000000000E+00 -0.00000000000E+00 -0.14745027556E+04  0.14745027556E+04  0.00000000000E+00 0. -1.
          5    1    1    2  502    0  0.23323334832E+03  0.12030363828E+03 -0.85718658108E+03  0.89646922275E+03  0.41800000000E+01 0.  1.
         -5    1    1    2    0  502 -0.72084754070E+01 -0.14474957929E+02 -0.54464176890E+02  0.56967582791E+02  0.41800000000E+01 0.  1.
        -11    1    1    2    0    0 -0.13234578302E+03 -0.10377926994E+03 -0.37042743665E+03  0.40681940585E+03  0.00000000000E+00 0. -1.
         11    1    1    2    0    0 -0.93679089892E+02 -0.20494104078E+01 -0.13902058810E+03  0.16765051709E+03  0.00000000000E+00 0.  1.
</event>
<event>
 6    1  0.6447971E-006  0.1587956E+03  0.7561462E-02  0.1190063E+00
          1   -1    0    0  501    0  0.00000000000E+00  0.00000000000E+00  0.24169711304E+03  0.24169711304E+03  0.00000000000E+00 0. -1.
         -1   -1    0    0    0  501 -0.00000000000E+00 -0.00000000000E+00 -0.11595435909E+03  0.11595435909E+03  0.00000000000E+00 0.  1.
          5    1    1    2  502    0 -0.21677308306E+02 -0.90092768914E+02  0.14394939440E+02  0.93868521814E+02  0.41800000000E+01 0. -1.
         -5    1    1    2    0  502  0.24630252375E+01  0.12460195534E+03  0.16641205646E+02  0.12580189146E+03  0.41800000000E+01 0.  1.
        -11    1    1    2    0    0 -0.33489500022E+02  0.55375531925E+01  0.27943464300E+02  0.43966445208E+02  0.00000000000E+00 0.  1.
         11    1    1    2    0    0  0.52703783091E+02 -0.40046739621E+02  0.66763144565E+02  0.94014613644E+02  0.00000000000E+00 0. -1.
</event>
<event>
 6    1  0.6447971E-006  0.9342039E+02  0.7561462E-02  0.1294774E+00
          1   -1    0    0  501    0  0.00000000000E+00  0.00000000000E+00  0.33426588080E+03  0.33426588080E+03  0.00000000000E+00 0. -1.
         -1   -1    0    0    0  501 -0.00000000000E+00 -0.00000000000E+00 -0.65459148991E+02  0.65459148991E+02  0.00000000000E+00 0.  1.
          5    1    1    2  502    0  0.30311176469E+02 -0.70070332941E+02  0.73489054632E+02  0.10605061305E+03  0.41800000000E+01 0. -1.
         -5    1    1    2    0  502 -0.37517792729E+01  0.14334352745E+02 -0.35361921806E+02  0.38567958595E+02  0.41800000000E+01 0. -1.
        -11    1    1    2    0    0  0.81023799738E+01  0.59564415973E+02  0.19938891155E+03  0.20825346639E+03  0.00000000000E+00 0.  1.
         11    1    1    2    0    0 -0.34661777170E+02 -0.38284357773E+01  0.31290687435E+02  0.46852991764E+02  0.00000000000E+00 0. -1.
</event>
<event>
 6    1  0.6447971E-006  0.1756196E+03  0.7561462E-02  0.1172111E+00
          1   -1    0    0  501    0  0.00000000000E+00  0.00000000000E+00  0.41295898413E+03  0.41295898413E+03  0.00000000000E+00 0. -1.
         -1   -1    0    0    0  501 -0.00000000000E+00 -0.00000000000E+00 -0.91064601210E+02  0.91064601210E+02  0.00000000000E+00 0.  1.
          5    1    1    2  502    0  0.57230872401E+02  0.71884825618E+02  0.72486096253E+01  0.92264921023E+02  0.41800000000E+01 0. -1.
         -5    1    1    2    0  502 -0.76020376459E+01  0.78770127474E+02  0.12899458636E+03  0.15139220479E+03  0.41800000000E+01 0. -1.
        -11    1    1    2    0    0 -0.69162240089E+02 -0.75624717652E+02  0.12676009299E+03  0.16300501388E+03  0.00000000000E+00 0. -1.
         11    1    1    2    0    0  0.19533405334E+02 -0.75030235441E+02  0.58891093939E+02  0.97361445652E+02  0.00000000000E+00 0.  1.
</event>
<event>
 6    1  0.6447971E-006  0.9161635E+02  0.7561462E-02  0.1298984E+00
         -2   -1    0    0    0  501 -0.00000000000E+00  0.00000000000E+00  0.88194952846E+03  0.88194952846E+03  0.00000000000E+00 0.  1.
          2   -1    0    0  501    0  0.00000000000E+00 -0.00000000000E+00 -0.19038384902E+02  0.19038384902E+02  0.00000000000E+00 0. -1.
          5    1    1    2  502    0 -0.45788777146E+02  0.67336179103E+02  0.55626602042E+03  0.56221004171E+03  0.41800000000E+01 0. -1.
         -5    1    1    2    0  502 -0.57962247831E+01 -0.25625903892E+02  0.36391326085E+02  0.45078644459E+02  0.41800000000E+01 0.  1.
        -11    1    1    2    0    0  0.37471884958E+01 -0.23671712313E+02  0.62190461658E+01  0.24760208413E+02  0.00000000000E+00 0. -1.
         11    1    1    2    0    0  0.47837813433E+02 -0.18038562898E+02  0.26403475089E+03  0.26893901878E+03  0.00000000000E+00 0.  1.
</event>
<event>
 6    1  0.6447971E-006  0.2464350E+03  0.7561462E-02  0.1115579E+00
          2   -1    0    0  501    0  0.00000000000E+00  0.00000000000E+00  0.57469922439E+03  0.57469922439E+03  0.00000000000E+00 0. -1.
         -2   -1    0    0    0  501 -0.00000000000E+00 -0.00000000000E+00 -0.13366122762E+03  0.13366122762E+03  0.00000000000E+00 0.  1.
          5    1    1    2  502    0  0.60095686495E+02  0.12719247065E+02  0.14121966027E+02  0.63167817008E+02  0.41800000000E+01 0.  1.
         -5    1    1    2    0  502  0.10489933809E+03 -0.16422368337E+03  0.56575528522E+02  0.20295702042E+03  0.41800000000E+01 0.  1.
        -11    1    1    2    0    0 -0.12336448487E+03  0.62861930243E+02  0.17007627233E+03  0.21930881608E+03  0.00000000000E+00 0. -1.
         11    1    1    2    0    0 -0.41630539715E+02  0.88642506057E+02  0.20026422989E+03  0.22292679850E+03  0.00000000000E+00 0.  1.
</event>
<event>
 6    1  0.6447971E-006  0.1585654E+03  0.7561462E-02  0.1190326E+00
         -2   -1    0    0    0  501 -0.00000000000E+00  0.00000000000E+00  0.30915558044E+02  0.30915558044E+02  0.00000000000E+00 0.  1.
          2   -1    0    0  501    0  0.00000000000E+00 -0.00000000000E+00 -0.88423945182E+03  0.88423945182E+03  0.00000000000E+00 0. -1.
          5    1    1    2  502    0 -0.73935364332E+00 -0.21551562553E+02 -0.24384449380E+02  0.32819053366E+02  0.41800000000E+01 0.  1.
         -5    1    1    2    0  502  0.64647095628E+00  0.14498538013E+03 -0.46993314385E+03  0.49180871328E+03  0.41800000000E+01 0.  1.
        -11    1    1    2    0    0 -0.40308010759E+02 -0.37029838454E+02 -0.92683770401E+02  0.10763933279E+03  0.00000000000E+00 0.  1.
         11    1    1    2    0    0  0.40400893446E+02 -0.86403979128E+02 -0.26632253015E+03  0.28288791042E+03  0.00000000000E+00 0. -1.
</event>
<event>
 6    1  0.6447971E-006  0.6346039E+02  0.7561462E-02  0.1383858E+00
         -1   -1    0    0    0  501 -0.00000000000E+00  0.00000000000E+00  0.54072272044E+02  0.54072272044E+02  0.00000000000E+00 0.  1.
          1   -1    0    0  501    0  0.00000000000E+00 -0.00000000000E+00 -0.29341401080E+03  0.29341401080E+03  0.00000000000E+00 0. -1.
          5    1    1    2  502    0 -0.50307552477E+02 -0.34606840209E+02  0.12629005047E+02  0.62493578822E+02  0.41800000000E+01 0.  1.
         -5    1    1    2    0  502  0.74141761818E+01  0.93821331905E+01 -0.93915477961E+02  0.94765942365E+02  0.41800000000E+01 0.  1.
        -11    1    1    2    0    0  0.28490724449E+02  0.26074599400E+02 -0.16820799325E+03  0.17258486349E+03  0.00000000000E+00 0. -1.
         11    1    1    2    0    0  0.14402651847E+02 -0.84989238239E+00  0.10152727404E+02  0.17641898170E+02  0.00000000000E+00 0.  1.
</event>
<event>
 6    1  0.6447971E-006  0.1795880E+03  0.7561462E-02  0.1168202E+00
          2   -1    0    0  501    0  0.00000000000E+00  0.00000000000E+00  0.80591009485E+03  0.80591009485E+03  0.00000000000E+00 0. -1.
         -2   -1    0    0    0  501 -0.00000000000E+00 -0.00000000000E+00 -0.10721556438E+03  0.10721556438E+03  0.00000000000E+00 0.  1.
          5    1    1    2  502    0  0.57881124842E+01  0.77718369584E+02  0.32954872861E+03  0.33866426464E+03  0.41800000000E+01 0. -1.
         -5    1    1    2    0  502  0.65627334062E+02 -0.14159030587E+03 -0.25199760570E+02  0.15813684588E+03  0.41800000000E+01 0.  1.
        -11    1    1    2    0    0 -0.57416156441E+02  0.83237093816E+02  0.36352011470E+03  0.37732201447E+03  0.00000000000E+00 0.  1.
         11    1    1    2    0    0 -0.13999290105E+02 -0.19365157526E+02  0.30825447723E+02  0.39002534235E+02  0.00000000000E+00 0. -1.
</event>
<event>
 6    1  0.6447971E-006  0.1410250E+03  0.7561462E-02  0.1211956E+00
          1   -1    0    0  501    0  0.00000000000E+00  0.00000000000E+00  0.33440813728E+03  0.33440813728E+03  0.00000000000E+00 0. -1.
         -1   -1    0    0    0  501 -0.00000000000E+00 -0.00000000000E+00 -0.59530970307E+02  0.59530970307E+02  0.00000000000E+00 0.  1.
          5    1    1    2  502    0  0.10221506365E+02 -0.11661988586E+03  0.10956196652E+03  0.16039318526E+03  0.41800000000E+01 0. -1.
         -5    1    1    2    0  502 -0.28283355912E+02  0.19573926740E+02  0.33934965517E+02  0.48498877454E+02  0.41800000000E+01 0.  1.
        -11    1    1    2    0    0 -0.27175933529E+02  0.75324610562E+02  0.83350820525E+02  0.11558411483E+03  0.00000000000E+00 0.  1.
         11    1    1    2    0    0  0.45237783076E+02  0.21721348560E+02  0.48029414410E+02  0.69462930038E+02  0.00000000000E+00 0. -1.
</event>
<event>
 6    1  0.6447971E-006  0.1069844E+03  0.7561462E-02  0.1266259E+00
          2   -1    0    0  501    0  0.00000000000E+00  0.00000000000E+00  0.36898377462E+03  0.36898377462E+03  0.00000000000E+00 0. -1.
         -2   -1    0    0    0  501 -0.00000000000E+00 -0.00000000000E+00 -0.63254207764E+02  0.63254207764E+02  0.00000000000E+00 0.  1.
          5    1    1    2  502    0 -0.13977941678E+02 -0.71593104510E+02 -0.88773915129E+01  0.73601874616E+02  0.41800000000E+01 0.  1.
         -5    1    1    2    0  502  0.12959323830E+02 -0.12696614100E+02  0.10194987745E+03  0.10363589145E+03  0.41800000000E+01 0.  1.
        -11    1    1    2    0    0 -0.26135173518E+02 -0.69897298728E+01  0.11674862784E+03  0.11984217004E+03  0.00000000000E+00 0. -1.
         11    1    1    2    0    0  0.27153791365E+02  0.91279448483E+02  0.95908453074E+02  0.13515804627E+03  0.00000000000E+00 0.  1.
</event>
<event>
 6    1  0.6447971E-006  0.1677691E+03  0.7561462E-02  0.1180195E+00
          2   -1    0    0  501    0  0.00000000000E+00  0.00000000000E+00  0.11924033370E+04  0.11924033370E+04  0.00000000000E+00 0. -1.
         -2   -1    0    0    0  501 -0.00000000000E+00 -0.00000000000E+00 -0.31528214136E+02  0.31528214136E+02  0.00000000000E+00 0.  1.
          5    1    1    2  502    0 -0.53299604178E+02 -0.58104535619E+01  0.28392242339E+03  0.28897062841E+03  0.41800000000E+01 0.  1.
         -5    1    1    2    0  502 -0.62658180593E+02 -0.88177629786E+02  0.13527384119E+03  0.17325653379E+03  0.41800000000E+01 0.  1.
        -11    1    1    2    0    0  0.58792917827E+02 -0.52023953861E+01  0.24974851129E+03  0.25662811809E+03  0.00000000000E+00 0.  1.
         11    1    1    2    0    0  0.57164866943E+02  0.99190478734E+02  0.49193034696E+03  0.50507627082E+03  0.00000000000E+00 0. -1.
</event>
<event>
 6    1  0.6447971E-006  0.8791138E+02  0.7561462E-02  0.1307990E+00
          1   -1    0    0  501    0  0.00000000000E+00  0.00000000000E+00  0.48926954749E+02  0.48926954749E+02  0.00000000000E+00 0. -1.
         -1   -1    0    0    0  501 -0.00000000000E+00 -0.00000000000E+00 -0.31057835609E+03  0.31057835609E+03  0.00000000000E+00 0.  1.
          5    1    1    2  502    0 -0.26387081298E+02 -0.38793099094E+02 -0.21271096042E+03  0.21786373650E+03  0.41800000000E+01 0. -1.
         -5    1    1    2    0  502 -0.62880608869E+00  0.38483960442E+02 -0.11651406774E+02  0.40430660249E+02  0.41800000000E+01 0. -1.
        -11    1    1    2    0    0 -0.30168676657E+02 -0.10232302199E+02  0.50329134949E+00  0.31860671080E+02  0.00000000000E+00 0. -1.
         11    1    1    2    0    0  0.57184564043E+02  0.10541440851E+02 -0.37792325500E+02  0.69350243018E+02  0.00000000000E+00 0.  1.
</event>
<event>
 6    1  0.6447971E-006  0.1687482E+03  0.7561462E-02  0.1179160E+00
         -1   -1    0    0    0  501 -0.00000000000E+00  0.00000000000E+00  0.78693611159E+03  0.78693611159E+03  0.00000000000E+00 0.  1.
          1   -1    0    0  501    0  0.00000000000E+00 -0.00000000000E+00 -0.39841274005E+02  0.39841274005E+02  0.00000000000E+00 0. -1.
          5    1    1    2  502    0  0.12003209752E+03 -0.10141858987E+03  0.42459632285E+03  0.45276146544E+03  0.41800000000E+01 0.  1.
         -5    1    1    2    0  502 -0.14860392587E+02  0.13806236169E+02  0.19302197423E+02  0.28310610208E+02  0.41800000000E+01 0.  1.
        -11    1    1    2    0    0  0.11749895382E+02  0.23426597420E+02  0.21030712452E+02  0.33602922111E+02  0.00000000000E+00 0. -1.
         11    1    1    2    0    0 -0.11692160032E+03  0.64185756279E+02  0.28216560486E+03  0.31210238784E+03  0.00000000000E+00 0.  1.
</event>
<event>
 6    1  0.6447971E-006  0.1115809E+03  0.7561462E-02  0.1257670E+00
         -1   -1    0    0    0  501 -0.00000000000E+00  0.00000000000E+00  0.18507078917E+03  0.18507078917E+03  0.00000000000E+00 0.  1.
          1   -1    0    0  501    0  0.00000000000E+00 -0.00000000000E+00 -0.11577574762E+03  0.11577574762E+03  0.00000000000E+00 0. -1.
          5    1    1    2  502    0  0.40935083555E+01  0.39101528632E+02 -0.40506502966E+00  0.39538877446E+02  0.41800000000E+01 0. -1.
         -5    1    1    2    0  502  0.64222629778E+02 -0.65363190167E+02  0.10361333840E+03  0.13838384695E+03  0.41800000000E+01 0. -1.
        -11    1    1    2    0    0 -0.67003087152E+02  0.40039422374E+02  0.83044232104E+01  0.78495429656E+02  0.00000000000E+00 0.  1.
         11    1    1    2    0    0 -0.13130509810E+01 -0.13777760840E+02 -0.42217655025E+02  0.44428382735E+02  0.00000000000E+00 0. -1.
</event>
<event>
 6    1  0.6447971E-006  0.1182508E+03  0.7561462E-02  0.1246011E+00
         -2   -1    0    0    0  501 -0.00000000000E+00  0.00000000000E+00  0.57685321001E+02  0.57685321001E+02  0.00000000000E+00 0.  1.
          2   -1    0    0  501    0  0.00000000000E+00 -0.00000000000E+00 -0.26756596006E+03  0.26756596006E+03  0.00000000000E+00 0. -1.
          5    1    1    2  502    0 -0.42062122940E+02 -0.25624402532E+02 -0.17895112237E+02  0.52569379236E+02  0.41800000000E+01 0.  1.
         -5    1    1    2    0  502  0.78748363097E+02 -0.20114642525E+02 -0.10072881857E+03  0.12949776378E+03  0.41800000000E+01 0.  1.
        -11    1    1    2    0    0 -0.51224223266E+02  0.64237197864E+02 -0.51437731330E+02  0.96933889033E+02  0.00000000000E+00 0.  1.
         11    1    1    2    0    0  0.14537983109E+02 -0.18498152807E+02 -0.39818976921E+02  0.46250249007E+02  0.00000000000E+00 0. -1.
</event>
<event>
 6    1  0.6447971E-006  0.1006401E+03  0.7561462E-02  0.1278956E+00
         -2   -1    0    0    0  501 -0.00000000000E+00  0.00000000000E+00  0.21327984162E+03  0.21327984162E+03  0.00000000000E+00 0.  1.
          2   -1    0    0  501    0  0.00000000000E+00 -0.00000000000E+00 -0.12011511972E+03  0.12011511972E+03  0.00000000000E+00 0. -1.
          5    1    1    2  502    0  0.11757593896E+02 -0.38141788976E+02  0.13114820524E+03  0.13715087028E+03  0.41800000000E+01 0.  1.
         -5    1    1    2    0  502 -0.58568949171E+02 -0.29203238956E+02  0.61064920883E+01  0.65862831842E+02  0.41800000000E+01 0.  1.
        -11    1    1    2    0    0  0.48720090922E+01  0.49915979747E+02  0.18146756684E+02  0.53335225553E+02  0.00000000000E+00 0.  1.
         11    1    1    2    0    0  0.41939346184E+02  0.17429048186E+02 -0.62236732119E+02  0.77046033667E+02  0.00000000000E+00 0. -1.
</event>
<event>
 6    1  0.6447971E-006  0.1643310E+03  0.7561462E-02  0.1183892E+00
         -1   -1    0    0    0  501 -0.00000000000E+00  0.00000000000E+00  0.17722331740E+03  0.17722331740E+03  0.00000000000E+00 0.  1.
          1   -1    0    0  501    0  0.00000000000E+00 -0.00000000000E+00 -0.20337805416E+03  0.20337805416E+03  0.00000000000E+00 0. -1.
          5    1    1    2  502    0 -0.99063367236E-01  0.14775967094E+03  0.29938163367E+02  0.15082007889E+03  0.41800000000E+01 0. -1.
         -5    1    1    2    0  502 -0.13078947973E+02 -0.82549504609E+01  0.37113648317E+02  0.40423982715E+02  0.41800000000E+01 0.  1.
        -11    1    1    2    0    0 -0.35405441361E+02 -0.83409382855E+02 -0.52122786310E+02  0.10453446933E+03  0.00000000000E+00 0.  1.
         11    1    1    2    0    0  0.48583452701E+02 -0.56095337627E+02 -0.41083762130E+02  0.84822840618E+02  0.00000000000E+00 0. -1.
</event>
<event>
 6    1  0.6447971E-006  0.1731308E+03  0.7561462E-02  0.1174622E+00
         -1   -1    0    0    0  501 -0.00000000000E+00  0.00000000000E+00  0.29616042596E+02  0.29616042596E+02  0.00000000000E+00 0.  1.
          1   -1    0    0  501    0  0.00000000000E+00 -0.00000000000E+00 -0.12468882629E+04  0.12468882629E+04  0.00000000000E+00 0. -1.
          5    1    1    2  502    0 -0.12460545785E+03 -0.97596060861E+02 -0.39383257869E+03  0.42446800075E+03  0.41800000000E+01 0. -1.
         -5    1    1    2    0  502 -0.11853417001E+02  0.18578727140E+02 -0.22859140334E+03  0.22968930031E+03  0.41800000000E+01 0. -1.
        -11    1    1    2    0    0  0.68468241564E+02  0.11035585966E+02 -0.38922751555E+03  0.39535774068E+03  0.00000000000E+00 0. -1.
         11    1    1    2    0    0  0.67990633289E+02  0.67981747755E+02 -0.20562072272E+03  0.22698926374E+03  0.00000000000E+00 0.  1.
</event>
<event>
 6    1  0.6447971E-006  0.1127097E+03  0.7561462E-02  0.1255633E+00
         -2   -1    0    0    0  501 -0.00000000000E+00  0.00000000000E+00  0.73801283342E+02  0.73801283342E+02  0.00000000000E+00 0.  1.
          2   -1    0    0  501    0  0.00000000000E+00 -0.00000000000E+00 -0.24864546315E+03  0.24864546315E+03  0.00000000000E+00 0. -1.
          5    1    1    2  502    0 -0.91033153679E+02  0.62998304266E+02 -0.78953571320E+02  0.13604028901E+03  0.41800000000E+01 0. -1.
         -5    1    1    2    0  502  0.20353833421E+02 -0.30118003357E+02 -0.24561592492E+02  0.44069455260E+02  0.41800000000E+01 0. -1.
        -11    1    1    2    0    0  0.34096499558E+02 -0.17940645576E+02  0.19574801278E+02  0.43215863879E+02  0.00000000000E+00 0.  1.
         11    1    1    2    0    0  0.36582820700E+02 -0.14939655334E+02 -0.90903817272E+02  0.99121138343E+02  0.00000000000E+00 0. -1.
</event>
<event>
 6    1  0.6447971E-006  0.1091592E+03  0.7561462E-02  0.1262135E+00
         -2   -1    0    0    0  501 -0.00000000000E+00  0.00000000000E+00  0.13334252497E+03  0.13334252497E+03  0.00000000000E+00 0. -1.
          2   -1    0    0  501    0  0.00000000000E+00 -0.00000000000E+00 -0.25044561707E+03  0.25044561707E+03  0.00000000000E+00 0.  1.
          5    1    1    2  502    0 -0.29040407620E+01 -0.16313897017E+02  0.58352028905E+02  0.60803029250E+02  0.41800000000E+01 0.  1.
         -5    1    1    2    0  502  0.29774988824E+02  0.10066255430E+03  0.54698913145E+01  0.10519929614E+03  0.41800000000E+01 0.  1.
        -11    1    1    2    0    0  0.48899308508E+01 -0.46527950318E+02 -0.22639163246E+02  0.51973967493E+02  0.00000000000E+00 0. -1.
         11    1    1    2    0    0 -0.31760878913E+02 -0.37820706961E+02 -0.15828584908E+03  0.16581184916E+03  0.00000000000E+00 0.  1.
</event>
<event>
 6    1  0.6447971E-006  0.1423787E+03  0.7561462E-02  0.1210164E+00
          2   -1    0    0  501    0  0.00000000000E+00  0.00000000000E+00  0.91477732682E+03  0.91477732682E+03  0.00000000000E+00 0. -1.
         -2   -1    0    0    0  501 -0.00000000000E+00 -0.00000000000E+00 -0.27698385967E+02  0.27698385967E+02  0.00000000000E+00 0.  1.
          5    1    1    2  502    0  0.12378285725E+03  0.28842343784E+02  0.32606898090E+03  0.34998932734E+03  0.41800000000E+01 0.  1.
         -5    1    1    2    0  502 -0.16582718653E+02 -0.16471296801E+02  0.11425687396E+02  0.26349742099E+02  0.41800000000E+01 0.  1.
        -11    1    1    2    0    0 -0.26795690067E+02  0.32218817434E+02  0.12960117895E+03  0.13620766054E+03  0.00000000000E+00 0.  1.
         11    1    1    2    0    0 -0.80404448530E+02 -0.44589864416E+02  0.41998309360E+03  0.42992898281E+03  0.00000000000E+00 0. -1.
</event>
<event>
 6    1  0.6447971E-006  0.1156049E+03  0.7561462E-02  0.1250529E+00
          2   -1    0    0  501    0  0.00000000000E+00  0.00000000000E+00  0.41412425557E+03  0.41412425557E+03  0.00000000000E+00 0. -1.
         -2   -1    0    0    0  501 -0.00000000000E+00 -0.00000000000E+00 -0.74245930421E+02  0.74245930421E+02  0.00000000000E+00 0.  1.
          5    1    1    2  502    0 -0.26214442223E+02  0.50630786199E+02  0.93135489753E+02  0.10928112986E+03  0.41800000000E+01 0.  1.
         -5    1    1    2    0  502  0.14405107162E+02  0.56222212277E+02 -0.32258269921E+02  0.66532042235E+02  0.41800000000E+01 0.  1.
        -11    1    1    2    0    0  0.22718992595E+02 -0.27124805692E+02  0.18704605853E+03  0.19036316797E+03  0.00000000000E+00 0.  1.
         11    1    1    2    0    0 -0.10909657535E+02 -0.79728192784E+02  0.91955046785E+02  0.12219384592E+03  0.00000000000E+00 0. -1.
</event>
<event>
 6    1  0.6447971E-006  0.1242215E+03  0.7561462E-02  0.1236291E+00
         -3   -1    0    0    0  501 -0.00000000000E+00  0.00000000000E+00  0.91315760496E+02  0.91315760496E+02  0.00000000000E+00 0.  1.
          3   -1    0    0  501    0  0.00000000000E+00 -0.00000000000E+00 -0.19795528050E+03  0.19795528050E+03  0.00000000000E+00 0. -1.
          5    1    1    2  502    0 -0.24664694432E+02 -0.29073238985E+02  0.52829819789E+01  0.38716697626E+02  0.41800000000E+01 0.  1.
         -5    1    1    2    0  502  0.58676233361E+02  0.81518287373E+02 -0.12562397322E+02  0.10130852760E+03  0.41800000000E+01 0.  1.
        -11    1    1    2    0    0 -0.65097018988E+02 -0.36287342470E+02 -0.54512566104E+02  0.92336411929E+02  0.00000000000E+00 0.  1.
         11    1    1    2    0    0  0.31085480059E+02 -0.16157705918E+02 -0.44847538552E+02  0.56909403838E+02  0.00000000000E+00 0. -1.
</event>
<event>
 6    1  0.6447971E-006  0.9743648E+02  0.7561462E-02  0.1285781E+00
          2   -1    0    0  501    0  0.00000000000E+00  0.00000000000E+00  0.76986650450E+02  0.76986650450E+02  0.00000000000E+00 0. -1.
         -2   -1    0    0    0  501 -0.00000000000E+00 -0.00000000000E+00 -0.21363887816E+03  0.21363887816E+03  0.00000000000E+00 0.  1.
          5    1    1    2  502    0  0.65320448594E+02 -0.15477253971E+02 -0.10301952745E+03  0.12303171067E+03  0.41800000000E+01 0. -1.
         -5    1    1    2    0  502 -0.55314712785E+02  0.66147348563E+01 -0.49209363953E+02  0.74448009164E+02  0.41800000000E+01 0. -1.
        -11    1    1    2    0    0  0.27436291216E+02  0.18494111065E+02 -0.21597086918E+02  0.39512230805E+02  0.00000000000E+00 0.  1.
         11    1    1    2    0    0 -0.37442027025E+02 -0.96315919508E+01  0.37173750612E+02  0.53633577970E+02  0.00000000000E+00 0. -1.
</event>
<event>
 6    1  0.6447971E-006  0.1119739E+03  0.7561462E-02  0.1256958E+00
         -1   -1    0    0    0  501 -0.00000000000E+00  0.00000000000E+00  0.37181727827E+02  0.37181727827E+02  0.00000000000E+00 0.  1.
          1   -1    0    0  501    0  0.00000000000E+00 -0.00000000000E+00 -0.37355595992E+03  0.37355595992E+03  0.00000000000E+00 0. -1.
          5    1    1    2  502    0  0.31495862136E+02  0.59663557776E+02 -0.10748893273E+03  0.12697666131E+03  0.41800000000E+01 0. -1.
         -5    1    1    2    0  502  0.17753469125E+02 -0.63217241770E+02 -0.76106583461E+02  0.10060462101E+03  0.41800000000E+01 0. -1.
        -11    1    1    2    0    0 -0.67043920028E+02  0.15892951562E+02 -0.72542125807E+02  0.10004915361E+03  0.00000000000E+00 0.  1.
         11    1    1    2    0    0  0.17794588767E+02 -0.12339267568E+02 -0.80236590103E+02  0.83107251818E+02  0.00000000000E+00 0. -1.
</event>
<event>
 6    1  0.6447971E-006  0.1505757E+03  0.7561462E-02  0.1199767E+00
         -3   -1    0    0    0  501 -0.00000000000E+00  0.00000000000E+00  0.19631019213E+03  0.19631019213E+03  0.00000000000E+00 0.  1.
          3   -1    0    0  501    0  0.00000000000E+00 -0.00000000000E+00 -0.24346530071E+03  0.24346530071E+03  0.00000000000E+00 0. -1.
          5    1    1    2  502    0  0.15825137022E+02 -0.25552260964E+02 -0.13441795788E+02  0.33188963167E+02  0.41800000000E+01 0. -1.
         -5    1    1    2    0  502  0.11609495967E+03  0.36168482005E+02  0.12944264140E+03  0.17764872238E+03  0.41800000000E+01 0.  1.
        -11    1    1    2    0    0  0.21109351604E+01  0.12887927307E+02  0.37531837661E+01  0.13588270895E+02  0.00000000000E+00 0.  1.
         11    1    1    2    0    0 -0.13403103185E+03 -0.23504148348E+02 -0.16690913796E+03  0.21534953639E+03  0.00000000000E+00 0. -1.
</event>
<event>
 6    1  0.6447971E-006  0.2289668E+03  0.7561462E-02  0.1127369E+00
          1   -1    0    0  501    0  0.00000000000E+00  0.00000000000E+00  0.18630146737E+03  0.18630146737E+03  0.00000000000E+00 0. -1.
         -1   -1    0    0    0  501 -0.00000000000E+00 -0.00000000000E+00 -0.34910477917E+03  0.34910477917E+03  0.00000000000E+00 0.  1.
          5    1    1    2  502    0  0.93062540121E+02  0.31563205810E+02 -0.40331307586E+02  0.10630596929E+03  0.41800000000E+01 0.  1.
         -5    1    1    2    0  502  0.11322734296E+03 -0.90040505544E+02 -0.13205360951E+03  0.19591669662E+03  0.41800000000E+01 0.  1.
        -11    1    1    2    0    0 -0.12133097809E+03  0.41342797747E+02 -0.38799374215E+02  0.13392469754E+03  0.00000000000E+00 0.  1.
         11    1    1    2    0    0 -0.84958904983E+02  0.17134501988E+02  0.48380979514E+02  0.99258883094E+02  0.00000000000E+00 0. -1.
</event>
<event>
 6    1  0.6447971E-006  0.7838181E+02  0.7561462E-02  0.1333707E+00
         -1   -1    0    0    0  501 -0.00000000000E+00  0.00000000000E+00  0.26697498812E+03  0.26697498812E+03  0.00000000000E+00 0.  1.
          1   -1    0    0  501    0  0.00000000000E+00 -0.00000000000E+00 -0.47241786050E+02  0.47241786050E+02  0.00000000000E+00 0. -1.
          5    1    1    2  502    0 -0.16407027185E+02 -0.51055148010E+01 -0.18797786232E+02  0.25808641763E+02  0.41800000000E+01 0.  1.
         -5    1    1    2    0  502  0.25825314201E+02  0.36395454877E+02  0.15770888100E+03  0.16395468745E+03  0.41800000000E+01 0.  1.
        -11    1    1    2    0    0  0.97985552665E+01  0.29193596235E+02  0.21279324647E+02  0.37431102092E+02  0.00000000000E+00 0.  1.
         11    1    1    2    0    0 -0.19216842282E+02 -0.60483536311E+02  0.59542782654E+02  0.87022342867E+02  0.00000000000E+00 0. -1.
</event>
<event>
 6    1  0.6447971E-006  0.1026685E+03  0.7561462E-02  0.1274782E+00
         -2   -1    0    0    0  501 -0.00000000000E+00  0.00000000000E+00  0.28169430313E+02  0.28169430313E+02  0.00000000000E+00 0.  1.
          2   -1    0    0  501    0  0.00000000000E+00 -0.00000000000E+00 -0.50458609371E+03  0.50458609371E+03  0.00000000000E+00 0. -1.
          5    1    1    2  502    0  0.37826810309E+02 -0.90996537415E+01 -0.18453214025E+02  0.43262741294E+02  0.41800000000E+01 0.  1.
         -5    1    1    2    0  502 -0.52243087991E+02 -0.39391675132E+02 -0.23370457317E+03  0.24272689227E+03  0.41800000000E+01 0.  1.
        -11    1    1    2    0    0 -0.35061974180E+02  0.63085097353E+01 -0.55885234421E+02  0.66274420063E+02  0.00000000000E+00 0.  1.
         11    1    1    2    0    0  0.49478251861E+02  0.42182819138E+02 -0.16837364179E+03  0.18049147040E+03  0.00000000000E+00 0. -1.
</event>
<event>
 6    1  0.6447971E-006  0.1077524E+03  0.7561462E-02  0.1264790E+00
          2   -1    0    0  501    0  0.00000000000E+00  0.00000000000E+00  0.64553670738E+03  0.64553670738E+03  0.00000000000E+00 0. -1.
         -2   -1    0    0    0  501 -0.00000000000E+00 -0.00000000000E+00 -0.33290160453E+02  0.33290160453E+02  0.00000000000E+00 0.  1.
          5    1    1    2  502    0 -0.29171648855E+02 -0.38047799750E+02  0.27103888881E+03  0.27527835333E+03  0.41800000000E+01 0.  1.
         -5    1    1    2    0  502 -0.55981551404E+02 -0.59326374706E+01  0.28624831620E+02  0.63292840592E+02  0.41800000000E+01 0.  1.
        -11    1    1    2    0    0  0.66188805700E+02  0.35643704895E+01  0.82243651067E+02  0.10562992416E+03  0.00000000000E+00 0.  1.
         11    1    1    2    0    0  0.18964394558E+02  0.40416066731E+02  0.23033917543E+03  0.23462574975E+03  0.00000000000E+00 0. -1.
</event>
<event>
 6    1  0.6447971E-006  0.8047500E+02  0.7561462E-02  0.1327709E+00
         -1   -1    0    0    0  501 -0.00000000000E+00  0.00000000000E+00  0.17163367846E+02  0.17163367846E+02  0.00000000000E+00 0.  1.
          1   -1    0    0  501    0  0.00000000000E+00 -0.00000000000E+00 -0.71074426582E+03  0.71074426582E+03  0.00000000000E+00 0. -1.
          5    1    1    2  502    0 -0.26113927716E+02 -0.13335086462E+02 -0.36594593501E+03  0.36714256291E+03  0.41800000000E+01 0. -1.
         -5    1    1    2    0  502  0.81570938824E+01 -0.31705504282E+02 -0.23594653709E+02  0.40570398889E+02  0.41800000000E+01 0.  1.
        -11    1    1    2    0    0 -0.15895147724E+01  0.68088925262E+02 -0.23828378040E+03  0.24782612514E+03  0.00000000000E+00 0. -1.
         11    1    1    2    0    0  0.19546348606E+02 -0.23048334517E+02 -0.65756528859E+02  0.72368546727E+02  0.00000000000E+00 0.  1.
</event>
<event>
 6    1  0.6447971E-006  0.1256962E+03  0.7561462E-02  0.1233985E+00
         -1   -1    0    0    0  501 -0.00000000000E+00  0.00000000000E+00  0.25741433950E+03  0.25741433950E+03  0.00000000000E+00 0.  1.
          1   -1    0    0  501    0  0.00000000000E+00 -0.00000000000E+00 -0.90173044913E+02  0.90173044913E+02  0.00000000000E+00 0. -1.
          5    1    1    2  502    0 -0.30719978145E+02 -0.76920792927E+02  0.97070498034E+02  0.12767411417E+03  0.41800000000E+01 0.  1.
         -5    1    1    2    0  502  0.69233554958E+02 -0.29460777948E+01  0.58886601387E+02  0.91033338560E+02  0.41800000000E+01 0.  1.
        -11    1    1    2    0    0 -0.26265043171E+02  0.10000308807E+02  0.42847532459E+02  0.51242264849E+02  0.00000000000E+00 0.  1.
         11    1    1    2    0    0 -0.12248533642E+02  0.69866561915E+02 -0.31563337290E+02  0.77637666832E+02  0.00000000000E+00 0. -1.
</event>
<event>
 6    1  0.6447971E-006  0.1109766E+03  0.7561462E-02  0.1258772E+00
         -1   -1    0    0    0  501 -0.00000000000E+00  0.00000000000E+00  0.67916640208E+02  0.67916640208E+02  0.00000000000E+00 0.  1.
          1   -1    0    0  501    0  0.00000000000E+00 -0.00000000000E+00 -0.24598609753E+03  0.24598609753E+03  0.00000000000E+00 0. -1.
          5    1    1    2  502    0 -0.50474968013E+02  0.42921248669E+01  0.82847881260E+00  0.50836045371E+02  0.41800000000E+01 0. -1.
         -5    1    1    2    0  502  0.62696436277E+02 -0.47413398353E+02 -0.36416935854E+02  0.86732572211E+02  0.41800000000E+01 0. -1.
        -11    1    1    2    0    0  0.26030297659E+02 -0.91876813939E+01 -0.10932501314E+02  0.29690225169E+02  0.00000000000E+00 0.  1.
         11    1    1    2    0    0 -0.38251765923E+02  0.52308954880E+02 -0.13154849897E+03  0.14664389499E+03  0.00000000000E+00 0. -1.
</event>
<event>
 6    1  0.6447971E-006  0.1222738E+03  0.7561462E-02  0.1239392E+00
          2   -1    0    0  501    0  0.00000000000E+00  0.00000000000E+00  0.38351457277E+03  0.38351457277E+03  0.00000000000E+00 0. -1.
         -2   -1    0    0    0  501 -0.00000000000E+00 -0.00000000000E+00 -0.47716047157E+02  0.47716047157E+02  0.00000000000E+00 0.  1.
          5    1    1    2  502    0 -0.91431041059E+02 -0.52930957823E+02  0.20076755803E+03  0.22690616193E+03  0.41800000000E+01 0. -1.
         -5    1    1    2    0  502  0.21818870378E+02  0.16732977500E+02  0.82537179385E+01  0.29011237485E+02  0.41800000000E+01 0. -1.
        -11    1    1    2    0    0 -0.17636504110E+02  0.47857425692E+01  0.55272231134E+02  0.58214853291E+02  0.00000000000E+00 0. -1.
         11    1    1    2    0    0  0.87248674791E+02  0.31412237754E+02  0.71505018511E+02  0.11709836722E+03  0.00000000000E+00 0.  1.
</event>
<event>
 6    1  0.6447971E-006  0.5758816E+02  0.7561462E-02  0.1408241E+00
         -1   -1    0    0    0  501 -0.00000000000E+00  0.00000000000E+00  0.41614108982E+03  0.41614108982E+03  0.00000000000E+00 0.  1.
          1   -1    0    0  501    0  0.00000000000E+00 -0.00000000000E+00 -0.49517055410E+02  0.49517055410E+02  0.00000000000E+00 0. -1.
          5    1    1    2  502    0 -0.24816044024E+02 -0.45092169274E+01  0.32709937728E+03  0.32809700409E+03  0.41800000000E+01 0.  1.
         -5    1    1    2    0  502  0.19970912227E+02  0.29925810613E+02  0.19165394493E+02  0.40977752770E+02  0.41800000000E+01 0.  1.
        -11    1    1    2    0    0  0.23041529029E+01  0.13850582716E+02  0.47007541482E+02  0.49059726032E+02  0.00000000000E+00 0.  1.
         11    1    1    2    0    0  0.25409788939E+01 -0.39267176401E+02 -0.26648278845E+02  0.47523662334E+02  0.00000000000E+00 0. -1.
</event>
<event>
 6    1  0.6447971E-006  0.1304865E+03  0.7561462E-02  0.1226736E+00
         -2   -1    0    0    0  501 -0.00000000000E+00  0.00000000000E+00  0.37722911411E+02  0.37722911411E+02  0.00000000000E+00 0.  1.
          2   -1    0    0  501    0  0.00000000000E+00 -0.00000000000E+00 -0.46544965301E+03  0.46544965301E+03  0.00000000000E+00 0. -1.
          5    1    1    2  502    0 -0.82320951339E+02  0.18852156819E+02 -0.10868684906E+03  0.13770419894E+03  0.41800000000E+01 0.  1.
         -5    1    1    2    0  502  0.42254097885E+02  0.40294248928E+02 -0.10000927631E+03  0.11588081391E+03  0.41800000000E+01 0.  1.
        -11    1    1    2    0    0 -0.84659521154E+01 -0.68019123260E+02 -0.14801597410E+03  0.16311652909E+03  0.00000000000E+00 0.  1.
         11    1    1    2    0    0  0.48532805569E+02  0.88727175128E+01 -0.71014642133E+02  0.86471022486E+02  0.00000000000E+00 0. -1.
</event>
<event>
 6    1  0.6447971E-006  0.9624662E+02  0.7561462E-02  0.1288393E+00
         -2   -1    0    0    0  501 -0.00000000000E+00  0.00000000000E+00  0.38010631071E+03  0.38010631071E+03  0.00000000000E+00 0.  1.
          2   -1    0    0  501    0  0.00000000000E+00 -0.00000000000E+00 -0.48230993442E+02  0.48230993442E+02  0.00000000000E+00 0. -1.
          5    1    1    2  502    0  0.58155145685E+02  0.36333988361E+02  0.20259285178E+03  0.21392408858E+03  0.41800000000E+01 0. -1.
         -5    1    1    2    0  502  0.13942579387E+02  0.11035928608E+01 -0.18155430998E+02  0.23296040692E+02  0.41800000000E+01 0. -1.
        -11    1    1    2    0    0 -0.87284452011E+02 -0.33632159174E+02  0.14841230311E+03  0.17543063988E+03  0.00000000000E+00 0.  1.
         11    1    1    2    0    0  0.15186726939E+02 -0.38054220478E+01 -0.97440663231E+00  0.15686535002E+02  0.00000000000E+00 0. -1.
</event>
<event>
 6    1  0.6447971E-006  0.1091166E+03  0.7561462E-02  0.1262215E+00
          2   -1    0    0  501    0  0.00000000000E+00  0.00000000000E+00  0.19742190985E+03  0.19742190985E+03  0.00000000000E+00 0. -1.
         -2   -1    0    0    0  501 -0.00000000000E+00 -0.00000000000E+00 -0.10117647083E+03  0.10117647083E+03  0.00000000000E+00 0.  1.
          5    1    1    2  502    0  0.25116972698E+02 -0.38642702662E+02 -0.53053317422E+01  0.46580465127E+02  0.41800000000E+01 0.  1.
         -5    1    1    2    0  502  0.52913667765E+02  0.70010039229E+02  0.92418601914E+02  0.12751443922E+03  0.41800000000E+01 0.  1.
        -11    1    1    2    0    0 -0.45480038960E+02 -0.18178330881E+02 -0.40601496596E+02  0.63618921582E+02  0.00000000000E+00 0.  1.
         11    1    1    2    0    0 -0.32550601502E+02 -0.13189005686E+02  0.49733665443E+02  0.60884554753E+02  0.00000000000E+00 0. -1.
</event>
<event>
 6    1  0.6447971E-006  0.1123226E+03  0.7561462E-02  0.1256328E+00
          2   -1    0    0  501    0  0.00000000000E+00  0.00000000000E+00  0.95914737803E+02  0.95914737803E+02  0.00000000000E+00 0. -1.
         -2   -1    0    0    0  501 -0.00000000000E+00 -0.00000000000E+00 -0.19729385451E+03  0.19729385451E+03  0.00000000000E+00 0.  1.
          5    1    1    2  502    0 -0.45801680799E+02 -0.51268755707E+02 -0.21748878625E+02  0.72227179076E+02  0.41800000000E+01 0. -1.
         -5    1    1    2    0  502  0.35825370899E+02  0.21567477766E+02 -0.86383663295E+02  0.96063640268E+02  0.41800000000E+01 0. -1.
        -11    1    1    2    0    0  0.54674678958E+02 -0.80170950142E+01  0.28922963940E+02  0.62370924113E+02  0.00000000000E+00 0. -1.
         11    1    1    2    0    0 -0.44698369058E+02  0.37718372955E+02 -0.22169538731E+02  0.62546848860E+02  0.00000000000E+00 0.  1.
</event>
<event>
 6    1  0.6447971E-006  0.1853150E+03  0.7561462E-02  0.1162756E+00
         -2   -1    0    0    0  501 -0.00000000000E+00  0.00000000000E+00  0.19715523138E+03  0.19715523138E+03  0.00000000000E+00 0.  1.
          2   -1    0    0  501    0  0.00000000000E+00 -0.00000000000E+00 -0.19910492834E+03  0.19910492834E+03  0.00000000000E+00 0. -1.
          5    1    1    2  502    0 -0.87307584731E+02 -0.33326978756E+02  0.76334527207E+01  0.93856506780E+02  0.41800000000E+01 0. -1.
         -5    1    1    2    0  502  0.11429568157E+02 -0.10815611137E+03  0.32562636815E+02  0.11360535714E+03  0.41800000000E+01 0. -1.
        -11    1    1    2    0    0  0.75062136360E+02  0.91913161887E+02  0.71504595711E+01  0.11888432493E+03  0.00000000000E+00 0.  1.
         11    1    1    2    0    0  0.81588021433E+00  0.49569928234E+02 -0.49296246075E+02  0.69913970869E+02  0.00000000000E+00 0. -1.
</event>
<event>
 6    1  0.6447971E-006  0.1524715E+03  0.7561462E-02  0.1197468E+00
         -4   -1    0    0    0  501 -0.00000000000E+00  0.00000000000E+00  0.32100978181E+03  0.32100978181E+03  0.00000000000E+00 0.  1.
          4   -1    0    0  501    0  0.00000000000E+00 -0.00000000000E+00 -0.78458986875E+02  0.78458986875E+02  0.00000000000E+00 0. -1.
          5    1    1    2  502    0  0.68114743760E+02 -0.43366397283E+02  0.92934028149E+02  0.12318469352E+03  0.41800000000E+01 0. -1.
         -5    1    1    2    0  502 -0.49106548009E+02 -0.82034228302E+02  0.74370388073E+02  0.12120022563E+03  0.41800000000E+01 0. -1.
        -11    1    1    2    0    0 -0.14855060627E+02  0.36751641941E+02  0.14551114031E+01  0.39667031156E+02  0.00000000000E+00 0. -1.
         11    1    1    2    0    0 -0.41531351232E+01  0.88648983644E+02  0.73791267309E+02  0.11541681837E+03  0.00000000000E+00 0.  1.
</event>
<event>
 6    1  0.6447971E-006  0.9891629E+02  0.7561462E-02  0.1282591E+00
         -2   -1    0    0    0  501 -0.00000000000E+00  0.00000000000E+00  0.18672220019E+03  0.18672220019E+03  0.00000000000E+00 0.  1.
          2   -1    0    0  501    0  0.00000000000E+00 -0.00000000000E+00 -0.68040454824E+02  0.68040454824E+02  0.00000000000E+00 0. -1.
          5    1    1    2  502    0 -0.98409792189E+01  0.59633034160E+02  0.78294675703E+02  0.98997334704E+02  0.41800000000E+01 0.  1.
         -5    1    1    2    0  502  0.37538439605E+00 -0.56874042345E+02  0.20112285400E+02  0.60471266153E+02  0.41800000000E+01 0.  1.
        -11    1    1    2    0    0  0.44614474402E+02  0.24771392019E+01 -0.13077584336E+02  0.46557606864E+02  0.00000000000E+00 0. -1.
         11    1    1    2    0    0 -0.35148879579E+02 -0.52361310161E+01  0.33352368604E+02  0.48736447297E+02  0.00000000000E+00 0.  1.
</event>
<event>
 6    1  0.6447971E-006  0.1018509E+03  0.7561462E-02  0.1276451E+00
          1   -1    0    0  501    0  0.00000000000E+00  0.00000000000E+00  0.79970951777E+03  0.79970951777E+03  0.00000000000E+00 0. -1.
         -1   -1    0    0    0  501 -0.00000000000E+00 -0.00000000000E+00 -0.23015908197E+02  0.23015908197E+02  0.00000000000E+00 0.  1.
          5    1    1    2  502    0  0.31625342235E+02  0.59687735074E+01  0.36564844341E+03  0.36708588246E+03  0.41800000000E+01 0.  1.
         -5    1    1    2    0  502  0.49215888783E+02 -0.29063885817E+01  0.35685500006E+02  0.61004738456E+02  0.41800000000E+01 0.  1.
        -11    1    1    2    0    0 -0.10122165233E+03 -0.45347518477E+00  0.30737118941E+03  0.32360945075E+03  0.00000000000E+00 0.  1.
         11    1    1    2    0    0  0.20380421314E+02 -0.26089097409E+01  0.67988476747E+02  0.71025354300E+02  0.00000000000E+00 0. -1.
</event>
<event>
 6    1  0.6447971E-006  0.7843592E+02  0.7561462E-02  0.1333550E+00
         -2   -1    0    0    0  501 -0.00000000000E+00  0.00000000000E+00  0.41361441051E+02  0.41361441051E+02  0.00000000000E+00 0.  1.
          2   -1    0    0  501    0  0.00000000000E+00 -0.00000000000E+00 -0.29256991372E+03  0.29256991372E+03  0.00000000000E+00 0. -1.
          5    1    1    2  502    0  0.20523148854E+02  0.22623365265E+02 -0.13360563411E+03  0.13711657143E+03  0.41800000000E+01 0. -1.
         -5    1    1    2    0  502 -0.37123293650E+02 -0.20612040284E+02  0.51300072871E+01  0.42974230776E+02  0.41800000000E+01 0. -1.
        -11    1    1    2    0    0 -0.84894306965E+01 -0.38315463305E+02 -0.24799972128E+02  0.46423956955E+02  0.00000000000E+00 0.  1.
         11    1    1    2    0    0  0.25089575492E+02  0.36304138324E+02 -0.97932873726E+02  0.10741659562E+03  0.00000000000E+00 0. -1.
</event>
<event>
 6    1  0.6447971E-006  0.1244106E+03  0.7561462E-02  0.1235993E+00
         -2   -1    0    0    0  501 -0.00000000000E+00  0.00000000000E+00  0.22003289901E+03  0.22003289901E+03  0.00000000000E+00 0.  1.
          2   -1    0    0  501    0  0.00000000000E+00 -0.00000000000E+00 -0.96037257658E+02  0.96037257658E+02  0.00000000000E+00 0. -1.
          5    1    1    2  502    0  0.53859933585E+02 -0.10293603955E+03  0.43310104825E+02  0.12405627056E+03  0.41800000000E+01 0. -1.
         -5    1    1    2    0  502 -0.36437337116E+02  0.10427584530E+02 -0.90250426725E+00  0.38140542329E+02  0.41800000000E+01 0. -1.
        -11    1    1    2    0    0 -0.11105496555E+02  0.38672189747E+02  0.90406051149E+02  0.98955163573E+02  0.00000000000E+00 0.  1.
         11    1    1    2    0    0 -0.63170999140E+01  0.53836265276E+02 -0.88180103581E+01  0.54918180204E+02  0.00000000000E+00 0. -1.
</event>
<event>
 6    1  0.6447971E-006  0.1483343E+03  0.7561462E-02  0.1202535E+00
          1   -1    0    0  501    0  0.00000000000E+00  0.00000000000E+00  0.67003824583E+02  0.67003824583E+02  0.00000000000E+00 0. -1.
         -1   -1    0    0    0  501 -0.00000000000E+00 -0.00000000000E+00 -0.46330436149E+03  0.46330436149E+03  0.00000000000E+00 0.  1.
          5    1    1    2  502    0  0.80676507118E+01  0.50124603710E+02  0.95469198235E+01  0.51828360607E+02  0.41800000000E+01 0.  1.
         -5    1    1    2    0  502  0.38705488827E+02  0.77555251738E+02 -0.17877726167E+03  0.19872522142E+03  0.41800000000E+01 0.  1.
        -11    1    1    2    0    0 -0.65823688227E+02 -0.61505169666E+02 -0.16005339330E+03  0.18366472861E+03  0.00000000000E+00 0.  1.
         11    1    1    2    0    0  0.19050548689E+02 -0.66174685782E+02 -0.67016801756E+02  0.96089875436E+02  0.00000000000E+00 0. -1.
</event>
<event>
 6    1  0.6447971E-006  0.1652352E+03  0.7561462E-02  0.1182910E+00
          2   -1    0    0  501    0  0.00000000000E+00  0.00000000000E+00  0.49334998373E+03  0.49334998373E+03  0.00000000000E+00 0. -1.
         -2   -1    0    0    0  501 -0.00000000000E+00 -0.00000000000E+00 -0.12873860673E+03  0.12873860673E+03  0.00000000000E+00 0.  1.
          5    1    1    2  502    0  0.26028197375E+02  0.11066826263E+03 -0.59024587683E+02  0.12816515035E+03  0.41800000000E+01 0. -1.
         -5    1    1    2    0  502 -0.50124142870E+02  0.18461500891E+02  0.20330501163E+02  0.57306704592E+02  0.41800000000E+01 0. -1.
        -11    1    1    2    0    0 -0.89019401998E+01 -0.12981667949E+03  0.27652179017E+03  0.30560745287E+03  0.00000000000E+00 0.  1.
         11    1    1    2    0    0  0.32997885695E+02  0.68691597043E+00  0.12678367334E+03  0.13100928265E+03  0.00000000000E+00 0. -1.
</event>
<event>
 6    1  0.6447971E-006  0.1014486E+03  0.7561462E-02  0.1277279E+00
         -2   -1    0    0    0  501 -0.00000000000E+00  0.00000000000E+00  0.14370136282E+02  0.14370136282E+02  0.00000000000E+00 0.  1.
          2   -1    0    0  501    0  0.00000000000E+00 -0.00000000000E+00 -0.81996034822E+03  0.81996034822E+03  0.00000000000E+00 0. -1.
          5    1    1    2  502    0  0.53618948135E+02 -0.33842433079E+02 -0.32136617542E+03  0.32758814536E+03  0.41800000000E+01 0. -1.
         -5    1    1    2    0  502 -0.43273850302E+02  0.34632959082E+02 -0.14241279828E+03  0.15287558827E+03  0.41800000000E+01 0. -1.
        -11    1    1    2    0    0 -0.38138463352E+02 -0.26072039503E+02 -0.25680798498E+03  0.26093032553E+03  0.00000000000E+00 0.  1.
         11    1    1    2    0    0  0.27793365519E+02  0.25281513500E+02 -0.85003253258E+02  0.92936425347E+02  0.00000000000E+00 0. -1.
</event>
<event>
 6    1  0.6447971E-006  0.1188757E+03  0.7561462E-02  0.1244963E+00
          1   -1    0    0  501    0  0.00000000000E+00  0.00000000000E+00  0.32272659200E+02  0.32272659200E+02  0.00000000000E+00 0. -1.
         -1   -1    0    0    0  501 -0.00000000000E+00 -0.00000000000E+00 -0.47187983099E+03  0.47187983099E+03  0.00000000000E+00 0.  1.
          5    1    1    2  502    0  0.26429146458E+02 -0.25317292021E+02 -0.68428947858E+02  0.77713952175E+02  0.41800000000E+01 0. -1.
         -5    1    1    2    0  502 -0.76648585732E+02  0.60627570571E+02 -0.20520870998E+03  0.22732970563E+03  0.41800000000E+01 0.  1.
        -11    1    1    2    0    0  0.54026127016E+02  0.12240059105E+02 -0.53816143168E+02  0.77232238817E+02  0.00000000000E+00 0.  1.
         11    1    1    2    0    0 -0.38066877411E+01 -0.47550337655E+02 -0.11215337078E+03  0.12187659357E+03  0.00000000000E+00 0. -1.
</event>
<event>
 6    1  0.6447971E-006  0.1418212E+03  0.7561462E-02  0.1210899E+00
          3   -1    0    0  501    0  0.00000000000E+00  0.00000000000E+00  0.47211261096E+02  0.47211261096E+02  0.00000000000E+00 0. -1.
         -3   -1    0    0    0  501 -0.00000000000E+00 -0.00000000000E+00 -0.57616852063E+03  0.57616852063E+03  0.00000000000E+00 0.  1.
          5    1    1    2  502    0 -0.10194548851E+03 -0.79933377080E+02 -0.25770118587E+03  0.28846074429E+03  0.41800000000E+01 0.  1.
         -5    1    1    2    0  502  0.28585999948E+02 -0.92707079560E-01 -0.12941911164E+03  0.13260447521E+03  0.41800000000E+01 0.  1.
        -11    1    1    2    0    0 -0.20010912641E+01  0.39541384852E+02 -0.36088196916E+01  0.39756119804E+02  0.00000000000E+00 0. -1.
         11    1    1    2    0    0  0.75360579828E+02  0.40484699307E+02 -0.13822814233E+03  0.16255844242E+03  0.00000000000E+00 0.  1.
</event>
<event>
 6    1  0.6447971E-006  0.9482281E+02  0.7561462E-02  0.1291576E+00
          2   -1    0    0  501    0  0.00000000000E+00  0.00000000000E+00  0.15209278464E+03  0.15209278464E+03  0.00000000000E+00 0. -1.
         -2   -1    0    0    0  501 -0.00000000000E+00 -0.00000000000E+00 -0.12379096280E+03  0.12379096280E+03  0.00000000000E+00 0.  1.
          5    1    1    2  502    0  0.64222822469E+02  0.80085321740E+01 -0.71893526344E+02  0.96823855757E+02  0.41800000000E+01 0. -1.
         -5    1    1    2    0  502 -0.26264781739E+02 -0.33991686712E+01  0.69988800303E+02  0.74948633579E+02  0.41800000000E+01 0.  1.
        -11    1    1    2    0    0  0.10279354127E+02 -0.37965060807E+02  0.21490711305E+02  0.44820326145E+02  0.00000000000E+00 0. -1.
         11    1    1    2    0    0 -0.48237394857E+02  0.33355697304E+02  0.87158365708E+01  0.59290931957E+02  0.00000000000E+00 0.  1.
</event>
<event>
 6    1  0.6447971E-006  0.1691200E+03  0.7561462E-02  0.1178769E+00
         -1   -1    0    0    0  501 -0.00000000000E+00  0.00000000000E+00  0.35389080598E+02  0.35389080598E+02  0.00000000000E+00 0.  1.
          1   -1    0    0  501    0  0.00000000000E+00 -0.00000000000E+00 -0.10124907136E+04  0.10124907136E+04  0.00000000000E+00 0. -1.
          5    1    1    2  502    0  0.45611742019E+02 -0.77161604388E+02 -0.44463392180E+03  0.45359799494E+03  0.41800000000E+01 0. -1.
         -5    1    1    2    0  502 -0.12343536552E+02 -0.70990797929E+02 -0.85667046625E+02  0.11201951420E+03  0.41800000000E+01 0. -1.
        -11    1    1    2    0    0  0.30242207033E+01  0.13882652711E+03 -0.29718712917E+03  0.32802765171E+03  0.00000000000E+00 0.  1.
         11    1    1    2    0    0 -0.36292426170E+02  0.93258752094E+01 -0.14961353543E+03  0.15423463337E+03  0.00000000000E+00 0. -1.
</event>
<event>
 6    1  0.6447971E-006  0.6588649E+02  0.7561462E-02  0.1374668E+00
         -2   -1    0    0    0  501 -0.00000000000E+00  0.00000000000E+00  0.46645153220E+02  0.46645153220E+02  0.00000000000E+00 0.  1.
          2   -1    0    0  501    0  0.00000000000E+00 -0.00000000000E+00 -0.34101183257E+03  0.34101183257E+03  0.00000000000E+00 0. -1.
          5    1    1    2  502    0 -0.13479821223E+02  0.22339417927E+02  0.24866885720E+02  0.36284839519E+02  0.41800000000E+01 0. -1.
         -5    1    1    2    0  502  0.39134341842E+02  0.14107879515E+02 -0.11998593685E+03  0.12706150643E+03  0.41800000000E+01 0. -1.
        -11    1    1    2    0    0 -0.31373906473E+02 -0.52347091122E+01 -0.18795728224E+03  0.19062965177E+03  0.00000000000E+00 0. -1.
         11    1    1    2    0    0  0.57193858543E+01 -0.31212588330E+02 -0.11290345980E+02  0.33680988067E+02  0.00000000000E+00 0.  1.
</event>
<event>
 6    1  0.6447971E-006  0.1281142E+03  0.7561462E-02  0.1230281E+00
         -1   -1    0    0    0  501 -0.00000000000E+00  0.00000000000E+00  0.18842562434E+03  0.18842562434E+03  0.00000000000E+00 0.  1.
          1   -1    0    0  501    0  0.00000000000E+00 -0.00000000000E+00 -0.13037416052E+03  0.13037416052E+03  0.00000000000E+00 0. -1.
          5    1    1    2  502    0  0.38712729223E+02 -0.17930424070E+01 -0.28707991479E+02  0.48409829370E+02  0.41800000000E+01 0.  1.
         -5    1    1    2    0  502  0.30728802626E+02 -0.79383271466E+02  0.98572646578E+02  0.13030733730E+03  0.41800000000E+01 0.  1.
        -11    1    1    2    0    0 -0.99115027588E+00  0.60514884610E+02  0.17200196447E+02  0.62919634424E+02  0.00000000000E+00 0.  1.
         11    1    1    2    0    0 -0.68450381572E+02  0.20661429263E+02 -0.29013387728E+02  0.77162983769E+02  0.00000000000E+00 0. -1.
</event>
<event>
 6    1  0.6447971E-006  0.1101147E+03  0.7561462E-02  0.1260358E+00
         -2   -1    0    0    0  501 -0.00000000000E+00  0.00000000000E+00  0.40431341873E+02  0.40431341873E+02  0.00000000000E+00 0. -1.
          2   -1    0    0  501    0  0.00000000000E+00 -0.00000000000E+00 -0.37590297793E+03  0.37590297793E+03  0.00000000000E+00 0.  1.
          5    1    1    2  502    0 -0.11815538677E+01  0.40777480333E+02 -0.49854531246E+02  0.64553432578E+02  0.41800000000E+01 0.  1.
         -5    1    1    2    0  502 -0.91035674815E+01 -0.95164386118E+02 -0.10469702701E+03  0.14183820075E+03  0.41800000000E+01 0.  1.
        -11    1    1    2    0    0 -0.26056941768E+02  0.15559040523E+02 -0.11638847636E+02  0.32504010992E+02  0.00000000000E+00 0. -1.
         11    1    1    2    0    0  0.36342063117E+02  0.38827865262E+02 -0.16928123016E+03  0.17743867549E+03  0.00000000000E+00 0.  1.
</event>
<event>
 6    1  0.6447971E-006  0.2430651E+03  0.7561462E-02  0.1117768E+00
          1   -1    0    0  501    0  0.00000000000E+00  0.00000000000E+00  0.89771550726E+03  0.89771550726E+03  0.00000000000E+00 0. -1.
         -1   -1    0    0    0  501 -0.00000000000E+00 -0.00000000000E+00 -0.72580545809E+02  0.72580545809E+02  0.00000000000E+00 0.  1.
          5    1    1    2  502    0  0.18010362252E+02  0.89031242547E+02  0.65686413659E+02  0.11217447409E+03  0.41800000000E+01 0.  1.
         -5    1    1    2    0  502 -0.74341162452E+02  0.13476263059E+03  0.31001050748E+03  0.34613806810E+03  0.41800000000E+01 0.  1.
        -11    1    1    2    0    0  0.57154373189E+02 -0.84941460449E+02  0.23728536405E+03  0.25842990939E+03  0.00000000000E+00 0.  1.
         11    1    1    2    0    0 -0.82357298862E+00 -0.13885241269E+03  0.21215267627E+03  0.25355360149E+03  0.00000000000E+00 0. -1.
</event>
<event>
 6    1  0.6447971E-006  0.1001089E+03  0.7561462E-02  0.1280067E+00
          2   -1    0    0  501    0  0.00000000000E+00  0.00000000000E+00  0.35711810762E+03  0.35711810762E+03  0.00000000000E+00 0. -1.
         -2   -1    0    0    0  501 -0.00000000000E+00 -0.00000000000E+00 -0.42656738619E+02  0.42656738619E+02  0.00000000000E+00 0.  1.
          5    1    1    2  502    0 -0.12644338865E+02  0.50091039533E+02  0.18863007323E+03  0.19562149287E+03  0.41800000000E+01 0.  1.
         -5    1    1    2    0  502 -0.31892106138E+02 -0.21063062170E+02  0.20017990814E+01  0.38499852226E+02  0.41800000000E+01 0.  1.
        -11    1    1    2    0    0  0.71415352554E+02 -0.38877974048E+02  0.88522985487E+02  0.12019970219E+03  0.00000000000E+00 0.  1.
         11    1    1    2    0    0 -0.26878907552E+02  0.98499966857E+01  0.35306511203E+02  0.45453798952E+02  0.00000000000E+00 0. -1.
</event>
<event>
 6    1  0.6447971E-006  0.1469921E+03  0.7561462E-02  0.1204219E+00
          1   -1    0    0  501    0  0.00000000000E+00  0.00000000000E+00  0.13205172030E+03  0.13205172030E+03  0.00000000000E+00 0. -1.
         -1   -1    0    0    0  501 -0.00000000000E+00 -0.00000000000E+00 -0.27594483374E+03  0.27594483374E+03  0.00000000000E+00 0.  1.
          5    1    1    2  502    0 -0.11211886523E+03  0.17785144869E+02 -0.16992681524E+03  0.20440045561E+03  0.41800000000E+01 0. -1.
         -5    1    1    2    0  502 -0.16801769787E+02  0.24806248931E+02  0.17550541265E+02  0.34973466409E+02  0.41800000000E+01 0. -1.
        -11    1    1    2    0    0  0.29008275067E+01  0.12330948153E+02  0.27085806581E+02  0.29901638763E+02  0.00000000000E+00 0. -1.
         11    1    1    2    0    0  0.12601980751E+03 -0.54922341953E+02 -0.18602646044E+02  0.13872099326E+03  0.00000000000E+00 0.  1.
</event>
<event>
 6    1  0.6447971E-006  0.1899056E+03  0.7561462E-02  0.1158546E+00
          2   -1    0    0  501    0  0.00000000000E+00  0.00000000000E+00  0.11490843846E+04  0.11490843846E+04  0.00000000000E+00 0. -1.
         -2   -1    0    0    0  501 -0.00000000000E+00 -0.00000000000E+00 -0.35512873897E+02  0.35512873897E+02  0.00000000000E+00 0.  1.
          5    1    1    2  502    0  0.14180688002E+03  0.77324002303E+02  0.47094434112E+03  0.49788978437E+03  0.41800000000E+01 0.  1.
         -5    1    1    2    0  502 -0.13721651402E+02  0.24680443856E+02  0.20952928593E+02  0.35410530111E+02  0.41800000000E+01 0.  1.
        -11    1    1    2    0    0  0.15895530499E+02 -0.11675610614E+02  0.31770741497E+02  0.37394756161E+02  0.00000000000E+00 0.  1.
         11    1    1    2    0    0 -0.14398075912E+03 -0.90328835545E+02  0.58990349945E+03  0.61390218780E+03  0.00000000000E+00 0. -1.
</event>
<event>
 6    1  0.6447971E-006  0.1169756E+03  0.7561462E-02  0.1248171E+00
          4   -1    0    0  501    0  0.00000000000E+00  0.00000000000E+00  0.61194888660E+03  0.61194888660E+03  0.00000000000E+00 0. -1.
         -4   -1    0    0    0  501 -0.00000000000E+00 -0.00000000000E+00 -0.22758850375E+02  0.22758850375E+02  0.00000000000E+00 0.  1.
          5    1    1    2  502    0 -0.85994697029E+02 -0.26751733550E+02  0.21995804984E+03  0.23771781434E+03  0.41800000000E+01 0. -1.
         -5    1    1    2    0  502  0.33166138579E+02  0.30638678124E+02  0.93960320605E+02  0.10432993623E+03  0.41800000000E+01 0. -1.
        -11    1    1    2    0    0  0.21066229336E+02 -0.43108072519E+02  0.11430139289E+03  0.12396330244E+03  0.00000000000E+00 0. -1.
         11    1    1    2    0    0  0.31762329114E+02  0.39221127945E+02  0.16097027289E+03  0.16869668397E+03  0.00000000000E+00 0.  1.
</event>
<event>
 6    1  0.6447971E-006  0.9640568E+02  0.7561462E-02  0.1288041E+00
          3   -1    0    0  501    0  0.00000000000E+00  0.00000000000E+00  0.51408178800E+02  0.51408178800E+02  0.00000000000E+00 0. -1.
         -3   -1    0    0    0  501 -0.00000000000E+00 -0.00000000000E+00 -0.28278277787E+03  0.28278277787E+03  0.00000000000E+00 0.  1.
          5    1    1    2  502    0  0.39565288818E+02  0.17553237378E+02 -0.10844977055E+03  0.11684328545E+03  0.41800000000E+01 0. -1.
         -5    1    1    2    0  502 -0.85758599582E+01 -0.57218088117E+02 -0.29887611355E+01  0.58084938452E+02  0.41800000000E+01 0. -1.
        -11    1    1    2    0    0 -0.34849331592E+02 -0.13969292650E+02 -0.13291221845E+02  0.39828050764E+02  0.00000000000E+00 0. -1.
         11    1    1    2    0    0  0.38599027318E+01  0.53634143389E+02 -0.10664484554E+03  0.11943468200E+03  0.00000000000E+00 0.  1.
</event>
<event>
 6    1  0.6447971E-006  0.1361155E+03  0.7561462E-02  0.1218654E+00
          1   -1    0    0  501    0  0.00000000000E+00  0.00000000000E+00  0.52673261814E+02  0.52673261814E+02  0.00000000000E+00 0. -1.
         -1   -1    0    0    0  501 -0.00000000000E+00 -0.00000000000E+00 -0.45863906717E+03  0.45863906717E+03  0.00000000000E+00 0.  1.
          5    1    1    2  502    0  0.12312845038E+02  0.34695436953E+02 -0.72104195357E+02  0.81067051793E+02  0.41800000000E+01 0. -1.
         -5    1    1    2    0  502  0.20461485486E+02 -0.11053736153E+03 -0.26119909910E+03  0.28439342899E+03  0.41800000000E+01 0. -1.
        -11    1    1    2    0    0  0.31761566310E+02  0.28140812174E+02 -0.42672000315E+02  0.60179747550E+02  0.00000000000E+00 0.  1.
         11    1    1    2    0    0 -0.64535896835E+02  0.47701112401E+02 -0.29990510580E+02  0.85672100648E+02  0.00000000000E+00 0. -1.
</event>
<event>
 6    1  0.1520018E-005  0.2324478E+03  0.7561462E-02  0.1124929E+00
          1   -1    0    0  501    0  0.00000000000E+00  0.00000000000E+00  0.14298115315E+04  0.14298115315E+04  0.00000000000E+00 0. -1.
         -1   -1    0    0    0  501 -0.00000000000E+00 -0.00000000000E+00 -0.42748731961E+02  0.42748731961E+02  0.00000000000E+00 0.  1.
          5    1    1    2  502    0  0.15468436617E+02 -0.56318570775E+02  0.86515810817E+02  0.10446775515E+03  0.41800000000E+01 0. -1.
         -5    1    1    2    0  502  0.18309957580E+03 -0.19015372639E+02  0.43469890129E+03  0.47208859999E+03  0.41800000000E+01 0. -1.
        -11    1    1    2    0    0 -0.12991950386E+03  0.14937648578E+02  0.38683899782E+03  0.40834620246E+03  0.00000000000E+00 0.  1.
         11    1    1    2    0    0 -0.68648508558E+02  0.60396294836E+02  0.47900908964E+03  0.48765770589E+03  0.00000000000E+00 0. -1.
</event>
<event>
 6    1  0.6447971E-006  0.1076842E+03  0.7561462E-02  0.1264920E+00
          1   -1    0    0  501    0  0.00000000000E+00  0.00000000000E+00  0.68026241595E+03  0.68026241595E+03  0.00000000000E+00 0. -1.
         -1   -1    0    0    0  501 -0.00000000000E+00 -0.00000000000E+00 -0.25372187236E+02  0.25372187236E+02  0.00000000000E+00 0.  1.
          5    1    1    2  502    0  0.38149907401E+02 -0.51268766249E+02  0.20535235496E+03  0.21510686627E+03  0.41800000000E+01 0.  1.
         -5    1    1    2    0  502  0.21175736622E+02  0.52080970482E+02  0.49958086587E+02  0.75326768969E+02  0.41800000000E+01 0.  1.
        -11    1    1    2    0    0 -0.59858460245E+02  0.28034548491E+02  0.36113508632E+03  0.36713420127E+03  0.00000000000E+00 0.  1.
         11    1    1    2    0    0  0.53281622161E+00 -0.28846752723E+02  0.38444700846E+02  0.48066766679E+02  0.00000000000E+00 0. -1.
</event>
<event>
 6    1  0.6447971E-006  0.9492757E+02  0.7561462E-02  0.1291339E+00
         -2   -1    0    0    0  501 -0.00000000000E+00  0.00000000000E+00  0.32362665585E+02  0.32362665585E+02  0.00000000000E+00 0.  1.
          2   -1    0    0  501    0  0.00000000000E+00 -0.00000000000E+00 -0.39295212740E+03  0.39295212740E+03  0.00000000000E+00 0. -1.
          5    1    1    2  502    0  0.42707879141E+02 -0.35094325987E+02 -0.23308695018E+02  0.60136031799E+02  0.41800000000E+01 0.  1.
         -5    1    1    2    0  502 -0.37623168160E+02  0.28377009761E+02 -0.12741475676E+03  0.13591449557E+03  0.41800000000E+01 0.  1.
        -11    1    1    2    0    0 -0.37944717416E+02 -0.21661163874E+02 -0.67347187670E+02  0.80278585484E+02  0.00000000000E+00 0.  1.
         11    1    1    2    0    0  0.32860006436E+02  0.28378480100E+02 -0.14251882236E+03  0.14898568013E+03  0.00000000000E+00 0. -1.
</event>
<event>
 6    1  0.6447971E-006  0.1515848E+03  0.7561462E-02  0.1198539E+00
         -1   -1    0    0    0  501 -0.00000000000E+00  0.00000000000E+00  0.38542878400E+03  0.38542878400E+03  0.00000000000E+00 0.  1.
          1   -1    0    0  501    0  0.00000000000E+00 -0.00000000000E+00 -0.75409600952E+02  0.75409600952E+02  0.00000000000E+00 0. -1.
          5    1    1    2  502    0  0.41935053886E+02 -0.38553843885E+02  0.27453749618E+02  0.63372931057E+02  0.41800000000E+01 0.  1.
         -5    1    1    2    0  502  0.79998890705E+02  0.68791171723E+02  0.18820671978E+03  0.21580382201E+03  0.41800000000E+01 0.  1.
        -11    1    1    2    0    0 -0.10802693617E+03 -0.94100776372E+00  0.10174594752E+03  0.14840128797E+03  0.00000000000E+00 0.  1.
         11    1    1    2    0    0 -0.13907008422E+02 -0.29296320074E+02 -0.73872338772E+01  0.33260343917E+02  0.00000000000E+00 0. -1.
</event>
<event>
 6    1  0.6447971E-006  0.9895012E+02  0.7561462E-02  0.1282519E+00
          2   -1    0    0  501    0  0.00000000000E+00  0.00000000000E+00  0.24671232997E+02  0.24671232997E+02  0.00000000000E+00 0.  1.
         -2   -1    0    0    0  501 -0.00000000000E+00 -0.00000000000E+00 -0.54732736503E+03  0.54732736503E+03  0.00000000000E+00 0. -1.
          5    1    1    2  502    0 -0.25857420134E+02  0.61762084909E+02 -0.13369026154E+03  0.14957847352E+03  0.41800000000E+01 0.  1.
         -5    1    1    2    0  502  0.45620150449E+02 -0.32611613422E+02 -0.22522563718E+03  0.23213956039E+03  0.41800000000E+01 0.  1.
        -11    1    1    2    0    0 -0.43935039796E+02 -0.23208362824E+02 -0.15673370283E+03  0.16442131683E+03  0.00000000000E+00 0. -1.
         11    1    1    2    0    0  0.24172309481E+02 -0.59421086631E+01 -0.70065304930E+01  0.25859247293E+02  0.00000000000E+00 0.  1.
</event>
<event>
 6    1  0.6447971E-006  0.8755013E+02  0.7561462E-02  0.1308895E+00
          2   -1    0    0  501    0  0.00000000000E+00  0.00000000000E+00  0.32308353204E+03  0.32308353204E+03  0.00000000000E+00 0.  1.
         -2   -1    0    0    0  501 -0.00000000000E+00 -0.00000000000E+00 -0.64167620808E+02  0.64167620808E+02  0.00000000000E+00 0. -1.
          5    1    1    2  502    0 -0.36642561440E+02  0.32886417590E+02 -0.31945808718E+02  0.58840469623E+02  0.41800000000E+01 0.  1.
         -5    1    1    2    0  502 -0.34578226652E+02 -0.13132785148E+02  0.90411882791E+02  0.97774765425E+02  0.41800000000E+01 0.  1.
        -11    1    1    2    0    0  0.17342151277E+02 -0.29007174342E+02  0.14426646058E+02  0.36746353434E+02  0.00000000000E+00 0. -1.
         11    1    1    2    0    0  0.53878636815E+02  0.92535418998E+01  0.18602319110E+03  0.19388956436E+03  0.00000000000E+00 0.  1.
</event>
<event>
 6    1  0.6447971E-006  0.2156869E+03  0.7561462E-02  0.1137140E+00
          2   -1    0    0  501    0  0.00000000000E+00  0.00000000000E+00  0.67865795800E+03  0.67865795800E+03  0.00000000000E+00 0. -1.
         -2   -1    0    0    0  501 -0.00000000000E+00 -0.00000000000E+00 -0.80266867382E+02  0.80266867382E+02  0.00000000000E+00 0.  1.
          5    1    1    2  502    0 -0.77964323031E+02  0.64563655827E+01  0.42288302755E+02  0.89027486049E+02  0.41800000000E+01 0.  1.
         -5    1    1    2    0  502 -0.10021981861E+03  0.97019585951E+02  0.28625052155E+03  0.31845509195E+03  0.41800000000E+01 0.  1.
        -11    1    1    2    0    0  0.85602186816E+02 -0.17999107916E+02  0.58023022503E+02  0.10496844008E+03  0.00000000000E+00 0.  1.
         11    1    1    2    0    0  0.92581954820E+02 -0.85476843618E+02  0.21182924381E+03  0.24647380730E+03  0.00000000000E+00 0. -1.
</event>
<event>
 6    1  0.6447971E-006  0.1462587E+03  0.7561462E-02  0.1205147E+00
          2   -1    0    0  501    0  0.00000000000E+00  0.00000000000E+00  0.11254808997E+04  0.11254808997E+04  0.00000000000E+00 0. -1.
         -2   -1    0    0    0  501 -0.00000000000E+00 -0.00000000000E+00 -0.21477260611E+02  0.21477260611E+02  0.00000000000E+00 0.  1.
          5    1    1    2  502    0 -0.95098386637E+02  0.62436848157E+02  0.38687704904E+03  0.40327829922E+03  0.41800000000E+01 0. -1.
         -5    1    1    2    0  502 -0.79684364384E+01 -0.42839802169E+02  0.78094163850E+02  0.89526060209E+02  0.41800000000E+01 0. -1.
        -11    1    1    2    0    0  0.45294391398E+01 -0.34892565187E+02  0.10086091884E+03  0.10682196345E+03  0.00000000000E+00 0.  1.
         11    1    1    2    0    0  0.98537383935E+02  0.15295519200E+02  0.53817150731E+03  0.54733183739E+03  0.00000000000E+00 0. -1.
</event>
<event>
 6    1  0.6447971E-006  0.1223908E+03  0.7561462E-02  0.1239204E+00
         -1   -1    0    0    0  501 -0.00000000000E+00  0.00000000000E+00  0.13031704291E+03  0.13031704291E+03  0.00000000000E+00 0.  1.
          1   -1    0    0  501    0  0.00000000000E+00 -0.00000000000E+00 -0.19093318883E+03  0.19093318883E+03  0.00000000000E+00 0. -1.
          5    1    1    2  502    0  0.70873627811E+02  0.27637001716E+02  0.29814127446E+02  0.81812160332E+02  0.41800000000E+01 0.  1.
         -5    1    1    2    0  502 -0.20140592716E+02 -0.58055551474E+02  0.36710208173E+02  0.71702177903E+02  0.41800000000E+01 0.  1.
        -11    1    1    2    0    0 -0.66238613166E+02  0.49299795439E+02 -0.81786833478E+02  0.11622009222E+03  0.00000000000E+00 0.  1.
         11    1    1    2    0    0  0.15505578071E+02 -0.18881245680E+02 -0.45353648062E+02  0.51515801287E+02  0.00000000000E+00 0. -1.
</event>
<event>
 6    1  0.6447971E-006  0.9290428E+02  0.7561462E-02  0.1295967E+00
          1   -1    0    0  501    0  0.00000000000E+00  0.00000000000E+00  0.10927280146E+03  0.10927280146E+03  0.00000000000E+00 0. -1.
         -1   -1    0    0    0  501 -0.00000000000E+00 -0.00000000000E+00 -0.12707081859E+03  0.12707081859E+03  0.00000000000E+00 0.  1.
          5    1    1    2  502    0 -0.14988855768E+02  0.53125518717E+02  0.29455127130E+02  0.62706167563E+02  0.41800000000E+01 0.  1.
         -5    1    1    2    0  502  0.37049247652E+02 -0.17858035864E+02 -0.59579395989E+02  0.72517122274E+02  0.41800000000E+01 0.  1.
        -11    1    1    2    0    0 -0.48164485180E+02 -0.39292913870E+01 -0.16624162118E+02  0.51104008938E+02  0.00000000000E+00 0.  1.
         11    1    1    2    0    0  0.26104093296E+02 -0.31338191465E+02  0.28950413848E+02  0.50016321267E+02  0.00000000000E+00 0. -1.
</event>
<event>
 6    1  0.6447971E-006  0.1045588E+03  0.7561462E-02  0.1270991E+00
          2   -1    0    0  501    0  0.00000000000E+00  0.00000000000E+00  0.22963119537E+03  0.22963119537E+03  0.00000000000E+00 0.  1.
         -2   -1    0    0    0  501 -0.00000000000E+00 -0.00000000000E+00 -0.90072543333E+02  0.90072543333E+02  0.00000000000E+00 0. -1.
          5    1    1    2  502    0 -0.29327975794E+02  0.51323870474E+02 -0.28815868301E+02  0.65894586352E+02  0.41800000000E+01 0.  1.
         -5    1    1    2    0  502  0.69070549249E+02  0.16062149038E+00  0.29166542393E+02  0.75092783728E+02  0.41800000000E+01 0.  1.
        -11    1    1    2    0    0 -0.78999016194E+01 -0.47979426544E+02  0.13837564309E+03  0.14667055744E+03  0.00000000000E+00 0.  1.
         11    1    1    2    0    0 -0.31842671835E+02 -0.35050654196E+01  0.83233484886E+00  0.32045811185E+02  0.00000000000E+00 0. -1.
</event>
<event>
 6    1  0.6447971E-006  0.1021846E+03  0.7561462E-02  0.1275768E+00
          2   -1    0    0  501    0  0.00000000000E+00  0.00000000000E+00  0.45185867462E+03  0.45185867462E+03  0.00000000000E+00 0. -1.
         -2   -1    0    0    0  501 -0.00000000000E+00 -0.00000000000E+00 -0.76643981004E+02  0.76643981004E+02  0.00000000000E+00 0.  1.
          5    1    1    2  502    0  0.58659416687E+02  0.25857977506E+02  0.68555612914E+02  0.93951618553E+02  0.41800000000E+01 0.  1.
         -5    1    1    2    0  502  0.87222597233E+01  0.19193969647E+02 -0.51760384755E+02  0.56045482560E+02  0.41800000000E+01 0.  1.
        -11    1    1    2    0    0 -0.82410424111E+02 -0.56348514875E+02  0.26429268081E+03  0.28251947590E+03  0.00000000000E+00 0.  1.
         11    1    1    2    0    0  0.15028747701E+02  0.11296567722E+02  0.94126784643E+02  0.95986078611E+02  0.00000000000E+00 0. -1.
</event>
<event>
 6    1  0.6447971E-006  0.1024607E+03  0.7561462E-02  0.1275205E+00
          2   -1    0    0  501    0  0.00000000000E+00  0.00000000000E+00  0.52629624747E+03  0.52629624747E+03  0.00000000000E+00 0. -1.
         -2   -1    0    0    0  501 -0.00000000000E+00 -0.00000000000E+00 -0.22216097274E+02  0.22216097274E+02  0.00000000000E+00 0.  1.
          5    1    1    2  502    0 -0.48439869178E+02 -0.34753028894E+01  0.70896598241E+02  0.86036612545E+02  0.41800000000E+01 0. -1.
         -5    1    1    2    0  502  0.66478063675E+02  0.23458423065E+02  0.23960529806E+03  0.24979552002E+03  0.41800000000E+01 0. -1.
        -11    1    1    2    0    0  0.13634905323E+02 -0.43836128415E+02  0.12872786108E+03  0.13666886630E+03  0.00000000000E+00 0. -1.
         11    1    1    2    0    0 -0.31673099821E+02  0.23853008239E+02  0.64850392816E+02  0.76011345881E+02  0.00000000000E+00 0.  1.
</event>
<event>
 6    1  0.6447971E-006  0.1214754E+03  0.7561462E-02  0.1240683E+00
          1   -1    0    0  501    0  0.00000000000E+00  0.00000000000E+00  0.18517940948E+03  0.18517940948E+03  0.00000000000E+00 0. -1.
         -1   -1    0    0    0  501 -0.00000000000E+00 -0.00000000000E+00 -0.10710637644E+03  0.10710637644E+03  0.00000000000E+00 0.  1.
          5    1    1    2  502    0 -0.34363692794E+02  0.63195375552E+02 -0.38526255203E+01  0.72158395195E+02  0.41800000000E+01 0. -1.
         -5    1    1    2    0  502  0.67580505770E+02 -0.79250782569E+02  0.58619439874E+02  0.11958897286E+03  0.41800000000E+01 0.  1.
        -11    1    1    2    0    0 -0.48784920224E+02  0.91853220285E+01  0.48979608187E+02  0.69737655540E+02  0.00000000000E+00 0. -1.
         11    1    1    2    0    0  0.15568107248E+02  0.68700849886E+01 -0.25673389507E+02  0.30800762325E+02  0.00000000000E+00 0.  1.
</event>
<event>
 6    1  0.6447971E-006  0.1397542E+03  0.7561462E-02  0.1213660E+00
          1   -1    0    0  501    0  0.00000000000E+00  0.00000000000E+00  0.44194760018E+03  0.44194760018E+03  0.00000000000E+00 0. -1.
         -1   -1    0    0    0  501 -0.00000000000E+00 -0.00000000000E+00 -0.26498008950E+03  0.26498008950E+03  0.00000000000E+00 0.  1.
          5    1    1    2  502    0 -0.73860010720E+02 -0.13790220063E+02 -0.34755878199E+02  0.82890981550E+02  0.41800000000E+01 0. -1.
         -5    1    1    2    0  502 -0.20494221092E+02 -0.70254241812E+02 -0.18330241205E+03  0.19741559780E+03  0.41800000000E+01 0.  1.
        -11    1    1    2    0    0  0.54860569949E+01  0.21739209531E+02  0.66807834304E+01  0.23394933631E+02  0.00000000000E+00 0.  1.
         11    1    1    2    0    0  0.88868174818E+02  0.62305252344E+02  0.38834501750E+03  0.40322617671E+03  0.00000000000E+00 0. -1.
</event>
<event>
 6    1  0.6447971E-006  0.1220843E+03  0.7561462E-02  0.1239698E+00
         -4   -1    0    0    0  501 -0.00000000000E+00  0.00000000000E+00  0.33918389339E+02  0.33918389339E+02  0.00000000000E+00 0.  1.
          4   -1    0    0  501    0  0.00000000000E+00 -0.00000000000E+00 -0.69879128077E+03  0.69879128077E+03  0.00000000000E+00 0. -1.
          5    1    1    2  502    0  0.21476068315E+02  0.59287914132E+02 -0.23243043041E+03  0.24086854434E+03  0.41800000000E+01 0. -1.
         -5    1    1    2    0  502  0.45710166975E+02  0.99082410698E+01 -0.91702247742E+01  0.47845146341E+02  0.41800000000E+01 0.  1.
        -11    1    1    2    0    0  0.76602807500E+01 -0.57799785257E+02 -0.19013620586E+03  0.19887501566E+03  0.00000000000E+00 0.  1.
         11    1    1    2    0    0 -0.74846516040E+02 -0.11396369945E+02 -0.23313603039E+03  0.24512096376E+03  0.00000000000E+00 0. -1.
</event>
<event>
 6    1  0.6447971E-006  0.1635857E+03  0.7561462E-02  0.1184707E+00
          2   -1    0    0  501    0  0.00000000000E+00  0.00000000000E+00  0.48940393737E+03  0.48940393737E+03  0.00000000000E+00 0. -1.
         -2   -1    0    0    0  501 -0.00000000000E+00 -0.00000000000E+00 -0.78223700235E+02  0.78223700235E+02  0.00000000000E+00 0.  1.
          5    1    1    2  502    0 -0.34459356805E+02  0.89018303861E+02  0.32734193035E+02  0.10099854201E+03  0.41800000000E+01 0. -1.
         -5    1    1    2    0  502  0.86706833382E+02  0.15528291767E+02  0.37932266677E+02  0.95997562759E+02  0.41800000000E+01 0.  1.
        -11    1    1    2    0    0 -0.60568064274E+02 -0.11506207973E+03  0.28101486024E+03  0.30964031436E+03  0.00000000000E+00 0. -1.
         11    1    1    2    0    0  0.83205876967E+01  0.10515484104E+02  0.59498917183E+02  0.60991218478E+02  0.00000000000E+00 0.  1.
</event>
<event>
 6    1  0.6447971E-006  0.2466756E+03  0.7561462E-02  0.1115424E+00
          2   -1    0    0  501    0  0.00000000000E+00  0.00000000000E+00  0.18276088209E+04  0.18276088209E+04  0.00000000000E+00 0. -1.
         -2   -1    0    0    0  501 -0.00000000000E+00 -0.00000000000E+00 -0.51108037585E+02  0.51108037585E+02  0.00000000000E+00 0.  1.
          5    1    1    2  502    0 -0.14345623518E+03 -0.16152582690E+03  0.27953341461E+03  0.35330820320E+03  0.41800000000E+01 0. -1.
         -5    1    1    2    0  502  0.31779562737E+01 -0.34528804779E+02  0.15682659653E+03  0.16066857671E+03  0.41800000000E+01 0. -1.
        -11    1    1    2    0    0  0.12938218720E+03  0.19005156929E+03  0.13265060692E+04  0.13462829201E+04  0.00000000000E+00 0. -1.
         11    1    1    2    0    0  0.10896091705E+02  0.60030623877E+01  0.13634702925E+02  0.18457158403E+02  0.00000000000E+00 0.  1.
</event>
<event>
 6    1  0.6447971E-006  0.1113227E+03  0.7561462E-02  0.1258140E+00
          1   -1    0    0  501    0  0.00000000000E+00  0.00000000000E+00  0.14724529422E+03  0.14724529422E+03  0.00000000000E+00 0. -1.
         -1   -1    0    0    0  501 -0.00000000000E+00 -0.00000000000E+00 -0.98837983015E+02  0.98837983015E+02  0.00000000000E+00 0.  1.
          5    1    1    2  502    0  0.88569207643E+02 -0.17766799771E+02  0.35833609635E+02  0.97271186361E+02  0.41800000000E+01 0. -1.
         -5    1    1    2    0  502 -0.38891305942E+02 -0.54406954493E+01 -0.12229358208E+02  0.41342042124E+02  0.41800000000E+01 0. -1.
        -11    1    1    2    0    0 -0.40573614380E+02  0.50020320974E+02  0.39512406182E+02  0.75561107300E+02  0.00000000000E+00 0. -1.
         11    1    1    2    0    0 -0.91042873209E+01 -0.26812825753E+02 -0.14709346408E+02  0.31908941446E+02  0.00000000000E+00 0.  1.
</event>
<event>
 6    1  0.6447971E-006  0.1417293E+03  0.7561462E-02  0.1211021E+00
         -3   -1    0    0    0  501 -0.00000000000E+00  0.00000000000E+00  0.38790261191E+02  0.38790261191E+02  0.00000000000E+00 0.  1.
          3   -1    0    0  501    0  0.00000000000E+00 -0.00000000000E+00 -0.63687085104E+03  0.63687085104E+03  0.00000000000E+00 0. -1.
          5    1    1    2  502    0  0.71032644216E+02 -0.80039796313E+02 -0.16665238273E+03  0.19809718475E+03  0.41800000000E+01 0.  1.
         -5    1    1    2    0  502 -0.45784887621E+02 -0.28294242668E+02 -0.16198005639E+03  0.17073907336E+03  0.41800000000E+01 0.  1.
        -11    1    1    2    0    0 -0.15083880322E+01  0.95270235178E+02 -0.26190407917E+03  0.27869775677E+03  0.00000000000E+00 0. -1.
         11    1    1    2    0    0 -0.23739368563E+02  0.13063803802E+02 -0.75440715648E+01  0.28127097350E+02  0.00000000000E+00 0.  1.
</event>
<event>
 6    1  0.6447971E-006  0.9414229E+02  0.7561462E-02  0.1293120E+00
         -1   -1    0    0    0  501 -0.00000000000E+00  0.00000000000E+00  0.38149914781E+02  0.38149914781E+02  0.00000000000E+00 0.  1.
          1   -1    0    0  501    0  0.00000000000E+00 -0.00000000000E+00 -0.35970913964E+03  0.35970913964E+03  0.00000000000E+00 0. -1.
          5    1    1    2  502    0  0.11907595991E+02 -0.31940476563E+02 -0.10291454254E+02  0.35852075477E+02  0.41800000000E+01 0.  1.
         -5    1    1    2    0  502 -0.28155579294E+02  0.73824743047E+02 -0.17628781662E+03  0.19322964581E+03  0.41800000000E+01 0.  1.
        -11    1    1    2    0    0 -0.21049729575E+02 -0.35729436277E+01  0.22787899178E+01  0.21472073137E+02  0.00000000000E+00 0.  1.
         11    1    1    2    0    0  0.37297712878E+02 -0.38311322856E+02 -0.13725874390E+03  0.14730526000E+03  0.00000000000E+00 0. -1.
</event>
<event>
 6    1  0.6447971E-006  0.2604219E+03  0.7561462E-02  0.1106890E+00
          1   -1    0    0  501    0  0.00000000000E+00  0.00000000000E+00  0.15289410860E+04  0.15289410860E+04  0.00000000000E+00 0. -1.
         -1   -1    0    0    0  501 -0.00000000000E+00 -0.00000000000E+00 -0.52712487776E+02  0.52712487776E+02  0.00000000000E+00 0.  1.
          5    1    1    2  502    0 -0.89858243099E+02 -0.71148516114E+02  0.18112708218E+03  0.21438541811E+03  0.41800000000E+01 0.  1.
         -5    1    1    2    0  502 -0.15343989422E+03  0.39786373144E+02  0.33358180687E+03  0.36935220441E+03  0.41800000000E+01 0.  1.
        -11    1    1    2    0    0  0.16862362299E+03  0.60389339743E+01  0.80687599127E+03  0.82432958229E+03  0.00000000000E+00 0. -1.
         11    1    1    2    0    0  0.74674514324E+02  0.25323208996E+02  0.15464371788E+03  0.17358636894E+03  0.00000000000E+00 0.  1.
</event>
<event>
 6    1  0.6447971E-006  0.1386352E+03  0.7561462E-02  0.1215177E+00
          1   -1    0    0  501    0  0.00000000000E+00  0.00000000000E+00  0.76965410463E+02  0.76965410463E+02  0.00000000000E+00 0. -1.
         -1   -1    0    0    0  501 -0.00000000000E+00 -0.00000000000E+00 -0.29092280226E+03  0.29092280226E+03  0.00000000000E+00 0.  1.
          5    1    1    2  502    0 -0.10305549330E+03 -0.53547473583E+02 -0.44452245169E+02  0.12442363573E+03  0.41800000000E+01 0.  1.
         -5    1    1    2    0  502  0.31023108016E+01  0.33517021837E+02 -0.56560290314E+02  0.65951148023E+02  0.41800000000E+01 0.  1.
        -11    1    1    2    0    0  0.12848907261E+02 -0.25720217496E+02 -0.14116426625E+01  0.28785703758E+02  0.00000000000E+00 0. -1.
         11    1    1    2    0    0  0.87104275238E+02  0.45750669243E+02 -0.11153321366E+03  0.14872772522E+03  0.00000000000E+00 0.  1.
</event>
<event>
 6    1  0.6447971E-006  0.1183127E+03  0.7561462E-02  0.1245907E+00
          1   -1    0    0  501    0  0.00000000000E+00  0.00000000000E+00  0.33843057884E+03  0.33843057884E+03  0.00000000000E+00 0. -1.
         -1   -1    0    0    0  501 -0.00000000000E+00 -0.00000000000E+00 -0.62917147878E+02  0.62917147878E+02  0.00000000000E+00 0.  1.
          5    1    1    2  502    0 -0.27840443228E+02 -0.43929180486E+02  0.75821336731E+01  0.52724039378E+02  0.41800000000E+01 0. -1.
         -5    1    1    2    0  502  0.75497030095E+02  0.30988859358E+02  0.27131773827E+02  0.86102941346E+02  0.41800000000E+01 0.  1.
        -11    1    1    2    0    0 -0.73342794468E+02 -0.13180557949E+01  0.19231684013E+03  0.20583165395E+03  0.00000000000E+00 0. -1.
         11    1    1    2    0    0  0.25686207601E+02  0.14258376923E+02  0.48482683338E+02  0.56689092047E+02  0.00000000000E+00 0.  1.
</event>
<event>
 6    1  0.6447971E-006  0.1653691E+03  0.7561462E-02  0.1182765E+00
         -3   -1    0    0    0  501 -0.00000000000E+00  0.00000000000E+00  0.15056948240E+03  0.15056948240E+03  0.00000000000E+00 0.  1.
          3   -1    0    0  501    0  0.00000000000E+00 -0.00000000000E+00 -0.24952342663E+03  0.24952342663E+03  0.00000000000E+00 0. -1.
          5    1    1    2  502    0  0.42081136503E+02  0.24793960336E+02 -0.17313886326E+02  0.51988513907E+02  0.41800000000E+01 0. -1.
         -5    1    1    2    0  502  0.69670719484E+02 -0.11531088873E+03  0.36079062039E+02  0.13953415829E+03  0.41800000000E+01 0. -1.
        -11    1    1    2    0    0 -0.45998809529E+02  0.56626688988E+02 -0.41996854917E+01  0.73076054505E+02  0.00000000000E+00 0. -1.
         11    1    1    2    0    0 -0.65753046458E+02  0.33890239407E+02 -0.11351943445E+03  0.13549418232E+03  0.00000000000E+00 0.  1.
</event>
<event>
 6    1  0.6447971E-006  0.2210099E+03  0.7561462E-02  0.1133132E+00
         -1   -1    0    0    0  501 -0.00000000000E+00  0.00000000000E+00  0.57525062528E+02  0.57525062528E+02  0.00000000000E+00 0.  1.
          1   -1    0    0  501    0  0.00000000000E+00 -0.00000000000E+00 -0.11552805688E+04  0.11552805688E+04  0.00000000000E+00 0. -1.
          5    1    1    2  502    0 -0.10074490202E+03  0.33943306987E+02 -0.11315544930E+03  0.15531681003E+03  0.41800000000E+01 0. -1.
         -5    1    1    2    0  502 -0.11646484962E+02  0.12769290163E+03 -0.16124211014E+03  0.20605244046E+03  0.41800000000E+01 0.  1.
        -11    1    1    2    0    0 -0.87147922001E+01 -0.12085049757E+02 -0.17804785297E+02  0.23216511585E+02  0.00000000000E+00 0.  1.
         11    1    1    2    0    0  0.12110617918E+03 -0.14955115886E+03 -0.80555316150E+03  0.82821986922E+03  0.00000000000E+00 0. -1.
</event>
<event>
 6    1  0.6447971E-006  0.1167757E+03  0.7561462E-02  0.1248513E+00
          2   -1    0    0  501    0  0.00000000000E+00  0.00000000000E+00  0.17418328688E+03  0.17418328688E+03  0.00000000000E+00 0. -1.
         -2   -1    0    0    0  501 -0.00000000000E+00 -0.00000000000E+00 -0.13394158680E+03  0.13394158680E+03  0.00000000000E+00 0.  1.
          5    1    1    2  502    0  0.89537181292E+02  0.10332772890E+02 -0.39115890007E+02  0.98342250739E+02  0.41800000000E+01 0. -1.
         -5    1    1    2    0  502 -0.18557380298E+02 -0.47980772926E+02  0.11482403282E+02  0.52875787647E+02  0.41800000000E+01 0. -1.
        -11    1    1    2    0    0 -0.45214130629E+02  0.46120178099E+02  0.97366126916E+02  0.11683985239E+03  0.00000000000E+00 0. -1.
         11    1    1    2    0    0 -0.25765670365E+02 -0.84721780628E+01 -0.29490940112E+02  0.40066982905E+02  0.00000000000E+00 0.  1.
</event>
<event>
 6    1  0.6447971E-006  0.1643393E+03  0.7561462E-02  0.1183883E+00
          1   -1    0    0  501    0  0.00000000000E+00  0.00000000000E+00  0.23515461436E+03  0.23515461436E+03  0.00000000000E+00 0. -1.
         -1   -1    0    0    0  501 -0.00000000000E+00 -0.00000000000E+00 -0.23560718715E+03  0.23560718715E+03  0.00000000000E+00 0.  1.
          5    1    1    2  502    0  0.43320775784E+01  0.13935749277E+03  0.11545834164E+02  0.13996448255E+03  0.41800000000E+01 0. -1.
         -5    1    1    2    0  502 -0.59134293572E+01 -0.12411743220E+03 -0.13074220711E+03  0.18041924161E+03  0.41800000000E+01 0.  1.
        -11    1    1    2    0    0  0.29587051374E+02  0.53962165543E+01  0.38346952608E+01  0.30318602373E+02  0.00000000000E+00 0.  1.
         11    1    1    2    0    0 -0.28005699595E+02 -0.20636277126E+02  0.11490910489E+03  0.12005947497E+03  0.00000000000E+00 0. -1.
</event>
<event>
 6    1  0.6447971E-006  0.1129665E+03  0.7561462E-02  0.1255173E+00
         -2   -1    0    0    0  501 -0.00000000000E+00  0.00000000000E+00  0.28345666860E+03  0.28345666860E+03  0.00000000000E+00 0.  1.
          2   -1    0    0  501    0  0.00000000000E+00 -0.00000000000E+00 -0.77020897106E+02  0.77020897106E+02  0.00000000000E+00 0. -1.
          5    1    1    2  502    0 -0.89907743090E+01 -0.21874196008E+02 -0.70485463744E+01  0.25029360352E+02  0.41800000000E+01 0. -1.
         -5    1    1    2    0  502  0.85232945296E+02  0.97178901463E+01  0.19900354193E+03  0.21674633666E+03  0.41800000000E+01 0. -1.
        -11    1    1    2    0    0 -0.44805453116E+02 -0.36710737483E+02 -0.30644797522E+01  0.58005154182E+02  0.00000000000E+00 0.  1.
         11    1    1    2    0    0 -0.31436717871E+02  0.48867043345E+02  0.17545255690E+02  0.60696714516E+02  0.00000000000E+00 0. -1.
</event>
<event>
 6    1  0.6447971E-006  0.1079728E+03  0.7561462E-02  0.1264371E+00
         -1   -1    0    0    0  501 -0.00000000000E+00  0.00000000000E+00  0.32372941432E+02  0.32372941432E+02  0.00000000000E+00 0.  1.
          1   -1    0    0  501    0  0.00000000000E+00 -0.00000000000E+00 -0.38599065729E+03  0.38599065729E+03  0.00000000000E+00 0. -1.
          5    1    1    2  502    0 -0.50629404045E+02  0.14679140257E+02 -0.11317406807E+03  0.12491859668E+03  0.41800000000E+01 0. -1.
         -5    1    1    2    0  502  0.71826295897E+02  0.39088756154E+01 -0.89291109590E+02  0.11473739906E+03  0.41800000000E+01 0. -1.
        -11    1    1    2    0    0 -0.50402516545E+02  0.85753279498E+01 -0.11050869045E+03  0.12176255824E+03  0.00000000000E+00 0. -1.
         11    1    1    2    0    0  0.29205624694E+02 -0.27163343822E+02 -0.40643847738E+02  0.56945044739E+02  0.00000000000E+00 0.  1.
</event>
<event>
 6    1  0.6447971E-006  0.1140758E+03  0.7561462E-02  0.1253203E+00
          1   -1    0    0  501    0  0.00000000000E+00  0.00000000000E+00  0.35255886449E+03  0.35255886449E+03  0.00000000000E+00 0. -1.
         -1   -1    0    0    0  501 -0.00000000000E+00 -0.00000000000E+00 -0.41071556482E+02  0.41071556482E+02  0.00000000000E+00 0.  1.
          5    1    1    2  502    0 -0.70217418413E+02 -0.23589451466E+02  0.78030382009E+02  0.10767154213E+03  0.41800000000E+01 0.  1.
         -5    1    1    2    0  502  0.55340430149E+02 -0.17309255594E+02  0.54210225555E+02  0.79488329288E+02  0.41800000000E+01 0.  1.
        -11    1    1    2    0    0 -0.27707836434E+02  0.45207313863E+02  0.61586958768E+02  0.81267329948E+02  0.00000000000E+00 0.  1.
         11    1    1    2    0    0  0.42584824698E+02 -0.43086068027E+01  0.11765974167E+03  0.12520321960E+03  0.00000000000E+00 0. -1.
</event>
<event>
 6    1  0.6447971E-006  0.1805420E+03  0.7561462E-02  0.1167279E+00
          2   -1    0    0  501    0  0.00000000000E+00  0.00000000000E+00  0.29155161373E+03  0.29155161373E+03  0.00000000000E+00 0. -1.
         -2   -1    0    0    0  501 -0.00000000000E+00 -0.00000000000E+00 -0.14453683873E+03  0.14453683873E+03  0.00000000000E+00 0.  1.
          5    1    1    2  502    0 -0.92804960018E+01  0.83412726027E+02 -0.44594004168E+02  0.95131004815E+02  0.41800000000E+01 0.  1.
         -5    1    1    2    0  502 -0.35194937242E+02  0.79713550922E+02  0.79580066047E+02  0.11808214565E+03  0.41800000000E+01 0.  1.
        -11    1    1    2    0    0  0.64672175907E+02 -0.73324140760E+02  0.38538854701E+02  0.10509121408E+03  0.00000000000E+00 0. -1.
         11    1    1    2    0    0 -0.20196742664E+02 -0.89802136189E+02  0.73489858414E+02  0.11778408792E+03  0.00000000000E+00 0.  1.
</event>
<event>
 6    1  0.6447971E-006  0.2384337E+03  0.7561462E-02  0.1120841E+00
         -2   -1    0    0    0  501 -0.00000000000E+00  0.00000000000E+00  0.45103133516E+02  0.45103133516E+02  0.00000000000E+00 0.  1.
          2   -1    0    0  501    0  0.00000000000E+00 -0.00000000000E+00 -0.13390014686E+04  0.13390014686E+04  0.00000000000E+00 0. -1.
          5    1    1    2  502    0 -0.15260660148E+03  0.21009862641E+02 -0.32011713399E+03  0.35527825858E+03  0.41800000000E+01 0.  1.
         -5    1    1    2    0  502 -0.43585560053E+02  0.79097483966E+02 -0.33860800274E+03  0.35046963483E+03  0.41800000000E+01 0.  1.
        -11    1    1    2    0    0  0.59636989315E+02 -0.71019447261E+02 -0.32959308376E+03  0.34239149120E+03  0.00000000000E+00 0.  1.
         11    1    1    2    0    0  0.13655517222E+03 -0.29087899346E+02 -0.30558011462E+03  0.33596521754E+03  0.00000000000E+00 0. -1.
</event>
<event>
 6    1  0.6447971E-006  0.8090428E+02  0.7561462E-02  0.1326505E+00
         -2   -1    0    0    0  501 -0.00000000000E+00  0.00000000000E+00  0.25845005295E+02  0.25845005295E+02  0.00000000000E+00 0.  1.
          2   -1    0    0  501    0  0.00000000000E+00 -0.00000000000E+00 -0.51202204254E+03  0.51202204254E+03  0.00000000000E+00 0. -1.
          5    1    1    2  502    0  0.51309839997E+01  0.98681159655E+01 -0.17249427876E+03  0.17290302286E+03  0.41800000000E+01 0. -1.
         -5    1    1    2    0  502  0.25467812640E+02 -0.53103757804E+02 -0.34645039555E+02  0.68457064933E+02  0.41800000000E+01 0.  1.
        -11    1    1    2    0    0 -0.31485200445E+02  0.63353642631E+02 -0.25741344480E+03  0.26695820543E+03  0.00000000000E+00 0. -1.
         11    1    1    2    0    0  0.88640380587E+00 -0.20118000793E+02 -0.21624274133E+02  0.29548754617E+02  0.00000000000E+00 0.  1.
</event>
<event>
 6    1  0.6447971E-006  0.1018952E+03  0.7561462E-02  0.1276360E+00
         -2   -1    0    0    0  501 -0.00000000000E+00  0.00000000000E+00  0.33242570533E+02  0.33242570533E+02  0.00000000000E+00 0. -1.
          2   -1    0    0  501    0  0.00000000000E+00 -0.00000000000E+00 -0.61555903182E+03  0.61555903182E+03  0.00000000000E+00 0.  1.
          5    1    1    2  502    0  0.68296188325E+02  0.39256254353E+01 -0.23537577254E+02  0.72465645777E+02  0.41800000000E+01 0. -1.
         -5    1    1    2    0  502 -0.38220117624E+02  0.14841641187E+02 -0.19480477946E+03  0.19911661458E+03  0.41800000000E+01 0.  1.
        -11    1    1    2    0    0 -0.45514437321E+02  0.21923732935E+02 -0.25343548728E+03  0.25842167147E+03  0.00000000000E+00 0.  1.
         11    1    1    2    0    0  0.15438366620E+02 -0.40690999557E+02 -0.11053861729E+03  0.11879767052E+03  0.00000000000E+00 0. -1.
</event>
<event>
 6    1  0.6447971E-006  0.1000449E+03  0.7561462E-02  0.1280201E+00
         -4   -1    0    0    0  501 -0.00000000000E+00  0.00000000000E+00  0.34144669700E+02  0.34144669700E+02  0.00000000000E+00 0. -1.
          4   -1    0    0  501    0  0.00000000000E+00 -0.00000000000E+00 -0.36936108468E+03  0.36936108468E+03  0.00000000000E+00 0.  1.
          5    1    1    2  502    0 -0.49028629943E+02 -0.17010783067E+02 -0.11825371962E+03  0.12920753809E+03  0.41800000000E+01 0.  1.
         -5    1    1    2    0  502  0.65707956758E+02  0.10386037804E+02 -0.62741206342E+02  0.91538717141E+02  0.41800000000E+01 0.  1.
        -11    1    1    2    0    0 -0.47085889592E+01 -0.36404516180E+02 -0.12275195541E+03  0.12812299623E+03  0.00000000000E+00 0.  1.
         11    1    1    2    0    0 -0.11970737856E+02  0.43029261444E+02 -0.31469533610E+02  0.54636502915E+02  0.00000000000E+00 0. -1.
</event>
<event>
 6    1  0.6447971E-006  0.9767711E+02  0.7561462E-02  0.1285258E+00
         -1   -1    0    0    0  501 -0.00000000000E+00  0.00000000000E+00  0.55869091252E+02  0.55869091252E+02  0.00000000000E+00 0.  1.
          1   -1    0    0  501    0  0.00000000000E+00 -0.00000000000E+00 -0.34365511987E+03  0.34365511987E+03  0.00000000000E+00 0. -1.
          5    1    1    2  502    0  0.35870446200E+02  0.15796257928E+02 -0.39344977166E+02  0.55693000488E+02  0.41800000000E+01 0.  1.
         -5    1    1    2    0  502 -0.63927100023E+02 -0.57642639036E+02 -0.52439254295E+01  0.86338398794E+02  0.41800000000E+01 0.  1.
        -11    1    1    2    0    0  0.27149079359E+02 -0.74313573282E+00 -0.31678330671E+02  0.41726986410E+02  0.00000000000E+00 0.  1.
         11    1    1    2    0    0  0.90757446374E+00  0.42589516841E+02 -0.21151879535E+03  0.21576582543E+03  0.00000000000E+00 0. -1.
</event>
<event>
 6    1  0.6447971E-006  0.1053438E+03  0.7561462E-02  0.1269444E+00
          2   -1    0    0  501    0  0.00000000000E+00  0.00000000000E+00  0.77509413485E+02  0.77509413485E+02  0.00000000000E+00 0.  1.
         -2   -1    0    0    0  501 -0.00000000000E+00 -0.00000000000E+00 -0.33287792854E+03  0.33287792854E+03  0.00000000000E+00 0. -1.
          5    1    1    2  502    0  0.69917091496E+01  0.41033742668E+02 -0.16334471404E+03  0.16861678457E+03  0.41800000000E+01 0. -1.
         -5    1    1    2    0  502  0.62805231771E+02 -0.55990992681E+02 -0.93536269970E+02  0.12588087464E+03  0.41800000000E+01 0. -1.
        -11    1    1    2    0    0 -0.52672057384E+02 -0.10714047096E+02 -0.37947380710E+02  0.65796201539E+02  0.00000000000E+00 0. -1.
         11    1    1    2    0    0 -0.17124883536E+02  0.25671297109E+02  0.39459849663E+02  0.50093481281E+02  0.00000000000E+00 0.  1.
</event>
<event>
 6    1  0.6447971E-006  0.1199420E+03  0.7561462E-02  0.1243193E+00
          2   -1    0    0  501    0  0.00000000000E+00  0.00000000000E+00  0.11322671612E+03  0.11322671612E+03  0.00000000000E+00 0. -1.
         -2   -1    0    0    0  501 -0.00000000000E+00 -0.00000000000E+00 -0.13974013685E+03  0.13974013685E+03  0.00000000000E+00 0.  1.
          5    1    1    2  502    0 -0.21602747032E+01  0.61589155652E+02 -0.22425690328E+02  0.65713582062E+02  0.41800000000E+01 0. -1.
         -5    1    1    2    0  502 -0.52791852203E+02 -0.53243790490E+02 -0.24194530786E+02  0.78896949274E+02  0.41800000000E+01 0. -1.
        -11    1    1    2    0    0  0.36588532840E+02 -0.47390780880E+02 -0.19377990693E+01  0.59902937432E+02  0.00000000000E+00 0.  1.
         11    1    1    2    0    0  0.18363594067E+02  0.39045415718E+02  0.22044599455E+02  0.48453384203E+02  0.00000000000E+00 0. -1.
</event>
<event>
 6    1  0.6447971E-006  0.9761646E+02  0.7561462E-02  0.1285390E+00
          2   -1    0    0  501    0  0.00000000000E+00  0.00000000000E+00  0.53839154234E+02  0.53839154234E+02  0.00000000000E+00 0. -1.
         -2   -1    0    0    0  501 -0.00000000000E+00 -0.00000000000E+00 -0.24757327498E+03  0.24757327498E+03  0.00000000000E+00 0.  1.
          5    1    1    2  502    0  0.48427610700E+02 -0.82209009848E+02 -0.11126263408E+03  0.14663015011E+03  0.41800000000E+01 0.  1.
         -5    1    1    2    0  502 -0.27464024516E+02  0.30496150642E+02 -0.56072810461E+02  0.69612644825E+02  0.41800000000E+01 0.  1.
        -11    1    1    2    0    0  0.72276065634E+00  0.20254925247E+02 -0.39812683842E+02  0.44674759926E+02  0.00000000000E+00 0.  1.
         11    1    1    2    0    0 -0.21686346841E+02  0.31457933959E+02  0.13414007636E+02  0.40494874356E+02  0.00000000000E+00 0. -1.
</event>
<event>
 6    1  0.6447971E-006  0.1270303E+03  0.7561462E-02  0.1231930E+00
         -2   -1    0    0    0  501 -0.00000000000E+00  0.00000000000E+00  0.13255337527E+03  0.13255337527E+03  0.00000000000E+00 0.  1.
          2   -1    0    0  501    0  0.00000000000E+00 -0.00000000000E+00 -0.17441250354E+03  0.17441250354E+03  0.00000000000E+00 0. -1.
          5    1    1    2  502    0  0.34051568739E+02  0.10088869758E+03  0.57282808237E+02  0.12098277213E+03  0.41800000000E+01 0. -1.
         -5    1    1    2    0  502 -0.33086172689E+00 -0.33639650315E+02 -0.36755146097E+01  0.34098641475E+02  0.41800000000E+01 0. -1.
        -11    1    1    2    0    0 -0.50950261073E+02 -0.76038398575E+01 -0.64378383495E+02  0.82451948100E+02  0.00000000000E+00 0. -1.
         11    1    1    2    0    0  0.17229554061E+02 -0.59645207408E+02 -0.31088038398E+02  0.69432517103E+02  0.00000000000E+00 0.  1.
</event>
<event>
 6    1  0.6447971E-006  0.1087107E+03  0.7561462E-02  0.1262976E+00
          2   -1    0    0  501    0  0.00000000000E+00  0.00000000000E+00  0.42830357247E+03  0.42830357247E+03  0.00000000000E+00 0. -1.
         -2   -1    0    0    0  501 -0.00000000000E+00 -0.00000000000E+00 -0.83901054964E+02  0.83901054964E+02  0.00000000000E+00 0.  1.
          5    1    1    2  502    0 -0.28844250709E+02 -0.43739175284E+02  0.10014212392E+02  0.53505729631E+02  0.41800000000E+01 0. -1.
         -5    1    1    2    0  502 -0.44942192402E+02  0.71291756320E+02 -0.17763294218E+02  0.86228314367E+02  0.41800000000E+01 0.  1.
        -11    1    1    2    0    0  0.74162565820E+01 -0.88111738210E+01 -0.19802702804E+01  0.11685851110E+02  0.00000000000E+00 0.  1.
         11    1    1    2    0    0  0.66370186529E+02 -0.18741407215E+02  0.35413186962E+03  0.36078473233E+03  0.00000000000E+00 0. -1.
</event>
<event>
 6    1  0.1257731E-005  0.1481645E+03  0.7561462E-02  0.1202747E+00
         -1   -1    0    0    0  501 -0.00000000000E+00  0.00000000000E+00  0.97163961801E+02  0.97163961801E+02  0.00000000000E+00 0.  1.
          1   -1    0    0  501    0  0.00000000000E+00 -0.00000000000E+00 -0.33018504893E+03  0.33018504893E+03  0.00000000000E+00 0. -1.
          5    1    1    2  502    0  0.34982668866E+02 -0.79717435113E+02 -0.84191232159E+02  0.12117876280E+03  0.41800000000E+01 0. -1.
         -5    1    1    2    0  502 -0.45675724958E+02 -0.55218885052E+02  0.19108806455E+02  0.74283349419E+02  0.41800000000E+01 0. -1.
        -11    1    1    2    0    0 -0.50350926964E+01  0.82300495719E+02 -0.37953967005E+02  0.90770189850E+02  0.00000000000E+00 0. -1.
         11    1    1    2    0    0  0.15728148788E+02  0.52635824446E+02 -0.12998469442E+03  0.14111670866E+03  0.00000000000E+00 0.  1.
</event>
<event>
 6    1  0.6447971E-006  0.9178048E+02  0.7561462E-02  0.1298596E+00
         -1   -1    0    0    0  501 -0.00000000000E+00  0.00000000000E+00  0.56070491880E+02  0.56070491880E+02  0.00000000000E+00 0.  1.
          1   -1    0    0  501    0  0.00000000000E+00 -0.00000000000E+00 -0.30419686233E+03  0.30419686233E+03  0.00000000000E+00 0. -1.
          5    1    1    2  502    0  0.56480519900E+01 -0.72871663059E+02  0.60127965342E-01  0.73209670015E+02  0.41800000000E+01 0.  1.
         -5    1    1    2    0  502 -0.76055120311E+01  0.55015753852E+01 -0.99954388397E+02  0.10048115895E+03  0.41800000000E+01 0.  1.
        -11    1    1    2    0    0  0.37339311840E+02  0.25290472967E+02 -0.24830232367E+02  0.51481770278E+02  0.00000000000E+00 0.  1.
         11    1    1    2    0    0 -0.35381851799E+02  0.42079614707E+02 -0.12340187765E+03  0.13509475496E+03  0.00000000000E+00 0. -1.
</event>
<event>
 6    1  0.6447971E-006  0.8440389E+02  0.7561462E-02  0.1316999E+00
          1   -1    0    0  501    0  0.00000000000E+00  0.00000000000E+00  0.37392222562E+03  0.37392222562E+03  0.00000000000E+00 0. -1.
         -1   -1    0    0    0  501 -0.00000000000E+00 -0.00000000000E+00 -0.47900628623E+02  0.47900628623E+02  0.00000000000E+00 0.  1.
          5    1    1    2  502    0  0.16440547588E+02 -0.55503239010E+01  0.16167073970E+03  0.16265299928E+03  0.41800000000E+01 0.  1.
         -5    1    1    2    0  502  0.31341291431E+02 -0.56163319419E+02  0.12688100904E+02  0.65689080533E+02  0.41800000000E+01 0.  1.
        -11    1    1    2    0    0 -0.19596198376E+02  0.53760970312E+02  0.23238923114E+02  0.61760023212E+02  0.00000000000E+00 0.  1.
         11    1    1    2    0    0 -0.28185640644E+02  0.79526730079E+01  0.12842383328E+03  0.13172075122E+03  0.00000000000E+00 0. -1.
</event>
<event>
 6    1  0.6447971E-006  0.9921892E+02  0.7561462E-02  0.1281947E+00
         -2   -1    0    0    0  501 -0.00000000000E+00  0.00000000000E+00  0.69078852009E+02  0.69078852009E+02  0.00000000000E+00 0.  1.
          2   -1    0    0  501    0  0.00000000000E+00 -0.00000000000E+00 -0.31661369035E+03  0.31661369035E+03  0.00000000000E+00 0. -1.
          5    1    1    2  502    0 -0.14937556308E+01  0.74363525789E+02  0.72185149936E+01  0.74844803643E+02  0.41800000000E+01 0. -1.
         -5    1    1    2    0  502  0.13175702328E+02 -0.49280663039E+02 -0.15745835369E+02  0.53549851661E+02  0.41800000000E+01 0. -1.
        -11    1    1    2    0    0 -0.38362367616E+02 -0.25519988812E+02 -0.21939669664E+03  0.22418262996E+03  0.00000000000E+00 0.  1.
         11    1    1    2    0    0  0.26680420919E+02  0.43712606273E+00 -0.19610821325E+02  0.33115257098E+02  0.00000000000E+00 0. -1.
</event>
<event>
 6    1  0.6447971E-006  0.1885952E+03  0.7561462E-02  0.1159734E+00
          3   -1    0    0  501    0  0.00000000000E+00  0.00000000000E+00  0.65045793551E+02  0.65045793551E+02  0.00000000000E+00 0. -1.
         -3   -1    0    0    0  501 -0.00000000000E+00 -0.00000000000E+00 -0.70224985988E+03  0.70224985988E+03  0.00000000000E+00 0.  1.
          5    1    1    2  502    0 -0.46740585195E+02  0.18143134016E+03 -0.17491029741E+03  0.25634566124E+03  0.41800000000E+01 0. -1.
         -5    1    1    2    0  502 -0.29911027817E+01 -0.11627720884E+02 -0.67980443114E+02  0.69158973639E+02  0.41800000000E+01 0. -1.
        -11    1    1    2    0    0  0.29190610971E+02 -0.87200697848E+02 -0.10197666228E+03  0.13731457725E+03  0.00000000000E+00 0. -1.
         11    1    1    2    0    0  0.20541077006E+02 -0.82602921426E+02 -0.29233666353E+03  0.30447644131E+03  0.00000000000E+00 0.  1.
</event>
<event>
 6    1  0.6447971E-006  0.8879307E+02  0.7561462E-02  0.1305801E+00
          1   -1    0    0  501    0  0.00000000000E+00  0.00000000000E+00  0.12364105176E+02  0.12364105176E+02  0.00000000000E+00 0. -1.
         -1   -1    0    0    0  501 -0.00000000000E+00 -0.00000000000E+00 -0.10834311589E+04  0.10834311589E+04  0.00000000000E+00 0.  1.
          5    1    1    2  502    0  0.31376878874E+02 -0.77078216022E+01 -0.60090243912E+03  0.60178495560E+03  0.41800000000E+01 0. -1.
         -5    1    1    2    0  502 -0.41471509483E+02  0.77714039275E+01 -0.79559774031E+02  0.90152708565E+02  0.41800000000E+01 0. -1.
        -11    1    1    2    0    0  0.56230541440E+02  0.34603323254E+01 -0.21297008903E+03  0.22029549817E+03  0.00000000000E+00 0. -1.
         11    1    1    2    0    0 -0.46135910830E+02 -0.35239146507E+01 -0.17763475153E+03  0.18356210173E+03  0.00000000000E+00 0.  1.
</event>
<event>
 6    1  0.6447971E-006  0.1228066E+03  0.7561462E-02  0.1238538E+00
         -1   -1    0    0    0  501 -0.00000000000E+00  0.00000000000E+00  0.60402924841E+02  0.60402924841E+02  0.00000000000E+00 0.  1.
          1   -1    0    0  501    0  0.00000000000E+00 -0.00000000000E+00 -0.47353266937E+03  0.47353266937E+03  0.00000000000E+00 0. -1.
          5    1    1    2  502    0  0.29157214991E+02  0.99347791091E+02 -0.11643566743E+02  0.10427450229E+03  0.41800000000E+01 0.  1.
         -5    1    1    2    0  502  0.58283678841E+01 -0.18448694178E+02 -0.62897815301E+02  0.65938848630E+02  0.41800000000E+01 0.  1.
        -11    1    1    2    0    0 -0.61761806520E+02 -0.40949222994E+02 -0.26978095525E+03  0.27977334294E+03  0.00000000000E+00 0. -1.
         11    1    1    2    0    0  0.26776223646E+02 -0.39949873919E+02 -0.68807407236E+02  0.83948900346E+02  0.00000000000E+00 0.  1.
</event>
<event>
 6    1  0.6447971E-006  0.1249006E+03  0.7561462E-02  0.1235225E+00
          2   -1    0    0  501    0  0.00000000000E+00  0.00000000000E+00  0.51639199757E+03  0.51639199757E+03  0.00000000000E+00 0. -1.
         -2   -1    0    0    0  501 -0.00000000000E+00 -0.00000000000E+00 -0.38520796819E+02  0.38520796819E+02  0.00000000000E+00 0.  1.
          5    1    1    2  502    0  0.18828367020E+01 -0.37179639280E+02  0.53413829266E+02  0.65240939661E+02  0.41800000000E+01 0. -1.
         -5    1    1    2    0  502 -0.30747701723E+02  0.98477540903E+02  0.94175182290E+02  0.13974864787E+03  0.41800000000E+01 0. -1.
        -11    1    1    2    0    0 -0.27218304440E+02 -0.41469519210E+02  0.94200440188E+02  0.10646257583E+03  0.00000000000E+00 0.  1.
         11    1    1    2    0    0  0.56083169461E+02 -0.19828382414E+02  0.23608174901E+03  0.24346063103E+03  0.00000000000E+00 0. -1.
</event>
<event>
 6    1  0.6447971E-006  0.1009263E+03  0.7561462E-02  0.1278360E+00
          3   -1    0    0  501    0  0.00000000000E+00  0.00000000000E+00  0.51620938384E+03  0.51620938384E+03  0.00000000000E+00 0. -1.
         -3   -1    0    0    0  501 -0.00000000000E+00 -0.00000000000E+00 -0.33365669550E+02  0.33365669550E+02  0.00000000000E+00 0.  1.
          5    1    1    2  502    0 -0.26864754214E+01  0.63684638053E+02  0.24365376782E+03  0.25188803316E+03  0.41800000000E+01 0.  1.
         -5    1    1    2    0  502  0.23731403897E+02  0.63630189390E+01 -0.67481692580E+01  0.25820103201E+02  0.41800000000E+01 0.  1.
        -11    1    1    2    0    0 -0.46713528895E+02 -0.10033938681E+02  0.13431676377E+03  0.14256165942E+03  0.00000000000E+00 0.  1.
         11    1    1    2    0    0  0.25668600419E+02 -0.60013718311E+02  0.11162135195E+03  0.12930525761E+03  0.00000000000E+00 0. -1.
</event>
<event>
 6    1  0.6447971E-006  0.1135438E+03  0.7561462E-02  0.1254145E+00
         -1   -1    0    0    0  501 -0.00000000000E+00  0.00000000000E+00  0.36580837421E+03  0.36580837421E+03  0.00000000000E+00 0.  1.
          1   -1    0    0  501    0  0.00000000000E+00 -0.00000000000E+00 -0.58560128286E+02  0.58560128286E+02  0.00000000000E+00 0. -1.
          5    1    1    2  502    0 -0.14277820608E+02  0.85712503216E+02  0.72118084416E+02  0.11299991092E+03  0.41800000000E+01 0. -1.
         -5    1    1    2    0  502 -0.18224650078E+02 -0.85619050327E+01  0.17606081916E+03  0.17725780246E+03  0.41800000000E+01 0. -1.
        -11    1    1    2    0    0  0.61627982968E+02 -0.58303611128E+02  0.34418691919E+02  0.91553075910E+02  0.00000000000E+00 0. -1.
         11    1    1    2    0    0 -0.29125512281E+02 -0.18846987055E+02  0.24650650430E+02  0.42557713206E+02  0.00000000000E+00 0.  1.
</event>
<event>
 6    1  0.6447971E-006  0.2175809E+03  0.7561462E-02  0.1135700E+00
          1   -1    0    0  501    0  0.00000000000E+00  0.00000000000E+00  0.23245495684E+03  0.23245495684E+03  0.00000000000E+00 0. -1.
         -1   -1    0    0    0  501 -0.00000000000E+00 -0.00000000000E+00 -0.30837147137E+03  0.30837147137E+03  0.00000000000E+00 0.  1.
          5    1    1    2  502    0  0.69401324468E+02  0.10724358287E+03 -0.38538803772E+02  0.13349322718E+03  0.41800000000E+01 0. -1.
         -5    1    1    2    0  502 -0.15656040983E+02  0.91071610003E+02 -0.13280435547E+03  0.16184442839E+03  0.41800000000E+01 0. -1.
        -11    1    1    2    0    0  0.13549139258E+02 -0.53087567499E+02 -0.73370777982E+01  0.55278401825E+02  0.00000000000E+00 0.  1.
         11    1    1    2    0    0 -0.67294422743E+02 -0.14522762538E+03  0.10276372252E+03  0.19021037083E+03  0.00000000000E+00 0. -1.
</event>
<event>
 6    1  0.6447971E-006  0.1194591E+03  0.7561462E-02  0.1243992E+00
          1   -1    0    0  501    0  0.00000000000E+00  0.00000000000E+00  0.92505974250E+02  0.92505974250E+02  0.00000000000E+00 0. -1.
         -1   -1    0    0    0  501 -0.00000000000E+00 -0.00000000000E+00 -0.19322428014E+03  0.19322428014E+03  0.00000000000E+00 0.  1.
          5    1    1    2  502    0  0.83850049220E+02 -0.47950085846E+02 -0.79015266412E+02  0.12486363046E+03  0.41800000000E+01 0.  1.
         -5    1    1    2    0  502 -0.36481716243E+02  0.11691229629E+02 -0.98778439565E+01  0.39782466885E+02  0.41800000000E+01 0.  1.
        -11    1    1    2    0    0 -0.21815917312E+02 -0.27446283919E+02 -0.34112985930E+02  0.48917569013E+02  0.00000000000E+00 0.  1.
         11    1    1    2    0    0 -0.25552415666E+02  0.63705140136E+02  0.22287790408E+02  0.72166588027E+02  0.00000000000E+00 0. -1.
</event>
<event>
 6    1  0.6447971E-006  0.1463568E+03  0.7561462E-02  0.1205023E+00
          2   -1    0    0  501    0  0.00000000000E+00  0.00000000000E+00  0.10214439818E+04  0.10214439818E+04  0.00000000000E+00 0. -1.
         -2   -1    0    0    0  501 -0.00000000000E+00 -0.00000000000E+00 -0.31275399487E+02  0.31275399487E+02  0.00000000000E+00 0.  1.
          5    1    1    2  502    0 -0.26946581406E+02 -0.50230438001E+02  0.43305955497E+02  0.71708390951E+02  0.41800000000E+01 0.  1.
         -5    1    1    2    0  502 -0.71153893239E+02 -0.49582715140E+02  0.40687727062E+03  0.41603834909E+03  0.41800000000E+01 0.  1.
        -11    1    1    2    0    0  0.43740987996E+02  0.79429340966E+02  0.19394029893E+03  0.21409141455E+03  0.00000000000E+00 0.  1.
         11    1    1    2    0    0  0.54359486649E+02  0.20383812174E+02  0.34604505723E+03  0.35088122666E+03  0.00000000000E+00 0. -1.
</event>
<event>
 6    1  0.6447971E-006  0.1675198E+03  0.7561462E-02  0.1180459E+00
          1   -1    0    0  501    0  0.00000000000E+00  0.00000000000E+00  0.98743830829E+02  0.98743830829E+02  0.00000000000E+00 0. -1.
         -1   -1    0    0    0  501 -0.00000000000E+00 -0.00000000000E+00 -0.35055354212E+03  0.35055354212E+03  0.00000000000E+00 0.  1.
          5    1    1    2  502    0  0.43096470735E+01 -0.24363075769E+02 -0.48478322627E+01  0.25555946402E+02  0.41800000000E+01 0. -1.
         -5    1    1    2    0  502 -0.13430343795E+03  0.74588256766E+02 -0.19547987459E+03  0.24865774724E+03  0.41800000000E+01 0. -1.
        -11    1    1    2    0    0  0.11720682736E+03 -0.67129268906E+02 -0.19145488073E+02  0.13641967907E+03  0.00000000000E+00 0. -1.
         11    1    1    2    0    0  0.12786963522E+02  0.16904087910E+02 -0.32336516365E+02  0.38664000243E+02  0.00000000000E+00 0.  1.
</event>
<event>
 6    1  0.7698641E-006  0.3970942E+03  0.7561462E-02  0.1044791E+00
          1   -1    0    0  501    0  0.00000000000E+00  0.00000000000E+00  0.26475164277E+03  0.26475164277E+03  0.00000000000E+00 0. -1.
         -1   -1    0    0    0  501 -0.00000000000E+00 -0.00000000000E+00 -0.62513333656E+03  0.62513333656E+03  0.00000000000E+00 0.  1.
          5    1    1    2  502    0 -0.61668124076E+02  0.33775438718E+03 -0.15377911075E+03  0.37622662172E+03  0.41800000000E+01 0.  1.
         -5    1    1    2    0  502  0.27201221762E+02  0.50556977154E+02 -0.69061478778E+02  0.89904808855E+02  0.41800000000E+01 0.  1.
        -11    1    1    2    0    0  0.42061059751E+02 -0.18141043036E+03 -0.10613629300E+03  0.21434502486E+03  0.00000000000E+00 0.  1.
         11    1    1    2    0    0 -0.75941574371E+01 -0.20690093397E+03 -0.31404811258E+02  0.20940852389E+03  0.00000000000E+00 0. -1.
</event>
<event>
 6    1  0.6447971E-006  0.1031735E+03  0.7561462E-02  0.1273761E+00
         -1   -1    0    0    0  501 -0.00000000000E+00  0.00000000000E+00  0.78408250139E+02  0.78408250139E+02  0.00000000000E+00 0.  1.
          1   -1    0    0  501    0  0.00000000000E+00 -0.00000000000E+00 -0.18877747973E+03  0.18877747973E+03  0.00000000000E+00 0. -1.
          5    1    1    2  502    0 -0.24673333713E+02 -0.14282136872E+02  0.19608779777E+02  0.34852969379E+02  0.41800000000E+01 0.  1.
         -5    1    1    2    0  502  0.74193235278E+02  0.35711584528E+02 -0.77552376669E+02  0.11318920866E+03  0.41800000000E+01 0.  1.
        -11    1    1    2    0    0 -0.29276579544E+02 -0.51262789155E+02 -0.45469310438E+01  0.59208666964E+02  0.00000000000E+00 0.  1.
         11    1    1    2    0    0 -0.20243322021E+02  0.29833341499E+02 -0.47878701657E+02  0.59934884865E+02  0.00000000000E+00 0. -1.
</event>
<event>
 6    1  0.6447971E-006  0.1322011E+03  0.7561462E-02  0.1224226E+00
         -2   -1    0    0    0  501 -0.00000000000E+00  0.00000000000E+00  0.42781463922E+02  0.42781463922E+02  0.00000000000E+00 0. -1.
          2   -1    0    0  501    0  0.00000000000E+00 -0.00000000000E+00 -0.67520776512E+03  0.67520776512E+03  0.00000000000E+00 0.  1.
          5    1    1    2  502    0  0.10773282741E+03  0.51808349097E+00 -0.60623359186E+02  0.12369031729E+03  0.41800000000E+01 0.  1.
         -5    1    1    2    0  502 -0.21703231665E+01  0.18354852576E+02 -0.11723883699E+03  0.11876038150E+03  0.41800000000E+01 0.  1.
        -11    1    1    2    0    0 -0.63103662613E+02 -0.53592758011E+02 -0.23247093127E+03  0.24677315460E+03  0.00000000000E+00 0.  1.
         11    1    1    2    0    0 -0.42458841631E+02  0.34719821944E+02 -0.22209317376E+03  0.22876537565E+03  0.00000000000E+00 0. -1.
</event>
<event>
 6    1  0.6447971E-006  0.1558218E+03  0.7561462E-02  0.1193496E+00
          1   -1    0    0  501    0  0.00000000000E+00  0.00000000000E+00  0.24915891514E+03  0.24915891514E+03  0.00000000000E+00 0. -1.
         -1   -1    0    0    0  501 -0.00000000000E+00 -0.00000000000E+00 -0.11043414377E+03  0.11043414377E+03  0.00000000000E+00 0.  1.
          5    1    1    2  502    0  0.85772353974E+02  0.53735649838E+02  0.34476994390E+02  0.10700725355E+03  0.41800000000E+01 0. -1.
         -5    1    1    2    0  502 -0.39487930246E+02  0.54663430116E+02 -0.34066264042E+01  0.67649573026E+02  0.41800000000E+01 0. -1.
        -11    1    1    2    0    0  0.15440463650E+02 -0.66275615609E+02  0.22572834193E+02  0.71696568855E+02  0.00000000000E+00 0.  1.
         11    1    1    2    0    0 -0.61724887378E+02 -0.42123464345E+02  0.85081569186E+02  0.11323966348E+03  0.00000000000E+00 0. -1.
</event>
<event>
 6    1  0.6447971E-006  0.1030171E+03  0.7561462E-02  0.1274076E+00
          1   -1    0    0  501    0  0.00000000000E+00  0.00000000000E+00  0.45219202907E+03  0.45219202907E+03  0.00000000000E+00 0. -1.
         -1   -1    0    0    0  501 -0.00000000000E+00 -0.00000000000E+00 -0.42660061208E+02  0.42660061208E+02  0.00000000000E+00 0.  1.
          5    1    1    2  502    0 -0.43297199353E+01  0.76645438821E+01  0.11640690073E+03  0.11681408581E+03  0.41800000000E+01 0.  1.
         -5    1    1    2    0  502  0.49886610779E+02 -0.61720482306E+02  0.21461109220E+02  0.82317334019E+02  0.41800000000E+01 0.  1.
        -11    1    1    2    0    0 -0.57360771710E+02  0.74009173402E+02  0.21941661144E+03  0.23856082087E+03  0.00000000000E+00 0. -1.
         11    1    1    2    0    0  0.11803880866E+02 -0.19953234978E+02  0.52247346479E+02  0.57159849578E+02  0.00000000000E+00 0.  1.
</event>
<event>
 6    1  0.6447971E-006  0.1412723E+03  0.7561462E-02  0.1211627E+00
         -1   -1    0    0    0  501 -0.00000000000E+00  0.00000000000E+00  0.26233074556E+03  0.26233074556E+03  0.00000000000E+00 0.  1.
          1   -1    0    0  501    0  0.00000000000E+00 -0.00000000000E+00 -0.96791394611E+02  0.96791394611E+02  0.00000000000E+00 0. -1.
          5    1    1    2  502    0 -0.82645701525E+02 -0.53510959260E+02  0.86100234065E+02  0.13086045028E+03  0.41800000000E+01 0. -1.
         -5    1    1    2    0  502  0.46005004107E+02 -0.47606349624E+02  0.52314279819E+02  0.84481247626E+02  0.41800000000E+01 0. -1.
        -11    1    1    2    0    0 -0.97751939326E+01  0.38489314688E+02 -0.27752967366E+02  0.48448002634E+02  0.00000000000E+00 0. -1.
         11    1    1    2    0    0  0.46415891351E+02  0.62627994197E+02  0.54877804435E+02  0.95332439634E+02  0.00000000000E+00 0.  1.
</event>
<event>
 6    1  0.6447971E-006  0.9098476E+02  0.7561462E-02  0.1300484E+00
         -1   -1    0    0    0  501 -0.00000000000E+00  0.00000000000E+00  0.15736475050E+03  0.15736475050E+03  0.00000000000E+00 0.  1.
          1   -1    0    0  501    0  0.00000000000E+00 -0.00000000000E+00 -0.70509310921E+02  0.70509310921E+02  0.00000000000E+00 0. -1.
          5    1    1    2  502    0 -0.47656337096E+02  0.34888735396E+02  0.64950878047E+02  0.87888789285E+02  0.41800000000E+01 0. -1.
         -5    1    1    2    0  502  0.26301571897E+02 -0.33145338827E+02 -0.19685500189E+02  0.46854855542E+02  0.41800000000E+01 0. -1.
        -11    1    1    2    0    0  0.21882956261E+02  0.36196434808E+02  0.34381791874E+02  0.54508286342E+02  0.00000000000E+00 0.  1.
         11    1    1    2    0    0 -0.52819106242E+00 -0.37939831377E+02  0.72082698443E+01  0.38622130247E+02  0.00000000000E+00 0. -1.
</event>
<event>
 6    1  0.6447971E-006  0.1014817E+03  0.7561462E-02  0.1277211E+00
         -2   -1    0    0    0  501 -0.00000000000E+00  0.00000000000E+00  0.58371627817E+02  0.58371627817E+02  0.00000000000E+00 0. -1.
          2   -1    0    0  501    0  0.00000000000E+00 -0.00000000000E+00 -0.22181307218E+03  0.22181307218E+03  0.00000000000E+00 0.  1.
          5    1    1    2  502    0  0.86898181059E+01 -0.57911558545E+02 -0.16976442911E+02  0.61114102838E+02  0.41800000000E+01 0. -1.
         -5    1    1    2    0  502 -0.40494541673E+02  0.53998990883E+02 -0.51836572397E+02  0.85206816391E+02  0.41800000000E+01 0. -1.
        -11    1    1    2    0    0 -0.11888271876E+02  0.25321281447E+02 -0.77313839986E+02  0.82218782256E+02  0.00000000000E+00 0.  1.
         11    1    1    2    0    0  0.43692995442E+02 -0.21408713785E+02 -0.17314589069E+02  0.51644998512E+02  0.00000000000E+00 0. -1.
</event>
<event>
 6    1  0.6447971E-006  0.1043818E+03  0.7561462E-02  0.1271342E+00
          1   -1    0    0  501    0  0.00000000000E+00  0.00000000000E+00  0.33715225270E+03  0.33715225270E+03  0.00000000000E+00 0. -1.
         -1   -1    0    0    0  501 -0.00000000000E+00 -0.00000000000E+00 -0.44130257923E+02  0.44130257923E+02  0.00000000000E+00 0.  1.
          5    1    1    2  502    0 -0.99357049982E+01  0.46108832069E+02  0.81329962471E+02  0.94110455445E+02  0.41800000000E+01 0. -1.
         -5    1    1    2    0  502 -0.21832628628E+02 -0.63410483339E+02  0.17715633064E+02  0.69490064937E+02  0.41800000000E+01 0. -1.
        -11    1    1    2    0    0  0.56418472209E+01 -0.35160265619E+02  0.10726934380E+03  0.11302560258E+03  0.00000000000E+00 0.  1.
         11    1    1    2    0    0  0.26126486405E+02  0.52461916890E+02  0.86707055447E+02  0.10465638767E+03  0.00000000000E+00 0. -1.
</event>
<event>
 6    1  0.6447971E-006  0.8909441E+02  0.7561462E-02  0.1305060E+00
         -2   -1    0    0    0  501 -0.00000000000E+00  0.00000000000E+00  0.73792256813E+02  0.73792256813E+02  0.00000000000E+00 0. -1.
          2   -1    0    0  501    0  0.00000000000E+00 -0.00000000000E+00 -0.39258951989E+03  0.39258951989E+03  0.00000000000E+00 0.  1.
          5    1    1    2  502    0  0.39205339591E+02 -0.20344480764E+01  0.52742300210E+02  0.65881865963E+02  0.41800000000E+01 0. -1.
         -5    1    1    2    0  502 -0.75344706096E+01  0.38340821461E+02 -0.55740660127E+02  0.68200296401E+02  0.41800000000E+01 0. -1.
        -11    1    1    2    0    0 -0.62099954493E+02 -0.25227332639E+02 -0.25187384455E+03  0.26064008945E+03  0.00000000000E+00 0. -1.
         11    1    1    2    0    0  0.30429085512E+02 -0.11079040746E+02 -0.63925058604E+02  0.71659524883E+02  0.00000000000E+00 0.  1.
</event>
<event>
 6    1  0.6447971E-006  0.2398871E+03  0.7561462E-02  0.1119868E+00
         -3   -1    0    0    0  501 -0.00000000000E+00  0.00000000000E+00  0.27423159113E+03  0.27423159113E+03  0.00000000000E+00 0.  1.
          3   -1    0    0  501    0  0.00000000000E+00 -0.00000000000E+00 -0.24033036590E+03  0.24033036590E+03  0.00000000000E+00 0. -1.
          5    1    1    2  502    0  0.76038322324E+02 -0.87107399109E+02  0.77803801152E+00  0.11570481055E+03  0.41800000000E+01 0. -1.
         -5    1    1    2    0  502 -0.13390069616E+02 -0.12402383338E+03  0.87851237547E+02  0.15263196765E+03  0.41800000000E+01 0. -1.
        -11    1    1    2    0    0 -0.20684704710E+02  0.19204750430E+03 -0.36089860155E+02  0.19650083696E+03  0.00000000000E+00 0. -1.
         11    1    1    2    0    0 -0.41963547998E+02  0.19083728188E+02 -0.18638190175E+02  0.49724341877E+02  0.00000000000E+00 0.  1.
</event>
<event>
 6    1  0.6447971E-006  0.1138899E+03  0.7561462E-02  0.1253531E+00
          1   -1    0    0  501    0  0.00000000000E+00  0.00000000000E+00  0.96236032439E+02  0.96236032439E+02  0.00000000000E+00 0. -1.
         -1   -1    0    0    0  501 -0.00000000000E+00 -0.00000000000E+00 -0.17245458251E+03  0.17245458251E+03  0.00000000000E+00 0.  1.
          5    1    1    2  502    0 -0.99136222659E+01  0.10035307279E+03 -0.25213549377E+02  0.10402987357E+03  0.41800000000E+01 0. -1.
         -5    1    1    2    0  502 -0.14005513578E+02 -0.35543512020E+02 -0.31577304083E+02  0.49740267294E+02  0.41800000000E+01 0. -1.
        -11    1    1    2    0    0  0.41974886169E+02 -0.42725065710E+02  0.22693022785E+02  0.64049165428E+02  0.00000000000E+00 0. -1.
         11    1    1    2    0    0 -0.18055750325E+02 -0.22084495054E+02 -0.42120719401E+02  0.50871308657E+02  0.00000000000E+00 0.  1.
</event>
<event>
 6    1  0.6447971E-006  0.1417679E+03  0.7561462E-02  0.1210970E+00
          2   -1    0    0  501    0  0.00000000000E+00  0.00000000000E+00  0.17159884900E+03  0.17159884900E+03  0.00000000000E+00 0. -1.
         -2   -1    0    0    0  501 -0.00000000000E+00 -0.00000000000E+00 -0.15458585071E+03  0.15458585071E+03  0.00000000000E+00 0.  1.
          5    1    1    2  502    0  0.10737906881E+03 -0.63367041307E+02  0.22302968773E+02  0.12673019040E+03  0.41800000000E+01 0. -1.
         -5    1    1    2    0  502 -0.74801072464E+01  0.10626003702E+02 -0.40562338219E+02  0.42797659292E+02  0.41800000000E+01 0. -1.
        -11    1    1    2    0    0 -0.10426680343E+03  0.12909598834E+02  0.28320828778E+01  0.10510111670E+03  0.00000000000E+00 0.  1.
         11    1    1    2    0    0  0.43678418658E+01  0.39831438771E+02  0.32440284854E+02  0.51555733324E+02  0.00000000000E+00 0. -1.
</event>
<event>
 6    1  0.6447971E-006  0.1186334E+03  0.7561462E-02  0.1245369E+00
         -2   -1    0    0    0  501 -0.00000000000E+00  0.00000000000E+00  0.37969321437E+02  0.37969321437E+02  0.00000000000E+00 0. -1.
          2   -1    0    0  501    0  0.00000000000E+00 -0.00000000000E+00 -0.38810902522E+03  0.38810902522E+03  0.00000000000E+00 0.  1.
          5    1    1    2  502    0  0.86074505241E+02 -0.96535333418E+01 -0.11382419671E+03  0.14309238734E+03  0.41800000000E+01 0.  1.
         -5    1    1    2    0  502 -0.36195746330E+02  0.26533792997E+02 -0.10700617112E+03  0.11611187398E+03  0.41800000000E+01 0.  1.
        -11    1    1    2    0    0  0.26792265273E+02 -0.96082572273E+01 -0.35348327137E+02  0.45383348453E+02  0.00000000000E+00 0.  1.
         11    1    1    2    0    0 -0.76671024185E+02 -0.72720024281E+01 -0.93961008826E+02  0.12149073688E+03  0.00000000000E+00 0. -1.
</event>
<event>
 6    1  0.6447971E-006  0.1225637E+03  0.7561462E-02  0.1238927E+00
          2   -1    0    0  501    0  0.00000000000E+00  0.00000000000E+00  0.55794798443E+03  0.55794798443E+03  0.00000000000E+00 0. -1.
         -2   -1    0    0    0  501 -0.00000000000E+00 -0.00000000000E+00 -0.34744610673E+02  0.34744610673E+02  0.00000000000E+00 0.  1.
          5    1    1    2  502    0  0.42983735350E+01 -0.40476813232E+02  0.49171625504E+02  0.63970067838E+02  0.41800000000E+01 0.  1.
         -5    1    1    2    0  502 -0.80893226847E+02  0.71363060377E+02  0.17901894463E+03  0.20904940917E+03  0.41800000000E+01 0.  1.
        -11    1    1    2    0    0  0.46730203154E+02 -0.43493838768E+02  0.27329901431E+03  0.28065597646E+03  0.00000000000E+00 0. -1.
         11    1    1    2    0    0  0.29864650158E+02  0.12607591622E+02  0.21713789307E+02  0.39017141638E+02  0.00000000000E+00 0.  1.
</event>
<event>
 6    1  0.6447971E-006  0.1106446E+03  0.7561462E-02  0.1259381E+00
         -1   -1    0    0    0  501 -0.00000000000E+00  0.00000000000E+00  0.41775852048E+02  0.41775852048E+02  0.00000000000E+00 0.  1.
          1   -1    0    0  501    0  0.00000000000E+00 -0.00000000000E+00 -0.30673255888E+03  0.30673255888E+03  0.00000000000E+00 0. -1.
          5    1    1    2  502    0 -0.67596989422E+02  0.16913567246E+02 -0.78465762250E+02  0.10502271174E+03  0.41800000000E+01 0.  1.
         -5    1    1    2    0  502  0.45921163746E+02 -0.35486624721E+02 -0.53640368394E+02  0.79137951296E+02  0.41800000000E+01 0.  1.
        -11    1    1    2    0    0  0.48167713280E+02  0.37244284050E+02 -0.64481470552E+02  0.88685541897E+02  0.00000000000E+00 0.  1.
         11    1    1    2    0    0 -0.26491887605E+02 -0.18671226575E+02 -0.68369105640E+02  0.75662205999E+02  0.00000000000E+00 0. -1.
</event>
<event>
 6    1  0.6447971E-006  0.1235024E+03  0.7561462E-02  0.1237429E+00
          1   -1    0    0  501    0  0.00000000000E+00  0.00000000000E+00  0.34904917320E+03  0.34904917320E+03  0.00000000000E+00 0. -1.
         -1   -1    0    0    0  501 -0.00000000000E+00 -0.00000000000E+00 -0.56957895227E+02  0.56957895227E+02  0.00000000000E+00 0.  1.
          5    1    1    2  502    0  0.72188947488E+02  0.73022195745E+02  0.97237308537E+02  0.14147809648E+03  0.41800000000E+01 0. -1.
         -5    1    1    2    0  502  0.98260622734E+01 -0.51672915382E+02  0.65323804020E+02  0.83972099268E+02  0.41800000000E+01 0.  1.
        -11    1    1    2    0    0 -0.39015964561E+02 -0.27917993564E+02  0.45115987154E+01  0.48187284404E+02  0.00000000000E+00 0.  1.
         11    1    1    2    0    0 -0.42999045201E+02  0.65687132010E+01  0.12501856670E+03  0.13236958828E+03  0.00000000000E+00 0. -1.
</event>
<event>
 6    1  0.6447971E-006  0.1760486E+03  0.7561462E-02  0.1171683E+00
          2   -1    0    0  501    0  0.00000000000E+00  0.00000000000E+00  0.13189602560E+03  0.13189602560E+03  0.00000000000E+00 0.  1.
         -2   -1    0    0    0  501 -0.00000000000E+00 -0.00000000000E+00 -0.25741785231E+03  0.25741785231E+03  0.00000000000E+00 0. -1.
          5    1    1    2  502    0  0.13115625529E+03 -0.47851964069E+02 -0.82971371325E+02  0.16246074795E+03  0.41800000000E+01 0.  1.
         -5    1    1    2    0  502 -0.19546210727E+02 -0.46676887897E+02 -0.12101054081E+02  0.52198602734E+02  0.41800000000E+01 0.  1.
        -11    1    1    2    0    0 -0.11671223620E+03  0.68939717079E+02 -0.13352743929E+01  0.13555889358E+03  0.00000000000E+00 0.  1.
         11    1    1    2    0    0  0.51021916427E+01  0.25589134887E+02 -0.29114126908E+02  0.39095633636E+02  0.00000000000E+00 0. -1.
</event>
<event>
 6    1  0.6447971E-006  0.1530208E+03  0.7561462E-02  0.1196809E+00
         -1   -1    0    0    0  501 -0.00000000000E+00  0.00000000000E+00  0.56139982258E+02  0.56139982258E+02  0.00000000000E+00 0.  1.
          1   -1    0    0  501    0  0.00000000000E+00 -0.00000000000E+00 -0.52137472357E+03  0.52137472357E+03  0.00000000000E+00 0. -1.
          5    1    1    2  502    0 -0.11746898495E+03  0.21619610946E+02 -0.19410099486E+03  0.22794525353E+03  0.41800000000E+01 0.  1.
         -5    1    1    2    0  502  0.24488115001E+01  0.45712213293E+02 -0.11949635838E+02  0.47495992658E+02  0.41800000000E+01 0.  1.
        -11    1    1    2    0    0  0.15746419311E+02 -0.31137152216E+02 -0.19129619488E+02  0.39792138809E+02  0.00000000000E+00 0.  1.
         11    1    1    2    0    0  0.99273754143E+02 -0.36194672023E+02 -0.24005449113E+03  0.26228132083E+03  0.00000000000E+00 0. -1.
</event>
<event>
 6    1  0.6447971E-006  0.1108621E+03  0.7561462E-02  0.1258982E+00
         -1   -1    0    0    0  501 -0.00000000000E+00  0.00000000000E+00  0.12386074891E+02  0.12386074891E+02  0.00000000000E+00 0.  1.
          1   -1    0    0  501    0  0.00000000000E+00 -0.00000000000E+00 -0.11429203145E+04  0.11429203145E+04  0.00000000000E+00 0. -1.
          5    1    1    2  502    0 -0.95854576311E+01 -0.65237884127E+02 -0.54592922646E+03  0.54991277056E+03  0.41800000000E+01 0. -1.
         -5    1    1    2    0  502  0.37637459322E+02  0.34802458060E+02 -0.15549283634E+03  0.16377815478E+03  0.41800000000E+01 0. -1.
        -11    1    1    2    0    0  0.13423380833E+02  0.54596055550E+02 -0.22092856599E+03  0.22797005879E+03  0.00000000000E+00 0.  1.
         11    1    1    2    0    0 -0.41475382523E+02 -0.24160629482E+02 -0.20818361078E+03  0.21364540522E+03  0.00000000000E+00 0. -1.
</event>
<event>
 6    1  0.6447971E-006  0.1956631E+03  0.7561462E-02  0.1153450E+00
         -2   -1    0    0    0  501 -0.00000000000E+00  0.00000000000E+00  0.76831095449E+03  0.76831095449E+03  0.00000000000E+00 0.  1.
          2   -1    0    0  501    0  0.00000000000E+00 -0.00000000000E+00 -0.69891022178E+02  0.69891022178E+02  0.00000000000E+00 0. -1.
          5    1    1    2  502    0 -0.39694814747E+02  0.33910663234E+02  0.11453113117E+03  0.12593833335E+03  0.41800000000E+01 0.  1.
         -5    1    1    2    0  502 -0.11158558193E+03 -0.11026287555E+03  0.45358461921E+03  0.47996429347E+03  0.41800000000E+01 0.  1.
        -11    1    1    2    0    0 -0.57275181308E+01  0.10095962047E+02 -0.69106119145E+01  0.13508866371E+02  0.00000000000E+00 0. -1.
         11    1    1    2    0    0  0.15700791481E+03  0.66256250274E+02  0.13721479385E+03  0.21879048348E+03  0.00000000000E+00 0.  1.
</event>
<event>
 6    1  0.6447971E-006  0.6906954E+02  0.7561462E-02  0.1363286E+00
          1   -1    0    0  501    0  0.00000000000E+00  0.00000000000E+00  0.53986196921E+02  0.53986196921E+02  0.00000000000E+00 0. -1.
         -1   -1    0    0    0  501 -0.00000000000E+00 -0.00000000000E+00 -0.50269777659E+03  0.50269777659E+03  0.00000000000E+00 0.  1.
          5    1    1    2  502    0 -0.53483360918E+02  0.36093478496E+01 -0.60482024318E+02  0.80926169764E+02  0.41800000000E+01 0.  1.
         -5    1    1    2    0  502  0.36263023361E+01  0.58336698682E+01 -0.37302184203E+03  0.37310849468E+03  0.41800000000E+01 0.  1.
        -11    1    1    2    0    0 -0.82791577442E+01  0.11817260384E+02 -0.34839457356E+02  0.37709148556E+02  0.00000000000E+00 0.  1.
         11    1    1    2    0    0  0.58136216327E+02 -0.21260278102E+02  0.19631744030E+02  0.64940160513E+02  0.00000000000E+00 0. -1.
</event>
<event>
 6    1  0.6447971E-006  0.1283665E+03  0.7561462E-02  0.1229900E+00
          1   -1    0    0  501    0  0.00000000000E+00  0.00000000000E+00  0.69548213036E+02  0.69548213036E+02  0.00000000000E+00 0. -1.
         -1   -1    0    0    0  501 -0.00000000000E+00 -0.00000000000E+00 -0.53144413092E+03  0.53144413092E+03  0.00000000000E+00 0.  1.
          5    1    1    2  502    0 -0.19208765136E+02 -0.21307506236E+02 -0.38204629791E+02  0.47958863806E+02  0.41800000000E+01 0. -1.
         -5    1    1    2    0  502  0.12014547728E+03  0.86280852427E+01 -0.39789377857E+03  0.41574789354E+03  0.41800000000E+01 0.  1.
        -11    1    1    2    0    0 -0.68371999209E+02 -0.76918030533E+01  0.25346421129E+02  0.73323496739E+02  0.00000000000E+00 0. -1.
         11    1    1    2    0    0 -0.32564712931E+02  0.20371224046E+02 -0.51143930661E+02  0.63962089873E+02  0.00000000000E+00 0.  1.
</event>
<event>
 6    1  0.6447971E-006  0.1392407E+03  0.7561462E-02  0.1214354E+00
         -1   -1    0    0    0  501 -0.00000000000E+00  0.00000000000E+00  0.83636940186E+03  0.83636940186E+03  0.00000000000E+00 0.  1.
          1   -1    0    0  501    0  0.00000000000E+00 -0.00000000000E+00 -0.25673083632E+02  0.25673083632E+02  0.00000000000E+00 0. -1.
          5    1    1    2  502    0 -0.15267604297E+02  0.36709571571E+02  0.12622698185E+03  0.13240625262E+03  0.41800000000E+01 0. -1.
         -5    1    1    2    0  502  0.10926911300E+03 -0.40034528565E+02  0.39835175344E+03  0.41502300467E+03  0.41800000000E+01 0. -1.
        -11    1    1    2    0    0 -0.97130802701E+02 -0.19457596742E+02  0.17455218800E+03  0.20070240965E+03  0.00000000000E+00 0. -1.
         11    1    1    2    0    0  0.31292939956E+01  0.22782553736E+02  0.11156539493E+03  0.11391081855E+03  0.00000000000E+00 0.  1.
</event>
<event>
 6    1  0.6447971E-006  0.9645896E+02  0.7561462E-02  0.1287924E+00
          1   -1    0    0  501    0  0.00000000000E+00  0.00000000000E+00  0.77101245264E+03  0.77101245264E+03  0.00000000000E+00 0. -1.
         -1   -1    0    0    0  501 -0.00000000000E+00 -0.00000000000E+00 -0.15209599519E+02  0.15209599519E+02  0.00000000000E+00 0.  1.
          5    1    1    2  502    0 -0.50041095663E+02 -0.32676732063E+02  0.27919716687E+03  0.28555281554E+03  0.41800000000E+01 0.  1.
         -5    1    1    2    0  502  0.30992862034E+02  0.40480778510E+02  0.76192653132E+02  0.91771693441E+02  0.41800000000E+01 0.  1.
        -11    1    1    2    0    0  0.26660566448E+02 -0.40386606148E+02  0.20450838350E+03  0.21015599606E+03  0.00000000000E+00 0. -1.
         11    1    1    2    0    0 -0.76123328194E+01  0.32582559701E+02  0.19590464962E+03  0.19874154712E+03  0.00000000000E+00 0.  1.
</event>
<event>
 6    1  0.6447971E-006  0.8577675E+02  0.7561462E-02  0.1313414E+00
          1   -1    0    0  501    0  0.00000000000E+00  0.00000000000E+00  0.14540296361E+03  0.14540296361E+03  0.00000000000E+00 0. -1.
         -1   -1    0    0    0  501 -0.00000000000E+00 -0.00000000000E+00 -0.12234195211E+03  0.12234195211E+03  0.00000000000E+00 0.  1.
          5    1    1    2  502    0 -0.40142147109E+02  0.72811556924E+02 -0.58696300846E+02  0.10186089990E+03  0.41800000000E+01 0.  1.
         -5    1    1    2    0  502  0.28264630602E+02 -0.28698446527E+02  0.66734935843E+01  0.41042637498E+02  0.41800000000E+01 0.  1.
        -11    1    1    2    0    0 -0.32228868981E+01 -0.98833950326E+01 -0.20066885071E+02  0.22599742781E+02  0.00000000000E+00 0.  1.
         11    1    1    2    0    0  0.15100403405E+02 -0.34229715364E+02  0.95150703838E+02  0.10224163554E+03  0.00000000000E+00 0. -1.
</event>
<event>
 6    1  0.9159604E-006  0.1013671E+03  0.7561462E-02  0.1277447E+00
         -3   -1    0    0    0  501 -0.00000000000E+00  0.00000000000E+00  0.17620024060E+03  0.17620024060E+03  0.00000000000E+00 0.  1.
          3   -1    0    0  501    0  0.00000000000E+00 -0.00000000000E+00 -0.10815841110E+03  0.10815841110E+03  0.00000000000E+00 0. -1.
          5    1    1    2  502    0 -0.83816647340E+01 -0.18410271808E+02  0.97437176806E+02  0.99602541312E+02  0.41800000000E+01 0.  1.
         -5    1    1    2    0  502  0.49570592688E+02 -0.42067335334E+02 -0.15374449301E+02  0.66938407906E+02  0.41800000000E+01 0.  1.
        -11    1    1    2    0    0 -0.63655200165E+02  0.13810518599E+02 -0.60821229719E+01  0.65419470740E+02  0.00000000000E+00 0.  1.
         11    1    1    2    0    0  0.22466272211E+02  0.46667088543E+02 -0.79387750328E+01  0.52398231737E+02  0.00000000000E+00 0. -1.
</event>
<event>
 6    1  0.6447971E-006  0.1359186E+03  0.7561462E-02  0.1218929E+00
          2   -1    0    0  501    0  0.00000000000E+00  0.00000000000E+00  0.52880532836E+03  0.52880532836E+03  0.00000000000E+00 0. -1.
         -2   -1    0    0    0  501 -0.00000000000E+00 -0.00000000000E+00 -0.52194551032E+02  0.52194551032E+02  0.00000000000E+00 0.  1.
          5    1    1    2  502    0 -0.12642281810E+02 -0.14103495450E+02  0.65754828741E+01  0.20480362504E+02  0.41800000000E+01 0. -1.
         -5    1    1    2    0  502  0.13181999142E+03  0.54328315795E+00  0.32530661097E+03  0.35102516838E+03  0.41800000000E+01 0.  1.
        -11    1    1    2    0    0 -0.58449491855E+02  0.57265478930E+00  0.75811175314E+01  0.58941872846E+02  0.00000000000E+00 0.  1.
         11    1    1    2    0    0 -0.60728217754E+02  0.12987557503E+02  0.13714756595E+03  0.15055247566E+03  0.00000000000E+00 0. -1.
</event>
<event>
 6    1  0.6447971E-006  0.8647976E+02  0.7561462E-02  0.1311608E+00
         -2   -1    0    0    0  501 -0.00000000000E+00  0.00000000000E+00  0.15041827430E+03  0.15041827430E+03  0.00000000000E+00 0.  1.
          2   -1    0    0  501    0  0.00000000000E+00 -0.00000000000E+00 -0.30308469074E+03  0.30308469074E+03  0.00000000000E+00 0. -1.
          5    1    1    2  502    0  0.13584302111E+02  0.52065486475E+02 -0.14853918240E+03  0.15804021404E+03  0.41800000000E+01 0. -1.
         -5    1    1    2    0  502 -0.20300026022E+02 -0.83116417854E+00  0.12681449586E+03  0.12849969125E+03  0.41800000000E+01 0.  1.
        -11    1    1    2    0    0  0.31258821476E+02  0.95574086442E+01 -0.70865611483E+02  0.78040969182E+02  0.00000000000E+00 0.  1.
         11    1    1    2    0    0 -0.24543097565E+02 -0.60791730941E+02 -0.60076118417E+02  0.88922090579E+02  0.00000000000E+00 0. -1.
</event>
<event>
 6    1  0.6447971E-006  0.1593620E+03  0.7561462E-02  0.1189419E+00
         -1   -1    0    0    0  501 -0.00000000000E+00  0.00000000000E+00  0.22304483567E+03  0.22304483567E+03  0.00000000000E+00 0.  1.
          1   -1    0    0  501    0  0.00000000000E+00 -0.00000000000E+00 -0.15076823750E+03  0.15076823750E+03  0.00000000000E+00 0. -1.
          5    1    1    2  502    0 -0.86509128388E+02 -0.51070364838E+02  0.11079378363E+03  0.14961532792E+03  0.41800000000E+01 0. -1.
         -5    1    1    2    0  502 -0.43382427840E+02  0.41888994888E+02 -0.32729392430E+01  0.60538479245E+02  0.41800000000E+01 0. -1.
        -11    1    1    2    0    0  0.27170638195E+02 -0.36338415790E+02 -0.22312482224E+02  0.50562544488E+02  0.00000000000E+00 0.  1.
         11    1    1    2    0    0  0.10272091803E+03  0.45519785741E+02 -0.12931763991E+02  0.11309672151E+03  0.00000000000E+00 0. -1.
</event>
<event>
 6    1  0.6447971E-006  0.1939007E+03  0.7561462E-02  0.1154990E+00
         -2   -1    0    0    0  501 -0.00000000000E+00  0.00000000000E+00  0.77154621387E+02  0.77154621387E+02  0.00000000000E+00 0. -1.
          2   -1    0    0  501    0  0.00000000000E+00 -0.00000000000E+00 -0.68102997301E+03  0.68102997301E+03  0.00000000000E+00 0.  1.
          5    1    1    2  502    0  0.11532200396E+03  0.28557292107E+02 -0.14326484667E+03  0.18616383166E+03  0.41800000000E+01 0.  1.
         -5    1    1    2    0  502  0.58301393731E+02 -0.43330837497E+02 -0.17959115514E+01  0.72782633145E+02  0.41800000000E+01 0.  1.
        -11    1    1    2    0    0 -0.89730748351E+02 -0.37570771297E+02 -0.20755610942E+03  0.22922196364E+03  0.00000000000E+00 0.  1.
         11    1    1    2    0    0 -0.83892649336E+02  0.52344316687E+02 -0.25125848399E+03  0.27001616596E+03  0.00000000000E+00 0. -1.
</event>
<event>
 6    1  0.6447971E-006  0.4532286E+03  0.7561462E-02  0.1026764E+00
         -2   -1    0    0    0  501 -0.00000000000E+00  0.00000000000E+00  0.14437069054E+03  0.14437069054E+03  0.00000000000E+00 0.  1.
          2   -1    0    0  501    0  0.00000000000E+00 -0.00000000000E+00 -0.17249790998E+04  0.17249790998E+04  0.00000000000E+00 0. -1.
          5    1    1    2  502    0  0.22074766868E+03 -0.37011502981E+03 -0.82054400241E+03  0.92683580035E+03  0.41800000000E+01 0. -1.
         -5    1    1    2    0  502 -0.75957668390E+02  0.26418437189E+03 -0.18003440500E+03  0.32862259375E+03  0.41800000000E+01 0.  1.
        -11    1    1    2    0    0 -0.96819426779E+02  0.15289311942E+02 -0.26197304030E+03  0.27970991814E+03  0.00000000000E+00 0. -1.
         11    1    1    2    0    0 -0.47970573507E+02  0.90641345983E+02 -0.31805696150E+03  0.33418147806E+03  0.00000000000E+00 0.  1.
</event>
<event>
 6    1  0.2378719E-005  0.2122374E+03  0.7561462E-02  0.1139806E+00
         -1   -1    0    0    0  501 -0.00000000000E+00  0.00000000000E+00  0.41516751004E+02  0.41516751004E+02  0.00000000000E+00 0.  1.
          1   -1    0    0  501    0  0.00000000000E+00 -0.00000000000E+00 -0.12573985676E+04  0.12573985676E+04  0.00000000000E+00 0. -1.
          5    1    1    2  502    0  0.52776728360E+01  0.52106286018E+01 -0.13427784193E+03  0.13454744782E+03  0.41800000000E+01 0. -1.
         -5    1    1    2    0  502 -0.20220711534E+03 -0.29744086795E+02 -0.41025243197E+03  0.45836334771E+03  0.41800000000E+01 0. -1.
        -11    1    1    2    0    0  0.91033775531E+02  0.48230549831E+02 -0.23929458428E+03  0.26052875521E+03  0.00000000000E+00 0. -1.
         11    1    1    2    0    0  0.10589566697E+03 -0.23697091638E+02 -0.43205695839E+03  0.44547576784E+03  0.00000000000E+00 0.  1.
</event>
<event>
 6    1  0.6447971E-006  0.1319195E+03  0.7561462E-02  0.1224635E+00
          1   -1    0    0  501    0  0.00000000000E+00  0.00000000000E+00  0.49969377727E+02  0.49969377727E+02  0.00000000000E+00 0. -1.
         -1   -1    0    0    0  501 -0.00000000000E+00 -0.00000000000E+00 -0.41998809869E+03  0.41998809869E+03  0.00000000000E+00 0.  1.
          5    1    1    2  502    0  0.28057943826E+02  0.10760526364E+03 -0.21894985170E+03  0.24560669969E+03  0.41800000000E+01 0. -1.
         -5    1    1    2    0  502 -0.14467778092E+02 -0.13724116306E+02  0.38044770156E+01  0.20727142028E+02  0.41800000000E+01 0. -1.
        -11    1    1    2    0    0  0.29560640649E+02 -0.82382984764E+02 -0.10411474485E+03  0.13601715976E+03  0.00000000000E+00 0. -1.
         11    1    1    2    0    0 -0.43150806383E+02 -0.11498162573E+02 -0.50758601433E+02  0.67606474938E+02  0.00000000000E+00 0.  1.
</event>
<event>
 6    1  0.6447971E-006  0.1335748E+03  0.7561462E-02  0.1222246E+00
         -2   -1    0    0    0  501 -0.00000000000E+00  0.00000000000E+00  0.18062308226E+03  0.18062308226E+03  0.00000000000E+00 0.  1.
          2   -1    0    0  501    0  0.00000000000E+00 -0.00000000000E+00 -0.13801508570E+03  0.13801508570E+03  0.00000000000E+00 0. -1.
          5    1    1    2  502    0 -0.41127237318E+02  0.44770021898E+02 -0.31597338813E+01  0.61018528566E+02  0.41800000000E+01 0.  1.
         -5    1    1    2    0  502  0.66630811210E+02  0.52479856408E+02  0.80971141998E+02  0.11733541054E+03  0.41800000000E+01 0.  1.
        -11    1    1    2    0    0  0.13446840209E+02  0.29699746941E+01  0.16068910258E+02  0.21162422786E+02  0.00000000000E+00 0.  1.
         11    1    1    2    0    0 -0.38950414102E+02 -0.10021985300E+03 -0.51272321818E+02  0.11912180606E+03  0.00000000000E+00 0. -1.
</event>
<event>
 6    1  0.6447971E-006  0.1162871E+03  0.7561462E-02  0.1249351E+00
          1   -1    0    0  501    0  0.00000000000E+00  0.00000000000E+00  0.83306254546E+02  0.83306254546E+02  0.00000000000E+00 0. -1.
         -1   -1    0    0    0  501 -0.00000000000E+00 -0.00000000000E+00 -0.54583053596E+03  0.54583053596E+03  0.00000000000E+00 0.  1.
          5    1    1    2  502    0  0.59410457823E+02 -0.67266707627E+02 -0.29360805576E+03  0.30704653599E+03  0.41800000000E+01 0.  1.
         -5    1    1    2    0  502 -0.35293912386E+02  0.23520039778E+02 -0.20881174461E+03  0.21311656343E+03  0.41800000000E+01 0.  1.
        -11    1    1    2    0    0  0.30975781738E+02  0.20944430181E+01  0.20614314573E+02  0.37267086164E+02  0.00000000000E+00 0. -1.
         11    1    1    2    0    0 -0.55092327174E+02  0.41652224831E+02  0.19281204385E+02  0.71706604921E+02  0.00000000000E+00 0.  1.
</event>
<event>
 6    1  0.6447971E-006  0.1635081E+03  0.7561462E-02  0.1184792E+00
         -1   -1    0    0    0  501 -0.00000000000E+00  0.00000000000E+00  0.14519353501E+03  0.14519353501E+03  0.00000000000E+00 0.  1.
          1   -1    0    0  501    0  0.00000000000E+00 -0.00000000000E+00 -0.29215669217E+03  0.29215669217E+03  0.00000000000E+00 0. -1.
          5    1    1    2  502    0 -0.61880358174E+01  0.15146360946E+03  0.47483202630E+02  0.15890765781E+03  0.41800000000E+01 0.  1.
         -5    1    1    2    0  502  0.26180741431E+02 -0.11223687338E+02 -0.15604846099E+02  0.32747305249E+02  0.41800000000E+01 0.  1.
        -11    1    1    2    0    0 -0.31182893946E+02 -0.11000075901E+03 -0.74450863146E+02  0.13643852418E+03  0.00000000000E+00 0.  1.
         11    1    1    2    0    0  0.11190188333E+02 -0.30239163108E+02 -0.10439065055E+03  0.10925673994E+03  0.00000000000E+00 0. -1.
</event>
<event>
 6    1  0.6447971E-006  0.1122454E+03  0.7561462E-02  0.1256467E+00
         -2   -1    0    0    0  501 -0.00000000000E+00  0.00000000000E+00  0.45618748194E+02  0.45618748194E+02  0.00000000000E+00 0.  1.
          2   -1    0    0  501    0  0.00000000000E+00 -0.00000000000E+00 -0.36041672496E+03  0.36041672496E+03  0.00000000000E+00 0. -1.
          5    1    1    2  502    0  0.58894457755E+02  0.11725145404E+02 -0.62386292368E+02  0.86692318370E+02  0.41800000000E+01 0. -1.
         -5    1    1    2    0  502 -0.59094955294E+02  0.55402179952E+02 -0.10855925105E+03  0.13551456997E+03  0.41800000000E+01 0. -1.
        -11    1    1    2    0    0  0.17612046593E+02 -0.44955970181E+01 -0.10814204380E+03  0.10965899970E+03  0.00000000000E+00 0. -1.
         11    1    1    2    0    0 -0.17411549054E+02 -0.62631728337E+02 -0.35710389548E+02  0.74169585118E+02  0.00000000000E+00 0.  1.
</event>
<event>
 6    1  0.6447971E-006  0.1308643E+03  0.7561462E-02  0.1226179E+00
          2   -1    0    0  501    0  0.00000000000E+00  0.00000000000E+00  0.17865438438E+02  0.17865438438E+02  0.00000000000E+00 0.  1.
         -2   -1    0    0    0  501 -0.00000000000E+00 -0.00000000000E+00 -0.10486915973E+04  0.10486915973E+04  0.00000000000E+00 0. -1.
          5    1    1    2  502    0  0.16794883863E+02  0.30661349992E+02 -0.20769837135E+03  0.21066151136E+03  0.41800000000E+01 0. -1.
         -5    1    1    2    0  502 -0.59021134062E+02 -0.92386818504E+02 -0.50292981984E+03  0.51475692767E+03  0.41800000000E+01 0. -1.
        -11    1    1    2    0    0 -0.13870658483E+02  0.59041149746E+02 -0.14545683632E+03  0.15759423772E+03  0.00000000000E+00 0. -1.
         11    1    1    2    0    0  0.56096908683E+02  0.26843187655E+01 -0.17474113139E+03  0.18354435903E+03  0.00000000000E+00 0.  1.
</event>
<event>
 6    1  0.6447971E-006  0.1476540E+03  0.7561462E-02  0.1203386E+00
         -2   -1    0    0    0  501 -0.00000000000E+00  0.00000000000E+00  0.19002175148E+02  0.19002175148E+02  0.00000000000E+00 0. -1.
          2   -1    0    0  501    0  0.00000000000E+00 -0.00000000000E+00 -0.13936443956E+04  0.13936443956E+04  0.00000000000E+00 0.  1.
          5    1    1    2  502    0 -0.23062658653E+02 -0.79602285853E+02 -0.63425883156E+03  0.63966408993E+03  0.41800000000E+01 0. -1.
         -5    1    1    2    0  502 -0.66465715369E+02 -0.21310183003E+01 -0.15722140243E+03  0.17075794078E+03  0.41800000000E+01 0. -1.
        -11    1    1    2    0    0  0.31937343872E+02  0.82111087749E+02 -0.42152223961E+03  0.43063119157E+03  0.00000000000E+00 0.  1.
         11    1    1    2    0    0  0.57591030150E+02 -0.37778359558E+00 -0.16163974681E+03  0.17159334843E+03  0.00000000000E+00 0. -1.
</event>
<event>
 6    1  0.6447971E-006  0.9183765E+02  0.7561462E-02  0.1298462E+00
         -1   -1    0    0    0  501 -0.00000000000E+00  0.00000000000E+00  0.13329827008E+04  0.13329827008E+04  0.00000000000E+00 0.  1.
          1   -1    0    0  501    0  0.00000000000E+00 -0.00000000000E+00 -0.20275746860E+02  0.20275746860E+02  0.00000000000E+00 0. -1.
          5    1    1    2  502    0 -0.27460920085E+02  0.65156497005E+02  0.54378807313E+03  0.54838162999E+03  0.41800000000E+01 0. -1.
         -5    1    1    2    0  502  0.51876418679E+02 -0.11129291295E+02  0.60511874908E+03  0.60745468706E+03  0.41800000000E+01 0.  1.
        -11    1    1    2    0    0 -0.15645674100E+02 -0.41330243599E+02  0.17360361627E+03  0.17914014551E+03  0.00000000000E+00 0.  1.
         11    1    1    2    0    0 -0.87698244951E+01 -0.12696962111E+02 -0.98034845640E+01  0.18281985070E+02  0.00000000000E+00 0. -1.
</event>
<event>
 6    1  0.6447971E-006  0.8778407E+02  0.7561462E-02  0.1308308E+00
          2   -1    0    0  501    0  0.00000000000E+00  0.00000000000E+00  0.39075254377E+03  0.39075254377E+03  0.00000000000E+00 0. -1.
         -2   -1    0    0    0  501 -0.00000000000E+00 -0.00000000000E+00 -0.41752718522E+02  0.41752718522E+02  0.00000000000E+00 0.  1.
          5    1    1    2  502    0  0.64323282919E+02  0.58162843086E+02  0.13191625062E+03  0.15792330613E+03  0.41800000000E+01 0. -1.
         -5    1    1    2    0  502 -0.26232171354E+02 -0.17080799379E+02 -0.10286876299E+01  0.31597644210E+02  0.41800000000E+01 0. -1.
        -11    1    1    2    0    0 -0.14070776669E+02 -0.76982152805E+01 -0.44572845674E+01  0.16646821327E+02  0.00000000000E+00 0.  1.
         11    1    1    2    0    0 -0.24020334895E+02 -0.33383828426E+02  0.22256954682E+03  0.22633749062E+03  0.00000000000E+00 0. -1.
</event>
<event>
 6    1  0.6447971E-006  0.7790161E+02  0.7561462E-02  0.1335114E+00
          2   -1    0    0  501    0  0.00000000000E+00  0.00000000000E+00  0.51682211436E+02  0.51682211436E+02  0.00000000000E+00 0. -1.
         -2   -1    0    0    0  501 -0.00000000000E+00 -0.00000000000E+00 -0.30557156331E+03  0.30557156331E+03  0.00000000000E+00 0.  1.
          5    1    1    2  502    0 -0.26705234295E+02  0.61065067150E+02  0.40036907194E+01  0.66900029179E+02  0.41800000000E+01 0.  1.
         -5    1    1    2    0  502  0.62721907633E+01 -0.10120887336E+02 -0.98269165193E+02  0.99076101887E+02  0.41800000000E+01 0.  1.
        -11    1    1    2    0    0  0.18483079945E+02  0.59952163617E+01  0.23531878850E+01  0.19573051798E+02  0.00000000000E+00 0. -1.
         11    1    1    2    0    0  0.19499635872E+01 -0.56939396175E+02 -0.16197706528E+03  0.17170459188E+03  0.00000000000E+00 0.  1.
</event>
<event>
 6    1  0.6447971E-006  0.1133837E+03  0.7561462E-02  0.1254429E+00
         -2   -1    0    0    0  501 -0.00000000000E+00  0.00000000000E+00  0.11042381131E+03  0.11042381131E+03  0.00000000000E+00 0.  1.
          2   -1    0    0  501    0  0.00000000000E+00 -0.00000000000E+00 -0.20815199394E+03  0.20815199394E+03  0.00000000000E+00 0. -1.
          5    1    1    2  502    0 -0.38346462112E+02 -0.84624964711E+02  0.41816737936E+02  0.10197032794E+03  0.41800000000E+01 0.  1.
         -5    1    1    2    0  502  0.28664431324E+01 -0.90101351932E+01 -0.58181828361E+02  0.59093117906E+02  0.41800000000E+01 0.  1.
        -11    1    1    2    0    0  0.55963386223E+02  0.49266300675E+02 -0.78938579779E+02  0.10858346263E+03  0.00000000000E+00 0. -1.
         11    1    1    2    0    0 -0.20483367244E+02  0.44368799228E+02 -0.24245124197E+01  0.48928896770E+02  0.00000000000E+00 0.  1.
</event>
<event>
 6    1  0.6447971E-006  0.8901692E+02  0.7561462E-02  0.1305250E+00
         -1   -1    0    0    0  501 -0.00000000000E+00  0.00000000000E+00  0.19532225331E+03  0.19532225331E+03  0.00000000000E+00 0.  1.
          1   -1    0    0  501    0  0.00000000000E+00 -0.00000000000E+00 -0.72288101097E+02  0.72288101097E+02  0.00000000000E+00 0. -1.
          5    1    1    2  502    0 -0.25061422164E+01 -0.30533269892E+02 -0.14700263751E+02  0.34236405673E+02  0.41800000000E+01 0.  1.
         -5    1    1    2    0  502 -0.29344645105E+02  0.50566795338E+02  0.11997730784E+03  0.13352953151E+03  0.41800000000E+01 0.  1.
        -11    1    1    2    0    0  0.22771270628E+01  0.30158059049E+02 -0.14185610456E+02  0.33405469272E+02  0.00000000000E+00 0. -1.
         11    1    1    2    0    0  0.29573660258E+02 -0.50191584495E+02  0.31942718575E+02  0.66438947954E+02  0.00000000000E+00 0.  1.
</event>
<event>
 6    1  0.6447971E-006  0.8372393E+02  0.7561462E-02  0.1318804E+00
          3   -1    0    0  501    0  0.00000000000E+00  0.00000000000E+00  0.14174198864E+03  0.14174198864E+03  0.00000000000E+00 0. -1.
         -3   -1    0    0    0  501 -0.00000000000E+00 -0.00000000000E+00 -0.11289361767E+03  0.11289361767E+03  0.00000000000E+00 0.  1.
          5    1    1    2  502    0  0.19953050923E+02 -0.37892272418E+02  0.55280720274E+02  0.70052687201E+02  0.41800000000E+01 0.  1.
         -5    1    1    2    0  502 -0.49073126113E+02 -0.19571647225E+02 -0.47087511863E+02  0.70893774445E+02  0.41800000000E+01 0.  1.
        -11    1    1    2    0    0 -0.47729963526E+01  0.21423929223E+02 -0.33682578903E+02  0.40203014303E+02  0.00000000000E+00 0.  1.
         11    1    1    2    0    0  0.33893071543E+02  0.36039990419E+02  0.54337741468E+02  0.73486130364E+02  0.00000000000E+00 0. -1.
</event>
<event>
 6    1  0.6447971E-006  0.1210738E+03  0.7561462E-02  0.1241336E+00
          1   -1    0    0  501    0  0.00000000000E+00  0.00000000000E+00  0.10779097618E+04  0.10779097618E+04  0.00000000000E+00 0. -1.
         -1   -1    0    0    0  501 -0.00000000000E+00 -0.00000000000E+00 -0.15766288491E+02  0.15766288491E+02  0.00000000000E+00 0.  1.
          5    1    1    2  502    0  0.42846202873E+02 -0.28317645351E+02  0.10015569948E+03  0.11263357704E+03  0.41800000000E+01 0. -1.
         -5    1    1    2    0  502  0.12751045161E+02  0.73744840041E+02  0.44551332735E+03  0.45177481983E+03  0.41800000000E+01 0. -1.
        -11    1    1    2    0    0  0.71873183829E+01  0.22229978283E+02  0.10539128176E+03  0.10794976494E+03  0.00000000000E+00 0. -1.
         11    1    1    2    0    0 -0.62784566418E+02 -0.67657172973E+02  0.41108316470E+03  0.42131788846E+03  0.00000000000E+00 0.  1.
</event>
<event>
 6    1  0.6447971E-006  0.8741488E+02  0.7561462E-02  0.1309235E+00
          1   -1    0    0  501    0  0.00000000000E+00  0.00000000000E+00  0.34165457706E+03  0.34165457706E+03  0.00000000000E+00 0. -1.
         -1   -1    0    0    0  501 -0.00000000000E+00 -0.00000000000E+00 -0.42550008425E+02  0.42550008425E+02  0.00000000000E+00 0.  1.
          5    1    1    2  502    0 -0.15652067022E+02 -0.41935263658E+02  0.82231706245E+02  0.93718084978E+02  0.41800000000E+01 0. -1.
         -5    1    1    2    0  502  0.25715254505E+02  0.49674924757E+02 -0.75636911669E+00  0.56097388158E+02  0.41800000000E+01 0. -1.
        -11    1    1    2    0    0  0.22705729867E+02  0.20448952223E+02  0.33879698254E+02  0.45623938558E+02  0.00000000000E+00 0.  1.
         11    1    1    2    0    0 -0.32768917350E+02 -0.28188613323E+02  0.18374953325E+03  0.18876517379E+03  0.00000000000E+00 0. -1.
</event>
<event>
 6    1  0.6447971E-006  0.1213979E+03  0.7561462E-02  0.1240809E+00
         -1   -1    0    0    0  501 -0.00000000000E+00  0.00000000000E+00  0.22026545627E+02  0.22026545627E+02  0.00000000000E+00 0.  1.
          1   -1    0    0  501    0  0.00000000000E+00 -0.00000000000E+00 -0.10296959925E+04  0.10296959925E+04  0.00000000000E+00 0. -1.
          5    1    1    2  502    0 -0.23117811265E+02  0.14224367586E+02 -0.43701210608E+03  0.43787420464E+03  0.41800000000E+01 0. -1.
         -5    1    1    2    0  502 -0.68370117277E+02  0.36045676892E+02 -0.12274938514E+03  0.14511598021E+03  0.41800000000E+01 0. -1.
        -11    1    1    2    0    0  0.24487299744E+02  0.26467840151E+02 -0.12938134203E+03  0.13431197294E+03  0.00000000000E+00 0.  1.
         11    1    1    2    0    0  0.67000628799E+02 -0.76737884629E+02 -0.31852661367E+03  0.33442038038E+03  0.00000000000E+00 0. -1.
</event>
<event>
 6    1  0.6447971E-006  0.1104932E+03  0.7561462E-02  0.1259659E+00
          2   -1    0    0  501    0  0.00000000000E+00  0.00000000000E+00  0.30573307800E+03  0.30573307800E+03  0.00000000000E+00 0. -1.
         -2   -1    0    0    0  501 -0.00000000000E+00 -0.00000000000E+00 -0.49756153647E+02  0.49756153647E+02  0.00000000000E+00 0.  1.
          5    1    1    2  502    0 -0.37461137161E+00 -0.33543578216E+02 -0.47179368204E+01  0.34132730642E+02  0.41800000000E+01 0. -1.
         -5    1    1    2    0  502 -0.42761313496E+02  0.70607554464E+02  0.11737232125E+03  0.14355379088E+03  0.41800000000E+01 0. -1.
        -11    1    1    2    0    0  0.36779131457E+02  0.23491063127E+02  0.70070703689E+02  0.82549609769E+02  0.00000000000E+00 0. -1.
         11    1    1    2    0    0  0.63567934102E+01 -0.60555039375E+02  0.73251836230E+02  0.95253100355E+02  0.00000000000E+00 0.  1.
</event>
<event>
 6    1  0.6447971E-006  0.9278350E+02  0.7561462E-02  0.1296248E+00
         -3   -1    0    0    0  501 -0.00000000000E+00  0.00000000000E+00  0.48590483894E+02  0.48590483894E+02  0.00000000000E+00 0. -1.
          3   -1    0    0  501    0  0.00000000000E+00 -0.00000000000E+00 -0.35150176297E+03  0.35150176297E+03  0.00000000000E+00 0.  1.
          5    1    1    2  502    0  0.32860780003E+02  0.32572620962E+02 -0.15074175693E+03  0.15773825211E+03  0.41800000000E+01 0.  1.
         -5    1    1    2    0  502  0.36637256339E+02 -0.21105963471E+02  0.96255866666E+01  0.43564602199E+02  0.41800000000E+01 0.  1.
        -11    1    1    2    0    0 -0.19942954401E+02 -0.36129928903E+02 -0.12669183122E+03  0.13324381146E+03  0.00000000000E+00 0. -1.
         11    1    1    2    0    0 -0.49555081941E+02  0.24663271412E+02 -0.35103277591E+02  0.65545581091E+02  0.00000000000E+00 0.  1.
</event>
<event>
 6    1  0.6447971E-006  0.1068913E+03  0.7561462E-02  0.1266437E+00
         -1   -1    0    0    0  501 -0.00000000000E+00  0.00000000000E+00  0.77777372775E+02  0.77777372775E+02  0.00000000000E+00 0. -1.
          1   -1    0    0  501    0  0.00000000000E+00 -0.00000000000E+00 -0.15525643618E+03  0.15525643618E+03  0.00000000000E+00 0.  1.
          5    1    1    2  502    0 -0.20653037766E+02  0.49120776772E+02 -0.30740371148E+02  0.61659074741E+02  0.41800000000E+01 0.  1.
         -5    1    1    2    0  502  0.21415213074E+02 -0.66802323111E+02 -0.94588373998E+01  0.70909123031E+02  0.41800000000E+01 0.  1.
        -11    1    1    2    0    0 -0.25423269529E+01  0.53817581885E+02 -0.91772320857E+01  0.54653610448E+02  0.00000000000E+00 0. -1.
         11    1    1    2    0    0  0.17801516443E+01 -0.36136035545E+02 -0.28102622774E+02  0.45812000738E+02  0.00000000000E+00 0.  1.
</event>
<event>
 6    1  0.6447971E-006  0.1171914E+03  0.7561462E-02  0.1247804E+00
          2   -1    0    0  501    0  0.00000000000E+00  0.00000000000E+00  0.14165706538E+03  0.14165706538E+03  0.00000000000E+00 0. -1.
         -2   -1    0    0    0  501 -0.00000000000E+00 -0.00000000000E+00 -0.12339108601E+03  0.12339108601E+03  0.00000000000E+00 0.  1.
          5    1    1    2  502    0  0.43695085694E+02  0.63453055751E+01 -0.23913723603E+02  0.50387121303E+02  0.41800000000E+01 0. -1.
         -5    1    1    2    0  502 -0.87618739248E+02  0.15334599240E+01 -0.26250781442E+02  0.91574946864E+02  0.41800000000E+01 0. -1.
        -11    1    1    2    0    0  0.48361656252E+02 -0.44314903979E+02  0.43030589541E+02  0.78449296660E+02  0.00000000000E+00 0. -1.
         11    1    1    2    0    0 -0.44380026974E+01  0.36436138480E+02  0.25399894867E+02  0.44636786562E+02  0.00000000000E+00 0.  1.
</event>
<event>
 6    1  0.6447971E-006  0.1125274E+03  0.7561462E-02  0.1255960E+00
         -1   -1    0    0    0  501 -0.00000000000E+00  0.00000000000E+00  0.30018266755E+03  0.30018266755E+03  0.00000000000E+00 0.  1.
          1   -1    0    0  501    0  0.00000000000E+00 -0.00000000000E+00 -0.57670712902E+02  0.57670712902E+02  0.00000000000E+00 0. -1.
          5    1    1    2  502    0  0.37599679179E+02  0.12766451690E+02  0.13470251126E+03  0.14049539886E+03  0.41800000000E+01 0.  1.
         -5    1    1    2    0  502 -0.50903335270E+02  0.54790030759E+02  0.39295622717E+02  0.84585550638E+02  0.41800000000E+01 0.  1.
        -11    1    1    2    0    0 -0.36640646315E+02 -0.22767493853E+02  0.43254808961E+02  0.61089068065E+02  0.00000000000E+00 0.  1.
         11    1    1    2    0    0  0.49944302406E+02 -0.44788988595E+02  0.25259011718E+02  0.71683362890E+02  0.00000000000E+00 0. -1.
</event>
<event>
 6    1  0.6447971E-006  0.8338844E+02  0.7561462E-02  0.1319702E+00
         -1   -1    0    0    0  501 -0.00000000000E+00  0.00000000000E+00  0.25901660959E+03  0.25901660959E+03  0.00000000000E+00 0.  1.
          1   -1    0    0  501    0  0.00000000000E+00 -0.00000000000E+00 -0.49334997349E+02  0.49334997349E+02  0.00000000000E+00 0. -1.
          5    1    1    2  502    0 -0.41565573832E+01  0.76593139849E+02  0.61773281296E+02  0.98575842493E+02  0.41800000000E+01 0.  1.
         -5    1    1    2    0  502 -0.18541853260E+01 -0.47978414346E+02  0.74230269613E+02  0.88504076591E+02  0.41800000000E+01 0.  1.
        -11    1    1    2    0    0 -0.12000546116E+02 -0.81868581181E+01 -0.19431147537E+02  0.24261229308E+02  0.00000000000E+00 0. -1.
         11    1    1    2    0    0  0.18011288825E+02 -0.20427867385E+02  0.93109208869E+02  0.97010458546E+02  0.00000000000E+00 0.  1.
</event>
<event>
 6    1  0.6447971E-006  0.1263902E+03  0.7561462E-02  0.1232912E+00
          1   -1    0    0  501    0  0.00000000000E+00  0.00000000000E+00  0.15309015649E+02  0.15309015649E+02  0.00000000000E+00 0. -1.
         -1   -1    0    0    0  501 -0.00000000000E+00 -0.00000000000E+00 -0.16576695706E+04  0.16576695706E+04  0.00000000000E+00 0.  1.
          5    1    1    2  502    0 -0.18455602385E+02 -0.77803204187E+02 -0.97633418059E+03  0.97961209284E+03  0.41800000000E+01 0. -1.
         -5    1    1    2    0  502  0.59235251153E+02  0.62057929564E+01 -0.33829044232E+03  0.34351888246E+03  0.41800000000E+01 0. -1.
        -11    1    1    2    0    0 -0.39338990527E+02 -0.20017363963E+01 -0.18611318285E+03  0.19023585349E+03  0.00000000000E+00 0. -1.
         11    1    1    2    0    0 -0.14406582408E+01  0.73599147627E+02 -0.14162274916E+03  0.15961175742E+03  0.00000000000E+00 0.  1.
</event>
<event>
 6    1  0.6447971E-006  0.1297679E+03  0.7561462E-02  0.1227801E+00
          1   -1    0    0  501    0  0.00000000000E+00  0.00000000000E+00  0.27126462148E+03  0.27126462148E+03  0.00000000000E+00 0. -1.
         -1   -1    0    0    0  501 -0.00000000000E+00 -0.00000000000E+00 -0.64252473154E+03  0.64252473154E+03  0.00000000000E+00 0.  1.
          5    1    1    2  502    0 -0.95361002488E+01 -0.55091746769E+02  0.39673946007E+02  0.68684293415E+02  0.41800000000E+01 0. -1.
         -5    1    1    2    0  502 -0.86491621015E+02  0.55807735925E+02 -0.60337776102E+03  0.61210905792E+03  0.41800000000E+01 0.  1.
        -11    1    1    2    0    0  0.25780598691E+02  0.13006219580E+02  0.13156119020E+01  0.28905567825E+02  0.00000000000E+00 0.  1.
         11    1    1    2    0    0  0.70247122573E+02 -0.13722208736E+02  0.19112809305E+03  0.20409043386E+03  0.00000000000E+00 0. -1.
</event>
<event>
 6    1  0.6447971E-006  0.8719122E+02  0.7561462E-02  0.1309800E+00
          1   -1    0    0  501    0  0.00000000000E+00  0.00000000000E+00  0.24657669627E+03  0.24657669627E+03  0.00000000000E+00 0. -1.
         -1   -1    0    0    0  501 -0.00000000000E+00 -0.00000000000E+00 -0.50322214876E+02  0.50322214876E+02  0.00000000000E+00 0.  1.
          5    1    1    2  502    0  0.10711474215E+02  0.39190252625E+02  0.93655901395E+02  0.10217392939E+03  0.41800000000E+01 0.  1.
         -5    1    1    2    0  502 -0.26746981803E+02 -0.46089538939E+02 -0.26241909434E+01  0.53516403217E+02  0.41800000000E+01 0.  1.
        -11    1    1    2    0    0 -0.31875129896E+02  0.31840508252E+01  0.84003413265E+01  0.33116881193E+02  0.00000000000E+00 0.  1.
         11    1    1    2    0    0  0.47910637484E+02  0.37152354887E+01  0.96822429619E+02  0.10809169735E+03  0.00000000000E+00 0. -1.
</event>
<event>
 6    1  0.1412149E-005  0.4270879E+03  0.7561462E-02  0.1034784E+00
         -2   -1    0    0    0  501 -0.00000000000E+00  0.00000000000E+00  0.65258371865E+02  0.65258371865E+02  0.00000000000E+00 0.  1.
          2   -1    0    0  501    0  0.00000000000E+00 -0.00000000000E+00 -0.29270235715E+04  0.29270235715E+04  0.00000000000E+00 0. -1.
          5    1    1    2  502    0 -0.90686174311E+02 -0.97514071494E+02 -0.61611860436E+03  0.63035909082E+03  0.41800000000E+01 0.  1.
         -5    1    1    2    0  502 -0.10416028601E+03 -0.27775821100E+03 -0.82561636170E+03  0.87730202215E+03  0.41800000000E+01 0.  1.
        -11    1    1    2    0    0  0.83881632223E+02  0.19929354566E+03 -0.57369455956E+03  0.61309011836E+03  0.00000000000E+00 0.  1.
         11    1    1    2    0    0  0.11096482810E+03  0.17597873683E+03 -0.84633567405E+03  0.87153071206E+03  0.00000000000E+00 0. -1.
</event>
<event>
 6    1  0.6447971E-006  0.1252637E+03  0.7561462E-02  0.1234658E+00
         -2   -1    0    0    0  501 -0.00000000000E+00  0.00000000000E+00  0.52491959877E+03  0.52491959877E+03  0.00000000000E+00 0.  1.
          2   -1    0    0  501    0  0.00000000000E+00 -0.00000000000E+00 -0.32292701422E+02  0.32292701422E+02  0.00000000000E+00 0. -1.
          5    1    1    2  502    0  0.54478138765E+02  0.53335429296E+02  0.15553582359E+03  0.17326684750E+03  0.41800000000E+01 0.  1.
         -5    1    1    2    0  502 -0.62834062528E+02  0.13024643869E+02  0.17398228267E+03  0.18548603141E+03  0.41800000000E+01 0.  1.
        -11    1    1    2    0    0  0.35143358675E+02 -0.74076671739E+02  0.98941702747E+02  0.12849851944E+03  0.00000000000E+00 0. -1.
         11    1    1    2    0    0 -0.26787434911E+02  0.77165985736E+01  0.64167088339E+02  0.69960901857E+02  0.00000000000E+00 0.  1.
</event>
<event>
 6    1  0.6447971E-006  0.1376886E+03  0.7561462E-02  0.1216473E+00
          1   -1    0    0  501    0  0.00000000000E+00  0.00000000000E+00  0.58741106040E+02  0.58741106040E+02  0.00000000000E+00 0. -1.
         -1   -1    0    0    0  501 -0.00000000000E+00 -0.00000000000E+00 -0.35201407015E+03  0.35201407015E+03  0.00000000000E+00 0.  1.
          5    1    1    2  502    0  0.95370266576E+02  0.41308187107E+02 -0.16135024303E+03  0.19197194429E+03  0.41800000000E+01 0.  1.
         -5    1    1    2    0  502 -0.39246266517E+02  0.26127185546E+02 -0.50328100718E+02  0.69088996099E+02  0.41800000000E+01 0.  1.
        -11    1    1    2    0    0 -0.54598207255E+02  0.19436386819E+01 -0.47409491431E+02  0.72335342983E+02  0.00000000000E+00 0.  1.
         11    1    1    2    0    0 -0.15257928039E+01 -0.69379011335E+02 -0.34185128926E+02  0.77358892812E+02  0.00000000000E+00 0. -1.
</event>
<event>
 6    1  0.6447971E-006  0.1066764E+03  0.7561462E-02  0.1266851E+00
          2   -1    0    0  501    0  0.00000000000E+00  0.00000000000E+00  0.74889637202E+03  0.74889637202E+03  0.00000000000E+00 0. -1.
         -2   -1    0    0    0  501 -0.00000000000E+00 -0.00000000000E+00 -0.17829480531E+02  0.17829480531E+02  0.00000000000E+00 0.  1.
          5    1    1    2  502    0 -0.30372517999E+02 -0.44176353089E+02  0.11508459701E+03  0.12702746510E+03  0.41800000000E+01 0.  1.
         -5    1    1    2    0  502 -0.55772144153E+01  0.73387234051E+02  0.30207663607E+03  0.31094140589E+03  0.41800000000E+01 0.  1.
        -11    1    1    2    0    0  0.47785771685E+02  0.65143313431E+01  0.24986268772E+03  0.25447451582E+03  0.00000000000E+00 0. -1.
         11    1    1    2    0    0 -0.11836039271E+02 -0.35725212305E+02  0.64042970696E+02  0.74282465734E+02  0.00000000000E+00 0.  1.
</event>
<event>
 6    1  0.6447971E-006  0.1329127E+03  0.7561462E-02  0.1223197E+00
          4   -1    0    0  501    0  0.00000000000E+00  0.00000000000E+00  0.39545219807E+02  0.39545219807E+02  0.00000000000E+00 0. -1.
         -4   -1    0    0    0  501 -0.00000000000E+00 -0.00000000000E+00 -0.61882160854E+03  0.61882160854E+03  0.00000000000E+00 0.  1.
          5    1    1    2  502    0  0.27629226985E+02 -0.22357977964E+02 -0.48107061425E+02  0.59958444955E+02  0.41800000000E+01 0. -1.
         -5    1    1    2    0  502 -0.11827594824E+03 -0.34092559191E+02 -0.33728880145E+03  0.35907201298E+03  0.41800000000E+01 0. -1.
        -11    1    1    2    0    0  0.79187807099E+02  0.47559899179E+02 -0.20242358355E+03  0.22250384262E+03  0.00000000000E+00 0.  1.
         11    1    1    2    0    0  0.11458914156E+02  0.88906379757E+01  0.85430576882E+01  0.16832527793E+02  0.00000000000E+00 0. -1.
</event>
<event>
 6    1  0.6447971E-006  0.1312125E+03  0.7561462E-02  0.1225668E+00
         -2   -1    0    0    0  501 -0.00000000000E+00  0.00000000000E+00  0.10422807866E+03  0.10422807866E+03  0.00000000000E+00 0. -1.
          2   -1    0    0  501    0  0.00000000000E+00 -0.00000000000E+00 -0.41749551348E+03  0.41749551348E+03  0.00000000000E+00 0.  1.
          5    1    1    2  502    0  0.10468623631E+03 -0.84789747777E+01  0.50726208547E+02  0.11671213185E+03  0.41800000000E+01 0. -1.
         -5    1    1    2    0  502  0.13033151369E+02  0.28305242861E+02 -0.46640666668E+02  0.56248324378E+02  0.41800000000E+01 0. -1.
        -11    1    1    2    0    0 -0.47106514444E+02  0.11705086553E+02 -0.46991701235E+02  0.67559253543E+02  0.00000000000E+00 0. -1.
         11    1    1    2    0    0 -0.70612873237E+02 -0.31531354637E+02 -0.27036127546E+03  0.28120388237E+03  0.00000000000E+00 0.  1.
</event>
<event>
 6    1  0.6447971E-006  0.1636243E+03  0.7561462E-02  0.1184665E+00
          1   -1    0    0  501    0  0.00000000000E+00  0.00000000000E+00  0.51258885883E+03  0.51258885883E+03  0.00000000000E+00 0. -1.
         -1   -1    0    0    0  501 -0.00000000000E+00 -0.00000000000E+00 -0.60070757007E+02  0.60070757007E+02  0.00000000000E+00 0.  1.
          5    1    1    2  502    0 -0.12237246565E+03 -0.32027626528E+02  0.18556655616E+03  0.22461791642E+03  0.41800000000E+01 0. -1.
         -5    1    1    2    0  502 -0.12512691729E+02  0.40236233246E+02  0.90325360931E+01  0.43296432052E+02  0.41800000000E+01 0. -1.
        -11    1    1    2    0    0  0.78950551856E+02  0.36265108023E+02  0.10753828954E+03  0.13824916425E+03  0.00000000000E+00 0.  1.
         11    1    1    2    0    0  0.55934605521E+02 -0.44473714741E+02  0.15038072004E+03  0.16649610313E+03  0.00000000000E+00 0. -1.
</event>
<event>
 6    1  0.6447971E-006  0.8050992E+02  0.7561462E-02  0.1327611E+00
          1   -1    0    0  501    0  0.00000000000E+00  0.00000000000E+00  0.27495157312E+03  0.27495157312E+03  0.00000000000E+00 0. -1.
         -1   -1    0    0    0  501 -0.00000000000E+00 -0.00000000000E+00 -0.70659799833E+02  0.70659799833E+02  0.00000000000E+00 0.  1.
          5    1    1    2  502    0 -0.68501317878E+02  0.71103037661E+01 -0.23247923828E+02  0.72807453828E+02  0.41800000000E+01 0. -1.
         -5    1    1    2    0  502 -0.92046660165E+01  0.39040210205E+01  0.87618653956E+02  0.88286285331E+02  0.41800000000E+01 0. -1.
        -11    1    1    2    0    0  0.23731656899E+02 -0.13223805841E+02  0.12577638378E+03  0.12867695713E+03  0.00000000000E+00 0. -1.
         11    1    1    2    0    0  0.53974326995E+02  0.22094810549E+01  0.14144659380E+02  0.55840676662E+02  0.00000000000E+00 0.  1.
</event>
<event>
 6    1  0.6447971E-006  0.2810162E+03  0.7561462E-02  0.1095135E+00
         -2   -1    0    0    0  501 -0.00000000000E+00  0.00000000000E+00  0.78683065709E+02  0.78683065709E+02  0.00000000000E+00 0.  1.
          2   -1    0    0  501    0  0.00000000000E+00 -0.00000000000E+00 -0.13546929771E+04  0.13546929771E+04  0.00000000000E+00 0. -1.
          5    1    1    2  502    0 -0.23336731226E+03 -0.13270706530E+03 -0.34630389663E+03  0.43819553721E+03  0.41800000000E+01 0. -1.
         -5    1    1    2    0  502  0.32663417032E+02  0.45300995623E+02 -0.28212147953E+02  0.62709462673E+02  0.41800000000E+01 0.  1.
        -11    1    1    2    0    0  0.15888913601E+03  0.10679306881E+03 -0.75525061126E+03  0.77913670360E+03  0.00000000000E+00 0. -1.
         11    1    1    2    0    0  0.41814759212E+02 -0.19386999133E+02 -0.14624325559E+03  0.15333433937E+03  0.00000000000E+00 0.  1.
</event>
<event>
 6    1  0.6447971E-006  0.1155151E+03  0.7561462E-02  0.1250685E+00
          1   -1    0    0  501    0  0.00000000000E+00  0.00000000000E+00  0.30522157000E+03  0.30522157000E+03  0.00000000000E+00 0. -1.
         -1   -1    0    0    0  501 -0.00000000000E+00 -0.00000000000E+00 -0.67916578950E+02  0.67916578950E+02  0.00000000000E+00 0.  1.
          5    1    1    2  502    0 -0.40453904818E+02 -0.26655116056E+02  0.26483299809E+01  0.48698045943E+02  0.41800000000E+01 0. -1.
         -5    1    1    2    0  502  0.84668404146E+02  0.67265604258E+01  0.20667386998E+02  0.87513419321E+02  0.41800000000E+01 0.  1.
        -11    1    1    2    0    0  0.13349884533E+02 -0.22288260585E+02  0.30647483300E+02  0.40177782537E+02  0.00000000000E+00 0.  1.
         11    1    1    2    0    0 -0.57564383861E+02  0.42216816215E+02  0.18334179077E+03  0.19674890115E+03  0.00000000000E+00 0. -1.
</event>
<event>
 6    1  0.6447971E-006  0.5482071E+02  0.7561462E-02  0.1420949E+00
         -2   -1    0    0    0  501 -0.00000000000E+00  0.00000000000E+00  0.61410529226E+02  0.61410529226E+02  0.00000000000E+00 0.  1.
          2   -1    0    0  501    0  0.00000000000E+00 -0.00000000000E+00 -0.34820882302E+03  0.34820882302E+03  0.00000000000E+00 0. -1.
          5    1    1    2  502    0 -0.24602299633E+01  0.50292331544E+01 -0.75779265648E+02  0.76100692637E+02  0.41800000000E+01 0. -1.
         -5    1    1    2    0  502  0.22146379945E+02  0.26581462440E+02  0.46061907947E+02  0.57759917363E+02  0.41800000000E+01 0. -1.
        -11    1    1    2    0    0 -0.14341339769E+02 -0.48245660546E+02 -0.25281023227E+03  0.25777185907E+03  0.00000000000E+00 0. -1.
         11    1    1    2    0    0 -0.53448102119E+01  0.16634964952E+02 -0.42707038189E+01  0.17986883173E+02  0.00000000000E+00 0.  1.
</event>
<event>
 6    1  0.6447971E-006  0.1358675E+03  0.7561462E-02  0.1219000E+00
          2   -1    0    0  501    0  0.00000000000E+00  0.00000000000E+00  0.54406924696E+02  0.54406924696E+02  0.00000000000E+00 0. -1.
         -2   -1    0    0    0  501 -0.00000000000E+00 -0.00000000000E+00 -0.42952609659E+03  0.42952609659E+03  0.00000000000E+00 0.  1.
          5    1    1    2  502    0  0.35485906249E+02  0.20422834274E+02 -0.15475700501E+03  0.16013601937E+03  0.41800000000E+01 0. -1.
         -5    1    1    2    0  502  0.43788154160E+02 -0.87695503917E+02 -0.86283608133E+02  0.13065311816E+03  0.41800000000E+01 0. -1.
        -11    1    1    2    0    0 -0.76654483027E+02  0.12538545858E+02 -0.48649457401E+02  0.91650938925E+02  0.00000000000E+00 0. -1.
         11    1    1    2    0    0 -0.26195773817E+01  0.54734123784E+02 -0.85429101357E+02  0.10149294483E+03  0.00000000000E+00 0.  1.
</event>
<event>
 6    1  0.6447971E-006  0.6954398E+02  0.7561462E-02  0.1361651E+00
          2   -1    0    0  501    0  0.00000000000E+00  0.00000000000E+00  0.47774866925E+03  0.47774866925E+03  0.00000000000E+00 0. -1.
         -2   -1    0    0    0  501 -0.00000000000E+00 -0.00000000000E+00 -0.26920671196E+02  0.26920671196E+02  0.00000000000E+00 0.  1.
          5    1    1    2  502    0 -0.14179506896E+01  0.16689353611E+02  0.26359720253E+03  0.26416188728E+03  0.41800000000E+01 0. -1.
         -5    1    1    2    0  502  0.27946345205E+02 -0.72117471845E+01  0.21677250192E+00  0.29163794302E+02  0.41800000000E+01 0. -1.
        -11    1    1    2    0    0  0.32113597758E+02 -0.11154890956E+02  0.10600520338E+03  0.11132303399E+03  0.00000000000E+00 0. -1.
         11    1    1    2    0    0 -0.58641992274E+02  0.16772845291E+01  0.81008819648E+02  0.10002062488E+03  0.00000000000E+00 0.  1.
</event>
<event>
 6    1  0.6447971E-006  0.6137480E+02  0.7561462E-02  0.1392151E+00
         -2   -1    0    0    0  501 -0.00000000000E+00  0.00000000000E+00  0.44761835980E+02  0.44761835980E+02  0.00000000000E+00 0.  1.
          2   -1    0    0  501    0  0.00000000000E+00 -0.00000000000E+00 -0.27414592870E+03  0.27414592870E+03  0.00000000000E+00 0. -1.
          5    1    1    2  502    0  0.10869309289E+02  0.16265191889E+02 -0.14144430438E+03  0.14285188831E+03  0.41800000000E+01 0.  1.
         -5    1    1    2    0  502  0.13638366576E+02 -0.22565683554E+02  0.19970319804E+02  0.33339184006E+02  0.41800000000E+01 0.  1.
        -11    1    1    2    0    0  0.13656386556E+02  0.28709765413E+02 -0.70366208660E+01  0.32561657775E+02  0.00000000000E+00 0.  1.
         11    1    1    2    0    0 -0.38164062421E+02 -0.22409273749E+02 -0.10087348728E+03  0.11015503460E+03  0.00000000000E+00 0. -1.
</event>
<event>
 6    1  0.6447971E-006  0.1684818E+03  0.7561462E-02  0.1179440E+00
          1   -1    0    0  501    0  0.00000000000E+00  0.00000000000E+00  0.62756593048E+03  0.62756593048E+03  0.00000000000E+00 0. -1.
         -1   -1    0    0    0  501 -0.00000000000E+00 -0.00000000000E+00 -0.47743382362E+02  0.47743382362E+02  0.00000000000E+00 0.  1.
          5    1    1    2  502    0 -0.62987729485E+02  0.69367472943E+02  0.20151406861E+03  0.22227166400E+03  0.41800000000E+01 0.  1.
         -5    1    1    2    0  502  0.50743202616E+02  0.63883201033E+02  0.85741141714E+02  0.11842698919E+03  0.41800000000E+01 0.  1.
        -11    1    1    2    0    0  0.51554317164E+02 -0.68503597750E+02  0.17281652437E+03  0.19291485588E+03  0.00000000000E+00 0. -1.
         11    1    1    2    0    0 -0.39309790294E+02 -0.64747076226E+02  0.11975081343E+03  0.14169580378E+03  0.00000000000E+00 0.  1.
</event>
<event>
 6    1  0.1084373E-005  0.2532579E+03  0.7561462E-02  0.1111263E+00
         -1   -1    0    0    0  501 -0.00000000000E+00  0.00000000000E+00  0.84702219869E+02  0.84702219869E+02  0.00000000000E+00 0.  1.
          1   -1    0    0  501    0  0.00000000000E+00 -0.00000000000E+00 -0.87657590683E+03  0.87657590683E+03  0.00000000000E+00 0. -1.
          5    1    1    2  502    0  0.31368860125E+02 -0.16304019489E+03 -0.19708760690E+03  0.25773456836E+03  0.41800000000E+01 0. -1.
         -5    1    1    2    0  502 -0.59612053778E+02 -0.65799487401E+02 -0.46828091149E+02  0.10046647211E+03  0.41800000000E+01 0. -1.
        -11    1    1    2    0    0 -0.36122613399E+02  0.51645421327E+02 -0.12419561791E+03  0.13927183582E+03  0.00000000000E+00 0. -1.
         11    1    1    2    0    0  0.64365807052E+02  0.17719426096E+03 -0.42376237099E+03  0.46380525041E+03  0.00000000000E+00 0.  1.
</event>
<event>
 6    1  0.6447971E-006  0.1893193E+03  0.7561462E-02  0.1159077E+00
         -1   -1    0    0    0  501 -0.00000000000E+00  0.00000000000E+00  0.90791007056E+02  0.90791007056E+02  0.00000000000E+00 0.  1.
          1   -1    0    0  501    0  0.00000000000E+00 -0.00000000000E+00 -0.47981409291E+03  0.47981409291E+03  0.00000000000E+00 0. -1.
          5    1    1    2  502    0 -0.10873901775E+03 -0.67508830922E+01 -0.93870850059E+02  0.14387132200E+03  0.41800000000E+01 0.  1.
         -5    1    1    2    0  502 -0.40133590495E+02  0.89975498324E+02 -0.39798481129E+02  0.10633760805E+03  0.41800000000E+01 0.  1.
        -11    1    1    2    0    0  0.57798868366E+02 -0.25497362140E+02 -0.28671657353E+02  0.69374985376E+02  0.00000000000E+00 0.  1.
         11    1    1    2    0    0  0.91073739883E+02 -0.57727253091E+02 -0.22668209731E+03  0.25102118454E+03  0.00000000000E+00 0. -1.
</event>
<event>
 6    1  0.6447971E-006  0.8100533E+02  0.7561462E-02  0.1326222E+00
         -1   -1    0    0    0  501 -0.00000000000E+00  0.00000000000E+00  0.55679192411E+03  0.55679192411E+03  0.00000000000E+00 0.  1.
          1   -1    0    0  501    0  0.00000000000E+00 -0.00000000000E+00 -0.22955742308E+02  0.22955742308E+02  0.00000000000E+00 0. -1.
          5    1    1    2  502    0 -0.52981794309E+02 -0.41691439573E+02  0.10328764370E+03  0.12341416613E+03  0.41800000000E+01 0. -1.
         -5    1    1    2    0  502  0.32472839568E+02  0.18477272548E+02  0.24663054359E+03  0.24947944272E+03  0.41800000000E+01 0. -1.
        -11    1    1    2    0    0  0.22030091761E+02 -0.95911753470E+01  0.44873647042E+01  0.24442831864E+02  0.00000000000E+00 0. -1.
         11    1    1    2    0    0 -0.15211370196E+01  0.32805342372E+02  0.17943062981E+03  0.18241122570E+03  0.00000000000E+00 0.  1.
</event>
<event>
 6    1  0.6447971E-006  0.1364447E+03  0.7561462E-02  0.1218195E+00
          2   -1    0    0  501    0  0.00000000000E+00  0.00000000000E+00  0.24614884577E+03  0.24614884577E+03  0.00000000000E+00 0. -1.
         -2   -1    0    0    0  501 -0.00000000000E+00 -0.00000000000E+00 -0.77641716947E+02  0.77641716947E+02  0.00000000000E+00 0.  1.
          5    1    1    2  502    0 -0.89562254746E+02  0.35914504511E+01  0.56452881321E+02  0.10601271717E+03  0.41800000000E+01 0.  1.
         -5    1    1    2    0  502  0.27711335164E+02  0.54548906399E+02  0.33059888212E+02  0.69670150671E+02  0.41800000000E+01 0.  1.
        -11    1    1    2    0    0  0.15054228135E+02  0.23395365651E+02  0.45473733035E+01  0.28189564073E+02  0.00000000000E+00 0.  1.
         11    1    1    2    0    0  0.46796691447E+02 -0.81535722501E+02  0.74446985988E+02  0.11991813081E+03  0.00000000000E+00 0. -1.
</event>
<event>
 6    1  0.6447971E-006  0.1252697E+03  0.7561462E-02  0.1234648E+00
         -2   -1    0    0    0  501 -0.00000000000E+00  0.00000000000E+00  0.55153908014E+03  0.55153908014E+03  0.00000000000E+00 0.  1.
          2   -1    0    0  501    0  0.00000000000E+00 -0.00000000000E+00 -0.54813830780E+02  0.54813830780E+02  0.00000000000E+00 0. -1.
          5    1    1    2  502    0  0.47268860976E+02 -0.43022649146E+02  0.17196296895E+03  0.18350484639E+03  0.41800000000E+01 0.  1.
         -5    1    1    2    0  502  0.29113083523E+02  0.82134523328E+02  0.27386835299E+03  0.28742824970E+03  0.41800000000E+01 0.  1.
        -11    1    1    2    0    0 -0.67061079403E+02 -0.89259578561E+01  0.70921843838E+02  0.98014126675E+02  0.00000000000E+00 0.  1.
         11    1    1    2    0    0 -0.93208650953E+01 -0.30185916326E+02 -0.20027916419E+02  0.37405688159E+02  0.00000000000E+00 0. -1.
</event>
<event>
 6    1  0.6447971E-006  0.3295960E+03  0.7561462E-02  0.1071316E+00
         -1   -1    0    0    0  501 -0.00000000000E+00  0.00000000000E+00  0.57577364858E+02  0.57577364858E+02  0.00000000000E+00 0.  1.
          1   -1    0    0  501    0  0.00000000000E+00 -0.00000000000E+00 -0.22860196675E+04  0.22860196675E+04  0.00000000000E+00 0. -1.
          5    1    1    2  502    0 -0.77343987192E+02  0.18679793358E+03 -0.46895438943E+03  0.51069682994E+03  0.41800000000E+01 0.  1.
         -5    1    1    2    0  502 -0.11337336502E+03  0.62350330193E+02 -0.19203875907E+03  0.23159758409E+03  0.41800000000E+01 0.  1.
        -11    1    1    2    0    0  0.99142505350E+01 -0.77764891933E+02 -0.38029518941E+03  0.38829125907E+03  0.00000000000E+00 0. -1.
         11    1    1    2    0    0  0.18080310167E+03 -0.17138337184E+03 -0.11871539647E+04  0.12130113592E+04  0.00000000000E+00 0.  1.
</event>
<event>
 6    1  0.6447971E-006  0.1494114E+03  0.7561462E-02  0.1201198E+00
          1   -1    0    0  501    0  0.00000000000E+00  0.00000000000E+00  0.36727082821E+02  0.36727082821E+02  0.00000000000E+00 0. -1.
         -1   -1    0    0    0  501 -0.00000000000E+00 -0.00000000000E+00 -0.85707792639E+03  0.85707792639E+03  0.00000000000E+00 0.  1.
          5    1    1    2  502    0  0.26742914153E+02 -0.22478696607E+02 -0.18096788630E+02  0.39565659571E+02  0.41800000000E+01 0.  1.
         -5    1    1    2    0  502  0.10249463791E+03 -0.22304010369E+02 -0.49433040366E+03  0.50535397502E+03  0.41800000000E+01 0.  1.
        -11    1    1    2    0    0 -0.73288634847E+02 -0.17078849135E+02 -0.10236897251E+03  0.12705242075E+03  0.00000000000E+00 0. -1.
         11    1    1    2    0    0 -0.55948917219E+02  0.61861556110E+02 -0.20555467876E+03  0.22183295387E+03  0.00000000000E+00 0.  1.
</event>
<event>
 6    1  0.6447971E-006  0.9776031E+02  0.7561462E-02  0.1285077E+00
          4   -1    0    0  501    0  0.00000000000E+00  0.00000000000E+00  0.33513833767E+03  0.33513833767E+03  0.00000000000E+00 0.  1.
         -4   -1    0    0    0  501 -0.00000000000E+00 -0.00000000000E+00 -0.43001184654E+02  0.43001184654E+02  0.00000000000E+00 0. -1.
          5    1    1    2  502    0 -0.71595065357E+02 -0.30677556114E+02  0.35974550012E+02  0.85898815365E+02  0.41800000000E+01 0. -1.
         -5    1    1    2    0  502  0.27663405195E+02  0.31733211601E+02  0.78907973820E+02  0.89533242083E+02  0.41800000000E+01 0. -1.
        -11    1    1    2    0    0  0.20864775116E+02  0.29990893513E+02  0.15243278340E+03  0.15674994733E+03  0.00000000000E+00 0.  1.
         11    1    1    2    0    0  0.23066885045E+02 -0.31046549000E+02  0.24821845785E+02  0.45957517543E+02  0.00000000000E+00 0. -1.
</event>
<event>
 6    1  0.6447971E-006  0.8053353E+02  0.7561462E-02  0.1327544E+00
         -2   -1    0    0    0  501 -0.00000000000E+00  0.00000000000E+00  0.14519908132E+03  0.14519908132E+03  0.00000000000E+00 0.  1.
          2   -1    0    0  501    0  0.00000000000E+00 -0.00000000000E+00 -0.85771831089E+02  0.85771831089E+02  0.00000000000E+00 0. -1.
          5    1    1    2  502    0  0.39892413034E+01  0.45769227475E+02  0.34128857059E+02  0.57384558149E+02  0.41800000000E+01 0.  1.
         -5    1    1    2    0  502  0.17902183444E+01 -0.73892844211E+02 -0.52880161868E+01  0.74221242394E+02  0.41800000000E+01 0.  1.
        -11    1    1    2    0    0 -0.16043507359E+02  0.71768360606E+01 -0.29818474323E+02  0.34612750760E+02  0.00000000000E+00 0. -1.
         11    1    1    2    0    0  0.10264047711E+02  0.20946780676E+02  0.60404883680E+02  0.64752361104E+02  0.00000000000E+00 0.  1.
</event>
<event>
 6    1  0.6447971E-006  0.2489746E+03  0.7561462E-02  0.1113955E+00
         -1   -1    0    0    0  501 -0.00000000000E+00  0.00000000000E+00  0.11316047218E+03  0.11316047218E+03  0.00000000000E+00 0.  1.
          1   -1    0    0  501    0  0.00000000000E+00 -0.00000000000E+00 -0.11004351034E+04  0.11004351034E+04  0.00000000000E+00 0. -1.
          5    1    1    2  502    0 -0.36429110345E+02 -0.75774491452E+02 -0.51610533104E+02  0.98741952394E+02  0.41800000000E+01 0. -1.
         -5    1    1    2    0  502  0.21440363696E+03  0.47235527429E+02 -0.77259616185E+02  0.23278022958E+03  0.41800000000E+01 0.  1.
        -11    1    1    2    0    0 -0.10223487421E+03 -0.20071788484E+02 -0.58592631762E+03  0.59511721189E+03  0.00000000000E+00 0. -1.
         11    1    1    2    0    0 -0.75739652402E+02  0.48610752507E+02 -0.27247816434E+03  0.28695618176E+03  0.00000000000E+00 0.  1.
</event>
<event>
 6    1  0.6447971E-006  0.1188579E+03  0.7561462E-02  0.1244993E+00
         -2   -1    0    0    0  501 -0.00000000000E+00  0.00000000000E+00  0.10596172151E+03  0.10596172151E+03  0.00000000000E+00 0.  1.
          2   -1    0    0  501    0  0.00000000000E+00 -0.00000000000E+00 -0.17675894652E+03  0.17675894652E+03  0.00000000000E+00 0. -1.
          5    1    1    2  502    0  0.70583807542E+02  0.62398161666E+02  0.10566834484E+02  0.94893281414E+02  0.41800000000E+01 0.  1.
         -5    1    1    2    0  502 -0.31568145894E+02 -0.25332474432E+02  0.16713954883E+02  0.43989894111E+02  0.41800000000E+01 0.  1.
        -11    1    1    2    0    0 -0.63459470193E+02 -0.68074478914E+01 -0.45264066867E+02  0.78245009127E+02  0.00000000000E+00 0.  1.
         11    1    1    2    0    0  0.24443808544E+02 -0.30258239343E+02 -0.52813947515E+02  0.65592483383E+02  0.00000000000E+00 0. -1.
</event>
<event>
 6    1  0.6447971E-006  0.2056034E+03  0.7561462E-02  0.1145096E+00
         -2   -1    0    0    0  501 -0.00000000000E+00  0.00000000000E+00  0.26130740134E+03  0.26130740134E+03  0.00000000000E+00 0.  1.
          2   -1    0    0  501    0  0.00000000000E+00 -0.00000000000E+00 -0.18079599290E+03  0.18079599290E+03  0.00000000000E+00 0. -1.
          5    1    1    2  502    0 -0.94316633448E+02 -0.17274636370E+03  0.54530032569E+02  0.20427415492E+03  0.41800000000E+01 0. -1.
         -5    1    1    2    0  502 -0.44690317116E+01  0.12932926394E+02 -0.19456134283E+02  0.24150494628E+02  0.41800000000E+01 0. -1.
        -11    1    1    2    0    0  0.30421998525E+02  0.50375096905E+01 -0.14630658842E+02  0.34131080795E+02  0.00000000000E+00 0. -1.
         11    1    1    2    0    0  0.68363666635E+02  0.15477592761E+03  0.60068168993E+02  0.17954766389E+03  0.00000000000E+00 0.  1.
</event>
<event>
 6    1  0.6447971E-006  0.1935326E+03  0.7561462E-02  0.1155313E+00
         -1   -1    0    0    0  501 -0.00000000000E+00  0.00000000000E+00  0.11587783503E+03  0.11587783503E+03  0.00000000000E+00 0.  1.
          1   -1    0    0  501    0  0.00000000000E+00 -0.00000000000E+00 -0.61817152385E+03  0.61817152385E+03  0.00000000000E+00 0. -1.
          5    1    1    2  502    0 -0.12859292578E+02  0.33680569255E+01  0.19655900124E+02  0.24094232146E+02  0.41800000000E+01 0. -1.
         -5    1    1    2    0  502  0.11740224932E+03 -0.14037311540E+03 -0.36659681081E+02  0.18667968365E+03  0.41800000000E+01 0.  1.
        -11    1    1    2    0    0 -0.11068486924E+03  0.89934206989E+02 -0.30267308181E+03  0.33458974330E+03  0.00000000000E+00 0. -1.
         11    1    1    2    0    0  0.61419125020E+01  0.47070851483E+02 -0.18261682605E+03  0.18868569979E+03  0.00000000000E+00 0.  1.
</event>
<event>
 6    1  0.6447971E-006  0.1096561E+03  0.7561462E-02  0.1261208E+00
         -1   -1    0    0    0  501 -0.00000000000E+00  0.00000000000E+00  0.48906630639E+02  0.48906630639E+02  0.00000000000E+00 0.  1.
          1   -1    0    0  501    0  0.00000000000E+00 -0.00000000000E+00 -0.27769552488E+03  0.27769552488E+03  0.00000000000E+00 0. -1.
          5    1    1    2  502    0 -0.34414534420E+02 -0.43773581869E+02 -0.38937763432E+02  0.68074286409E+02  0.41800000000E+01 0. -1.
         -5    1    1    2    0  502  0.70594097961E+01  0.74726848395E+02 -0.73137137972E+02  0.10488303241E+03  0.41800000000E+01 0. -1.
        -11    1    1    2    0    0  0.47587140810E+02  0.41642068522E+01 -0.97962131160E+02  0.10898832841E+03  0.00000000000E+00 0. -1.
         11    1    1    2    0    0 -0.20232016186E+02 -0.35117473378E+02 -0.18751861675E+02  0.44656508279E+02  0.00000000000E+00 0.  1.
</event>
<event>
 6    1  0.6447971E-006  0.1038287E+03  0.7561462E-02  0.1272445E+00
         -2   -1    0    0    0  501 -0.00000000000E+00  0.00000000000E+00  0.65831922609E+02  0.65831922609E+02  0.00000000000E+00 0.  1.
          2   -1    0    0  501    0  0.00000000000E+00 -0.00000000000E+00 -0.23246667180E+03  0.23246667180E+03  0.00000000000E+00 0. -1.
          5    1    1    2  502    0  0.18602725761E+02 -0.49367042655E+02 -0.49683614680E+02  0.72588568480E+02  0.41800000000E+01 0. -1.
         -5    1    1    2    0  502 -0.48481434656E+02  0.34698386658E+02  0.14609271991E+02  0.61525041821E+02  0.41800000000E+01 0. -1.
        -11    1    1    2    0    0  0.70560785612E+01 -0.37431793469E+02 -0.33040291637E+02  0.50424084309E+02  0.00000000000E+00 0.  1.
         11    1    1    2    0    0  0.22822630335E+02  0.52100449466E+02 -0.98520114861E+02  0.11376089979E+03  0.00000000000E+00 0. -1.
</event>
<event>
 6    1  0.6447971E-006  0.1720756E+03  0.7561462E-02  0.1175700E+00
         -1   -1    0    0    0  501 -0.00000000000E+00  0.00000000000E+00  0.21020182599E+03  0.21020182599E+03  0.00000000000E+00 0.  1.
          1   -1    0    0  501    0  0.00000000000E+00 -0.00000000000E+00 -0.14774039854E+03  0.14774039854E+03  0.00000000000E+00 0. -1.
          5    1    1    2  502    0  0.14371217732E+02 -0.10629751107E+03  0.16234390901E+02  0.10856666434E+03  0.41800000000E+01 0. -1.
         -5    1    1    2    0  502 -0.74840249945E+02 -0.17306437879E+02  0.33669713990E+02  0.83974388024E+02  0.41800000000E+01 0. -1.
        -11    1    1    2    0    0  0.57119733350E+02  0.26939168330E+02  0.24918039777E+02  0.67891762641E+02  0.00000000000E+00 0.  1.
         11    1    1    2    0    0  0.33492988626E+01  0.96664780616E+02 -0.12360717216E+02  0.97509409518E+02  0.00000000000E+00 0. -1.
</event>
<event>
 6    1  0.6447971E-006  0.2001002E+03  0.7561462E-02  0.1149654E+00
         -3   -1    0    0    0  501 -0.00000000000E+00  0.00000000000E+00  0.77956926328E+02  0.77956926328E+02  0.00000000000E+00 0.  1.
          3   -1    0    0  501    0  0.00000000000E+00 -0.00000000000E+00 -0.55069745829E+03  0.55069745829E+03  0.00000000000E+00 0. -1.
          5    1    1    2  502    0 -0.11430675990E+03  0.11285824135E+03 -0.16949896481E+03  0.23356024805E+03  0.41800000000E+01 0.  1.
         -5    1    1    2    0  502 -0.42508666407E+02 -0.32467843739E+02 -0.82479216174E+02  0.98394314355E+02  0.41800000000E+01 0.  1.
        -11    1    1    2    0    0  0.26950062083E+02 -0.42950549456E+02 -0.19623630840E+02  0.54370418724E+02  0.00000000000E+00 0.  1.
         11    1    1    2    0    0  0.12986536422E+03 -0.37439848155E+02 -0.20113872014E+03  0.24232940349E+03  0.00000000000E+00 0. -1.
</event>
<event>
 6    1  0.6447971E-006  0.1108674E+03  0.7561462E-02  0.1258972E+00
         -2   -1    0    0    0  501 -0.00000000000E+00  0.00000000000E+00  0.25416390562E+02  0.25416390562E+02  0.00000000000E+00 0.  1.
          2   -1    0    0  501    0  0.00000000000E+00 -0.00000000000E+00 -0.52800486988E+03  0.52800486988E+03  0.00000000000E+00 0. -1.
          5    1    1    2  502    0 -0.41196393260E+02 -0.20701534633E+02 -0.90665637182E+02  0.10180091610E+03  0.41800000000E+01 0. -1.
         -5    1    1    2    0  502  0.79563653824E+02  0.27349562203E+02 -0.13421886758E+03  0.15846308837E+03  0.41800000000E+01 0. -1.
        -11    1    1    2    0    0 -0.33584881170E+02  0.35451088101E+02 -0.18306956443E+03  0.18947081387E+03  0.00000000000E+00 0. -1.
         11    1    1    2    0    0 -0.47823793933E+01 -0.42099115672E+02 -0.94634410129E+02  0.10368644209E+03  0.00000000000E+00 0.  1.
</event>
<event>
 6    1  0.6447971E-006  0.2487152E+03  0.7561462E-02  0.1114119E+00
         -1   -1    0    0    0  501 -0.00000000000E+00  0.00000000000E+00  0.26401918278E+03  0.26401918278E+03  0.00000000000E+00 0.  1.
          1   -1    0    0  501    0  0.00000000000E+00 -0.00000000000E+00 -0.24937228751E+03  0.24937228751E+03  0.00000000000E+00 0. -1.
          5    1    1    2  502    0  0.69001980830E+00  0.37823641511E+02 -0.80342775443E+01  0.38898920296E+02  0.41800000000E+01 0.  1.
         -5    1    1    2    0  502 -0.21393122304E+03  0.42322821286E+02  0.58791672376E+02  0.22590201976E+03  0.41800000000E+01 0.  1.
        -11    1    1    2    0    0  0.17019217976E+03 -0.95972174847E+02 -0.48025013366E+02  0.20120248086E+03  0.00000000000E+00 0. -1.
         11    1    1    2    0    0  0.43049023468E+02  0.15825712050E+02  0.11914513808E+02  0.47388049366E+02  0.00000000000E+00 0.  1.
</event>
<event>
 6    1  0.6447971E-006  0.1116480E+03  0.7561462E-02  0.1257548E+00
          1   -1    0    0  501    0  0.00000000000E+00  0.00000000000E+00  0.42988971306E+03  0.42988971306E+03  0.00000000000E+00 0. -1.
         -1   -1    0    0    0  501 -0.00000000000E+00 -0.00000000000E+00 -0.47576599038E+02  0.47576599038E+02  0.00000000000E+00 0.  1.
          5    1    1    2  502    0  0.50213742070E+02  0.20089680852E+02  0.21225534716E+02  0.58249557023E+02  0.41800000000E+01 0. -1.
         -5    1    1    2    0  502 -0.54436248334E+02 -0.50075290741E+02  0.41703525105E+02  0.85014682742E+02  0.41800000000E+01 0. -1.
        -11    1    1    2    0    0  0.25010558179E+02  0.56198680222E+02  0.16162986210E+03  0.17293938823E+03  0.00000000000E+00 0.  1.
         11    1    1    2    0    0 -0.20788051914E+02 -0.26213070333E+02  0.15775419210E+03  0.16126268410E+03  0.00000000000E+00 0. -1.
</event>
<event>
 6    1  0.6447971E-006  0.1177375E+03  0.7561462E-02  0.1246877E+00
          1   -1    0    0  501    0  0.00000000000E+00  0.00000000000E+00  0.35745964605E+03  0.35745964605E+03  0.00000000000E+00 0. -1.
         -1   -1    0    0    0  501 -0.00000000000E+00 -0.00000000000E+00 -0.70867916475E+02  0.70867916475E+02  0.00000000000E+00 0.  1.
          5    1    1    2  502    0  0.64481792580E+02 -0.37478052958E+02  0.13916112684E+02  0.75984449857E+02  0.41800000000E+01 0. -1.
         -5    1    1    2    0  502  0.19511405017E+02 -0.40685835130E+02  0.16304249782E+03  0.16922281348E+03  0.41800000000E+01 0. -1.
        -11    1    1    2    0    0 -0.37301311981E+02  0.26098993568E+02  0.10331507673E+03  0.11290062188E+03  0.00000000000E+00 0. -1.
         11    1    1    2    0    0 -0.46691885616E+02  0.52064894520E+02  0.63180423497E+01  0.70219677320E+02  0.00000000000E+00 0.  1.
</event>
<event>
 6    1  0.6447971E-006  0.1185206E+03  0.7561462E-02  0.1245558E+00
         -1   -1    0    0    0  501 -0.00000000000E+00  0.00000000000E+00  0.21324311688E+02  0.21324311688E+02  0.00000000000E+00 0.  1.
          1   -1    0    0  501    0  0.00000000000E+00 -0.00000000000E+00 -0.77232728856E+03  0.77232728856E+03  0.00000000000E+00 0. -1.
          5    1    1    2  502    0 -0.35346730854E+02 -0.22671047081E+02 -0.15675401490E+03  0.16233502809E+03  0.41800000000E+01 0. -1.
         -5    1    1    2    0  502  0.36306845833E+02  0.79632343772E+02 -0.14832055116E+03  0.17226710518E+03  0.41800000000E+01 0. -1.
        -11    1    1    2    0    0 -0.27897913157E+02  0.14077275121E+02 -0.17023485036E+03  0.17307907878E+03  0.00000000000E+00 0. -1.
         11    1    1    2    0    0  0.26937798178E+02 -0.71038571813E+02 -0.27569356045E+03  0.28597038821E+03  0.00000000000E+00 0.  1.
</event>
<event>
 6    1  0.6447971E-006  0.8366516E+02  0.7561462E-02  0.1318961E+00
          2   -1    0    0  501    0  0.00000000000E+00  0.00000000000E+00  0.16659700977E+03  0.16659700977E+03  0.00000000000E+00 0. -1.
         -2   -1    0    0    0  501 -0.00000000000E+00 -0.00000000000E+00 -0.74893172867E+02  0.74893172867E+02  0.00000000000E+00 0.  1.
          5    1    1    2  502    0 -0.70885311532E+02  0.14950246363E+02  0.35188934108E+02  0.80647199213E+02  0.41800000000E+01 0. -1.
         -5    1    1    2    0  502  0.48094663359E+02 -0.10536422466E+02 -0.63149821007E+01  0.49814297555E+02  0.41800000000E+01 0. -1.
        -11    1    1    2    0    0  0.12133677519E+02 -0.21806388996E+02 -0.15972720238E+02  0.29628913632E+02  0.00000000000E+00 0.  1.
         11    1    1    2    0    0  0.10656970653E+02  0.17392565099E+02  0.78802605131E+02  0.81399772234E+02  0.00000000000E+00 0. -1.
</event>
<event>
 6    1  0.6447971E-006  0.1116797E+03  0.7561462E-02  0.1257491E+00
         -1   -1    0    0    0  501 -0.00000000000E+00  0.00000000000E+00  0.15936560585E+03  0.15936560585E+03  0.00000000000E+00 0.  1.
          1   -1    0    0  501    0  0.00000000000E+00 -0.00000000000E+00 -0.11728581818E+03  0.11728581818E+03  0.00000000000E+00 0. -1.
          5    1    1    2  502    0 -0.19845978771E+02 -0.48837301096E+02  0.77855319248E+02  0.94116247199E+02  0.41800000000E+01 0.  1.
         -5    1    1    2    0  502  0.39223963830E+02 -0.21873859793E+02 -0.34988593834E+02  0.57084666761E+02  0.41800000000E+01 0.  1.
        -11    1    1    2    0    0  0.42056134357E+02  0.27043058181E+02  0.18073413103E+01  0.50033108193E+02  0.00000000000E+00 0.  1.
         11    1    1    2    0    0 -0.61434119416E+02  0.43668102708E+02 -0.25942790504E+01  0.75417401880E+02  0.00000000000E+00 0. -1.
</event>
<event>
 6    1  0.6447971E-006  0.9954208E+02  0.7561462E-02  0.1281262E+00
          1   -1    0    0  501    0  0.00000000000E+00  0.00000000000E+00  0.62066824311E+02  0.62066824311E+02  0.00000000000E+00 0. -1.
         -1   -1    0    0    0  501 -0.00000000000E+00 -0.00000000000E+00 -0.23203341696E+03  0.23203341696E+03  0.00000000000E+00 0.  1.
          5    1    1    2  502    0  0.34789078832E+02 -0.48591058064E+02 -0.76270335813E+02  0.96984573283E+02  0.41800000000E+01 0. -1.
         -5    1    1    2    0  502 -0.40407108726E+02  0.51169753955E+02 -0.82392005550E+02  0.10515223789E+03  0.41800000000E+01 0. -1.
        -11    1    1    2    0    0 -0.32290453817E+02 -0.12552497171E+02  0.21564723086E+02  0.40807791838E+02  0.00000000000E+00 0. -1.
         11    1    1    2    0    0  0.37908483711E+02  0.99738012808E+01 -0.32868974373E+02  0.51155638258E+02  0.00000000000E+00 0.  1.
</event>
<event>
 6    1  0.6447971E-006  0.8765871E+02  0.7561462E-02  0.1308623E+00
          2   -1    0    0  501    0  0.00000000000E+00  0.00000000000E+00  0.36786254165E+02  0.36786254165E+02  0.00000000000E+00 0. -1.
         -2   -1    0    0    0  501 -0.00000000000E+00 -0.00000000000E+00 -0.36865674282E+03  0.36865674282E+03  0.00000000000E+00 0.  1.
          5    1    1    2  502    0  0.71895568682E+02  0.33585380394E+02 -0.10487040696E+03  0.13157592952E+03  0.41800000000E+01 0.  1.
         -5    1    1    2    0  502 -0.44509059398E+02 -0.59529660215E+01 -0.12664540034E+03  0.13443594757E+03  0.41800000000E+01 0.  1.
        -11    1    1    2    0    0 -0.60405048621E+01 -0.28751555112E+02  0.68077337001E+01  0.30157666662E+02  0.00000000000E+00 0. -1.
         11    1    1    2    0    0 -0.21346004422E+02  0.11191407396E+01 -0.10716241506E+03  0.10927345323E+03  0.00000000000E+00 0.  1.
</event>
<event>
 6    1  0.6447971E-006  0.8673355E+02  0.7561462E-02  0.1310960E+00
         -2   -1    0    0    0  501 -0.00000000000E+00  0.00000000000E+00  0.87418893158E+02  0.87418893158E+02  0.00000000000E+00 0.  1.
          2   -1    0    0  501    0  0.00000000000E+00 -0.00000000000E+00 -0.22449157752E+03  0.22449157752E+03  0.00000000000E+00 0. -1.
          5    1    1    2  502    0  0.31609176901E+02  0.13348278407E+02 -0.40473431091E+02  0.53224877877E+02  0.41800000000E+01 0. -1.
         -5    1    1    2    0  502 -0.45581393231E+02  0.32522510282E+01  0.59514329827E+02  0.75150970722E+02  0.41800000000E+01 0. -1.
        -11    1    1    2    0    0  0.52671926242E+02 -0.12181052805E+02 -0.65671862835E+02  0.85061762442E+02  0.00000000000E+00 0.  1.
         11    1    1    2    0    0 -0.38699709911E+02 -0.44194766297E+01 -0.90441720260E+02  0.98472859634E+02  0.00000000000E+00 0. -1.
</event>
<event>
 6    1  0.6447971E-006  0.7314933E+02  0.7561462E-02  0.1349700E+00
         -1   -1    0    0    0  501 -0.00000000000E+00  0.00000000000E+00  0.68452913313E+02  0.68452913313E+02  0.00000000000E+00 0.  1.
          1   -1    0    0  501    0  0.00000000000E+00 -0.00000000000E+00 -0.28557866151E+03  0.28557866151E+03  0.00000000000E+00 0. -1.
          5    1    1    2  502    0  0.32420900224E+02  0.27392210258E+02 -0.60151191562E+02  0.73736600142E+02  0.41800000000E+01 0.  1.
         -5    1    1    2    0  502 -0.16312874270E+02 -0.12479660792E+02  0.49445756152E+02  0.53704813582E+02  0.41800000000E+01 0.  1.
        -11    1    1    2    0    0  0.32289253683E+02 -0.88801417617E+00 -0.33744702526E+02  0.46712840003E+02  0.00000000000E+00 0.  1.
         11    1    1    2    0    0 -0.48397279636E+02 -0.14024535289E+02 -0.17267561026E+03  0.17987732110E+03  0.00000000000E+00 0. -1.
</event>
<event>
 6    1  0.6447971E-006  0.8460283E+02  0.7561462E-02  0.1316474E+00
          2   -1    0    0  501    0  0.00000000000E+00  0.00000000000E+00  0.16555337657E+03  0.16555337657E+03  0.00000000000E+00 0. -1.
         -2   -1    0    0    0  501 -0.00000000000E+00 -0.00000000000E+00 -0.85008912723E+02  0.85008912723E+02  0.00000000000E+00 0.  1.
          5    1    1    2  502    0 -0.21266107589E+02  0.14643286196E+02  0.54453055270E+02  0.60409277357E+02  0.41800000000E+01 0. -1.
         -5    1    1    2    0  502  0.46677048518E+02 -0.27783914125E+01 -0.49050699315E+02  0.67896316693E+02  0.41800000000E+01 0. -1.
        -11    1    1    2    0    0 -0.14245913677E+02  0.40306851493E+02  0.38514776235E+02  0.57541083777E+02  0.00000000000E+00 0. -1.
         11    1    1    2    0    0 -0.11165027252E+02 -0.52171746277E+02  0.36627331660E+02  0.64715611468E+02  0.00000000000E+00 0.  1.
</event>
<event>
 6    1  0.6447971E-006  0.1302944E+03  0.7561462E-02  0.1227020E+00
          2   -1    0    0  501    0  0.00000000000E+00  0.00000000000E+00  0.43111280802E+03  0.43111280802E+03  0.00000000000E+00 0. -1.
         -2   -1    0    0    0  501 -0.00000000000E+00 -0.00000000000E+00 -0.11700575922E+03  0.11700575922E+03  0.00000000000E+00 0.  1.
          5    1    1    2  502    0  0.12985525316E+01  0.10189483406E+03  0.33539197849E+02  0.10736197483E+03  0.41800000000E+01 0.  1.
         -5    1    1    2    0  502  0.29233516100E+02  0.14730848921E+02 -0.59848295255E+02  0.68343889400E+02  0.41800000000E+01 0.  1.
        -11    1    1    2    0    0 -0.27680485820E+02 -0.38482379672E+02  0.40119220598E+02  0.62101970193E+02  0.00000000000E+00 0.  1.
         11    1    1    2    0    0 -0.28515828116E+01 -0.78143303309E+02  0.30029692560E+03  0.31031073282E+03  0.00000000000E+00 0. -1.
</event>
<event>
 6    1  0.6447971E-006  0.1151227E+03  0.7561462E-02  0.1251367E+00
          3   -1    0    0  501    0  0.00000000000E+00  0.00000000000E+00  0.39777724543E+02  0.39777724543E+02  0.00000000000E+00 0. -1.
         -3   -1    0    0    0  501 -0.00000000000E+00 -0.00000000000E+00 -0.39385577508E+03  0.39385577508E+03  0.00000000000E+00 0.  1.
          5    1    1    2  502    0  0.13479548783E+02  0.89717639084E+02 -0.11035129014E+03  0.14291897226E+03  0.41800000000E+01 0.  1.
         -5    1    1    2    0  502 -0.32415928118E+02 -0.34076563538E+02 -0.49896992708E+02  0.68696338037E+02  0.41800000000E+01 0.  1.
        -11    1    1    2    0    0  0.28117089676E+02 -0.69846390503E+02 -0.19041826324E+03  0.20476377603E+03  0.00000000000E+00 0. -1.
         11    1    1    2    0    0 -0.91807103409E+01  0.14205314957E+02 -0.34115044477E+01  0.17254413290E+02  0.00000000000E+00 0.  1.
</event>
<event>
 6    1  0.6447971E-006  0.8915172E+02  0.7561462E-02  0.1304919E+00
         -2   -1    0    0    0  501 -0.00000000000E+00  0.00000000000E+00  0.72821589835E+02  0.72821589835E+02  0.00000000000E+00 0.  1.
          2   -1    0    0  501    0  0.00000000000E+00 -0.00000000000E+00 -0.17700773138E+03  0.17700773138E+03  0.00000000000E+00 0. -1.
          5    1    1    2  502    0  0.49690715759E+02 -0.28058983069E+02  0.33394337695E+02  0.66250493988E+02  0.41800000000E+01 0. -1.
         -5    1    1    2    0  502 -0.39508979345E+02  0.12577480777E+01 -0.48898438973E+02  0.63016435262E+02  0.41800000000E+01 0. -1.
        -11    1    1    2    0    0 -0.38917203388E-01  0.53125205906E+02 -0.63037854218E+02  0.82438219786E+02  0.00000000000E+00 0.  1.
         11    1    1    2    0    0 -0.10142819211E+02 -0.26323970914E+02 -0.25644186047E+02  0.38124172178E+02  0.00000000000E+00 0. -1.
</event>
<event>
 6    1  0.6447971E-006  0.2407221E+03  0.7561462E-02  0.1119313E+00
         -1   -1    0    0    0  501 -0.00000000000E+00  0.00000000000E+00  0.35571722887E+03  0.35571722887E+03  0.00000000000E+00 0. -1.
          1   -1    0    0  501    0  0.00000000000E+00 -0.00000000000E+00 -0.17215857234E+03  0.17215857234E+03  0.00000000000E+00 0.  1.
          5    1    1    2  502    0  0.14258369595E+03  0.11662267285E+03  0.10211290810E+03  0.21065487550E+03  0.41800000000E+01 0.  1.
         -5    1    1    2    0  502  0.58493626453E+02 -0.31958009550E+02  0.26979377230E+02  0.72029007391E+02  0.41800000000E+01 0.  1.
        -11    1    1    2    0    0 -0.18158512071E+03 -0.46330384937E+02  0.17029544002E+02  0.18817456258E+03  0.00000000000E+00 0.  1.
         11    1    1    2    0    0 -0.19492201693E+02 -0.38334278362E+02  0.37436827199E+02  0.57017355736E+02  0.00000000000E+00 0. -1.
</event>
<event>
 6    1  0.6447971E-006  0.1495885E+03  0.7561462E-02  0.1200980E+00
          3   -1    0    0  501    0  0.00000000000E+00  0.00000000000E+00  0.26064349191E+02  0.26064349191E+02  0.00000000000E+00 0. -1.
         -3   -1    0    0    0  501 -0.00000000000E+00 -0.00000000000E+00 -0.10687677118E+04  0.10687677118E+04  0.00000000000E+00 0.  1.
          5    1    1    2  502    0 -0.23485548061E+02 -0.92895768185E+02 -0.49161489763E+03  0.50088309483E+03  0.41800000000E+01 0. -1.
         -5    1    1    2    0  502  0.69542703376E+02 -0.99633549419E+01 -0.25976856494E+03  0.26913311904E+03  0.41800000000E+01 0. -1.
        -11    1    1    2    0    0 -0.64003967587E+02  0.66241086738E+02 -0.13618193095E+03  0.16440774847E+03  0.00000000000E+00 0. -1.
         11    1    1    2    0    0  0.17946812272E+02  0.36618036389E+02 -0.15513796907E+03  0.16040809863E+03  0.00000000000E+00 0.  1.
</event>
<event>
 6    1  0.6447971E-006  0.1219337E+03  0.7561462E-02  0.1239941E+00
         -1   -1    0    0    0  501 -0.00000000000E+00  0.00000000000E+00  0.48976446722E+02  0.48976446722E+02  0.00000000000E+00 0.  1.
          1   -1    0    0  501    0  0.00000000000E+00 -0.00000000000E+00 -0.69609547253E+03  0.69609547253E+03  0.00000000000E+00 0. -1.
          5    1    1    2  502    0 -0.39266883219E+02 -0.13079748095E+02  0.16096665105E+02  0.44604293016E+02  0.41800000000E+01 0. -1.
         -5    1    1    2    0  502  0.34939314166E+01 -0.76162677884E+02 -0.12720237157E+03  0.14836063087E+03  0.41800000000E+01 0. -1.
        -11    1    1    2    0    0  0.61412865024E+02  0.50787635227E+02 -0.41469330886E+03  0.42228126207E+03  0.00000000000E+00 0. -1.
         11    1    1    2    0    0 -0.25639913222E+02  0.38454790753E+02 -0.12132001049E+03  0.12982573330E+03  0.00000000000E+00 0.  1.
</event>
<event>
 6    1  0.6447971E-006  0.1303860E+03  0.7561462E-02  0.1226884E+00
         -1   -1    0    0    0  501 -0.00000000000E+00  0.00000000000E+00  0.70412626583E+03  0.70412626583E+03  0.00000000000E+00 0.  1.
          1   -1    0    0  501    0  0.00000000000E+00 -0.00000000000E+00 -0.29525073567E+02  0.29525073567E+02  0.00000000000E+00 0. -1.
          5    1    1    2  502    0  0.16486763139E+02  0.33440938689E+02  0.63078447224E+02  0.73392592565E+02  0.41800000000E+01 0. -1.
         -5    1    1    2    0  502  0.39027343890E+02 -0.95368079068E+02  0.42157460177E+03  0.43400555450E+03  0.41800000000E+01 0. -1.
        -11    1    1    2    0    0  0.23525349308E+02  0.10055544960E+02  0.23039187774E+02  0.34429060658E+02  0.00000000000E+00 0.  1.
         11    1    1    2    0    0 -0.79039456337E+02  0.51871595419E+02  0.16690895549E+03  0.19182413168E+03  0.00000000000E+00 0. -1.
</event>
<event>
 6    1  0.6447971E-006  0.1309382E+03  0.7561462E-02  0.1226070E+00
         -1   -1    0    0    0  501 -0.00000000000E+00  0.00000000000E+00  0.57906890073E+02  0.57906890073E+02  0.00000000000E+00 0.  1.
          1   -1    0    0  501    0  0.00000000000E+00 -0.00000000000E+00 -0.42952293813E+03  0.42952293813E+03  0.00000000000E+00 0. -1.
          5    1    1    2  502    0  0.29959798184E+02  0.56520383060E+02 -0.79441385003E+02  0.10208109159E+03  0.41800000000E+01 0. -1.
         -5    1    1    2    0  502 -0.96945149525E+02  0.19687564684E+01 -0.25875471633E+02  0.10044526097E+03  0.41800000000E+01 0.  1.
        -11    1    1    2    0    0  0.33523636200E+02 -0.58301631788E+02 -0.19132422740E+03  0.20280008492E+03  0.00000000000E+00 0. -1.
         11    1    1    2    0    0  0.33461715140E+02 -0.18750773953E+00 -0.74974964014E+02  0.82103390723E+02  0.00000000000E+00 0.  1.
</event>
<event>
 6    1  0.6447971E-006  0.1762270E+03  0.7561462E-02  0.1171505E+00
          3   -1    0    0  501    0  0.00000000000E+00  0.00000000000E+00  0.58510825584E+03  0.58510825584E+03  0.00000000000E+00 0. -1.
         -3   -1    0    0    0  501 -0.00000000000E+00 -0.00000000000E+00 -0.10951677185E+03  0.10951677185E+03  0.00000000000E+00 0.  1.
          5    1    1    2  502    0  0.35314464699E+02 -0.24300764669E+02  0.44978481459E+02  0.62274993174E+02  0.41800000000E+01 0. -1.
         -5    1    1    2    0  502 -0.53894625067E+02 -0.13660541487E+03 -0.17215324827E+02  0.14791723967E+03  0.41800000000E+01 0.  1.
        -11    1    1    2    0    0  0.57171288445E+01  0.10276533450E+03  0.15811375042E+03  0.18866201952E+03  0.00000000000E+00 0.  1.
         11    1    1    2    0    0  0.12863031524E+02  0.58140845041E+02  0.28971457694E+03  0.29577077532E+03  0.00000000000E+00 0. -1.
</event>
<event>
 6    1  0.6447971E-006  0.1558987E+03  0.7561462E-02  0.1193406E+00
         -1   -1    0    0    0  501 -0.00000000000E+00  0.00000000000E+00  0.98358429244E+03  0.98358429244E+03  0.00000000000E+00 0.  1.
          1   -1    0    0  501    0  0.00000000000E+00 -0.00000000000E+00 -0.29399561316E+02  0.29399561316E+02  0.00000000000E+00 0. -1.
          5    1    1    2  502    0  0.64518702755E+02 -0.67760194366E+02  0.48074446691E+03  0.48978242293E+03  0.41800000000E+01 0.  1.
         -5    1    1    2    0  502 -0.32362721259E+02 -0.57049455988E+02  0.11508888745E+03  0.13253267737E+03  0.41800000000E+01 0.  1.
        -11    1    1    2    0    0 -0.34050122209E+02  0.72122793683E+01  0.52562797840E+02  0.63041855247E+02  0.00000000000E+00 0.  1.
         11    1    1    2    0    0  0.18941407127E+01  0.11759737099E+03  0.30578857892E+03  0.32762689821E+03  0.00000000000E+00 0. -1.
</event>
<event>
 6    1  0.6447971E-006  0.9596931E+02  0.7561462E-02  0.1289008E+00
          3   -1    0    0  501    0  0.00000000000E+00  0.00000000000E+00  0.48869736086E+02  0.48869736086E+02  0.00000000000E+00 0. -1.
         -3   -1    0    0    0  501 -0.00000000000E+00 -0.00000000000E+00 -0.57985721599E+03  0.57985721599E+03  0.00000000000E+00 0.  1.
          5    1    1    2  502    0 -0.24056485467E+02  0.65645662688E+02 -0.20083754520E+03  0.21269992827E+03  0.41800000000E+01 0.  1.
         -5    1    1    2    0  502  0.13382330120E+02 -0.45230343338E+02 -0.31769665006E+03  0.32120632712E+03  0.41800000000E+01 0.  1.
        -11    1    1    2    0    0  0.15352218381E+01 -0.46696049982E+02 -0.35510396924E+02  0.58684463700E+02  0.00000000000E+00 0.  1.
         11    1    1    2    0    0  0.91389335087E+01  0.26280730632E+02  0.23057112282E+02  0.36136232995E+02  0.00000000000E+00 0. -1.
</event>
<event>
 6    1  0.6447971E-006  0.1303121E+03  0.7561462E-02  0.1226993E+00
         -1   -1    0    0    0  501 -0.00000000000E+00  0.00000000000E+00  0.27418079149E+03  0.27418079149E+03  0.00000000000E+00 0.  1.
          1   -1    0    0  501    0  0.00000000000E+00 -0.00000000000E+00 -0.90174934373E+02  0.90174934373E+02  0.00000000000E+00 0. -1.
          5    1    1    2  502    0  0.11005732113E+03  0.38787996061E+02  0.45310061693E+02  0.12525013638E+03  0.41800000000E+01 0. -1.
         -5    1    1    2    0  502 -0.62012734732E+01 -0.52332863136E+01  0.85817201175E+02  0.86301260106E+02  0.41800000000E+01 0. -1.
        -11    1    1    2    0    0 -0.84179691998E+02 -0.58828843112E+02  0.61407980507E+02  0.11965781795E+03  0.00000000000E+00 0.  1.
         11    1    1    2    0    0 -0.19676355662E+02  0.25274133364E+02 -0.85293862586E+01  0.33146511421E+02  0.00000000000E+00 0. -1.
</event>
<event>
 6    1  0.6447971E-006  0.1063076E+03  0.7561462E-02  0.1267564E+00
         -1   -1    0    0    0  501 -0.00000000000E+00  0.00000000000E+00  0.14026267417E+03  0.14026267417E+03  0.00000000000E+00 0.  1.
          1   -1    0    0  501    0  0.00000000000E+00 -0.00000000000E+00 -0.12443667677E+03  0.12443667677E+03  0.00000000000E+00 0. -1.
          5    1    1    2  502    0  0.81636378923E+01  0.51451960107E+02  0.61977878235E+02  0.81072060372E+02  0.41800000000E+01 0. -1.
         -5    1    1    2    0  502  0.27028934620E+02 -0.60550428979E+02  0.83396400969E+01  0.66962226316E+02  0.41800000000E+01 0. -1.
        -11    1    1    2    0    0 -0.58000079999E+02  0.27892228631E+02 -0.58336663016E+02  0.86862834110E+02  0.00000000000E+00 0. -1.
         11    1    1    2    0    0  0.22807507486E+02 -0.18793759759E+02  0.38451420900E+01  0.29802230140E+02  0.00000000000E+00 0.  1.
</event>
<event>
 6    1  0.6447971E-006  0.8572466E+02  0.7561462E-02  0.1313548E+00
          2   -1    0    0  501    0  0.00000000000E+00  0.00000000000E+00  0.16811957048E+03  0.16811957048E+03  0.00000000000E+00 0. -1.
         -2   -1    0    0    0  501 -0.00000000000E+00 -0.00000000000E+00 -0.80890101563E+02  0.80890101563E+02  0.00000000000E+00 0.  1.
          5    1    1    2  502    0 -0.11294549627E+02  0.48741193775E+02 -0.25700797086E+02  0.56402785328E+02  0.41800000000E+01 0.  1.
         -5    1    1    2    0  502  0.36772208158E+02 -0.13272717627E+02  0.75530708849E+02  0.85151163852E+02  0.41800000000E+01 0.  1.
        -11    1    1    2    0    0 -0.49078528555E+02 -0.30572264053E+02  0.53251228994E+02  0.78606988772E+02  0.00000000000E+00 0. -1.
         11    1    1    2    0    0  0.23600870024E+02 -0.48962120950E+01 -0.15851671838E+02  0.28848734094E+02  0.00000000000E+00 0.  1.
</event>
<event>
 6    1  0.6447971E-006  0.9917478E+02  0.7561462E-02  0.1282041E+00
          1   -1    0    0  501    0  0.00000000000E+00  0.00000000000E+00  0.26161656655E+02  0.26161656655E+02  0.00000000000E+00 0. -1.
         -1   -1    0    0    0  501 -0.00000000000E+00 -0.00000000000E+00 -0.82448612279E+03  0.82448612279E+03  0.00000000000E+00 0.  1.
          5    1    1    2  502    0  0.32651840152E+01  0.50809931339E+02 -0.44320965034E+02  0.67632321348E+02  0.41800000000E+01 0. -1.
         -5    1    1    2    0  502 -0.16493626227E+01 -0.60352430099E+02 -0.62039043193E+03  0.62333530033E+03  0.41800000000E+01 0.  1.
        -11    1    1    2    0    0  0.12243547806E+02  0.46073395728E+02 -0.63339747126E+02  0.79275379676E+02  0.00000000000E+00 0. -1.
         11    1    1    2    0    0 -0.13859369198E+02 -0.36530896967E+02 -0.70273322053E+02  0.80404778093E+02  0.00000000000E+00 0.  1.
</event>
<event>
 6    1  0.6447971E-006  0.9733667E+02  0.7561462E-02  0.1285998E+00
          1   -1    0    0  501    0  0.00000000000E+00  0.00000000000E+00  0.38516028720E+03  0.38516028720E+03  0.00000000000E+00 0. -1.
         -1   -1    0    0    0  501 -0.00000000000E+00 -0.00000000000E+00 -0.47378028472E+02  0.47378028472E+02  0.00000000000E+00 0.  1.
          5    1    1    2  502    0 -0.83659573631E+02 -0.45752670350E+01  0.18239070814E+02  0.85848665876E+02  0.41800000000E+01 0. -1.
         -5    1    1    2    0  502  0.24542274162E+02  0.72857142007E+01  0.79356529508E+02  0.83488538304E+02  0.41800000000E+01 0. -1.
        -11    1    1    2    0    0 -0.12800600321E+02  0.93285048841E+00  0.40604260018E+00  0.12840967612E+02  0.00000000000E+00 0.  1.
         11    1    1    2    0    0  0.71917899790E+02 -0.36432976541E+01  0.23978061581E+03  0.25036014388E+03  0.00000000000E+00 0. -1.
</event>
<event>
 6    1  0.6447971E-006  0.1217857E+03  0.7561462E-02  0.1240180E+00
         -1   -1    0    0    0  501 -0.00000000000E+00  0.00000000000E+00  0.74683188980E+02  0.74683188980E+02  0.00000000000E+00 0.  1.
          1   -1    0    0  501    0  0.00000000000E+00 -0.00000000000E+00 -0.27959741028E+03  0.27959741028E+03  0.00000000000E+00 0. -1.
          5    1    1    2  502    0  0.59491013309E+01 -0.50448132087E+02 -0.36918241717E+01  0.51102913845E+02  0.41800000000E+01 0.  1.
         -5    1    1    2    0  502  0.48907650886E+02  0.71969997420E+02 -0.16063280983E+02  0.88584085702E+02  0.41800000000E+01 0.  1.
        -11    1    1    2    0    0  0.18367864160E+02 -0.26330596407E+02 -0.35194796435E+02  0.47637720738E+02  0.00000000000E+00 0.  1.
         11    1    1    2    0    0 -0.73224616377E+02  0.48087310749E+01 -0.14996431971E+03  0.16695587897E+03  0.00000000000E+00 0. -1.
</event>
<event>
 6    1  0.7685460E-006  0.1874414E+03  0.7561462E-02  0.1160789E+00
         -1   -1    0    0    0  501 -0.00000000000E+00  0.00000000000E+00  0.12811827555E+02  0.12811827555E+02  0.00000000000E+00 0.  1.
          1   -1    0    0  501    0  0.00000000000E+00 -0.00000000000E+00 -0.28890667226E+04  0.28890667226E+04  0.00000000000E+00 0. -1.
          5    1    1    2  502    0  0.17026424353E+03  0.23709933088E+02 -0.15868536814E+04  0.15961435249E+04  0.41800000000E+01 0.  1.
         -5    1    1    2    0  502 -0.18805538552E+02 -0.15311406904E+02 -0.24347892347E+03  0.24471932093E+03  0.41800000000E+01 0.  1.
        -11    1    1    2    0    0 -0.53312045924E+02 -0.48710153024E+02 -0.42945986042E+03  0.43548894930E+03  0.00000000000E+00 0.  1.
         11    1    1    2    0    0 -0.98146659051E+02  0.40311626840E+02 -0.61646242981E+03  0.62552675507E+03  0.00000000000E+00 0. -1.
</event>
<event>
 6    1  0.6447971E-006  0.2227019E+03  0.7561462E-02  0.1131885E+00
          3   -1    0    0  501    0  0.00000000000E+00  0.00000000000E+00  0.36325924783E+02  0.36325924783E+02  0.00000000000E+00 0. -1.
         -3   -1    0    0    0  501 -0.00000000000E+00 -0.00000000000E+00 -0.19911072424E+04  0.19911072424E+04  0.00000000000E+00 0.  1.
          5    1    1    2  502    0 -0.55963002539E+02  0.13133015746E+03 -0.11804085918E+04  0.11890169822E+04  0.41800000000E+01 0. -1.
         -5    1    1    2    0  502  0.26968303202E+01  0.81985160007E+02 -0.23806981873E+03  0.25184032708E+03  0.41800000000E+01 0. -1.
        -11    1    1    2    0    0  0.16776250672E+02 -0.40735442638E+02 -0.38721605897E+02  0.58653061614E+02  0.00000000000E+00 0. -1.
         11    1    1    2    0    0  0.36489921547E+02 -0.17257987483E+03 -0.49758130127E+03  0.52792279638E+03  0.00000000000E+00 0.  1.
</event>
<event>
 6    1  0.6447971E-006  0.1141436E+03  0.7561462E-02  0.1253083E+00
         -1   -1    0    0    0  501 -0.00000000000E+00  0.00000000000E+00  0.11760235940E+03  0.11760235940E+03  0.00000000000E+00 0.  1.
          1   -1    0    0  501    0  0.00000000000E+00 -0.00000000000E+00 -0.12876036261E+03  0.12876036261E+03  0.00000000000E+00 0. -1.
          5    1    1    2  502    0  0.57770891229E+02  0.26565227902E+02  0.29535573744E+02  0.70235387970E+02  0.41800000000E+01 0. -1.
         -5    1    1    2    0  502 -0.59254330047E+02  0.23351930698E+02 -0.13955272846E+02  0.65334602906E+02  0.41800000000E+01 0. -1.
        -11    1    1    2    0    0  0.63374019390E+01 -0.74960339763E+02 -0.36328579775E+02  0.83540295123E+02  0.00000000000E+00 0.  1.
         11    1    1    2    0    0 -0.48539631204E+01  0.25043181163E+02  0.95902756663E+01  0.27252436003E+02  0.00000000000E+00 0. -1.
</event>
<event>
 6    1  0.6447971E-006  0.1350017E+03  0.7561462E-02  0.1220217E+00
          1   -1    0    0  501    0  0.00000000000E+00  0.00000000000E+00  0.67944384823E+02  0.67944384823E+02  0.00000000000E+00 0. -1.
         -1   -1    0    0    0  501 -0.00000000000E+00 -0.00000000000E+00 -0.35386365238E+03  0.35386365238E+03  0.00000000000E+00 0.  1.
          5    1    1    2  502    0 -0.64211756338E+02 -0.70503212329E+02 -0.13113502819E+03  0.16219654934E+03  0.41800000000E+01 0. -1.
         -5    1    1    2    0  502  0.53282728941E+02 -0.37948370239E+02 -0.43392146078E+02  0.78609660656E+02  0.41800000000E+01 0. -1.
        -11    1    1    2    0    0  0.70539877724E+01  0.68069076717E+02 -0.12127191023E+03  0.13924810290E+03  0.00000000000E+00 0.  1.
         11    1    1    2    0    0  0.38750396243E+01  0.40382505850E+02  0.98798169419E+01  0.41753724309E+02  0.00000000000E+00 0. -1.
</event>
<event>
 6    1  0.6447971E-006  0.1129563E+03  0.7561462E-02  0.1255191E+00
          2   -1    0    0  501    0  0.00000000000E+00  0.00000000000E+00  0.36248204727E+03  0.36248204727E+03  0.00000000000E+00 0. -1.
         -2   -1    0    0    0  501 -0.00000000000E+00 -0.00000000000E+00 -0.50307825061E+02  0.50307825061E+02  0.00000000000E+00 0.  1.
          5    1    1    2  502    0 -0.60147879564E+02 -0.20324598355E+02  0.11748977282E+03  0.13361203476E+03  0.41800000000E+01 0. -1.
         -5    1    1    2    0  502  0.47139545461E+02 -0.59980065189E+02  0.53158413540E+02  0.93075422623E+02  0.41800000000E+01 0. -1.
        -11    1    1    2    0    0 -0.72450182303E+00  0.66181157790E+02  0.15053390234E+03  0.16444125487E+03  0.00000000000E+00 0. -1.
         11    1    1    2    0    0  0.13732835926E+02  0.14123505755E+02 -0.90078664920E+01  0.21661160082E+02  0.00000000000E+00 0.  1.
</event>
<event>
 6    1  0.6447971E-006  0.9142574E+02  0.7561462E-02  0.1299435E+00
          3   -1    0    0  501    0  0.00000000000E+00  0.00000000000E+00  0.22639839099E+03  0.22639839099E+03  0.00000000000E+00 0. -1.
         -3   -1    0    0    0  501 -0.00000000000E+00 -0.00000000000E+00 -0.74948676860E+02  0.74948676860E+02  0.00000000000E+00 0.  1.
          5    1    1    2  502    0 -0.22194595924E+02  0.27908860608E+02  0.67178372655E+02  0.76170274656E+02  0.41800000000E+01 0.  1.
         -5    1    1    2    0  502  0.88780240733E+00 -0.31528348318E+02 -0.42564985783E+02  0.53142030028E+02  0.41800000000E+01 0.  1.
        -11    1    1    2    0    0  0.77486888254E+01  0.58291603264E+02  0.52987304961E+02  0.79155591568E+02  0.00000000000E+00 0.  1.
         11    1    1    2    0    0  0.13558104691E+02 -0.54672115554E+02  0.73849022294E+02  0.92879171593E+02  0.00000000000E+00 0. -1.
</event>
<event>
 6    1  0.6447971E-006  0.1545038E+03  0.7561462E-02  0.1195046E+00
          1   -1    0    0  501    0  0.00000000000E+00  0.00000000000E+00  0.19864603593E+03  0.19864603593E+03  0.00000000000E+00 0. -1.
         -1   -1    0    0    0  501 -0.00000000000E+00 -0.00000000000E+00 -0.13443791221E+03  0.13443791221E+03  0.00000000000E+00 0.  1.
          5    1    1    2  502    0  0.21951274980E+02  0.14408948805E+02 -0.22504476592E+01  0.26683575352E+02  0.41800000000E+01 0. -1.
         -5    1    1    2    0  502 -0.11504450012E+03 -0.88582185332E+02  0.27195722475E+02  0.14778064923E+03  0.41800000000E+01 0. -1.
        -11    1    1    2    0    0  0.80921010256E+02  0.87453030888E+02  0.58096932534E+02  0.13255751990E+03  0.00000000000E+00 0. -1.
         11    1    1    2    0    0  0.12172214887E+02 -0.13279794360E+02 -0.18834083627E+02  0.26062203659E+02  0.00000000000E+00 0.  1.
</event>
<event>
 6    1  0.6447971E-006  0.9610735E+02  0.7561462E-02  0.1288701E+00
          2   -1    0    0  501    0  0.00000000000E+00  0.00000000000E+00  0.47112474769E+03  0.47112474769E+03  0.00000000000E+00 0. -1.
         -2   -1    0    0    0  501 -0.00000000000E+00 -0.00000000000E+00 -0.40825733385E+02  0.40825733385E+02  0.00000000000E+00 0.  1.
          5    1    1    2  502    0 -0.80428557861E+02  0.17456371127E+02  0.41360564696E+02  0.92204373673E+02  0.41800000000E+01 0.  1.
         -5    1    1    2    0  502  0.11369361482E+02  0.24785575211E+02  0.13915026912E+03  0.14185858069E+03  0.41800000000E+01 0.  1.
        -11    1    1    2    0    0  0.36353627191E+02 -0.13824616527E+02  0.22424285377E+03  0.22759078123E+03  0.00000000000E+00 0. -1.
         11    1    1    2    0    0  0.32705569188E+02 -0.28417329812E+02  0.25545326725E+02  0.50296745492E+02  0.00000000000E+00 0.  1.
</event>
<event>
 6    1  0.6447971E-006  0.1247637E+03  0.7561462E-02  0.1235439E+00
          1   -1    0    0  501    0  0.00000000000E+00  0.00000000000E+00  0.59252905690E+03  0.59252905690E+03  0.00000000000E+00 0. -1.
         -1   -1    0    0    0  501 -0.00000000000E+00 -0.00000000000E+00 -0.40228634090E+02  0.40228634090E+02  0.00000000000E+00 0.  1.
          5    1    1    2  502    0 -0.60955506827E+02  0.30396223267E+01  0.22612972447E+03  0.23425827158E+03  0.41800000000E+01 0. -1.
         -5    1    1    2    0  502  0.24756184979E+02 -0.69257548987E+02  0.30967749210E+02  0.79912143492E+02  0.41800000000E+01 0.  1.
        -11    1    1    2    0    0  0.58316718767E+02  0.71179492815E+02  0.19182988051E+03  0.21275822650E+03  0.00000000000E+00 0.  1.
         11    1    1    2    0    0 -0.22117396919E+02 -0.49615661548E+01  0.10337306862E+03  0.10582904942E+03  0.00000000000E+00 0. -1.
</event>
<event>
 6    1  0.6447971E-006  0.9265278E+02  0.7561462E-02  0.1296552E+00
         -2   -1    0    0    0  501 -0.00000000000E+00  0.00000000000E+00  0.14603946371E+03  0.14603946371E+03  0.00000000000E+00 0.  1.
          2   -1    0    0  501    0  0.00000000000E+00 -0.00000000000E+00 -0.93892464332E+02  0.93892464332E+02  0.00000000000E+00 0. -1.
          5    1    1    2  502    0 -0.32299428032E+02 -0.53126886074E+01 -0.26285872700E+02  0.42188828083E+02  0.41800000000E+01 0.  1.
         -5    1    1    2    0  502  0.64254717982E+02 -0.34718263006E+02  0.66441923495E+02  0.98823216739E+02  0.41800000000E+01 0.  1.
        -11    1    1    2    0    0  0.31366494740E+01 -0.14208617322E+02  0.28712676212E+02  0.32189146484E+02  0.00000000000E+00 0.  1.
         11    1    1    2    0    0 -0.35091939423E+02  0.54239568936E+02 -0.16721727625E+02  0.66730736738E+02  0.00000000000E+00 0. -1.
</event>
<event>
 6    1  0.6447971E-006  0.1232138E+03  0.7561462E-02  0.1237887E+00
         -2   -1    0    0    0  501 -0.00000000000E+00  0.00000000000E+00  0.12820140908E+03  0.12820140908E+03  0.00000000000E+00 0.  1.
          2   -1    0    0  501    0  0.00000000000E+00 -0.00000000000E+00 -0.16652491907E+03  0.16652491907E+03  0.00000000000E+00 0. -1.
          5    1    1    2  502    0 -0.25649123334E+02  0.85366393616E+02  0.41703345245E+02  0.98498426847E+02  0.41800000000E+01 0.  1.
         -5    1    1    2    0  502 -0.29300097594E+02 -0.29696934508E+02 -0.26843640731E+02  0.49784104751E+02  0.41800000000E+01 0.  1.
        -11    1    1    2    0    0 -0.68812286882E+01  0.17892829865E+02 -0.46288162789E+02  0.50100885054E+02  0.00000000000E+00 0. -1.
         11    1    1    2    0    0  0.61830449617E+02 -0.73562288973E+02 -0.68950517140E+01  0.96342911503E+02  0.00000000000E+00 0.  1.
</event>
<event>
 6    1  0.6447971E-006  0.2195060E+03  0.7561462E-02  0.1134252E+00
          2   -1    0    0  501    0  0.00000000000E+00  0.00000000000E+00  0.63710165956E+03  0.63710165956E+03  0.00000000000E+00 0. -1.
         -2   -1    0    0    0  501 -0.00000000000E+00 -0.00000000000E+00 -0.10203704787E+03  0.10203704787E+03  0.00000000000E+00 0.  1.
          5    1    1    2  502    0  0.17433451527E+03  0.57912251610E+02  0.34733873999E+03  0.39294786524E+03  0.41800000000E+01 0. -1.
         -5    1    1    2    0  502 -0.45652028095E+02 -0.10085532089E+03  0.16596266920E+02  0.11202147962E+03  0.41800000000E+01 0.  1.
        -11    1    1    2    0    0 -0.67116068885E+02  0.48284187692E+02  0.46007402130E+02  0.94618235739E+02  0.00000000000E+00 0.  1.
         11    1    1    2    0    0 -0.61566418287E+02 -0.53411184164E+01  0.12512220265E+03  0.13955112684E+03  0.00000000000E+00 0. -1.
</event>
<event>
 6    1  0.6447971E-006  0.1121894E+03  0.7561462E-02  0.1256568E+00
         -1   -1    0    0    0  501 -0.00000000000E+00  0.00000000000E+00  0.30959779260E+02  0.30959779260E+02  0.00000000000E+00 0.  1.
          1   -1    0    0  501    0  0.00000000000E+00 -0.00000000000E+00 -0.78073792476E+03  0.78073792476E+03  0.00000000000E+00 0. -1.
          5    1    1    2  502    0 -0.32088532462E+02  0.13469903774E+02 -0.17021524788E+03  0.17378669464E+03  0.41800000000E+01 0. -1.
         -5    1    1    2    0  502 -0.20133484668E+02  0.59015353250E+02 -0.22620154000E+02  0.66462868514E+02  0.41800000000E+01 0.  1.
        -11    1    1    2    0    0  0.61305157137E+02 -0.81329003955E+01 -0.23423410316E+03  0.24226035880E+03  0.00000000000E+00 0.  1.
         11    1    1    2    0    0 -0.90831400076E+01 -0.64352356628E+02 -0.32270864045E+03  0.32918778206E+03  0.00000000000E+00 0. -1.
</event>
<event>
 6    1  0.6447971E-006  0.1611458E+03  0.7561462E-02  0.1187409E+00
         -2   -1    0    0    0  501 -0.00000000000E+00  0.00000000000E+00  0.36512753996E+03  0.36512753996E+03  0.00000000000E+00 0.  1.
          2   -1    0    0  501    0  0.00000000000E+00 -0.00000000000E+00 -0.74621036671E+02  0.74621036671E+02  0.00000000000E+00 0. -1.
          5    1    1    2  502    0  0.11738137454E+03  0.38691694589E+02  0.95413243550E+02  0.15619409004E+03  0.41800000000E+01 0. -1.
         -5    1    1    2    0  502 -0.22112835068E+02  0.39619438107E+02  0.79912955966E+02  0.91990381464E+02  0.41800000000E+01 0. -1.
        -11    1    1    2    0    0 -0.53782267620E+02 -0.94334824667E+02  0.80864189358E+02  0.13539057787E+03  0.00000000000E+00 0. -1.
         11    1    1    2    0    0 -0.41486271847E+02  0.16023691971E+02  0.34316114413E+02  0.56173527257E+02  0.00000000000E+00 0.  1.
</event>
<event>
 6    1  0.6447971E-006  0.1089331E+03  0.7561462E-02  0.1262558E+00
          1   -1    0    0  501    0  0.00000000000E+00  0.00000000000E+00  0.32512194897E+03  0.32512194897E+03  0.00000000000E+00 0. -1.
         -1   -1    0    0    0  501 -0.00000000000E+00 -0.00000000000E+00 -0.43487812647E+02  0.43487812647E+02  0.00000000000E+00 0.  1.
          5    1    1    2  502    0  0.31241276359E+02 -0.50206254083E+02  0.94653153168E+02  0.11168427419E+03  0.41800000000E+01 0.  1.
         -5    1    1    2    0  502 -0.59194110882E+02  0.18174349199E+02  0.26177244619E+02  0.67357035770E+02  0.41800000000E+01 0.  1.
        -11    1    1    2    0    0  0.54100000736E+02  0.42052983079E+02  0.87765906832E+02  0.11134683591E+03  0.00000000000E+00 0.  1.
         11    1    1    2    0    0 -0.26147166213E+02 -0.10021078195E+02  0.73037831708E+02  0.78221615745E+02  0.00000000000E+00 0. -1.
</event>
<event>
 6    1  0.6447971E-006  0.9967830E+02  0.7561462E-02  0.1280974E+00
         -4   -1    0    0    0  501 -0.00000000000E+00  0.00000000000E+00  0.50382871746E+02  0.50382871746E+02  0.00000000000E+00 0.  1.
          4   -1    0    0  501    0  0.00000000000E+00 -0.00000000000E+00 -0.37313675475E+03  0.37313675475E+03  0.00000000000E+00 0. -1.
          5    1    1    2  502    0 -0.55728759420E+02 -0.24973064634E+02 -0.11952440962E+03  0.13428665413E+03  0.41800000000E+01 0.  1.
         -5    1    1    2    0  502 -0.17270444175E+02  0.55071123609E+02 -0.32587439991E+01  0.57958508522E+02  0.41800000000E+01 0.  1.
        -11    1    1    2    0    0  0.36382965438E+02 -0.22815910872E+02 -0.19823847340E+02  0.47299797952E+02  0.00000000000E+00 0.  1.
         11    1    1    2    0    0  0.36616238157E+02 -0.72821481040E+01 -0.18014688205E+03  0.18397466589E+03  0.00000000000E+00 0. -1.
</event>
<event>
 6    1  0.6447971E-006  0.1152536E+03  0.7561462E-02  0.1251139E+00
          1   -1    0    0  501    0  0.00000000000E+00  0.00000000000E+00  0.42345231885E+02  0.42345231885E+02  0.00000000000E+00 0. -1.
         -1   -1    0    0    0  501 -0.00000000000E+00 -0.00000000000E+00 -0.54216028040E+03  0.54216028040E+03  0.00000000000E+00 0.  1.
          5    1    1    2  502    0 -0.10562990301E+02 -0.49029731968E+02 -0.16701160857E+03  0.17443004666E+03  0.41800000000E+01 0. -1.
         -5    1    1    2    0  502  0.64896854600E+02  0.35645866732E+02 -0.28182797888E+03  0.29142187912E+03  0.41800000000E+01 0.  1.
        -11    1    1    2    0    0 -0.46851362042E+02  0.50073336257E+02 -0.24603197620E+02  0.72854007867E+02  0.00000000000E+00 0. -1.
         11    1    1    2    0    0 -0.74825022564E+01 -0.36689471021E+02 -0.26372263444E+02  0.45799578633E+02  0.00000000000E+00 0.  1.
</event>
<event>
 6    1  0.6447971E-006  0.2639754E+03  0.7561462E-02  0.1104778E+00
          2   -1    0    0  501    0  0.00000000000E+00  0.00000000000E+00  0.55141985870E+03  0.55141985870E+03  0.00000000000E+00 0. -1.
         -2   -1    0    0    0  501 -0.00000000000E+00 -0.00000000000E+00 -0.14472610563E+03  0.14472610563E+03  0.00000000000E+00 0.  1.
          5    1    1    2  502    0  0.25532831643E+02  0.58680736401E+01  0.32830885104E+02  0.42210178828E+02  0.41800000000E+01 0.  1.
         -5    1    1    2    0  502 -0.39684181297E+02  0.24460906421E+03  0.87149775526E+02  0.26271845065E+03  0.41800000000E+01 0.  1.
        -11    1    1    2    0    0  0.21536790065E+02 -0.77308359061E+02  0.39900060540E+02  0.89623827959E+02  0.00000000000E+00 0. -1.
         11    1    1    2    0    0 -0.73854404106E+01 -0.17316877879E+03  0.24681303190E+03  0.30159350688E+03  0.00000000000E+00 0.  1.
</event>
<event>
 6    1  0.6447971E-006  0.1227109E+03  0.7561462E-02  0.1238691E+00
         -2   -1    0    0    0  501 -0.00000000000E+00  0.00000000000E+00  0.42904333191E+03  0.42904333191E+03  0.00000000000E+00 0.  1.
          2   -1    0    0  501    0  0.00000000000E+00 -0.00000000000E+00 -0.50316775759E+02  0.50316775759E+02  0.00000000000E+00 0. -1.
          5    1    1    2  502    0  0.11159034071E+03 -0.20302495241E+02  0.24105914705E+03  0.26644245200E+03  0.41800000000E+01 0. -1.
         -5    1    1    2    0  502 -0.31163391505E+02  0.14559405938E+02  0.56955677662E+02  0.66667494998E+02  0.41800000000E+01 0. -1.
        -11    1    1    2    0    0 -0.75112651928E+02  0.23527664878E+02  0.17856215465E+02  0.80711250300E+02  0.00000000000E+00 0. -1.
         11    1    1    2    0    0 -0.53142972760E+01 -0.17784575575E+02  0.62855515980E+02  0.65538910374E+02  0.00000000000E+00 0.  1.
</event>
<event>
 6    1  0.6447971E-006  0.1294263E+03  0.7561462E-02  0.1228310E+00
         -1   -1    0    0    0  501 -0.00000000000E+00  0.00000000000E+00  0.77641957800E+03  0.77641957800E+03  0.00000000000E+00 0.  1.
          1   -1    0    0  501    0  0.00000000000E+00 -0.00000000000E+00 -0.35336018082E+02  0.35336018082E+02  0.00000000000E+00 0. -1.
          5    1    1    2  502    0 -0.22692845151E+02 -0.23319667302E+02  0.25505752574E+02  0.41554637749E+02  0.41800000000E+01 0.  1.
         -5    1    1    2    0  502  0.43257531581E+02 -0.83525447691E+02  0.52344685385E+03  0.53184753046E+03  0.41800000000E+01 0.  1.
        -11    1    1    2    0    0  0.20336993951E+02  0.33552937435E+01  0.70711533256E+02  0.73654410965E+02  0.00000000000E+00 0.  1.
         11    1    1    2    0    0 -0.40901680381E+02  0.10348982125E+03  0.12141942024E+03  0.16469901691E+03  0.00000000000E+00 0. -1.
</event>
<event>
 6    1  0.6447971E-006  0.6574195E+02  0.7561462E-02  0.1375202E+00
         -1   -1    0    0    0  501 -0.00000000000E+00  0.00000000000E+00  0.59807042755E+03  0.59807042755E+03  0.00000000000E+00 0.  1.
          1   -1    0    0  501    0  0.00000000000E+00 -0.00000000000E+00 -0.24491381072E+02  0.24491381072E+02  0.00000000000E+00 0. -1.
          5    1    1    2  502    0  0.16956831418E+02 -0.45931546176E+02  0.36342170100E+03  0.36672884564E+03  0.41800000000E+01 0. -1.
         -5    1    1    2    0  502  0.19538683451E+01 -0.22729433591E+01 -0.10270020094E+02  0.11486060497E+02  0.41800000000E+01 0. -1.
        -11    1    1    2    0    0 -0.16293772442E+01 -0.13256505788E+02 -0.14798744778E+01  0.13438000014E+02  0.00000000000E+00 0. -1.
         11    1    1    2    0    0 -0.17281322519E+02  0.61460995323E+02  0.22190724006E+03  0.23090890248E+03  0.00000000000E+00 0.  1.
</event>
<event>
 6    1  0.6447971E-006  0.1155621E+03  0.7561462E-02  0.1250603E+00
          1   -1    0    0  501    0  0.00000000000E+00  0.00000000000E+00  0.51618708611E+02  0.51618708611E+02  0.00000000000E+00 0. -1.
         -1   -1    0    0    0  501 -0.00000000000E+00 -0.00000000000E+00 -0.48070643275E+03  0.48070643275E+03  0.00000000000E+00 0.  1.
          5    1    1    2  502    0  0.16970403234E+02 -0.15417678308E+02 -0.57132773559E+01  0.23996110695E+02  0.41800000000E+01 0.  1.
         -5    1    1    2    0  502 -0.91371740935E+02 -0.20521216129E+02 -0.34304701571E+03  0.35562429998E+03  0.41800000000E+01 0.  1.
        -11    1    1    2    0    0  0.89004700389E+02  0.17760323922E+02 -0.27299027907E+02  0.94776066186E+02  0.00000000000E+00 0. -1.
         11    1    1    2    0    0 -0.14603362688E+02  0.18178570514E+02 -0.53028403168E+02  0.57928664496E+02  0.00000000000E+00 0.  1.
</event>
<event>
 6    1  0.6447971E-006  0.8870642E+02  0.7561462E-02  0.1306015E+00
         -2   -1    0    0    0  501 -0.00000000000E+00  0.00000000000E+00  0.48402747067E+02  0.48402747067E+02  0.00000000000E+00 0.  1.
          2   -1    0    0  501    0  0.00000000000E+00 -0.00000000000E+00 -0.35781405829E+03  0.35781405829E+03  0.00000000000E+00 0. -1.
          5    1    1    2  502    0 -0.15441927552E+01 -0.47089966074E+02 -0.10637889143E+03  0.11642074720E+03  0.41800000000E+01 0. -1.
         -5    1    1    2    0  502  0.38371975239E+01  0.40409166871E+02  0.22469921784E+02  0.46583201232E+02  0.41800000000E+01 0.  1.
        -11    1    1    2    0    0  0.33972691650E+02 -0.24170692797E+02 -0.12959890337E+03  0.13614052271E+03  0.00000000000E+00 0.  1.
         11    1    1    2    0    0 -0.36265696419E+02  0.30851492001E+02 -0.95903438202E+02  0.10707233422E+03  0.00000000000E+00 0. -1.
</event>
<event>
 6    1  0.6447971E-006  0.1281094E+03  0.7561462E-02  0.1230288E+00
         -1   -1    0    0    0  501 -0.00000000000E+00  0.00000000000E+00  0.76967529634E+02  0.76967529634E+02  0.00000000000E+00 0.  1.
          1   -1    0    0  501    0  0.00000000000E+00 -0.00000000000E+00 -0.35350664852E+03  0.35350664852E+03  0.00000000000E+00 0. -1.
          5    1    1    2  502    0 -0.46835877509E+02  0.53484346321E+02  0.10699649051E+02  0.72014787462E+02  0.41800000000E+01 0.  1.
         -5    1    1    2    0  502 -0.58551519363E+02  0.25041298317E+01 -0.11703963818E+03  0.13095915543E+03  0.41800000000E+01 0.  1.
        -11    1    1    2    0    0  0.26173866218E+02  0.45307360626E+01  0.39331905180E+01  0.26852724810E+02  0.00000000000E+00 0.  1.
         11    1    1    2    0    0  0.79213530654E+02 -0.60519212216E+02 -0.17413232028E+03  0.20064751046E+03  0.00000000000E+00 0. -1.
</event>
<event>
 6    1  0.6447971E-006  0.1102909E+03  0.7561462E-02  0.1260032E+00
         -2   -1    0    0    0  501 -0.00000000000E+00  0.00000000000E+00  0.17805664164E+02  0.17805664164E+02  0.00000000000E+00 0.  1.
          2   -1    0    0  501    0  0.00000000000E+00 -0.00000000000E+00 -0.69464567669E+03  0.69464567669E+03  0.00000000000E+00 0. -1.
          5    1    1    2  502    0 -0.70878114785E+02  0.13722094532E+02 -0.20078499387E+03  0.21341061173E+03  0.41800000000E+01 0. -1.
         -5    1    1    2    0  502  0.48522613285E+02 -0.23777607654E+02 -0.19533362305E+03  0.20271288889E+03  0.41800000000E+01 0. -1.
        -11    1    1    2    0    0 -0.22331388022E+02 -0.27691563625E+02 -0.87797643299E+02  0.94730880688E+02  0.00000000000E+00 0.  1.
         11    1    1    2    0    0  0.44686889522E+02  0.37747076747E+02 -0.19292375230E+03  0.20159695955E+03  0.00000000000E+00 0. -1.
</event>
<event>
 6    1  0.6447971E-006  0.1323270E+03  0.7561462E-02  0.1224043E+00
          1   -1    0    0  501    0  0.00000000000E+00  0.00000000000E+00  0.21372895927E+03  0.21372895927E+03  0.00000000000E+00 0. -1.
         -1   -1    0    0    0  501 -0.00000000000E+00 -0.00000000000E+00 -0.25340789038E+03  0.25340789038E+03  0.00000000000E+00 0.  1.
          5    1    1    2  502    0  0.83162542897E+02  0.28711068188E+02 -0.19928948603E+03  0.21788553329E+03  0.41800000000E+01 0. -1.
         -5    1    1    2    0  502  0.29521215544E+02 -0.22893957481E+02  0.64845931971E+01  0.38146530711E+02  0.41800000000E+01 0. -1.
        -11    1    1    2    0    0  0.13083839036E+02 -0.38732465684E-01  0.28565436802E+00  0.13087014271E+02  0.00000000000E+00 0.  1.
         11    1    1    2    0    0 -0.12576759748E+03 -0.57783782418E+01  0.15284030735E+03  0.19801777138E+03  0.00000000000E+00 0. -1.
</event>
<event>
 6    1  0.6447971E-006  0.1261777E+03  0.7561462E-02  0.1233240E+00
          2   -1    0    0  501    0  0.00000000000E+00  0.00000000000E+00  0.46265598747E+02  0.46265598747E+02  0.00000000000E+00 0. -1.
         -2   -1    0    0    0  501 -0.00000000000E+00 -0.00000000000E+00 -0.43002560915E+03  0.43002560915E+03  0.00000000000E+00 0.  1.
          5    1    1    2  502    0 -0.61631064477E+02  0.92970680323E+02 -0.18647933236E+03  0.21733372795E+03  0.41800000000E+01 0.  1.
         -5    1    1    2    0  502  0.38045738535E+02 -0.10817315800E+02 -0.73281951437E+02  0.83379909740E+02  0.41800000000E+01 0.  1.
        -11    1    1    2    0    0  0.34942119313E+02 -0.82503199266E+02 -0.13349118308E+03  0.16077196755E+03  0.00000000000E+00 0.  1.
         11    1    1    2    0    0 -0.11356793371E+02  0.34983474290E+00  0.94924564724E+01  0.14805602653E+02  0.00000000000E+00 0. -1.
</event>
<event>
 6    1  0.6447971E-006  0.1418730E+03  0.7561462E-02  0.1210831E+00
          2   -1    0    0  501    0  0.00000000000E+00  0.00000000000E+00  0.78809756531E+02  0.78809756531E+02  0.00000000000E+00 0. -1.
         -2   -1    0    0    0  501 -0.00000000000E+00 -0.00000000000E+00 -0.27861161954E+03  0.27861161954E+03  0.00000000000E+00 0.  1.
          5    1    1    2  502    0 -0.40458254589E+02  0.56612786511E+02 -0.37505855410E+02  0.79158319531E+02  0.41800000000E+01 0.  1.
         -5    1    1    2    0  502 -0.52256135560E+02 -0.60305443938E+02 -0.10502528819E+03  0.13196679064E+03  0.41800000000E+01 0.  1.
        -11    1    1    2    0    0  0.42690250496E+02  0.50151687627E+02 -0.21895699922E+02  0.69405121817E+02  0.00000000000E+00 0.  1.
         11    1    1    2    0    0  0.50024139654E+02 -0.46459030200E+02 -0.35375019491E+02  0.76891144088E+02  0.00000000000E+00 0. -1.
</event>
<event>
 6    1  0.6447971E-006  0.1447621E+03  0.7561462E-02  0.1207061E+00
          1   -1    0    0  501    0  0.00000000000E+00  0.00000000000E+00  0.78371430033E+02  0.78371430033E+02  0.00000000000E+00 0. -1.
         -1   -1    0    0    0  501 -0.00000000000E+00 -0.00000000000E+00 -0.44874750824E+03  0.44874750824E+03  0.00000000000E+00 0.  1.
          5    1    1    2  502    0  0.24108663466E+02 -0.25716580256E+02 -0.55364260087E+02  0.65766586114E+02  0.41800000000E+01 0.  1.
         -5    1    1    2    0  502  0.22724432795E+02  0.13367940454E+03 -0.26765548633E+03  0.30007251592E+03  0.41800000000E+01 0.  1.
        -11    1    1    2    0    0 -0.20892424117E+02 -0.63956777526E+02 -0.76971681014E+02  0.10223307907E+03  0.00000000000E+00 0.  1.
         11    1    1    2    0    0 -0.25940672144E+02 -0.44006046762E+02  0.29615349228E+02  0.59046757175E+02  0.00000000000E+00 0. -1.
</event>
<event>
 6    1  0.6447971E-006  0.6396024E+02  0.7561462E-02  0.1381926E+00
         -1   -1    0    0    0  501 -0.00000000000E+00  0.00000000000E+00  0.88440247791E+02  0.88440247791E+02  0.00000000000E+00 0.  1.
          1   -1    0    0  501    0  0.00000000000E+00 -0.00000000000E+00 -0.13555570226E+03  0.13555570226E+03  0.00000000000E+00 0. -1.
          5    1    1    2  502    0  0.18046953893E+02 -0.15705629621E+02 -0.67939450976E+02  0.72149849241E+02  0.41800000000E+01 0. -1.
         -5    1    1    2    0  502 -0.95731973414E+01  0.22118610280E+02  0.49043125657E+02  0.54804923157E+02  0.41800000000E+01 0. -1.
        -11    1    1    2    0    0 -0.10438549563E+02 -0.42128915143E+02  0.10161308168E+02  0.44576462307E+02  0.00000000000E+00 0.  1.
         11    1    1    2    0    0  0.19647930122E+01  0.35715934484E+02 -0.38380437313E+02  0.52464715342E+02  0.00000000000E+00 0. -1.
</event>
<event>
 6    1  0.6447971E-006  0.9866655E+02  0.7561462E-02  0.1283125E+00
         -1   -1    0    0    0  501 -0.00000000000E+00  0.00000000000E+00  0.25691104694E+02  0.25691104694E+02  0.00000000000E+00 0.  1.
          1   -1    0    0  501    0  0.00000000000E+00 -0.00000000000E+00 -0.57179555920E+03  0.57179555920E+03  0.00000000000E+00 0. -1.
          5    1    1    2  502    0  0.41901156965E+02  0.25518903378E+02 -0.24809868304E+03  0.25293744348E+03  0.41800000000E+01 0.  1.
         -5    1    1    2    0  502 -0.44464885163E+02  0.31157322809E+02 -0.44607498833E+02  0.70393225024E+02  0.41800000000E+01 0.  1.
        -11    1    1    2    0    0 -0.12297453778E+02 -0.71558742303E+02 -0.23582224612E+03  0.24674685962E+03  0.00000000000E+00 0. -1.
         11    1    1    2    0    0  0.14861181977E+02  0.14882516116E+02 -0.17576026508E+02  0.27409135767E+02  0.00000000000E+00 0.  1.
</event>
<event>
 6    1  0.6447971E-006  0.1546977E+03  0.7561462E-02  0.1194816E+00
         -2   -1    0    0    0  501 -0.00000000000E+00  0.00000000000E+00  0.21895693988E+03  0.21895693988E+03  0.00000000000E+00 0.  1.
          2   -1    0    0  501    0  0.00000000000E+00 -0.00000000000E+00 -0.14953766240E+03  0.14953766240E+03  0.00000000000E+00 0. -1.
          5    1    1    2  502    0 -0.19305656243E+02 -0.86969423191E+01 -0.28830802959E+02  0.36014341142E+02  0.41800000000E+01 0.  1.
         -5    1    1    2    0  502 -0.80032733949E+02  0.10985450276E+03  0.88526090117E+02  0.16225779276E+03  0.41800000000E+01 0.  1.
        -11    1    1    2    0    0  0.71651924723E+02 -0.34239028961E+02  0.43241934279E+02  0.90422200266E+02  0.00000000000E+00 0.  1.
         11    1    1    2    0    0  0.27686465468E+02 -0.66918531475E+02 -0.33517943959E+02  0.79800268121E+02  0.00000000000E+00 0. -1.
</event>
<event>
 6    1  0.6447971E-006  0.1326148E+03  0.7561462E-02  0.1223627E+00
         -2   -1    0    0    0  501 -0.00000000000E+00  0.00000000000E+00  0.18699396403E+03  0.18699396403E+03  0.00000000000E+00 0.  1.
          2   -1    0    0  501    0  0.00000000000E+00 -0.00000000000E+00 -0.13348420568E+03  0.13348420568E+03  0.00000000000E+00 0. -1.
          5    1    1    2  502    0  0.17547374697E+01  0.49839679141E+01  0.60173295956E+02  0.60549293852E+02  0.41800000000E+01 0.  1.
         -5    1    1    2    0  502  0.11165839288E+03 -0.22736984688E+02 -0.15334096097E+02  0.11505291859E+03  0.41800000000E+01 0.  1.
        -11    1    1    2    0    0 -0.14611805140E+02 -0.31014605466E+02 -0.74912016036E+00  0.34292444980E+02  0.00000000000E+00 0. -1.
         11    1    1    2    0    0 -0.98801325211E+02  0.48767622240E+02  0.94196786505E+01  0.11058351228E+03  0.00000000000E+00 0.  1.
</event>
<event>
 6    1  0.7478395E-006  0.2482700E+03  0.7561462E-02  0.1114403E+00
         -1   -1    0    0    0  501 -0.00000000000E+00  0.00000000000E+00  0.88861711539E+02  0.88861711539E+02  0.00000000000E+00 0.  1.
          1   -1    0    0  501    0  0.00000000000E+00 -0.00000000000E+00 -0.82724619523E+03  0.82724619523E+03  0.00000000000E+00 0. -1.
          5    1    1    2  502    0  0.20545600614E+02  0.87471352688E+02 -0.28018878654E+02  0.94211937708E+02  0.41800000000E+01 0.  1.
         -5    1    1    2    0  502  0.19718082957E+02  0.15263084087E+03 -0.26712081238E+03  0.30831149376E+03  0.41800000000E+01 0.  1.
        -11    1    1    2    0    0 -0.39452973835E+02 -0.55841823163E+02 -0.72981991664E+02  0.10000608714E+03  0.00000000000E+00 0.  1.
         11    1    1    2    0    0 -0.81070973611E+00 -0.18426037039E+03 -0.37026280099E+03  0.41357838815E+03  0.00000000000E+00 0. -1.
</event>
<event>
 6    1  0.6447971E-006  0.9809156E+02  0.7561462E-02  0.1284361E+00
         -2   -1    0    0    0  501 -0.00000000000E+00  0.00000000000E+00  0.45345655529E+02  0.45345655529E+02  0.00000000000E+00 0.  1.
          2   -1    0    0  501    0  0.00000000000E+00 -0.00000000000E+00 -0.27071222401E+03  0.27071222401E+03  0.00000000000E+00 0. -1.
          5    1    1    2  502    0 -0.20738822213E+02 -0.45538770817E+02 -0.10761270762E+02  0.51353244714E+02  0.41800000000E+01 0. -1.
         -5    1    1    2    0  502  0.17067019361E+02  0.62621773087E+02 -0.85635935598E+02  0.10753490354E+03  0.41800000000E+01 0. -1.
        -11    1    1    2    0    0  0.30432775996E+02  0.19096832907E+02 -0.92544921629E+02  0.99274394490E+02  0.00000000000E+00 0. -1.
         11    1    1    2    0    0 -0.26760973144E+02 -0.36179835178E+02 -0.36424440490E+02  0.57895336791E+02  0.00000000000E+00 0.  1.
</event>
<event>
 6    1  0.6447971E-006  0.1566324E+03  0.7561462E-02  0.1192552E+00
          1   -1    0    0  501    0  0.00000000000E+00  0.00000000000E+00  0.11032545166E+04  0.11032545166E+04  0.00000000000E+00 0. -1.
         -1   -1    0    0    0  501 -0.00000000000E+00 -0.00000000000E+00 -0.27309245348E+02  0.27309245348E+02  0.00000000000E+00 0.  1.
          5    1    1    2  502    0  0.20775835337E+02  0.46916953280E+01  0.14978280028E+03  0.15134730589E+03  0.41800000000E+01 0.  1.
         -5    1    1    2    0  502 -0.15184490450E+03 -0.28795788718E+02  0.46495651787E+03  0.48998786554E+03  0.41800000000E+01 0.  1.
        -11    1    1    2    0    0  0.72769542494E+02 -0.26251446503E+01  0.10804959017E+03  0.13029586193E+03  0.00000000000E+00 0.  1.
         11    1    1    2    0    0  0.58299526670E+02  0.26729238041E+02  0.35315636295E+03  0.35893272861E+03  0.00000000000E+00 0. -1.
</event>
<event>
 6    1  0.6447971E-006  0.1483259E+03  0.7561462E-02  0.1202545E+00
          2   -1    0    0  501    0  0.00000000000E+00  0.00000000000E+00  0.14350428361E+03  0.14350428361E+03  0.00000000000E+00 0. -1.
         -2   -1    0    0    0  501 -0.00000000000E+00 -0.00000000000E+00 -0.19728779092E+03  0.19728779092E+03  0.00000000000E+00 0.  1.
          5    1    1    2  502    0 -0.67730148780E+02 -0.12500706707E+03 -0.55751054663E+02  0.15277366385E+03  0.41800000000E+01 0.  1.
         -5    1    1    2    0  502  0.11746362135E+00  0.15801761818E+02  0.24268862171E+02  0.29260204123E+02  0.41800000000E+01 0.  1.
        -11    1    1    2    0    0  0.54082133719E+02  0.11188917333E+03  0.89519540263E+01  0.12459615474E+03  0.00000000000E+00 0. -1.
         11    1    1    2    0    0  0.13530551440E+02 -0.26838680804E+01 -0.31253268852E+02  0.34162051813E+02  0.00000000000E+00 0.  1.
</event>
<event>
 6    1  0.6447971E-006  0.1100646E+03  0.7561462E-02  0.1260450E+00
         -1   -1    0    0    0  501 -0.00000000000E+00  0.00000000000E+00  0.95970300061E+02  0.95970300061E+02  0.00000000000E+00 0.  1.
          1   -1    0    0  501    0  0.00000000000E+00 -0.00000000000E+00 -0.14985860014E+03  0.14985860014E+03  0.00000000000E+00 0. -1.
          5    1    1    2  502    0 -0.75986921905E+01 -0.44747006526E+02 -0.35130975650E+00  0.45581032619E+02  0.41800000000E+01 0.  1.
         -5    1    1    2    0  502 -0.19646474187E+02  0.86597106708E+02 -0.11352600245E+02  0.89618060515E+02  0.41800000000E+01 0.  1.
        -11    1    1    2    0    0 -0.21657091912E+02 -0.58132943861E+00  0.13733675785E+02  0.25651148602E+02  0.00000000000E+00 0.  1.
         11    1    1    2    0    0  0.48902258290E+02 -0.41268770744E+02 -0.55918065860E+02  0.84978658463E+02  0.00000000000E+00 0. -1.
</event>
<event>
 6    1  0.6447971E-006  0.1579993E+03  0.7561462E-02  0.1190974E+00
         -1   -1    0    0    0  501 -0.00000000000E+00  0.00000000000E+00  0.93379528963E+03  0.93379528963E+03  0.00000000000E+00 0.  1.
          1   -1    0    0  501    0  0.00000000000E+00 -0.00000000000E+00 -0.31975843862E+02  0.31975843862E+02  0.00000000000E+00 0. -1.
          5    1    1    2  502    0  0.20605173852E+01  0.90854956938E+02  0.25215075248E+03  0.26806033520E+03  0.41800000000E+01 0.  1.
         -5    1    1    2    0  502  0.90717925779E+02  0.30533516669E+01  0.24351702524E+03  0.25991744650E+03  0.41800000000E+01 0.  1.
        -11    1    1    2    0    0 -0.65897214653E+02 -0.50176847865E+02  0.35784466624E+03  0.36730500149E+03  0.00000000000E+00 0.  1.
         11    1    1    2    0    0 -0.26881228511E+02 -0.43731460740E+02  0.48307001808E+02  0.70488350303E+02  0.00000000000E+00 0. -1.
</event>
<event>
 6    1  0.6447971E-006  0.1179980E+03  0.7561462E-02  0.1246437E+00
         -1   -1    0    0    0  501 -0.00000000000E+00  0.00000000000E+00  0.14036188822E+02  0.14036188822E+02  0.00000000000E+00 0.  1.
          1   -1    0    0  501    0  0.00000000000E+00 -0.00000000000E+00 -0.12355256395E+04  0.12355256395E+04  0.00000000000E+00 0. -1.
          5    1    1    2  502    0  0.41596952188E+01  0.78889244801E+02 -0.55600586005E+03  0.56160555982E+03  0.41800000000E+01 0. -1.
         -5    1    1    2    0  502  0.35491469812E+02 -0.17336734584E+02 -0.65714043684E+02  0.76785511217E+02  0.41800000000E+01 0. -1.
        -11    1    1    2    0    0  0.63146202713E+01 -0.70124564877E+02 -0.33754803260E+03  0.34481299764E+03  0.00000000000E+00 0.  1.
         11    1    1    2    0    0 -0.45965785302E+02  0.85720546602E+01 -0.26222151429E+03  0.26635775960E+03  0.00000000000E+00 0. -1.
</event>
<event>
 6    1  0.6447971E-006  0.9220982E+02  0.7561462E-02  0.1297587E+00
          1   -1    0    0  501    0  0.00000000000E+00  0.00000000000E+00  0.30881363778E+02  0.30881363778E+02  0.00000000000E+00 0. -1.
         -1   -1    0    0    0  501 -0.00000000000E+00 -0.00000000000E+00 -0.43274064915E+03  0.43274064915E+03  0.00000000000E+00 0.  1.
          5    1    1    2  502    0  0.31620162306E+02  0.77455607973E+02 -0.14470256891E+03  0.16719901830E+03  0.41800000000E+01 0. -1.
         -5    1    1    2    0  502 -0.23121259859E+02 -0.40121838604E+02 -0.63772818181E+02  0.78922742788E+02  0.41800000000E+01 0. -1.
        -11    1    1    2    0    0 -0.11934926866E+02  0.40720216478E+01  0.59063285528E+01  0.13925105263E+02  0.00000000000E+00 0. -1.
         11    1    1    2    0    0  0.34360244188E+01 -0.41405791016E+02 -0.19929022684E+03  0.20357514658E+03  0.00000000000E+00 0.  1.
</event>
<event>
 6    1  0.6447971E-006  0.1547446E+03  0.7561462E-02  0.1194761E+00
         -2   -1    0    0    0  501 -0.00000000000E+00  0.00000000000E+00  0.15661261444E+03  0.15661261444E+03  0.00000000000E+00 0.  1.
          2   -1    0    0  501    0  0.00000000000E+00 -0.00000000000E+00 -0.19361851558E+03  0.19361851558E+03  0.00000000000E+00 0. -1.
          5    1    1    2  502    0 -0.61370571348E+01  0.24923276779E+02  0.10798074324E+02  0.28158551184E+02  0.41800000000E+01 0. -1.
         -5    1    1    2    0  502  0.63568431989E+02 -0.13592752206E+03  0.23025881617E+02  0.15187132851E+03  0.41800000000E+01 0. -1.
        -11    1    1    2    0    0 -0.29956349453E+02  0.98912964242E+02 -0.87895325105E+02  0.13567146179E+03  0.00000000000E+00 0. -1.
         11    1    1    2    0    0 -0.27475025402E+02  0.12091281038E+02  0.17065468022E+02  0.34529788543E+02  0.00000000000E+00 0.  1.
</event>
<event>
 6    1  0.6447971E-006  0.1529274E+03  0.7561462E-02  0.1196921E+00
          2   -1    0    0  501    0  0.00000000000E+00  0.00000000000E+00  0.50442334228E+02  0.50442334228E+02  0.00000000000E+00 0.  1.
         -2   -1    0    0    0  501 -0.00000000000E+00 -0.00000000000E+00 -0.60308553804E+03  0.60308553804E+03  0.00000000000E+00 0. -1.
          5    1    1    2  502    0 -0.13766502212E+03 -0.58435749565E+02 -0.34666597229E+03  0.37757272662E+03  0.41800000000E+01 0.  1.
         -5    1    1    2    0  502  0.22968669460E+02 -0.43482412844E+01 -0.18980688719E+02  0.30400755307E+02  0.41800000000E+01 0.  1.
        -11    1    1    2    0    0  0.49752064086E+02  0.15328162920E+02 -0.12689990415E+02  0.53584105070E+02  0.00000000000E+00 0.  1.
         11    1    1    2    0    0  0.64944288572E+02  0.47455827930E+02 -0.17430655239E+03  0.19197028527E+03  0.00000000000E+00 0. -1.
</event>
<event>
 6    1  0.6447971E-006  0.1072206E+03  0.7561462E-02  0.1265805E+00
          1   -1    0    0  501    0  0.00000000000E+00  0.00000000000E+00  0.12664490505E+03  0.12664490505E+03  0.00000000000E+00 0. -1.
         -1   -1    0    0    0  501 -0.00000000000E+00 -0.00000000000E+00 -0.11263171357E+03  0.11263171357E+03  0.00000000000E+00 0.  1.
          5    1    1    2  502    0 -0.17699598597E+02 -0.49627145223E+02 -0.32745976205E+02  0.62176367625E+02  0.41800000000E+01 0. -1.
         -5    1    1    2    0  502  0.23947004643E+02  0.65293802325E+02 -0.63609803597E+01  0.69961947690E+02  0.41800000000E+01 0. -1.
        -11    1    1    2    0    0 -0.34026746048E+02  0.25310989005E+02  0.32849709601E+02  0.53642977471E+02  0.00000000000E+00 0.  1.
         11    1    1    2    0    0  0.27779340002E+02 -0.40977646107E+02  0.20270438444E+02  0.53495325835E+02  0.00000000000E+00 0. -1.
</event>
<event>
 6    1  0.6447971E-006  0.1101075E+03  0.7561462E-02  0.1260371E+00
         -2   -1    0    0    0  501 -0.00000000000E+00  0.00000000000E+00  0.25440917387E+02  0.25440917387E+02  0.00000000000E+00 0.  1.
          2   -1    0    0  501    0  0.00000000000E+00 -0.00000000000E+00 -0.53334121798E+03  0.53334121798E+03  0.00000000000E+00 0. -1.
          5    1    1    2  502    0  0.56970985622E+02  0.53798360706E+02 -0.24620841828E+03  0.25841055406E+03  0.41800000000E+01 0. -1.
         -5    1    1    2    0  502 -0.41231470223E+02 -0.19113621043E+02 -0.63833444472E+02  0.78470030453E+02  0.41800000000E+01 0.  1.
        -11    1    1    2    0    0 -0.52590176383E+02 -0.17305185532E+02 -0.14466576038E+03  0.15489796101E+03  0.00000000000E+00 0.  1.
         11    1    1    2    0    0  0.36850660983E+02 -0.17379554131E+02 -0.53192677458E+02  0.67003589843E+02  0.00000000000E+00 0. -1.
</event>
<event>
 6    1  0.6447971E-006  0.1369345E+03  0.7561462E-02  0.1217514E+00
         -1   -1    0    0    0  501 -0.00000000000E+00  0.00000000000E+00  0.20523448875E+03  0.20523448875E+03  0.00000000000E+00 0.  1.
          1   -1    0    0  501    0  0.00000000000E+00 -0.00000000000E+00 -0.11471574081E+03  0.11471574081E+03  0.00000000000E+00 0. -1.
          5    1    1    2  502    0  0.74215136138E+01  0.23998466649E+02  0.48435363928E+02  0.54721678928E+02  0.41800000000E+01 0. -1.
         -5    1    1    2    0  502 -0.11542451390E+03 -0.69383132368E+00 -0.11956393640E+02  0.11611945384E+03  0.41800000000E+01 0. -1.
        -11    1    1    2    0    0  0.59639751378E+01  0.20874020663E+02 -0.62931689743E+01  0.22603046561E+02  0.00000000000E+00 0. -1.
         11    1    1    2    0    0  0.10203902514E+03 -0.44178655989E+02  0.60332946631E+02  0.12650605024E+03  0.00000000000E+00 0.  1.
</event>
<event>
 6    1  0.6447971E-006  0.1093172E+03  0.7561462E-02  0.1261839E+00
          2   -1    0    0  501    0  0.00000000000E+00  0.00000000000E+00  0.11527563949E+03  0.11527563949E+03  0.00000000000E+00 0. -1.
         -2   -1    0    0    0  501 -0.00000000000E+00 -0.00000000000E+00 -0.17833192153E+03  0.17833192153E+03  0.00000000000E+00 0.  1.
          5    1    1    2  502    0 -0.50491736421E+01  0.55300183164E+02 -0.28868049219E+02  0.62725123181E+02  0.41800000000E+01 0.  1.
         -5    1    1    2    0  502 -0.59691605219E+02 -0.58645595687E+02 -0.73068633320E+02  0.11117055007E+03  0.41800000000E+01 0.  1.
        -11    1    1    2    0    0  0.42065882591E+02 -0.20034423155E+02  0.63588013403E+02  0.78831161591E+02  0.00000000000E+00 0. -1.
         11    1    1    2    0    0  0.22674896270E+02  0.23379835678E+02 -0.24707612908E+02  0.40880726177E+02  0.00000000000E+00 0.  1.
</event>
<event>
 6    1  0.6447971E-006  0.1232574E+03  0.7561462E-02  0.1237818E+00
          1   -1    0    0  501    0  0.00000000000E+00  0.00000000000E+00  0.50054986632E+02  0.50054986632E+02  0.00000000000E+00 0. -1.
         -1   -1    0    0    0  501 -0.00000000000E+00 -0.00000000000E+00 -0.44608904480E+03  0.44608904480E+03  0.00000000000E+00 0.  1.
          5    1    1    2  502    0  0.24456463951E+02  0.57097600528E+02 -0.21604561677E+03  0.22483646399E+03  0.41800000000E+01 0. -1.
         -5    1    1    2    0  502  0.58528222815E+02 -0.45774191559E+02 -0.94596208467E+02  0.12036089288E+03  0.41800000000E+01 0. -1.
        -11    1    1    2    0    0  0.10443811841E+02 -0.12646893195E+02 -0.47263781154E+02  0.50028812921E+02  0.00000000000E+00 0.  1.
         11    1    1    2    0    0 -0.93428498607E+02  0.13234842270E+01 -0.38128451777E+02  0.10091786164E+03  0.00000000000E+00 0. -1.
</event>
<event>
 6    1  0.6447971E-006  0.5577451E+02  0.7561462E-02  0.1416471E+00
         -2   -1    0    0    0  501 -0.00000000000E+00  0.00000000000E+00  0.35410655929E+03  0.35410655929E+03  0.00000000000E+00 0. -1.
          2   -1    0    0  501    0  0.00000000000E+00 -0.00000000000E+00 -0.44992513122E+02  0.44992513122E+02  0.00000000000E+00 0.  1.
          5    1    1    2  502    0  0.63921770102E+01 -0.13505072934E+02 -0.10590133200E+02  0.18784840779E+02  0.41800000000E+01 0. -1.
         -5    1    1    2    0  502 -0.41985174284E+02 -0.11887032503E+02  0.25973497934E+03  0.26340802625E+03  0.41800000000E+01 0. -1.
        -11    1    1    2    0    0  0.19306222993E+02  0.29634367578E+02 -0.16198400606E+02  0.38901338926E+02  0.00000000000E+00 0.  1.
         11    1    1    2    0    0  0.16286774280E+02 -0.42422621409E+01  0.76167600636E+02  0.78004866458E+02  0.00000000000E+00 0. -1.
</event>
<event>
 6    1  0.6447971E-006  0.9054935E+02  0.7561462E-02  0.1301527E+00
          3   -1    0    0  501    0  0.00000000000E+00  0.00000000000E+00  0.19514863436E+03  0.19514863436E+03  0.00000000000E+00 0. -1.
         -3   -1    0    0    0  501 -0.00000000000E+00 -0.00000000000E+00 -0.93905393806E+02  0.93905393806E+02  0.00000000000E+00 0.  1.
          5    1    1    2  502    0 -0.25843465052E+02  0.11173967629E+02 -0.55342995868E+02  0.62233928288E+02  0.41800000000E+01 0.  1.
         -5    1    1    2    0  502 -0.34901277461E+01 -0.56079531907E+02  0.48067641132E+02  0.74061227472E+02  0.41800000000E+01 0.  1.
        -11    1    1    2    0    0 -0.27412744422E+02  0.78391631987E+01  0.48829866255E+01  0.28926710750E+02  0.00000000000E+00 0.  1.
         11    1    1    2    0    0  0.56746337220E+02  0.37066401080E+02  0.10363560866E+03  0.12383216165E+03  0.00000000000E+00 0. -1.
</event>
<event>
 6    1  0.6447971E-006  0.8997644E+02  0.7561462E-02  0.1302909E+00
          2   -1    0    0  501    0  0.00000000000E+00  0.00000000000E+00  0.15180548313E+02  0.15180548313E+02  0.00000000000E+00 0. -1.
         -2   -1    0    0    0  501 -0.00000000000E+00 -0.00000000000E+00 -0.79436271250E+03  0.79436271250E+03  0.00000000000E+00 0.  1.
          5    1    1    2  502    0  0.45843753312E+02 -0.24629631337E+02 -0.10004175057E+03  0.11284543728E+03  0.41800000000E+01 0. -1.
         -5    1    1    2    0  502 -0.31035240881E+02 -0.11839024057E+02 -0.38670173050E+03  0.38814823127E+03  0.41800000000E+01 0.  1.
        -11    1    1    2    0    0 -0.28176256969E+02 -0.21077288153E+02 -0.15513287521E+03  0.15907345003E+03  0.00000000000E+00 0.  1.
         11    1    1    2    0    0  0.13367744537E+02  0.57545943547E+02 -0.13730580791E+03  0.14947614224E+03  0.00000000000E+00 0. -1.
</event>
<event>
 6    1  0.7370419E-006  0.1906756E+03  0.7561462E-02  0.1157853E+00
         -2   -1    0    0    0  501 -0.00000000000E+00  0.00000000000E+00  0.36435097930E+02  0.36435097930E+02  0.00000000000E+00 0.  1.
          2   -1    0    0  501    0  0.00000000000E+00 -0.00000000000E+00 -0.11358489025E+04  0.11358489025E+04  0.00000000000E+00 0. -1.
          5    1    1    2  502    0  0.20677709155E+02  0.47389913077E+01 -0.25785343821E+02  0.33650884839E+02  0.41800000000E+01 0. -1.
         -5    1    1    2    0  502 -0.76380170560E+02 -0.16751443706E+03 -0.56573938106E+03  0.59495675201E+03  0.41800000000E+01 0. -1.
        -11    1    1    2    0    0  0.27086270755E+01  0.58913168730E+02 -0.75287283825E+02  0.95636150153E+02  0.00000000000E+00 0.  1.
         11    1    1    2    0    0  0.52993834330E+02  0.10386227702E+03 -0.43260179582E+03  0.44804021339E+03  0.00000000000E+00 0. -1.
</event>
<event>
 6    1  0.6447971E-006  0.1054575E+03  0.7561462E-02  0.1269221E+00
          2   -1    0    0  501    0  0.00000000000E+00  0.00000000000E+00  0.12356740291E+03  0.12356740291E+03  0.00000000000E+00 0. -1.
         -2   -1    0    0    0  501 -0.00000000000E+00 -0.00000000000E+00 -0.20940276776E+03  0.20940276776E+03  0.00000000000E+00 0.  1.
          5    1    1    2  502    0 -0.86221363046E+01  0.85291481473E+01 -0.10098069104E+03  0.10179223922E+03  0.41800000000E+01 0.  1.
         -5    1    1    2    0  502  0.46967116938E+02  0.80663720893E+02 -0.15334287377E+02  0.94684522026E+02  0.41800000000E+01 0.  1.
        -11    1    1    2    0    0 -0.26214520840E+02 -0.16545871161E+02  0.51313833584E+02  0.59950616948E+02  0.00000000000E+00 0. -1.
         11    1    1    2    0    0 -0.12130459793E+02 -0.72646997880E+02 -0.20834220016E+02  0.76542792472E+02  0.00000000000E+00 0.  1.
</event>
<event>
 6    1  0.6447971E-006  0.8574833E+02  0.7561462E-02  0.1313487E+00
         -3   -1    0    0    0  501 -0.00000000000E+00  0.00000000000E+00  0.15835894493E+03  0.15835894493E+03  0.00000000000E+00 0.  1.
          3   -1    0    0  501    0  0.00000000000E+00 -0.00000000000E+00 -0.95715041201E+02  0.95715041201E+02  0.00000000000E+00 0. -1.
          5    1    1    2  502    0  0.47396189840E+02 -0.16479771597E+02  0.75915315271E+02  0.91096592560E+02  0.41800000000E+01 0.  1.
         -5    1    1    2    0  502 -0.34608741163E+02 -0.36735258689E+02 -0.22633561373E+02  0.55470665187E+02  0.41800000000E+01 0.  1.
        -11    1    1    2    0    0  0.16711768220E+02  0.20524434580E+02 -0.35740615399E+02  0.44473893476E+02  0.00000000000E+00 0. -1.
         11    1    1    2    0    0 -0.29499216896E+02  0.32690595706E+02  0.45102765229E+02  0.63032834907E+02  0.00000000000E+00 0.  1.
</event>
<event>
 6    1  0.6447971E-006  0.1510729E+03  0.7561462E-02  0.1199161E+00
         -2   -1    0    0    0  501 -0.00000000000E+00  0.00000000000E+00  0.60313282956E+02  0.60313282956E+02  0.00000000000E+00 0.  1.
          2   -1    0    0  501    0  0.00000000000E+00 -0.00000000000E+00 -0.53383010611E+03  0.53383010611E+03  0.00000000000E+00 0. -1.
          5    1    1    2  502    0  0.44962730086E+02  0.23109987840E+02 -0.27843419801E+01  0.50802988052E+02  0.41800000000E+01 0. -1.
         -5    1    1    2    0  502 -0.20521290636E+02  0.10880346399E+03 -0.15887816601E+03  0.19369837681E+03  0.41800000000E+01 0. -1.
        -11    1    1    2    0    0 -0.23486474620E+02 -0.27349461614E+02 -0.16784200829E+03  0.17166987880E+03  0.00000000000E+00 0. -1.
         11    1    1    2    0    0 -0.95496483039E+00 -0.10456399021E+03 -0.14401230688E+03  0.17797214540E+03  0.00000000000E+00 0.  1.
</event>
<event>
 6    1  0.6447971E-006  0.1467844E+03  0.7561462E-02  0.1204481E+00
          1   -1    0    0  501    0  0.00000000000E+00  0.00000000000E+00  0.31377387365E+03  0.31377387365E+03  0.00000000000E+00 0. -1.
         -1   -1    0    0    0  501 -0.00000000000E+00 -0.00000000000E+00 -0.92233888441E+02  0.92233888441E+02  0.00000000000E+00 0.  1.
          5    1    1    2  502    0  0.33756573763E+02  0.76451986501E+02 -0.83706786790E+01  0.84094905754E+02  0.41800000000E+01 0.  1.
         -5    1    1    2    0  502  0.70342882237E+02 -0.21643152783E+02  0.60431305633E+02  0.95320313913E+02  0.41800000000E+01 0.  1.
        -11    1    1    2    0    0 -0.25353768926E+02 -0.51450784576E+02  0.12139992608E+03  0.13426816035E+03  0.00000000000E+00 0. -1.
         11    1    1    2    0    0 -0.78745687074E+02 -0.33580491420E+01  0.48079432178E+02  0.92324382075E+02  0.00000000000E+00 0.  1.
</event>
<event>
 6    1  0.6447971E-006  0.7697405E+02  0.7561462E-02  0.1337865E+00
         -1   -1    0    0    0  501 -0.00000000000E+00  0.00000000000E+00  0.86127598074E+03  0.86127598074E+03  0.00000000000E+00 0.  1.
          1   -1    0    0  501    0  0.00000000000E+00 -0.00000000000E+00 -0.16649109849E+02  0.16649109849E+02  0.00000000000E+00 0. -1.
          5    1    1    2  502    0 -0.21393800773E+02 -0.70855203421E+01  0.15641084232E+02  0.27749148203E+02  0.41800000000E+01 0. -1.
         -5    1    1    2    0  502  0.54477948803E+02 -0.24473753423E+02  0.55541983137E+03  0.55863715683E+03  0.41800000000E+01 0. -1.
        -11    1    1    2    0    0 -0.44952468256E+02  0.92585711724E+01  0.25759448395E+03  0.26165122531E+03  0.00000000000E+00 0.  1.
         11    1    1    2    0    0  0.11868320225E+02  0.22300702593E+02  0.15971471341E+02  0.29887560253E+02  0.00000000000E+00 0. -1.
</event>
<event>
 6    1  0.6447971E-006  0.1194493E+03  0.7561462E-02  0.1244008E+00
         -1   -1    0    0    0  501 -0.00000000000E+00  0.00000000000E+00  0.70422399147E+02  0.70422399147E+02  0.00000000000E+00 0.  1.
          1   -1    0    0  501    0  0.00000000000E+00 -0.00000000000E+00 -0.71883052944E+03  0.71883052944E+03  0.00000000000E+00 0. -1.
          5    1    1    2  502    0  0.48005506432E+02  0.71316176328E+02  0.32008224658E+02  0.91828778167E+02  0.41800000000E+01 0. -1.
         -5    1    1    2    0  502  0.55034802257E+01  0.15024944296E+02 -0.72440739952E+02  0.74304578934E+02  0.41800000000E+01 0. -1.
        -11    1    1    2    0    0 -0.78498172541E+02 -0.75953341964E+02 -0.47150117509E+03  0.48398784216E+03  0.00000000000E+00 0. -1.
         11    1    1    2    0    0  0.24989185884E+02 -0.10387778660E+02 -0.13647443991E+03  0.13913172933E+03  0.00000000000E+00 0.  1.
</event>
<event>
 6    1  0.6447971E-006  0.1364320E+03  0.7561462E-02  0.1218212E+00
          2   -1    0    0  501    0  0.00000000000E+00  0.00000000000E+00  0.21731944060E+03  0.21731944060E+03  0.00000000000E+00 0. -1.
         -2   -1    0    0    0  501 -0.00000000000E+00 -0.00000000000E+00 -0.13402658084E+03  0.13402658084E+03  0.00000000000E+00 0.  1.
          5    1    1    2  502    0  0.12270637964E+02  0.11154045059E+03 -0.14884542063E+02  0.11327339788E+03  0.41800000000E+01 0.  1.
         -5    1    1    2    0  502  0.47413729845E+02 -0.21374422910E+02 -0.18861749349E+02  0.55481219535E+02  0.41800000000E+01 0.  1.
        -11    1    1    2    0    0 -0.49639353397E+02 -0.69368096369E+02  0.13046555372E+03  0.15587578037E+03  0.00000000000E+00 0. -1.
         11    1    1    2    0    0 -0.10045014413E+02 -0.20797931313E+02 -0.13426402558E+02  0.26715623652E+02  0.00000000000E+00 0.  1.
</event>
<event>
 6    1  0.6447971E-006  0.9746254E+02  0.7561462E-02  0.1285724E+00
         -2   -1    0    0    0  501 -0.00000000000E+00  0.00000000000E+00  0.28124762167E+02  0.28124762167E+02  0.00000000000E+00 0.  1.
          2   -1    0    0  501    0  0.00000000000E+00 -0.00000000000E+00 -0.45842748220E+03  0.45842748220E+03  0.00000000000E+00 0. -1.
          5    1    1    2  502    0 -0.22242191721E+02 -0.48719078180E+02 -0.28957661602E+02  0.61026897650E+02  0.41800000000E+01 0.  1.
         -5    1    1    2    0  502  0.37529562125E+02  0.37640976671E+02 -0.14175561087E+03  0.15145110357E+03  0.41800000000E+01 0.  1.
        -11    1    1    2    0    0  0.90909042442E+01  0.45114929429E+02 -0.13222249712E+03  0.14000282190E+03  0.00000000000E+00 0. -1.
         11    1    1    2    0    0 -0.24378274648E+02 -0.34036827920E+02 -0.12736695044E+03  0.13407142124E+03  0.00000000000E+00 0.  1.
</event>
<event>
 6    1  0.6447971E-006  0.1779509E+03  0.7561462E-02  0.1169801E+00
          1   -1    0    0  501    0  0.00000000000E+00  0.00000000000E+00  0.67676682483E+02  0.67676682483E+02  0.00000000000E+00 0. -1.
         -1   -1    0    0    0  501 -0.00000000000E+00 -0.00000000000E+00 -0.54909876706E+03  0.54909876706E+03  0.00000000000E+00 0.  1.
          5    1    1    2  502    0  0.14825293017E+03 -0.79126968479E+02 -0.23289609212E+03  0.28722477360E+03  0.41800000000E+01 0. -1.
         -5    1    1    2    0  502 -0.10801558508E+02  0.15379942678E+01  0.83855017568E+01  0.14381520514E+02  0.41800000000E+01 0. -1.
        -11    1    1    2    0    0 -0.13737755361E+03  0.89659861946E+02 -0.25460727364E+03  0.30288008662E+03  0.00000000000E+00 0.  1.
         11    1    1    2    0    0 -0.73818054817E-01 -0.12070887735E+02 -0.23042205750E+01  0.12289068813E+02  0.00000000000E+00 0. -1.
</event>
<event>
 6    1  0.6447971E-006  0.1516354E+03  0.7561462E-02  0.1198478E+00
         -3   -1    0    0    0  501 -0.00000000000E+00  0.00000000000E+00  0.10366870871E+04  0.10366870871E+04  0.00000000000E+00 0.  1.
          3   -1    0    0  501    0  0.00000000000E+00 -0.00000000000E+00 -0.36862637541E+02  0.36862637541E+02  0.00000000000E+00 0. -1.
          5    1    1    2  502    0  0.56871891816E+02 -0.42416799762E+02  0.16936634352E+03  0.18367369898E+03  0.41800000000E+01 0. -1.
         -5    1    1    2    0  502  0.69154298630E+02  0.28577187346E+02  0.63254356111E+03  0.63696766147E+03  0.41800000000E+01 0.  1.
        -11    1    1    2    0    0 -0.13742839698E+03  0.26776275251E+02  0.17999889423E+03  0.22804195916E+03  0.00000000000E+00 0.  1.
         11    1    1    2    0    0  0.11402206539E+02 -0.12936662835E+02  0.17915650713E+02  0.24866405043E+02  0.00000000000E+00 0. -1.
</event>
<event>
 6    1  0.6447971E-006  0.1083089E+03  0.7561462E-02  0.1263734E+00
          2   -1    0    0  501    0  0.00000000000E+00  0.00000000000E+00  0.31206311630E+02  0.31206311630E+02  0.00000000000E+00 0.  1.
         -2   -1    0    0    0  501 -0.00000000000E+00 -0.00000000000E+00 -0.44754489377E+03  0.44754489377E+03  0.00000000000E+00 0. -1.
          5    1    1    2  502    0 -0.78784295366E+02  0.12866956941E+02 -0.18020274260E+03  0.19713707063E+03  0.41800000000E+01 0. -1.
         -5    1    1    2    0  502  0.47571319110E+02 -0.93922421966E+01 -0.12977301161E+03  0.13859924804E+03  0.41800000000E+01 0. -1.
        -11    1    1    2    0    0 -0.27939290641E+02  0.45816679668E+01 -0.63490076143E+02  0.69516799491E+02  0.00000000000E+00 0. -1.
         11    1    1    2    0    0  0.59152266897E+02 -0.80563827114E+01 -0.42872751791E+02  0.73498087238E+02  0.00000000000E+00 0.  1.
</event>
<event>
 6    1  0.6447971E-006  0.1105859E+03  0.7561462E-02  0.1259489E+00
         -1   -1    0    0    0  501 -0.00000000000E+00  0.00000000000E+00  0.31869118254E+03  0.31869118254E+03  0.00000000000E+00 0.  1.
          1   -1    0    0  501    0  0.00000000000E+00 -0.00000000000E+00 -0.64375114286E+02  0.64375114286E+02  0.00000000000E+00 0. -1.
          5    1    1    2  502    0 -0.35038312636E+02 -0.67542816686E+02  0.96421313886E+02  0.12289938002E+03  0.41800000000E+01 0. -1.
         -5    1    1    2    0  502 -0.31133000159E+02  0.54502506620E+02  0.13014849407E+03  0.14455410695E+03  0.41800000000E+01 0. -1.
        -11    1    1    2    0    0  0.21130660326E+02  0.27567811373E+02 -0.26452224461E+02  0.43660155848E+02  0.00000000000E+00 0. -1.
         11    1    1    2    0    0  0.45040652469E+02 -0.14527501307E+02  0.54198484761E+02  0.71952654012E+02  0.00000000000E+00 0.  1.
</event>
<event>
 6    1  0.6447971E-006  0.1666356E+03  0.7561462E-02  0.1181402E+00
         -2   -1    0    0    0  501 -0.00000000000E+00  0.00000000000E+00  0.59982425888E+02  0.59982425888E+02  0.00000000000E+00 0. -1.
          2   -1    0    0  501    0  0.00000000000E+00 -0.00000000000E+00 -0.59703363124E+03  0.59703363124E+03  0.00000000000E+00 0.  1.
          5    1    1    2  502    0  0.31301063689E+02  0.13513544810E+02  0.57627167848E+01  0.34828921691E+02  0.41800000000E+01 0. -1.
         -5    1    1    2    0  502  0.77852142704E+02 -0.10448228251E+03 -0.18157250708E+03  0.22352528092E+03  0.41800000000E+01 0. -1.
        -11    1    1    2    0    0  0.14963916058E+02  0.21878802681E+02 -0.52672829596E+02  0.58966327410E+02  0.00000000000E+00 0. -1.
         11    1    1    2    0    0 -0.12411712245E+03  0.69089935015E+02 -0.30856858546E+03  0.33969552711E+03  0.00000000000E+00 0.  1.
</event>
<event>
 6    1  0.6447971E-006  0.8581123E+02  0.7561462E-02  0.1313325E+00
          1   -1    0    0  501    0  0.00000000000E+00  0.00000000000E+00  0.32854469712E+03  0.32854469712E+03  0.00000000000E+00 0. -1.
         -1   -1    0    0    0  501 -0.00000000000E+00 -0.00000000000E+00 -0.40052425375E+02  0.40052425375E+02  0.00000000000E+00 0.  1.
          5    1    1    2  502    0 -0.37574679392E+02 -0.12242077443E+02  0.48623732204E+01  0.40035485071E+02  0.41800000000E+01 0. -1.
         -5    1    1    2    0  502  0.65982870629E+02  0.21245886678E+00  0.13379489105E+03  0.14923916921E+03  0.41800000000E+01 0. -1.
        -11    1    1    2    0    0 -0.41073843723E+02  0.24637752301E+02  0.15374114869E+03  0.16102925286E+03  0.00000000000E+00 0. -1.
         11    1    1    2    0    0  0.12665652486E+02 -0.12608133724E+02 -0.39061412127E+01  0.18293215356E+02  0.00000000000E+00 0.  1.
</event>
<event>
 6    1  0.6447971E-006  0.1463740E+03  0.7561462E-02  0.1205001E+00
         -1   -1    0    0    0  501 -0.00000000000E+00  0.00000000000E+00  0.24080719875E+02  0.24080719875E+02  0.00000000000E+00 0.  1.
          1   -1    0    0  501    0  0.00000000000E+00 -0.00000000000E+00 -0.11015347019E+04  0.11015347019E+04  0.00000000000E+00 0. -1.
          5    1    1    2  502    0  0.51015723407E+02  0.69914441018E+01 -0.10109951112E+03  0.11353443475E+03  0.41800000000E+01 0. -1.
         -5    1    1    2    0  502  0.93154586393E-01  0.96337847595E+02 -0.61357552525E+03  0.62110658276E+03  0.41800000000E+01 0. -1.
        -11    1    1    2    0    0 -0.38729412403E+02  0.18294611238E+01 -0.77015075926E+02  0.86224336663E+02  0.00000000000E+00 0.  1.
         11    1    1    2    0    0 -0.12379465590E+02 -0.10515875282E+03 -0.28576386975E+03  0.30475006762E+03  0.00000000000E+00 0. -1.
</event>
<event>
 6    1  0.6447971E-006  0.1415810E+03  0.7561462E-02  0.1211217E+00
          1   -1    0    0  501    0  0.00000000000E+00  0.00000000000E+00  0.88527974646E+03  0.88527974646E+03  0.00000000000E+00 0. -1.
         -1   -1    0    0    0  501 -0.00000000000E+00 -0.00000000000E+00 -0.27141533129E+02  0.27141533129E+02  0.00000000000E+00 0.  1.
          5    1    1    2  502    0  0.38439037342E+02 -0.10897172759E+03  0.44149637364E+03  0.45638680672E+03  0.41800000000E+01 0.  1.
         -5    1    1    2    0  502  0.21091997405E+02  0.14587100161E+02  0.15198395154E+02  0.30101818233E+02  0.41800000000E+01 0.  1.
        -11    1    1    2    0    0 -0.47485390174E+02  0.11117202610E+03  0.32532256779E+03  0.34705742289E+03  0.00000000000E+00 0.  1.
         11    1    1    2    0    0 -0.12045644573E+02 -0.16787398678E+02  0.76120876742E+02  0.78875231750E+02  0.00000000000E+00 0. -1.
</event>
<event>
 6    1  0.6447971E-006  0.2185326E+03  0.7561462E-02  0.1134982E+00
         -1   -1    0    0    0  501 -0.00000000000E+00  0.00000000000E+00  0.98302349495E+02  0.98302349495E+02  0.00000000000E+00 0.  1.
          1   -1    0    0  501    0  0.00000000000E+00 -0.00000000000E+00 -0.51326699396E+03  0.51326699396E+03  0.00000000000E+00 0. -1.
          5    1    1    2  502    0 -0.84769684035E+02 -0.53827700687E+02 -0.72088177449E+02  0.12368305632E+03  0.41800000000E+01 0. -1.
         -5    1    1    2    0  502 -0.10566900320E+03  0.72078677073E+02 -0.82710582081E+02  0.15238040134E+03  0.41800000000E+01 0. -1.
        -11    1    1    2    0    0  0.97652020182E+02  0.32381011177E+02 -0.15769559673E+03  0.18828793949E+03  0.00000000000E+00 0.  1.
         11    1    1    2    0    0  0.92786667052E+02 -0.50631987562E+02 -0.10247028820E+03  0.14721794629E+03  0.00000000000E+00 0. -1.
</event>
<event>
 6    1  0.6447971E-006  0.1198145E+03  0.7561462E-02  0.1243403E+00
          1   -1    0    0  501    0  0.00000000000E+00  0.00000000000E+00  0.10021600070E+03  0.10021600070E+03  0.00000000000E+00 0. -1.
         -1   -1    0    0    0  501 -0.00000000000E+00 -0.00000000000E+00 -0.14623413991E+03  0.14623413991E+03  0.00000000000E+00 0.  1.
          5    1    1    2  502    0 -0.52026098842E+02 -0.70939354370E+02 -0.84430444061E+01  0.88475218892E+02  0.41800000000E+01 0. -1.
         -5    1    1    2    0  502 -0.27052536141E+01  0.49355531728E+02 -0.14234282230E+02  0.51607887962E+02  0.41800000000E+01 0. -1.
        -11    1    1    2    0    0  0.26400657129E+02  0.53266133838E+02 -0.37512289177E+01  0.59568006759E+02  0.00000000000E+00 0.  1.
         11    1    1    2    0    0  0.28330695327E+02 -0.31682311196E+02 -0.19589583648E+02  0.46799026998E+02  0.00000000000E+00 0. -1.
</event>
<event>
 6    1  0.6447971E-006  0.1885207E+03  0.7561462E-02  0.1159802E+00
          2   -1    0    0  501    0  0.00000000000E+00  0.00000000000E+00  0.23015496946E+03  0.23015496946E+03  0.00000000000E+00 0. -1.
         -2   -1    0    0    0  501 -0.00000000000E+00 -0.00000000000E+00 -0.20448751158E+03  0.20448751158E+03  0.00000000000E+00 0.  1.
          5    1    1    2  502    0 -0.13698116114E+03 -0.11087970775E+03 -0.30567522684E+01  0.17630928572E+03  0.41800000000E+01 0. -1.
         -5    1    1    2    0  502  0.92762080747E+01 -0.13359443165E+02 -0.43059380034E+02  0.46218019936E+02  0.41800000000E+01 0. -1.
        -11    1    1    2    0    0  0.68191398781E+02  0.96860390887E+02  0.84339227136E+02  0.14541357373E+03  0.00000000000E+00 0. -1.
         11    1    1    2    0    0  0.59513554283E+02  0.27378760024E+02 -0.12555636950E+02  0.66701601653E+02  0.00000000000E+00 0.  1.
</event>
<event>
 6    1  0.6447971E-006  0.5505034E+02  0.7561462E-02  0.1419861E+00
         -1   -1    0    0    0  501 -0.00000000000E+00  0.00000000000E+00  0.14176188174E+03  0.14176188174E+03  0.00000000000E+00 0.  1.
          1   -1    0    0  501    0  0.00000000000E+00 -0.00000000000E+00 -0.94485222984E+02  0.94485222984E+02  0.00000000000E+00 0. -1.
          5    1    1    2  502    0  0.32261266681E+02  0.26537939028E+00 -0.39582031361E+02  0.51235430717E+02  0.41800000000E+01 0.  1.
         -5    1    1    2    0  502  0.41694480543E+01 -0.37663511333E+01  0.87263135817E+02  0.87543686069E+02  0.41800000000E+01 0.  1.
        -11    1    1    2    0    0 -0.56948792636E+01  0.29661950667E+02  0.33246958017E+02  0.44917960601E+02  0.00000000000E+00 0.  1.
         11    1    1    2    0    0 -0.30735835472E+02 -0.26160978924E+02 -0.33651403719E+02  0.52550027333E+02  0.00000000000E+00 0. -1.
</event>
<event>
 6    1  0.6447971E-006  0.9348668E+02  0.7561462E-02  0.1294621E+00
         -1   -1    0    0    0  501 -0.00000000000E+00  0.00000000000E+00  0.75379894093E+03  0.75379894093E+03  0.00000000000E+00 0.  1.
          1   -1    0    0  501    0  0.00000000000E+00 -0.00000000000E+00 -0.30549513707E+02  0.30549513707E+02  0.00000000000E+00 0. -1.
          5    1    1    2  502    0  0.30394169947E+02 -0.29623315659E+02  0.14322111158E+03  0.14943595819E+03  0.41800000000E+01 0. -1.
         -5    1    1    2    0  502 -0.31380526796E+02  0.49665499803E+02  0.51791924757E+03  0.52125734406E+03  0.41800000000E+01 0.  1.
        -11    1    1    2    0    0  0.34477848019E+02  0.14421196930E+02  0.52828075264E+02  0.64710883637E+02  0.00000000000E+00 0.  1.
         11    1    1    2    0    0 -0.33491491170E+02 -0.34463381075E+02  0.92809928053E+01  0.48944268749E+02  0.00000000000E+00 0. -1.
</event>
<event>
 6    1  0.6447971E-006  0.1189911E+03  0.7561462E-02  0.1244771E+00
          1   -1    0    0  501    0  0.00000000000E+00  0.00000000000E+00  0.30298508221E+03  0.30298508221E+03  0.00000000000E+00 0. -1.
         -1   -1    0    0    0  501 -0.00000000000E+00 -0.00000000000E+00 -0.57137863255E+02  0.57137863255E+02  0.00000000000E+00 0.  1.
          5    1    1    2  502    0 -0.74317745538E+01 -0.43157273779E+02  0.28769180242E+02  0.52563482427E+02  0.41800000000E+01 0. -1.
         -5    1    1    2    0  502  0.55239255692E+02  0.74870454735E+02  0.41686279313E+02  0.10204008352E+03  0.41800000000E+01 0. -1.
        -11    1    1    2    0    0  0.14337735116E+02 -0.35810286428E+02  0.35639923143E+02  0.52518105297E+02  0.00000000000E+00 0.  1.
         11    1    1    2    0    0 -0.62145216255E+02  0.40971054721E+01  0.13975183626E+03  0.15300127422E+03  0.00000000000E+00 0. -1.
</event>
<event>
 6    1  0.6447971E-006  0.8976382E+02  0.7561462E-02  0.1303425E+00
          2   -1    0    0  501    0  0.00000000000E+00  0.00000000000E+00  0.26928138166E+03  0.26928138166E+03  0.00000000000E+00 0. -1.
         -2   -1    0    0    0  501 -0.00000000000E+00 -0.00000000000E+00 -0.62119437731E+02  0.62119437731E+02  0.00000000000E+00 0.  1.
          5    1    1    2  502    0 -0.88986241972E+01 -0.12776142707E+02 -0.30009727820E+02  0.34065693871E+02  0.41800000000E+01 0.  1.
         -5    1    1    2    0  502 -0.54603549408E+02  0.30416444123E+02  0.11485998370E+03  0.13083193776E+03  0.41800000000E+01 0.  1.
        -11    1    1    2    0    0  0.67203611403E+02  0.14217621469E+02  0.43221871289E+02  0.81157848071E+02  0.00000000000E+00 0.  1.
         11    1    1    2    0    0 -0.37014377983E+01 -0.31857922885E+02  0.79089816753E+02  0.85345339687E+02  0.00000000000E+00 0. -1.
</event>
<event>
 6    1  0.6447971E-006  0.1368576E+03  0.7561462E-02  0.1217621E+00
         -1   -1    0    0    0  501 -0.00000000000E+00  0.00000000000E+00  0.60326552405E+02  0.60326552405E+02  0.00000000000E+00 0.  1.
          1   -1    0    0  501    0  0.00000000000E+00 -0.00000000000E+00 -0.88723597419E+03  0.88723597419E+03  0.00000000000E+00 0. -1.
          5    1    1    2  502    0  0.62831880123E+02 -0.47896862653E+01 -0.11628744545E+03  0.13232924326E+03  0.41800000000E+01 0.  1.
         -5    1    1    2    0  502  0.55769283351E+02 -0.20588159808E+02  0.24697080920E+02  0.64509716289E+02  0.41800000000E+01 0.  1.
        -11    1    1    2    0    0 -0.30534823080E+02  0.50830629772E+02 -0.31346090350E+03  0.31902016608E+03  0.00000000000E+00 0.  1.
         11    1    1    2    0    0 -0.88066340394E+02 -0.25452783699E+02 -0.42185815376E+03  0.43170340096E+03  0.00000000000E+00 0. -1.
</event>
<event>
 6    1  0.6447971E-006  0.1065553E+03  0.7561462E-02  0.1267085E+00
          1   -1    0    0  501    0  0.00000000000E+00  0.00000000000E+00  0.40664318006E+03  0.40664318006E+03  0.00000000000E+00 0. -1.
         -1   -1    0    0    0  501 -0.00000000000E+00 -0.00000000000E+00 -0.68729520599E+02  0.68729520599E+02  0.00000000000E+00 0.  1.
          5    1    1    2  502    0 -0.36323727097E+02  0.29219586457E+02 -0.25945851570E+02  0.53515016553E+02  0.41800000000E+01 0. -1.
         -5    1    1    2    0  502  0.69091236777E+02 -0.28099963549E+02  0.41638604488E+02  0.85524573863E+02  0.41800000000E+01 0.  1.
        -11    1    1    2    0    0 -0.57471262758E+02  0.18152745992E+02  0.15706905187E+03  0.16823541626E+03  0.00000000000E+00 0.  1.
         11    1    1    2    0    0  0.24703753078E+02 -0.19272368900E+02  0.16515185467E+03  0.16809769398E+03  0.00000000000E+00 0. -1.
</event>
<event>
 6    1  0.6447971E-006  0.1370304E+03  0.7561462E-02  0.1217382E+00
          1   -1    0    0  501    0  0.00000000000E+00  0.00000000000E+00  0.80550432136E+03  0.80550432136E+03  0.00000000000E+00 0. -1.
         -1   -1    0    0    0  501 -0.00000000000E+00 -0.00000000000E+00 -0.25022099267E+02  0.25022099267E+02  0.00000000000E+00 0.  1.
          5    1    1    2  502    0  0.46766424679E+02  0.34006923016E+02  0.97740927506E+02  0.11364123635E+03  0.41800000000E+01 0.  1.
         -5    1    1    2    0  502  0.29618371611E+02 -0.84229790063E+02  0.30668806009E+03  0.31944787380E+03  0.41800000000E+01 0.  1.
        -11    1    1    2    0    0 -0.78541802351E+02  0.70962663268E+02  0.28487195603E+03  0.30390219747E+03  0.00000000000E+00 0. -1.
         11    1    1    2    0    0  0.21570060608E+01 -0.20739796221E+02  0.91181278465E+02  0.93535113006E+02  0.00000000000E+00 0.  1.
</event>
<event>
 6    1  0.6447971E-006  0.1362978E+03  0.7561462E-02  0.1218399E+00
          1   -1    0    0  501    0  0.00000000000E+00  0.00000000000E+00  0.37811981977E+03  0.37811981977E+03  0.00000000000E+00 0. -1.
         -1   -1    0    0    0  501 -0.00000000000E+00 -0.00000000000E+00 -0.74579422844E+02  0.74579422844E+02  0.00000000000E+00 0.  1.
          5    1    1    2  502    0 -0.53373006195E+02 -0.13820303166E+02 -0.16538505983E+02  0.57711984458E+02  0.41800000000E+01 0.  1.
         -5    1    1    2    0  502  0.27833896874E+02 -0.79759122528E+02  0.68671343823E+02  0.10894709406E+03  0.41800000000E+01 0.  1.
        -11    1    1    2    0    0 -0.27958648567E+02  0.67801751035E+02  0.17114728938E+03  0.18619924311E+03  0.00000000000E+00 0.  1.
         11    1    1    2    0    0  0.53497757888E+02  0.25777674659E+02  0.80260269713E+02  0.99840920991E+02  0.00000000000E+00 0. -1.
</event>
<event>
 6    1  0.6447971E-006  0.1004361E+03  0.7561462E-02  0.1279382E+00
          1   -1    0    0  501    0  0.00000000000E+00  0.00000000000E+00  0.12378981720E+03  0.12378981720E+03  0.00000000000E+00 0. -1.
         -1   -1    0    0    0  501 -0.00000000000E+00 -0.00000000000E+00 -0.12087661585E+03  0.12087661585E+03  0.00000000000E+00 0.  1.
          5    1    1    2  502    0 -0.56550322541E+02  0.61240472300E+01  0.25215774311E+02  0.62359847724E+02  0.41800000000E+01 0. -1.
         -5    1    1    2    0  502  0.48397203981E+02  0.14567431760E+02 -0.41900052329E+02  0.65784391815E+02  0.41800000000E+01 0. -1.
        -11    1    1    2    0    0 -0.33562359598E+01 -0.55941369576E+02  0.44748835454E+02  0.71715824085E+02  0.00000000000E+00 0. -1.
         11    1    1    2    0    0  0.11509354520E+02  0.35249890586E+02 -0.25151356087E+02  0.44806369422E+02  0.00000000000E+00 0.  1.
</event>
<event>
 6    1  0.6447971E-006  0.1112537E+03  0.7561462E-02  0.1258266E+00
         -3   -1    0    0    0  501 -0.00000000000E+00  0.00000000000E+00  0.95333254409E+03  0.95333254409E+03  0.00000000000E+00 0.  1.
          3   -1    0    0  501    0  0.00000000000E+00 -0.00000000000E+00 -0.16977087617E+02  0.16977087617E+02  0.00000000000E+00 0. -1.
          5    1    1    2  502    0  0.60206904872E+02  0.74023271547E+02  0.33636384736E+03  0.34966044434E+03  0.41800000000E+01 0. -1.
         -5    1    1    2    0  502 -0.38380297626E+02 -0.13621474679E+02  0.24985156538E+03  0.25318346893E+03  0.41800000000E+01 0. -1.
        -11    1    1    2    0    0 -0.41151376804E+02 -0.47384983308E+02  0.33215456854E+03  0.33803169948E+03  0.00000000000E+00 0.  1.
         11    1    1    2    0    0  0.19324769558E+02 -0.13016813559E+02  0.17985475200E+02  0.29434018955E+02  0.00000000000E+00 0. -1.
</event>
<event>
 6    1  0.6447971E-006  0.1064656E+03  0.7561462E-02  0.1267259E+00
         -2   -1    0    0    0  501 -0.00000000000E+00  0.00000000000E+00  0.62855478835E+02  0.62855478835E+02  0.00000000000E+00 0.  1.
          2   -1    0    0  501    0  0.00000000000E+00 -0.00000000000E+00 -0.28438603238E+03  0.28438603238E+03  0.00000000000E+00 0. -1.
          5    1    1    2  502    0 -0.64968990944E+02  0.49527280167E+02 -0.10655419060E+03  0.13433238329E+03  0.41800000000E+01 0.  1.
         -5    1    1    2    0  502  0.14849957147E+02 -0.56041669143E+00  0.25913928046E+02  0.30163543574E+02  0.41800000000E+01 0.  1.
        -11    1    1    2    0    0 -0.18480550268E+02 -0.43037617688E+02 -0.47416317421E+02  0.66648889206E+02  0.00000000000E+00 0. -1.
         11    1    1    2    0    0  0.68599584065E+02 -0.59292457870E+01 -0.93473973568E+02  0.11609669515E+03  0.00000000000E+00 0.  1.
</event>
<event>
 6    1  0.6447971E-006  0.1236388E+03  0.7561462E-02  0.1237212E+00
          2   -1    0    0  501    0  0.00000000000E+00  0.00000000000E+00  0.32004428080E+02  0.32004428080E+02  0.00000000000E+00 0. -1.
         -2   -1    0    0    0  501 -0.00000000000E+00 -0.00000000000E+00 -0.61189974283E+03  0.61189974283E+03  0.00000000000E+00 0.  1.
          5    1    1    2  502    0  0.64198410570E+01 -0.38719370743E+02 -0.26946436342E+02  0.47791075123E+02  0.41800000000E+01 0.  1.
         -5    1    1    2    0  502  0.78340851614E+02  0.27735454936E+02 -0.32291062881E+03  0.33345957939E+03  0.41800000000E+01 0.  1.
        -11    1    1    2    0    0 -0.97093434276E+02  0.30272096428E+02 -0.20424422607E+03  0.22816493746E+03  0.00000000000E+00 0.  1.
         11    1    1    2    0    0  0.12332741605E+02 -0.19288180622E+02 -0.25794023535E+02  0.34488578940E+02  0.00000000000E+00 0. -1.
</event>
<event>
 6    1  0.6447971E-006  0.8929975E+02  0.7561462E-02  0.1304556E+00
         -2   -1    0    0    0  501 -0.00000000000E+00  0.00000000000E+00  0.32977259930E+03  0.32977259930E+03  0.00000000000E+00 0.  1.
          2   -1    0    0  501    0  0.00000000000E+00 -0.00000000000E+00 -0.39494564497E+02  0.39494564497E+02  0.00000000000E+00 0. -1.
          5    1    1    2  502    0  0.15424798380E+02  0.30129816276E+02  0.14618871630E+01  0.34137072926E+02  0.41800000000E+01 0. -1.
         -5    1    1    2    0  502 -0.39540341561E+02 -0.24721148423E+02  0.19161055267E+03  0.19724768715E+03  0.41800000000E+01 0. -1.
        -11    1    1    2    0    0 -0.14635186588E+02 -0.41939194616E+02  0.40898535930E+02  0.60380253169E+02  0.00000000000E+00 0. -1.
         11    1    1    2    0    0  0.38750729770E+02  0.36530526763E+02  0.56307059044E+02  0.77502150560E+02  0.00000000000E+00 0.  1.
</event>
<event>
 6    1  0.6447971E-006  0.1382877E+03  0.7561462E-02  0.1215652E+00
         -2   -1    0    0    0  501 -0.00000000000E+00  0.00000000000E+00  0.16815175878E+03  0.16815175878E+03  0.00000000000E+00 0. -1.
          2   -1    0    0  501    0  0.00000000000E+00 -0.00000000000E+00 -0.27203994789E+03  0.27203994789E+03  0.00000000000E+00 0.  1.
          5    1    1    2  502    0  0.54344731691E+02 -0.17716762412E+00  0.83884925881E+02  0.10003766511E+03  0.41800000000E+01 0.  1.
         -5    1    1    2    0  502 -0.42218531152E+01 -0.89658006699E+02  0.19012468970E+02  0.91844044909E+02  0.41800000000E+01 0.  1.
        -11    1    1    2    0    0  0.14350853342E+02  0.59050066447E+02 -0.12956006402E+03  0.14310369502E+03  0.00000000000E+00 0.  1.
         11    1    1    2    0    0 -0.64473731918E+02  0.30785107876E+02 -0.77225519934E+02  0.10520630163E+03  0.00000000000E+00 0. -1.
</event>
<event>
 6    1  0.6447971E-006  0.1283299E+03  0.7561462E-02  0.1229955E+00
         -1   -1    0    0    0  501 -0.00000000000E+00  0.00000000000E+00  0.35343708213E+03  0.35343708213E+03  0.00000000000E+00 0.  1.
          1   -1    0    0  501    0  0.00000000000E+00 -0.00000000000E+00 -0.62413723840E+02  0.62413723840E+02  0.00000000000E+00 0. -1.
          5    1    1    2  502    0 -0.23275690233E+02  0.74633576541E+02  0.19494778233E+03  0.21008102898E+03  0.41800000000E+01 0.  1.
         -5    1    1    2    0  502 -0.45610470406E+02 -0.33402999374E+02  0.45908734559E+02  0.72946279457E+02  0.41800000000E+01 0.  1.
        -11    1    1    2    0    0 -0.22360966284E+02 -0.23095659188E+01  0.20629490474E+01  0.22574380760E+02  0.00000000000E+00 0.  1.
         11    1    1    2    0    0  0.91247126924E+02 -0.38921011249E+02  0.48103892349E+02  0.11024911677E+03  0.00000000000E+00 0. -1.
</event>
<event>
 6    1  0.6447971E-006  0.8490074E+02  0.7561462E-02  0.1315692E+00
         -2   -1    0    0    0  501 -0.00000000000E+00  0.00000000000E+00  0.35057346620E+02  0.35057346620E+02  0.00000000000E+00 0.  1.
          2   -1    0    0  501    0  0.00000000000E+00 -0.00000000000E+00 -0.48072659722E+03  0.48072659722E+03  0.00000000000E+00 0. -1.
          5    1    1    2  502    0  0.25414333475E+02  0.26094818495E+02  0.95121036211E+01  0.37878495397E+02  0.41800000000E+01 0.  1.
         -5    1    1    2    0  502  0.20428230536E+02  0.13474419641E+02 -0.18175312027E+03  0.18344083982E+03  0.41800000000E+01 0.  1.
        -11    1    1    2    0    0 -0.71099712319E+02 -0.14183857875E+02 -0.16357637547E+03  0.17892339569E+03  0.00000000000E+00 0.  1.
         11    1    1    2    0    0  0.25257148308E+02 -0.25385380261E+02 -0.10985185849E+03  0.11554121293E+03  0.00000000000E+00 0. -1.
</event>
<event>
 6    1  0.6447971E-006  0.1486860E+03  0.7561462E-02  0.1202097E+00
         -1   -1    0    0    0  501 -0.00000000000E+00  0.00000000000E+00  0.20509154446E+03  0.20509154446E+03  0.00000000000E+00 0.  1.
          1   -1    0    0  501    0  0.00000000000E+00 -0.00000000000E+00 -0.14733322952E+03  0.14733322952E+03  0.00000000000E+00 0. -1.
          5    1    1    2  502    0  0.19123270883E+02  0.32805615179E+02  0.33346449033E+02  0.50708637723E+02  0.41800000000E+01 0.  1.
         -5    1    1    2    0  502  0.78844838839E+02 -0.10890484286E+03  0.42218952167E+02  0.14098470035E+03  0.41800000000E+01 0.  1.
        -11    1    1    2    0    0 -0.27398161046E+02  0.28496289292E+02  0.41244744265E+02  0.57129910394E+02  0.00000000000E+00 0.  1.
         11    1    1    2    0    0 -0.70569948677E+02  0.47602938386E+02 -0.59051830527E+02  0.10360152551E+03  0.00000000000E+00 0. -1.
</event>
<event>
 6    1  0.6447971E-006  0.1278743E+03  0.7561462E-02  0.1230644E+00
          1   -1    0    0  501    0  0.00000000000E+00  0.00000000000E+00  0.33514310329E+03  0.33514310329E+03  0.00000000000E+00 0. -1.
         -1   -1    0    0    0  501 -0.00000000000E+00 -0.00000000000E+00 -0.73399289168E+02  0.73399289168E+02  0.00000000000E+00 0.  1.
          5    1    1    2  502    0  0.43849079331E+02  0.84152605054E+01 -0.23681182480E+02  0.50713205097E+02  0.41800000000E+01 0.  1.
         -5    1    1    2    0  502  0.42656374413E+02  0.56572741692E+02  0.12356659099E+03  0.14249988136E+03  0.41800000000E+01 0.  1.
        -11    1    1    2    0    0 -0.51960867108E+02  0.13917611177E+02  0.80677620315E+02  0.96966540782E+02  0.00000000000E+00 0.  1.
         11    1    1    2    0    0 -0.34544586636E+02 -0.78905613374E+02  0.81180785304E+02  0.11836276522E+03  0.00000000000E+00 0. -1.
</event>
<event>
 6    1  0.6447971E-006  0.1293134E+03  0.7561462E-02  0.1228478E+00
         -1   -1    0    0    0  501 -0.00000000000E+00  0.00000000000E+00  0.12170149142E+03  0.12170149142E+03  0.00000000000E+00 0.  1.
          1   -1    0    0  501    0  0.00000000000E+00 -0.00000000000E+00 -0.36196930542E+03  0.36196930542E+03  0.00000000000E+00 0. -1.
          5    1    1    2  502    0  0.73780439868E+02 -0.95285109553E+02  0.67845230671E+02  0.13835914547E+03  0.41800000000E+01 0.  1.
         -5    1    1    2    0  502 -0.12102153105E+02  0.81914869355E+01 -0.27074865763E+02  0.31049691208E+02  0.41800000000E+01 0.  1.
        -11    1    1    2    0    0 -0.57471613471E+02  0.28591548554E+02 -0.68915526129E+02  0.94179683294E+02  0.00000000000E+00 0.  1.
         11    1    1    2    0    0 -0.42066732921E+01  0.58502074063E+02 -0.21212265278E+03  0.22008227687E+03  0.00000000000E+00 0. -1.
</event>
<event>
 6    1  0.1108655E-005  0.3723284E+02  0.7561462E-02  0.1529622E+00
          2   -1    0    0  501    0  0.00000000000E+00  0.00000000000E+00  0.50559741606E+03  0.50559741606E+03  0.00000000000E+00 0. -1.
         -2   -1    0    0    0  501 -0.00000000000E+00 -0.00000000000E+00 -0.10746979791E+02  0.10746979791E+02  0.00000000000E+00 0.  1.
          5    1    1    2  502    0 -0.12768608994E+02 -0.27437181004E+02  0.38131729837E+03  0.38253913618E+03  0.41800000000E+01 0. -1.
         -5    1    1    2    0  502  0.15270322327E+02  0.30650636891E-01 -0.10147792956E+01  0.15864610315E+02  0.41800000000E+01 0.  1.
        -11    1    1    2    0    0 -0.38767644728E+01  0.11888544611E+02  0.51633984487E+02  0.53126595503E+02  0.00000000000E+00 0.  1.
         11    1    1    2    0    0  0.13750511401E+01  0.15517985756E+02  0.62913932712E+02  0.64814053853E+02  0.00000000000E+00 0. -1.
</event>
<event>
 6    1  0.6447971E-006  0.1009679E+03  0.7561462E-02  0.1278274E+00
         -1   -1    0    0    0  501 -0.00000000000E+00  0.00000000000E+00  0.25720289127E+02  0.25720289127E+02  0.00000000000E+00 0.  1.
          1   -1    0    0  501    0  0.00000000000E+00 -0.00000000000E+00 -0.50606114941E+03  0.50606114941E+03  0.00000000000E+00 0. -1.
          5    1    1    2  502    0  0.35232653246E+02  0.24680547505E+01 -0.19646394840E+02  0.40631076521E+02  0.41800000000E+01 0.  1.
         -5    1    1    2    0  502 -0.66955036873E+02  0.14494994905E+02 -0.24285954827E+03  0.25237138194E+03  0.41800000000E+01 0.  1.
        -11    1    1    2    0    0  0.11023002093E+02  0.37703930298E+02 -0.83631079777E+02  0.92397242598E+02  0.00000000000E+00 0. -1.
         11    1    1    2    0    0  0.20699381534E+02 -0.54666979953E+02 -0.13420383740E+03  0.14638173747E+03  0.00000000000E+00 0.  1.
</event>
<event>
 6    1  0.6447971E-006  0.1347556E+03  0.7561462E-02  0.1220565E+00
          3   -1    0    0  501    0  0.00000000000E+00  0.00000000000E+00  0.56221244470E+02  0.56221244470E+02  0.00000000000E+00 0. -1.
         -3   -1    0    0    0  501 -0.00000000000E+00 -0.00000000000E+00 -0.39975227450E+03  0.39975227450E+03  0.00000000000E+00 0.  1.
          5    1    1    2  502    0 -0.61040979121E+02  0.62929866308E+02 -0.18994295137E+03  0.20924140695E+03  0.41800000000E+01 0.  1.
         -5    1    1    2    0  502 -0.15305333448E+02 -0.54193703156E+02 -0.78150544991E+02  0.96416755682E+02  0.41800000000E+01 0.  1.
        -11    1    1    2    0    0  0.25371565813E+02  0.44714844909E+02 -0.51255598685E+02  0.72596625980E+02  0.00000000000E+00 0.  1.
         11    1    1    2    0    0  0.50974746756E+02 -0.53451008061E+02 -0.24181934981E+02  0.77718730361E+02  0.00000000000E+00 0. -1.
</event>
<event>
 6    1  0.6447971E-006  0.8373286E+02  0.7561462E-02  0.1318780E+00
          4   -1    0    0  501    0  0.00000000000E+00  0.00000000000E+00  0.36746673726E+02  0.36746673726E+02  0.00000000000E+00 0. -1.
         -4   -1    0    0    0  501 -0.00000000000E+00 -0.00000000000E+00 -0.44658762944E+03  0.44658762944E+03  0.00000000000E+00 0.  1.
          5    1    1    2  502    0  0.15328412088E+02 -0.13674922913E+02 -0.28895060104E+03  0.28971000324E+03  0.41800000000E+01 0.  1.
         -5    1    1    2    0  502  0.40213913315E+02 -0.34436715574E+01 -0.13605081117E+02  0.42797059830E+02  0.41800000000E+01 0.  1.
        -11    1    1    2    0    0 -0.76932879442E+02  0.28071550394E+02 -0.85454187440E+02  0.11836003562E+03  0.00000000000E+00 0. -1.
         11    1    1    2    0    0  0.21390554040E+02 -0.10952955924E+02 -0.21831086112E+02  0.32467204475E+02  0.00000000000E+00 0.  1.
</event>
<event>
 6    1  0.6447971E-006  0.1143705E+03  0.7561462E-02  0.1252684E+00
         -1   -1    0    0    0  501 -0.00000000000E+00  0.00000000000E+00  0.16697987621E+03  0.16697987621E+03  0.00000000000E+00 0.  1.
          1   -1    0    0  501    0  0.00000000000E+00 -0.00000000000E+00 -0.10499078487E+03  0.10499078487E+03  0.00000000000E+00 0. -1.
          5    1    1    2  502    0 -0.67481503682E+01  0.76480413706E+02  0.65820436250E+02  0.10121557905E+03  0.41800000000E+01 0. -1.
         -5    1    1    2    0  502  0.33035286936E+02 -0.43095857239E+02  0.31993777838E+02  0.63163734171E+02  0.41800000000E+01 0. -1.
        -11    1    1    2    0    0 -0.42870970813E+01  0.29994573497E+02 -0.25723790728E+02  0.39746283474E+02  0.00000000000E+00 0.  1.
         11    1    1    2    0    0 -0.22000039487E+02 -0.63379129964E+02 -0.10101332026E+02  0.67845064382E+02  0.00000000000E+00 0. -1.
</event>
<event>
 6    1  0.6447971E-006  0.1403371E+03  0.7561462E-02  0.1212876E+00
          1   -1    0    0  501    0  0.00000000000E+00  0.00000000000E+00  0.36692897799E+02  0.36692897799E+02  0.00000000000E+00 0. -1.
         -1   -1    0    0    0  501 -0.00000000000E+00 -0.00000000000E+00 -0.67294264721E+03  0.67294264721E+03  0.00000000000E+00 0.  1.
          5    1    1    2  502    0  0.24406971096E+02  0.17129903644E+02 -0.14868625381E+02  0.33580980594E+02  0.41800000000E+01 0.  1.
         -5    1    1    2    0  502  0.52927825453E+02 -0.98277867695E+02 -0.36639414479E+03  0.38304312515E+03  0.41800000000E+01 0.  1.
        -11    1    1    2    0    0 -0.23311444690E+02  0.81571455778E+02 -0.11457681290E+03  0.14256637719E+03  0.00000000000E+00 0.  1.
         11    1    1    2    0    0 -0.54023351860E+02 -0.42349172684E+00 -0.14041016633E+03  0.15044506207E+03  0.00000000000E+00 0. -1.
</event>
<event>
 6    1  0.6447971E-006  0.8557897E+02  0.7561462E-02  0.1313925E+00
         -1   -1    0    0    0  501 -0.00000000000E+00  0.00000000000E+00  0.22071309105E+03  0.22071309105E+03  0.00000000000E+00 0.  1.
          1   -1    0    0  501    0  0.00000000000E+00 -0.00000000000E+00 -0.97515339431E+02  0.97515339431E+02  0.00000000000E+00 0. -1.
          5    1    1    2  502    0  0.58167690509E+02 -0.18804884267E+02  0.18203836892E+02  0.63921482844E+02  0.41800000000E+01 0. -1.
         -5    1    1    2    0  502 -0.11566161784E+02  0.25104174731E+02  0.14189665776E+03  0.14462409747E+03  0.41800000000E+01 0. -1.
        -11    1    1    2    0    0 -0.21197026912E+02  0.30542256710E+02  0.15928152821E+02  0.40445635700E+02  0.00000000000E+00 0.  1.
         11    1    1    2    0    0 -0.25404501813E+02 -0.36841547174E+02 -0.52830895850E+02  0.69237214465E+02  0.00000000000E+00 0. -1.
</event>
<event>
 6    1  0.6447971E-006  0.1328151E+03  0.7561462E-02  0.1223337E+00
          1   -1    0    0  501    0  0.00000000000E+00  0.00000000000E+00  0.30172421712E+02  0.30172421712E+02  0.00000000000E+00 0. -1.
         -1   -1    0    0    0  501 -0.00000000000E+00 -0.00000000000E+00 -0.63241371951E+03  0.63241371951E+03  0.00000000000E+00 0.  1.
          5    1    1    2  502    0 -0.45577143617E+02  0.76051159140E+02 -0.26985974286E+03  0.28408239657E+03  0.41800000000E+01 0.  1.
         -5    1    1    2    0  502  0.57168577896E+02  0.15086284310E+01 -0.12677459517E+03  0.13913947190E+03  0.41800000000E+01 0.  1.
        -11    1    1    2    0    0 -0.18396444254E+02  0.16805940174E+02 -0.67554642771E+02  0.72003462044E+02  0.00000000000E+00 0.  1.
         11    1    1    2    0    0  0.68050099748E+01 -0.94365727745E+02 -0.13805231700E+03  0.16736081071E+03  0.00000000000E+00 0. -1.
</event>
<event>
 6    1  0.6447971E-006  0.1310476E+03  0.7561462E-02  0.1225909E+00
         -1   -1    0    0    0  501 -0.00000000000E+00  0.00000000000E+00  0.38869599919E+02  0.38869599919E+02  0.00000000000E+00 0.  1.
          1   -1    0    0  501    0  0.00000000000E+00 -0.00000000000E+00 -0.46412018051E+03  0.46412018051E+03  0.00000000000E+00 0. -1.
          5    1    1    2  502    0 -0.43121427900E+02  0.12456465466E+02 -0.10635339469E+03  0.11551250165E+03  0.41800000000E+01 0. -1.
         -5    1    1    2    0  502  0.34777684113E+02 -0.90382300794E+02 -0.11296667821E+03  0.14885358711E+03  0.41800000000E+01 0. -1.
        -11    1    1    2    0    0  0.34869674057E+02  0.85633657507E+02 -0.14922720462E+03  0.17554992471E+03  0.00000000000E+00 0.  1.
         11    1    1    2    0    0 -0.26525930269E+02 -0.77078221785E+01 -0.56703303067E+02  0.63073766957E+02  0.00000000000E+00 0. -1.
</event>
<event>
 6    1  0.6447971E-006  0.1588360E+03  0.7561462E-02  0.1190017E+00
          3   -1    0    0  501    0  0.00000000000E+00  0.00000000000E+00  0.66148189292E+03  0.66148189292E+03  0.00000000000E+00 0. -1.
         -3   -1    0    0    0  501 -0.00000000000E+00 -0.00000000000E+00 -0.56041330395E+02  0.56041330395E+02  0.00000000000E+00 0.  1.
          5    1    1    2  502    0  0.63424304865E+02 -0.29726590690E+02  0.20546340315E+03  0.21711516546E+03  0.41800000000E+01 0.  1.
         -5    1    1    2    0  502  0.58955724084E+02 -0.61663604226E+02  0.30851652535E+02  0.90815606327E+02  0.41800000000E+01 0.  1.
        -11    1    1    2    0    0 -0.17684551109E+02  0.43503496951E+02  0.19695879209E+03  0.20247978511E+03  0.00000000000E+00 0. -1.
         11    1    1    2    0    0 -0.10469547784E+03  0.47886697965E+02  0.17216671475E+03  0.20711266641E+03  0.00000000000E+00 0.  1.
</event>
<event>
 6    1  0.6447971E-006  0.1158755E+03  0.7561462E-02  0.1250061E+00
          1   -1    0    0  501    0  0.00000000000E+00  0.00000000000E+00  0.38956056112E+03  0.38956056112E+03  0.00000000000E+00 0. -1.
         -1   -1    0    0    0  501 -0.00000000000E+00 -0.00000000000E+00 -0.40325991543E+02  0.40325991543E+02  0.00000000000E+00 0.  1.
          5    1    1    2  502    0  0.40668521297E+02  0.42029457347E+02  0.46597435507E+02  0.74894574604E+02  0.41800000000E+01 0. -1.
         -5    1    1    2    0  502  0.61739759486E+01 -0.76222196742E+02  0.10580289258E+03  0.13061265534E+03  0.41800000000E+01 0. -1.
        -11    1    1    2    0    0  0.78038491020E+01 -0.18833899699E+02  0.10171703107E+02  0.22783313691E+02  0.00000000000E+00 0.  1.
         11    1    1    2    0    0 -0.54646346347E+02  0.53026639094E+02  0.18666253839E+03  0.20159600904E+03  0.00000000000E+00 0. -1.
</event>
<event>
 6    1  0.6447971E-006  0.7716538E+02  0.7561462E-02  0.1337294E+00
         -1   -1    0    0    0  501 -0.00000000000E+00  0.00000000000E+00  0.21764736304E+02  0.21764736304E+02  0.00000000000E+00 0.  1.
          1   -1    0    0  501    0  0.00000000000E+00 -0.00000000000E+00 -0.33681150528E+03  0.33681150528E+03  0.00000000000E+00 0. -1.
          5    1    1    2  502    0 -0.60160413525E+02  0.30378807346E+02 -0.68994330273E+02  0.96539304436E+02  0.41800000000E+01 0. -1.
         -5    1    1    2    0  502  0.47970215409E+02 -0.16219597852E+02 -0.12626971047E+03  0.13610925429E+03  0.41800000000E+01 0. -1.
        -11    1    1    2    0    0  0.83516587106E+01 -0.24011150314E+02 -0.10300841008E+03  0.10609909561E+03  0.00000000000E+00 0. -1.
         11    1    1    2    0    0  0.38385394050E+01  0.98519408195E+01 -0.16774318152E+02  0.19828587245E+02  0.00000000000E+00 0.  1.
</event>
<event>
 6    1  0.6447971E-006  0.1048252E+03  0.7561462E-02  0.1270464E+00
          2   -1    0    0  501    0  0.00000000000E+00  0.00000000000E+00  0.30413896309E+03  0.30413896309E+03  0.00000000000E+00 0. -1.
         -2   -1    0    0    0  501 -0.00000000000E+00 -0.00000000000E+00 -0.87990613361E+02  0.87990613361E+02  0.00000000000E+00 0.  1.
          5    1    1    2  502    0  0.16574912345E+02  0.98438544361E+00  0.54052533476E+02  0.56699607662E+02  0.41800000000E+01 0.  1.
         -5    1    1    2    0  502 -0.20740641805E+02 -0.95374026169E+02 -0.29375421062E+02  0.10201356210E+03  0.41800000000E+01 0.  1.
        -11    1    1    2    0    0 -0.25011145695E+01  0.23129510038E+02 -0.54482276582E+01  0.23893785663E+02  0.00000000000E+00 0.  1.
         11    1    1    2    0    0  0.66668440291E+01  0.71260130687E+02  0.19691946497E+03  0.20952262102E+03  0.00000000000E+00 0. -1.
</event>
<event>
 6    1  0.6447971E-006  0.1610908E+03  0.7561462E-02  0.1187471E+00
          2   -1    0    0  501    0  0.00000000000E+00  0.00000000000E+00  0.70064136616E+03  0.70064136616E+03  0.00000000000E+00 0. -1.
         -2   -1    0    0    0  501 -0.00000000000E+00 -0.00000000000E+00 -0.42537003518E+02  0.42537003518E+02  0.00000000000E+00 0.  1.
          5    1    1    2  502    0  0.62832633992E+02 -0.79273948309E+02  0.10674749984E+03  0.14712171797E+03  0.41800000000E+01 0. -1.
         -5    1    1    2    0  502 -0.47291111628E+02 -0.49184671656E+02  0.16743386309E+03  0.18085118765E+03  0.41800000000E+01 0. -1.
        -11    1    1    2    0    0 -0.23754836500E+02 -0.10484452677E+00  0.10952257406E+03  0.11206916381E+03  0.00000000000E+00 0. -1.
         11    1    1    2    0    0  0.82133141355E+01  0.12856346449E+03  0.27440042566E+03  0.30313630026E+03  0.00000000000E+00 0.  1.
</event>
<event>
 6    1  0.6447971E-006  0.1420746E+03  0.7561462E-02  0.1210564E+00
         -1   -1    0    0    0  501 -0.00000000000E+00  0.00000000000E+00  0.28015698155E+03  0.28015698155E+03  0.00000000000E+00 0.  1.
          1   -1    0    0  501    0  0.00000000000E+00 -0.00000000000E+00 -0.97904522799E+02  0.97904522799E+02  0.00000000000E+00 0. -1.
          5    1    1    2  502    0 -0.31059669889E+02  0.29948796519E+02  0.93017168503E+02  0.10262212014E+03  0.41800000000E+01 0.  1.
         -5    1    1    2    0  502 -0.58818340460E+02 -0.92712841039E+02  0.70044822281E+02  0.13030355942E+03  0.41800000000E+01 0.  1.
        -11    1    1    2    0    0  0.98557020547E+02  0.39648153640E+02  0.39322570133E+02  0.11327721266E+03  0.00000000000E+00 0.  1.
         11    1    1    2    0    0 -0.86790101987E+01  0.23115890880E+02 -0.20132102165E+02  0.31858612129E+02  0.00000000000E+00 0. -1.
</event>
<event>
 6    1  0.6447971E-006  0.1443337E+03  0.7561462E-02  0.1207614E+00
          2   -1    0    0  501    0  0.00000000000E+00  0.00000000000E+00  0.17654103845E+03  0.17654103845E+03  0.00000000000E+00 0. -1.
         -2   -1    0    0    0  501 -0.00000000000E+00 -0.00000000000E+00 -0.13364958356E+03  0.13364958356E+03  0.00000000000E+00 0.  1.
          5    1    1    2  502    0  0.23364988303E+02 -0.83148447427E+02 -0.40524733749E+01  0.86564900094E+02  0.41800000000E+01 0.  1.
         -5    1    1    2    0  502 -0.73583423821E+02 -0.38800757598E+01 -0.10448743901E+02  0.74540082495E+02  0.41800000000E+01 0.  1.
        -11    1    1    2    0    0  0.49415456891E+02  0.10203191749E+03  0.66580880042E+02  0.13147400182E+03  0.00000000000E+00 0. -1.
         11    1    1    2    0    0  0.80297862788E+00 -0.15003394304E+02 -0.91882078696E+01  0.17611637606E+02  0.00000000000E+00 0.  1.
</event>
<event>
 6    1  0.6447971E-006  0.7853004E+02  0.7561462E-02  0.1333275E+00
          1   -1    0    0  501    0  0.00000000000E+00  0.00000000000E+00  0.54911509240E+03  0.54911509240E+03  0.00000000000E+00 0. -1.
         -1   -1    0    0    0  501 -0.00000000000E+00 -0.00000000000E+00 -0.24619501164E+02  0.24619501164E+02  0.00000000000E+00 0.  1.
          5    1    1    2  502    0  0.66134233776E+02  0.12476843667E+02  0.63656152354E+02  0.92730721110E+02  0.41800000000E+01 0. -1.
         -5    1    1    2    0  502 -0.22811068391E+02 -0.25560018382E+01  0.21144192698E+03  0.21272526618E+03  0.41800000000E+01 0. -1.
        -11    1    1    2    0    0 -0.25978503212E+01  0.17182937496E+02  0.37122348991E+01  0.17770280111E+02  0.00000000000E+00 0.  1.
         11    1    1    2    0    0 -0.40725315064E+02 -0.27103779325E+02  0.24568527701E+03  0.25050832617E+03  0.00000000000E+00 0. -1.
</event>
<event>
 6    1  0.6447971E-006  0.6002289E+02  0.7561462E-02  0.1397736E+00
         -2   -1    0    0    0  501 -0.00000000000E+00  0.00000000000E+00  0.79043270278E+03  0.79043270278E+03  0.00000000000E+00 0.  1.
          2   -1    0    0  501    0  0.00000000000E+00 -0.00000000000E+00 -0.21474982450E+02  0.21474982450E+02  0.00000000000E+00 0. -1.
          5    1    1    2  502    0 -0.20364575840E+02  0.65870151647E+01  0.15291138622E+02  0.26634489638E+02  0.41800000000E+01 0. -1.
         -5    1    1    2    0  502  0.26639603527E+02 -0.96255581137E+01  0.63322031051E+03  0.63386729991E+03  0.41800000000E+01 0. -1.
        -11    1    1    2    0    0  0.39936042707E+01  0.35415365892E+02  0.11750895128E+02  0.37527064269E+02  0.00000000000E+00 0. -1.
         11    1    1    2    0    0 -0.10268631958E+02 -0.32376822943E+02  0.10869537606E+03  0.11387883141E+03  0.00000000000E+00 0.  1.
</event>
<event>
 6    1  0.6447971E-006  0.8875107E+02  0.7561462E-02  0.1305905E+00
         -2   -1    0    0    0  501 -0.00000000000E+00  0.00000000000E+00  0.33613555193E+03  0.33613555193E+03  0.00000000000E+00 0. -1.
          2   -1    0    0  501    0  0.00000000000E+00 -0.00000000000E+00 -0.48062362670E+02  0.48062362670E+02  0.00000000000E+00 0.  1.
          5    1    1    2  502    0  0.22166398453E+02 -0.10526959955E+02 -0.38565868864E+01  0.25189517039E+02  0.41800000000E+01 0.  1.
         -5    1    1    2    0  502 -0.50898647721E+02  0.66963259587E+02  0.19019178442E+03  0.20800273493E+03  0.41800000000E+01 0.  1.
        -11    1    1    2    0    0  0.26723422658E+02 -0.24068949769E+02  0.11148535937E+03  0.11714282315E+03  0.00000000000E+00 0. -1.
         11    1    1    2    0    0  0.20088266106E+01 -0.32367349863E+02 -0.97473676538E+01  0.33862839480E+02  0.00000000000E+00 0.  1.
</event>
<event>
 6    1  0.6447971E-006  0.1947803E+03  0.7561462E-02  0.1154219E+00
          1   -1    0    0  501    0  0.00000000000E+00  0.00000000000E+00  0.66141981968E+02  0.66141981968E+02  0.00000000000E+00 0. -1.
         -1   -1    0    0    0  501 -0.00000000000E+00 -0.00000000000E+00 -0.73885018575E+03  0.73885018575E+03  0.00000000000E+00 0.  1.
          5    1    1    2  502    0 -0.12641355918E+03 -0.30999110931E+01 -0.24218399988E+03  0.27324084539E+03  0.41800000000E+01 0. -1.
         -5    1    1    2    0  502  0.88960303626E+02  0.10330650565E+03 -0.33389623092E+03  0.36068037811E+03  0.41800000000E+01 0.  1.
        -11    1    1    2    0    0 -0.18669418860E+02 -0.41081684821E+02 -0.62898789462E+00  0.45129232810E+02  0.00000000000E+00 0.  1.
         11    1    1    2    0    0  0.56122674410E+02 -0.59124909735E+02 -0.95998985086E+02  0.12594171141E+03  0.00000000000E+00 0. -1.
</event>
<event>
 6    1  0.6447971E-006  0.1216647E+03  0.7561462E-02  0.1240376E+00
          1   -1    0    0  501    0  0.00000000000E+00  0.00000000000E+00  0.43002699678E+02  0.43002699678E+02  0.00000000000E+00 0. -1.
         -1   -1    0    0    0  501 -0.00000000000E+00 -0.00000000000E+00 -0.47302358046E+03  0.47302358046E+03  0.00000000000E+00 0.  1.
          5    1    1    2  502    0  0.13037983466E+02 -0.47361304838E+02 -0.30551784410E+02  0.57999708098E+02  0.41800000000E+01 0.  1.
         -5    1    1    2    0  502  0.71781372076E+02  0.64555702538E+02 -0.14545904060E+03  0.17463049276E+03  0.41800000000E+01 0.  1.
        -11    1    1    2    0    0 -0.51388317873E+02 -0.32317478430E+02 -0.23370376770E+03  0.24145937476E+03  0.00000000000E+00 0. -1.
         11    1    1    2    0    0 -0.33431037670E+02  0.15123080730E+02 -0.20306288068E+02  0.41936704515E+02  0.00000000000E+00 0.  1.
</event>
<event>
 6    1  0.6447971E-006  0.9805454E+02  0.7561462E-02  0.1284441E+00
          1   -1    0    0  501    0  0.00000000000E+00  0.00000000000E+00  0.57143373899E+03  0.57143373899E+03  0.00000000000E+00 0. -1.
         -1   -1    0    0    0  501 -0.00000000000E+00 -0.00000000000E+00 -0.24726868149E+02  0.24726868149E+02  0.00000000000E+00 0.  1.
          5    1    1    2  502    0  0.45585834328E+02  0.76194103773E+00  0.18073001622E+03  0.18643889081E+03  0.41800000000E+01 0.  1.
         -5    1    1    2    0  502 -0.43343237405E+02 -0.35016554844E+02  0.37065598524E+02  0.67053160521E+02  0.41800000000E+01 0.  1.
        -11    1    1    2    0    0 -0.42207155079E+02  0.34452760733E+02  0.15741089568E+03  0.16657318734E+03  0.00000000000E+00 0.  1.
         11    1    1    2    0    0  0.39964558156E+02 -0.19814692684E+00  0.17150036042E+03  0.17609536846E+03  0.00000000000E+00 0. -1.
</event>
<event>
 6    1  0.6447971E-006  0.1540296E+03  0.7561462E-02  0.1195607E+00
          3   -1    0    0  501    0  0.00000000000E+00  0.00000000000E+00  0.12784192339E+03  0.12784192339E+03  0.00000000000E+00 0. -1.
         -3   -1    0    0    0  501 -0.00000000000E+00 -0.00000000000E+00 -0.99855754365E+03  0.99855754365E+03  0.00000000000E+00 0.  1.
          5    1    1    2  502    0 -0.89970947318E+01  0.14785434486E+02 -0.28321911754E+02  0.33453846893E+02  0.41800000000E+01 0. -1.
         -5    1    1    2    0  502 -0.32255530723E+02 -0.13743816834E+03 -0.90989022047E+03  0.92078627004E+03  0.41800000000E+01 0.  1.
        -11    1    1    2    0    0 -0.17843036498E+02  0.70452209426E+01  0.32416892506E+02  0.37667811316E+02  0.00000000000E+00 0.  1.
         11    1    1    2    0    0  0.59095661953E+02  0.11560751291E+03  0.35079619463E+02  0.13449153879E+03  0.00000000000E+00 0. -1.
</event>
<event>
 6    1  0.6447971E-006  0.9684155E+02  0.7561462E-02  0.1287081E+00
          1   -1    0    0  501    0  0.00000000000E+00  0.00000000000E+00  0.68214622824E+03  0.68214622824E+03  0.00000000000E+00 0. -1.
         -1   -1    0    0    0  501 -0.00000000000E+00 -0.00000000000E+00 -0.30709502700E+02  0.30709502700E+02  0.00000000000E+00 0.  1.
          5    1    1    2  502    0 -0.16100461920E+01 -0.32018648310E+02  0.28492388403E+03  0.28675229411E+03  0.41800000000E+01 0. -1.
         -5    1    1    2    0  502  0.59681669412E+01 -0.64357636930E+02  0.44477737719E+02  0.78570134278E+02  0.41800000000E+01 0. -1.
        -11    1    1    2    0    0  0.84189153881E+00  0.26929455752E+02  0.11515826251E+02  0.29300488438E+02  0.00000000000E+00 0.  1.
         11    1    1    2    0    0 -0.52000122880E+01  0.69446829488E+02  0.31051927754E+03  0.31823281412E+03  0.00000000000E+00 0. -1.
</event>
<event>
 6    1  0.6447971E-006  0.1174481E+03  0.7561462E-02  0.1247367E+00
         -2   -1    0    0    0  501 -0.00000000000E+00  0.00000000000E+00  0.14193848452E+03  0.14193848452E+03  0.00000000000E+00 0.  1.
          2   -1    0    0  501    0  0.00000000000E+00 -0.00000000000E+00 -0.31284948515E+03  0.31284948515E+03  0.00000000000E+00 0. -1.
          5    1    1    2  502    0 -0.50919452198E+02  0.77400991087E+01  0.14801098788E+02  0.53751694594E+02  0.41800000000E+01 0. -1.
         -5    1    1    2    0  502  0.61839512969E+02  0.65211186071E+02  0.73814688454E+02  0.11637312742E+03  0.41800000000E+01 0. -1.
        -11    1    1    2    0    0  0.23277977241E+02 -0.36342545695E+02 -0.20937400874E+03  0.21377586484E+03  0.00000000000E+00 0. -1.
         11    1    1    2    0    0 -0.34198038012E+02 -0.36608739485E+02 -0.50152779129E+02  0.70887282815E+02  0.00000000000E+00 0.  1.
</event>
<event>
 6    1  0.6447971E-006  0.1251203E+03  0.7561462E-02  0.1234881E+00
         -1   -1    0    0    0  501 -0.00000000000E+00  0.00000000000E+00  0.21849288913E+03  0.21849288913E+03  0.00000000000E+00 0. -1.
          1   -1    0    0  501    0  0.00000000000E+00 -0.00000000000E+00 -0.10458654801E+03  0.10458654801E+03  0.00000000000E+00 0.  1.
          5    1    1    2  502    0  0.55326740493E+02 -0.96369123373E+02  0.79129421076E+02  0.13648074528E+03  0.41800000000E+01 0. -1.
         -5    1    1    2    0  502 -0.44696264845E+02  0.33762748886E+01  0.33570393112E+02  0.56156914239E+02  0.41800000000E+01 0. -1.
        -11    1    1    2    0    0 -0.38440151259E+00  0.42425101180E+02  0.45666330998E+02  0.62333384005E+02  0.00000000000E+00 0. -1.
         11    1    1    2    0    0 -0.10246074136E+02  0.50567747305E+02 -0.44459804062E+02  0.68108393608E+02  0.00000000000E+00 0.  1.
</event>
<event>
 6    1  0.6447971E-006  0.2089945E+03  0.7561462E-02  0.1142365E+00
          2   -1    0    0  501    0  0.00000000000E+00  0.00000000000E+00  0.43606967123E+03  0.43606967123E+03  0.00000000000E+00 0.  1.
         -2   -1    0    0    0  501 -0.00000000000E+00 -0.00000000000E+00 -0.26571131099E+03  0.26571131099E+03  0.00000000000E+00 0. -1.
          5    1    1    2  502    0  0.99878847606E+02  0.77180169565E+02 -0.53821507328E+02  0.13728361091E+03  0.41800000000E+01 0.  1.
         -5    1    1    2    0  502 -0.77409706696E+00  0.82473680689E+02 -0.12917828117E+03  0.15331995290E+03  0.41800000000E+01 0.  1.
        -11    1    1    2    0    0  0.15201928878E+02 -0.35125657480E+01  0.39365899619E+02  0.42345139185E+02  0.00000000000E+00 0.  1.
         11    1    1    2    0    0 -0.11430667942E+03 -0.15614128451E+03  0.31399224912E+03  0.36883227922E+03  0.00000000000E+00 0. -1.
</event>
<event>
 6    1  0.6447971E-006  0.9438948E+02  0.7561462E-02  0.1292557E+00
         -2   -1    0    0    0  501 -0.00000000000E+00  0.00000000000E+00  0.21963524573E+03  0.21963524573E+03  0.00000000000E+00 0.  1.
          2   -1    0    0  501    0  0.00000000000E+00 -0.00000000000E+00 -0.79261252460E+02  0.79261252460E+02  0.00000000000E+00 0. -1.
          5    1    1    2  502    0 -0.66761147315E+02 -0.24708632675E+02  0.14678234327E+03  0.16318730347E+03  0.41800000000E+01 0.  1.
         -5    1    1    2    0  502  0.38225726483E+01  0.90222635993E+01 -0.22375657575E+02  0.24782166048E+02  0.41800000000E+01 0.  1.
        -11    1    1    2    0    0  0.32670833568E+02  0.50837049454E+02 -0.37004573726E+01  0.60543227103E+02  0.00000000000E+00 0. -1.
         11    1    1    2    0    0  0.30267741099E+02 -0.35150680378E+02  0.19667764949E+02  0.50383801567E+02  0.00000000000E+00 0.  1.
</event>
<event>
 6    1  0.6447971E-006  0.2148444E+03  0.7561462E-02  0.1137786E+00
         -1   -1    0    0    0  501 -0.00000000000E+00  0.00000000000E+00  0.19575366112E+03  0.19575366112E+03  0.00000000000E+00 0.  1.
          1   -1    0    0  501    0  0.00000000000E+00 -0.00000000000E+00 -0.25257693107E+03  0.25257693107E+03  0.00000000000E+00 0. -1.
          5    1    1    2  502    0 -0.17692849696E+03  0.95472990483E+02  0.32404445793E+01  0.20111379324E+03  0.41800000000E+01 0. -1.
         -5    1    1    2    0  502  0.17452066043E+01 -0.30642180150E+02  0.30393507971E+00  0.30976664233E+02  0.41800000000E+01 0.  1.
        -11    1    1    2    0    0  0.12459458967E+03 -0.75829036905E+02 -0.13625683308E+02  0.14649066134E+03  0.00000000000E+00 0.  1.
         11    1    1    2    0    0  0.50588700683E+02  0.10998226572E+02 -0.46741966302E+02  0.69749473390E+02  0.00000000000E+00 0. -1.
</event>
<event>
 6    1  0.6447971E-006  0.9312041E+02  0.7561462E-02  0.1295466E+00
          2   -1    0    0  501    0  0.00000000000E+00  0.00000000000E+00  0.37294040776E+02  0.37294040776E+02  0.00000000000E+00 0. -1.
         -2   -1    0    0    0  501 -0.00000000000E+00 -0.00000000000E+00 -0.56528228568E+03  0.56528228568E+03  0.00000000000E+00 0.  1.
          5    1    1    2  502    0  0.57676052341E+02 -0.56016349436E+02 -0.11199947324E+03  0.13793372620E+03  0.41800000000E+01 0.  1.
         -5    1    1    2    0  502 -0.35393817583E+01  0.67944534304E+01 -0.27774016639E+03  0.27787724672E+03  0.41800000000E+01 0.  1.
        -11    1    1    2    0    0 -0.44099708529E+01 -0.15083305895E+02 -0.91813093878E+02  0.93148259067E+02  0.00000000000E+00 0.  1.
         11    1    1    2    0    0 -0.49726699730E+02  0.64305201900E+02 -0.46435511397E+02  0.93617094465E+02  0.00000000000E+00 0. -1.
</event>
<event>
 6    1  0.6447971E-006  0.1337339E+03  0.7561462E-02  0.1222018E+00
         -1   -1    0    0    0  501 -0.00000000000E+00  0.00000000000E+00  0.17925980047E+03  0.17925980047E+03  0.00000000000E+00 0.  1.
          1   -1    0    0  501    0  0.00000000000E+00 -0.00000000000E+00 -0.21138378785E+03  0.21138378785E+03  0.00000000000E+00 0. -1.
          5    1    1    2  502    0  0.38858701562E+02 -0.21133433542E+02  0.57269369549E+02  0.72483610485E+02  0.41800000000E+01 0.  1.
         -5    1    1    2    0  502 -0.11525555162E+02  0.10342657076E+03  0.65225139311E+02  0.12288891390E+03  0.41800000000E+01 0.  1.
        -11    1    1    2    0    0 -0.41741819703E+02 -0.71200239132E+01 -0.62651473231E+02  0.75619318634E+02  0.00000000000E+00 0. -1.
         11    1    1    2    0    0  0.14408673304E+02 -0.75173113308E+02 -0.91967023011E+02  0.11965174530E+03  0.00000000000E+00 0.  1.
</event>
<event>
 6    1  0.6447971E-006  0.6811711E+02  0.7561462E-02  0.1366616E+00
          2   -1    0    0  501    0  0.00000000000E+00  0.00000000000E+00  0.26408333269E+03  0.26408333269E+03  0.00000000000E+00 0. -1.
         -2   -1    0    0    0  501 -0.00000000000E+00 -0.00000000000E+00 -0.49068173303E+02  0.49068173303E+02  0.00000000000E+00 0.  1.
          5    1    1    2  502    0 -0.14959202436E+02 -0.23446264766E+02  0.15890613620E+03  0.16137576519E+03  0.41800000000E+01 0. -1.
         -5    1    1    2    0  502  0.42368848196E+01 -0.12353217770E+02 -0.23190229564E+02  0.26940904392E+02  0.41800000000E+01 0. -1.
        -11    1    1    2    0    0 -0.19729119395E+02  0.54977535792E+02  0.61024055121E+02  0.84473089781E+02  0.00000000000E+00 0. -1.
         11    1    1    2    0    0  0.30451437011E+02 -0.19178053256E+02  0.18275197637E+02  0.40361746635E+02  0.00000000000E+00 0.  1.
</event>
<event>
 6    1  0.6447971E-006  0.1041822E+03  0.7561462E-02  0.1271739E+00
          2   -1    0    0  501    0  0.00000000000E+00  0.00000000000E+00  0.54840277717E+03  0.54840277717E+03  0.00000000000E+00 0. -1.
         -2   -1    0    0    0  501 -0.00000000000E+00 -0.00000000000E+00 -0.34097153999E+02  0.34097153999E+02  0.00000000000E+00 0.  1.
          5    1    1    2  502    0  0.30305524765E+02  0.27863813498E+02  0.14252699548E+03  0.14841237743E+03  0.41800000000E+01 0.  1.
         -5    1    1    2    0  502  0.16177546894E+02 -0.88683936029E+02  0.97371461705E+02  0.13276003724E+03  0.41800000000E+01 0.  1.
        -11    1    1    2    0    0 -0.18693835484E+02  0.20185659400E+02  0.56338181273E+01  0.28083095221E+02  0.00000000000E+00 0.  1.
         11    1    1    2    0    0 -0.27789236175E+02  0.40634463130E+02  0.26877334786E+03  0.27324442128E+03  0.00000000000E+00 0. -1.
</event>
<event>
 6    1  0.6447971E-006  0.1303093E+03  0.7561462E-02  0.1226997E+00
          2   -1    0    0  501    0  0.00000000000E+00  0.00000000000E+00  0.40268920735E+03  0.40268920735E+03  0.00000000000E+00 0. -1.
         -2   -1    0    0    0  501 -0.00000000000E+00 -0.00000000000E+00 -0.56543907678E+02  0.56543907678E+02  0.00000000000E+00 0.  1.
          5    1    1    2  502    0 -0.34718047287E+02  0.19123178126E+02  0.18482113012E+01  0.39898960313E+02  0.41800000000E+01 0. -1.
         -5    1    1    2    0  502  0.68030642784E+02  0.76774129001E+02  0.14803361794E+03  0.18014954810E+03  0.41800000000E+01 0. -1.
        -11    1    1    2    0    0  0.15030569055E+02 -0.63128725153E+01 -0.18912443678E+01  0.16411799742E+02  0.00000000000E+00 0.  1.
         11    1    1    2    0    0 -0.48343164552E+02 -0.89584434612E+02  0.19815471480E+03  0.22277280687E+03  0.00000000000E+00 0. -1.
</event>
<event>
 6    1  0.6447971E-006  0.1206737E+03  0.7561462E-02  0.1241990E+00
          1   -1    0    0  501    0  0.00000000000E+00  0.00000000000E+00  0.16154076955E+03  0.16154076955E+03  0.00000000000E+00 0. -1.
         -1   -1    0    0    0  501 -0.00000000000E+00 -0.00000000000E+00 -0.12384456050E+03  0.12384456050E+03  0.00000000000E+00 0.  1.
          5    1    1    2  502    0 -0.70459960277E+02 -0.36535971822E+02 -0.10860982295E+02  0.80217931759E+02  0.41800000000E+01 0.  1.
         -5    1    1    2    0  502  0.50281359374E+02 -0.50778015346E+02  0.18073869349E+02  0.73829256370E+02  0.41800000000E+01 0.  1.
        -11    1    1    2    0    0  0.65873602539E+01  0.52511934014E+02 -0.29560319110E+02  0.60619378048E+02  0.00000000000E+00 0.  1.
         11    1    1    2    0    0  0.13591240650E+02  0.34802053154E+02  0.60043641111E+02  0.70718763874E+02  0.00000000000E+00 0. -1.
</event>
<event>
 6    1  0.6447971E-006  0.2038071E+03  0.7561462E-02  0.1146566E+00
         -1   -1    0    0    0  501 -0.00000000000E+00  0.00000000000E+00  0.17958468157E+03  0.17958468157E+03  0.00000000000E+00 0.  1.
          1   -1    0    0  501    0  0.00000000000E+00 -0.00000000000E+00 -0.27502135937E+03  0.27502135937E+03  0.00000000000E+00 0. -1.
          5    1    1    2  502    0 -0.11438926444E+03 -0.11371478593E+03 -0.87468161462E+02  0.18353230785E+03  0.41800000000E+01 0. -1.
         -5    1    1    2    0  502 -0.22536021587E+02 -0.23111035173E+02  0.40210890049E+02  0.51733744251E+02  0.41800000000E+01 0. -1.
        -11    1    1    2    0    0  0.30629794408E+02  0.94437257464E+02 -0.16921092223E+02  0.10071198173E+03  0.00000000000E+00 0. -1.
         11    1    1    2    0    0  0.10629549162E+03  0.42388563634E+02 -0.31258314159E+02  0.11862800710E+03  0.00000000000E+00 0.  1.
</event>
<event>
 6    1  0.6447971E-006  0.1375595E+03  0.7561462E-02  0.1216651E+00
         -1   -1    0    0    0  501 -0.00000000000E+00  0.00000000000E+00  0.50828675505E+02  0.50828675505E+02  0.00000000000E+00 0.  1.
          1   -1    0    0  501    0  0.00000000000E+00 -0.00000000000E+00 -0.48240553647E+03  0.48240553647E+03  0.00000000000E+00 0. -1.
          5    1    1    2  502    0 -0.70172288465E+02 -0.24853390101E+02 -0.46877855468E+02  0.88072962942E+02  0.41800000000E+01 0. -1.
         -5    1    1    2    0  502 -0.26462500284E+02  0.76978345794E+02 -0.14155825587E+03  0.16334669219E+03  0.41800000000E+01 0. -1.
        -11    1    1    2    0    0  0.13531943694E+02 -0.30217600721E+02 -0.12005318820E+02  0.35218525997E+02  0.00000000000E+00 0.  1.
         11    1    1    2    0    0  0.83102845056E+02 -0.21907354972E+02 -0.23113543080E+03  0.24659603085E+03  0.00000000000E+00 0. -1.
</event>
<event>
 6    1  0.6447971E-006  0.1062001E+03  0.7561462E-02  0.1267773E+00
          2   -1    0    0  501    0  0.00000000000E+00  0.00000000000E+00  0.33889571355E+03  0.33889571355E+03  0.00000000000E+00 0. -1.
         -2   -1    0    0    0  501 -0.00000000000E+00 -0.00000000000E+00 -0.43102579279E+02  0.43102579279E+02  0.00000000000E+00 0.  1.
          5    1    1    2  502    0 -0.43633886187E+02  0.13025438071E+02  0.79250914861E+02  0.91497311255E+02  0.41800000000E+01 0. -1.
         -5    1    1    2    0  502  0.79135130094E+02  0.22277878750E+02  0.57015405439E+02  0.10013441743E+03  0.41800000000E+01 0. -1.
        -11    1    1    2    0    0 -0.26518007632E+02  0.16859763235E+02  0.12069610543E+03  0.12471971059E+03  0.00000000000E+00 0. -1.
         11    1    1    2    0    0 -0.89832362745E+01 -0.52163080057E+02  0.38830708544E+02  0.65646853551E+02  0.00000000000E+00 0.  1.
</event>
<event>
 6    1  0.6447971E-006  0.1233216E+03  0.7561462E-02  0.1237716E+00
         -3   -1    0    0    0  501 -0.00000000000E+00  0.00000000000E+00  0.12577448051E+03  0.12577448051E+03  0.00000000000E+00 0.  1.
          3   -1    0    0  501    0  0.00000000000E+00 -0.00000000000E+00 -0.17216092428E+03  0.17216092428E+03  0.00000000000E+00 0. -1.
          5    1    1    2  502    0  0.31072446531E+02 -0.89162508877E+02 -0.55821438511E+02  0.10976773351E+03  0.41800000000E+01 0.  1.
         -5    1    1    2    0  502 -0.20573395513E+02 -0.81796689076E+01  0.44091630208E+02  0.49514804258E+02  0.41800000000E+01 0.  1.
        -11    1    1    2    0    0 -0.13309280939E+02  0.11295399867E+03 -0.17137514577E+02  0.11501929047E+03  0.00000000000E+00 0.  1.
         11    1    1    2    0    0  0.28102299199E+01 -0.15611820883E+02 -0.17519120890E+02  0.23633576544E+02  0.00000000000E+00 0. -1.
</event>
<event>
 6    1  0.6447971E-006  0.9256532E+02  0.7561462E-02  0.1296756E+00
         -2   -1    0    0    0  501 -0.00000000000E+00  0.00000000000E+00  0.11445132314E+03  0.11445132314E+03  0.00000000000E+00 0.  1.
          2   -1    0    0  501    0  0.00000000000E+00 -0.00000000000E+00 -0.12627405398E+03  0.12627405398E+03  0.00000000000E+00 0. -1.
          5    1    1    2  502    0  0.31975984764E+02 -0.24279103408E+02  0.63447498034E+02  0.75199706587E+02  0.41800000000E+01 0. -1.
         -5    1    1    2    0  502 -0.51215110633E+02  0.93256771936E+01 -0.25012045143E+02  0.57905359117E+02  0.41800000000E+01 0. -1.
        -11    1    1    2    0    0 -0.43385817295E+01 -0.36071196990E+02 -0.77518219426E+01  0.37148960781E+02  0.00000000000E+00 0.  1.
         11    1    1    2    0    0  0.23577707598E+02  0.51024623204E+02 -0.42506361788E+02  0.70471350641E+02  0.00000000000E+00 0. -1.
</event>
<event>
 6    1  0.6447971E-006  0.2787906E+03  0.7561462E-02  0.1096351E+00
          1   -1    0    0  501    0  0.00000000000E+00  0.00000000000E+00  0.10124613483E+03  0.10124613483E+03  0.00000000000E+00 0. -1.
         -1   -1    0    0    0  501 -0.00000000000E+00 -0.00000000000E+00 -0.85148877298E+03  0.85148877298E+03  0.00000000000E+00 0.  1.
          5    1    1    2  502    0  0.10623659269E+02 -0.10991891272E+03 -0.58037848097E+02  0.12482345020E+03  0.41800000000E+01 0. -1.
         -5    1    1    2    0  502 -0.47005427642E+01 -0.16230480166E+03 -0.30815761692E+03  0.34834398661E+03  0.41800000000E+01 0. -1.
        -11    1    1    2    0    0  0.20576191292E+02  0.24765396939E+03 -0.35428947784E+03  0.43275501419E+03  0.00000000000E+00 0.  1.
         11    1    1    2    0    0 -0.26499307796E+02  0.24569744979E+02 -0.29757695296E+02  0.46812456797E+02  0.00000000000E+00 0. -1.
</event>
<event>
 6    1  0.6447971E-006  0.1938796E+03  0.7561462E-02  0.1155008E+00
          1   -1    0    0  501    0  0.00000000000E+00  0.00000000000E+00  0.77179640149E+03  0.77179640149E+03  0.00000000000E+00 0. -1.
         -1   -1    0    0    0  501 -0.00000000000E+00 -0.00000000000E+00 -0.54853367985E+02  0.54853367985E+02  0.00000000000E+00 0.  1.
          5    1    1    2  502    0  0.32346442636E+02 -0.16360581489E+02  0.26766090116E+02  0.45253253562E+02  0.41800000000E+01 0. -1.
         -5    1    1    2    0  502 -0.97400665633E+02 -0.13682244179E+03  0.24590014957E+03  0.29781139368E+03  0.41800000000E+01 0. -1.
        -11    1    1    2    0    0  0.65870393008E+02  0.57077658918E+02  0.14421496571E+03  0.16850734155E+03  0.00000000000E+00 0.  1.
         11    1    1    2    0    0 -0.81617001142E+00  0.96105364364E+02  0.30006182811E+03  0.31507778069E+03  0.00000000000E+00 0. -1.
</event>
<event>
 6    1  0.6447971E-006  0.6261947E+02  0.7561462E-02  0.1387157E+00
         -1   -1    0    0    0  501 -0.00000000000E+00  0.00000000000E+00  0.43959961138E+02  0.43959961138E+02  0.00000000000E+00 0.  1.
          1   -1    0    0  501    0  0.00000000000E+00 -0.00000000000E+00 -0.31218606178E+03  0.31218606178E+03  0.00000000000E+00 0. -1.
          5    1    1    2  502    0 -0.10423664472E+01 -0.75701535546E+01 -0.12680521499E+03  0.12710400741E+03  0.41800000000E+01 0.  1.
         -5    1    1    2    0  502 -0.32346449318E+02  0.11265611544E+02  0.20778677058E+02  0.40279431565E+02  0.41800000000E+01 0.  1.
        -11    1    1    2    0    0  0.57616161726E+02 -0.44103750954E+01 -0.58344627777E+02  0.82116801514E+02  0.00000000000E+00 0.  1.
         11    1    1    2    0    0 -0.24227345961E+02  0.71491710609E+00 -0.10385493493E+03  0.10664578242E+03  0.00000000000E+00 0. -1.
</event>
<event>
 6    1  0.6447971E-006  0.1450814E+03  0.7561462E-02  0.1206651E+00
          1   -1    0    0  501    0  0.00000000000E+00  0.00000000000E+00  0.32904282365E+03  0.32904282365E+03  0.00000000000E+00 0. -1.
         -1   -1    0    0    0  501 -0.00000000000E+00 -0.00000000000E+00 -0.12788706838E+03  0.12788706838E+03  0.00000000000E+00 0.  1.
          5    1    1    2  502    0  0.78964545877E+02 -0.84276340775E+02 -0.60351918534E+02  0.13037533352E+03  0.41800000000E+01 0. -1.
         -5    1    1    2    0  502 -0.37468974076E+02  0.90508870372E+02  0.12700739693E+03  0.16044977691E+03  0.41800000000E+01 0.  1.
        -11    1    1    2    0    0 -0.20228572403E+02 -0.35209377589E+02  0.12112975579E+03  0.12775489482E+03  0.00000000000E+00 0. -1.
         11    1    1    2    0    0 -0.21266999398E+02  0.28976847992E+02  0.13370521076E+02  0.38349886790E+02  0.00000000000E+00 0.  1.
</event>
<event>
 6    1  0.6447971E-006  0.8759767E+02  0.7561462E-02  0.1308776E+00
          2   -1    0    0  501    0  0.00000000000E+00  0.00000000000E+00  0.15137037462E+03  0.15137037462E+03  0.00000000000E+00 0. -1.
         -2   -1    0    0    0  501 -0.00000000000E+00 -0.00000000000E+00 -0.11218495325E+03  0.11218495325E+03  0.00000000000E+00 0.  1.
          5    1    1    2  502    0 -0.15128997445E+01 -0.51467926621E+02 -0.64270567025E+02  0.82458562454E+02  0.41800000000E+01 0. -1.
         -5    1    1    2    0  502 -0.18104662505E+02 -0.35538724246E+01  0.52801932435E+02  0.56088548586E+02  0.41800000000E+01 0. -1.
        -11    1    1    2    0    0  0.13054370830E+02 -0.22932578664E+02 -0.76120727086E+01  0.27463856482E+02  0.00000000000E+00 0.  1.
         11    1    1    2    0    0  0.65631914197E+01  0.77954377709E+02  0.58266128667E+02  0.97544360347E+02  0.00000000000E+00 0. -1.
</event>
<event>
 6    1  0.6447971E-006  0.1568792E+03  0.7561462E-02  0.1192266E+00
         -1   -1    0    0    0  501 -0.00000000000E+00  0.00000000000E+00  0.27275081221E+03  0.27275081221E+03  0.00000000000E+00 0.  1.
          1   -1    0    0  501    0  0.00000000000E+00 -0.00000000000E+00 -0.12167862777E+03  0.12167862777E+03  0.00000000000E+00 0. -1.
          5    1    1    2  502    0 -0.16802396147E+02  0.17299937883E+02  0.47597098436E+02  0.53521626905E+02  0.41800000000E+01 0.  1.
         -5    1    1    2    0  502  0.44436789977E+02 -0.14145099955E+03  0.11226316838E+03  0.18602017350E+03  0.41800000000E+01 0.  1.
        -11    1    1    2    0    0 -0.47136020319E+02  0.84049032411E+02 -0.35745376218E+02  0.10278023245E+03  0.00000000000E+00 0.  1.
         11    1    1    2    0    0  0.19501626489E+02  0.40102029252E+02  0.26957293839E+02  0.52107407122E+02  0.00000000000E+00 0. -1.
</event>
<event>
 6    1  0.6447971E-006  0.1382836E+03  0.7561462E-02  0.1215657E+00
          2   -1    0    0  501    0  0.00000000000E+00  0.00000000000E+00  0.25391942571E+02  0.25391942571E+02  0.00000000000E+00 0. -1.
         -2   -1    0    0    0  501 -0.00000000000E+00 -0.00000000000E+00 -0.86799742890E+03  0.86799742890E+03  0.00000000000E+00 0.  1.
          5    1    1    2  502    0 -0.97851779278E+02  0.54270488912E+02 -0.50763705087E+03  0.51983949878E+03  0.41800000000E+01 0. -1.
         -5    1    1    2    0  502  0.30409509908E+02  0.12130537892E+02 -0.53983414735E+02  0.63273767936E+02  0.41800000000E+01 0. -1.
        -11    1    1    2    0    0 -0.47516277284E+01 -0.58805741108E+02 -0.12794955925E+03  0.14089635505E+03  0.00000000000E+00 0.  1.
         11    1    1    2    0    0  0.72193897098E+02 -0.75952856966E+01 -0.15303546147E+03  0.16937974971E+03  0.00000000000E+00 0. -1.
</event>
<event>
 6    1  0.6447971E-006  0.1660085E+03  0.7561462E-02  0.1182075E+00
          2   -1    0    0  501    0  0.00000000000E+00  0.00000000000E+00  0.82418738088E+02  0.82418738088E+02  0.00000000000E+00 0. -1.
         -2   -1    0    0    0  501 -0.00000000000E+00 -0.00000000000E+00 -0.45694808861E+03  0.45694808861E+03  0.00000000000E+00 0.  1.
          5    1    1    2  502    0  0.10028293125E+03 -0.56963170733E+02 -0.19818187019E+03  0.22933598756E+03  0.41800000000E+01 0.  1.
         -5    1    1    2    0  502  0.42727003464E+02  0.59372339929E+02 -0.93681396386E+02  0.11893001304E+03  0.41800000000E+01 0.  1.
        -11    1    1    2    0    0 -0.42264153833E+02  0.35971115198E+01  0.20209806106E+02  0.46985467683E+02  0.00000000000E+00 0. -1.
         11    1    1    2    0    0 -0.10074578088E+03 -0.60062807156E+01 -0.10287589005E+03  0.14411535840E+03  0.00000000000E+00 0.  1.
</event>
<event>
 6    1  0.6447971E-006  0.1075087E+03  0.7561462E-02  0.1265254E+00
         -2   -1    0    0    0  501 -0.00000000000E+00  0.00000000000E+00  0.22749662419E+02  0.22749662419E+02  0.00000000000E+00 0.  1.
          2   -1    0    0  501    0  0.00000000000E+00 -0.00000000000E+00 -0.64604335565E+03  0.64604335565E+03  0.00000000000E+00 0. -1.
          5    1    1    2  502    0  0.13669442869E+02 -0.76102613955E+02 -0.31537250839E+03  0.32473951557E+03  0.41800000000E+01 0. -1.
         -5    1    1    2    0  502  0.91197734834E+01  0.29773074818E+02 -0.20876579996E+02  0.37721482538E+02  0.41800000000E+01 0. -1.
        -11    1    1    2    0    0  0.34004523768E+02  0.18983474943E+01 -0.75238864631E+02  0.82588123304E+02  0.00000000000E+00 0.  1.
         11    1    1    2    0    0 -0.56793740120E+02  0.44431191643E+02 -0.21180574021E+03  0.22374389666E+03  0.00000000000E+00 0. -1.
</event>
<event>
 6    1  0.6447971E-006  0.1130056E+03  0.7561462E-02  0.1255103E+00
         -2   -1    0    0    0  501 -0.00000000000E+00  0.00000000000E+00  0.10138159942E+03  0.10138159942E+03  0.00000000000E+00 0.  1.
          2   -1    0    0  501    0  0.00000000000E+00 -0.00000000000E+00 -0.17739329119E+03  0.17739329119E+03  0.00000000000E+00 0. -1.
          5    1    1    2  502    0  0.99689627441E+01  0.81052545856E+02 -0.57406595587E+02  0.99909384068E+02  0.41800000000E+01 0. -1.
         -5    1    1    2    0  502  0.47648332636E+02 -0.31325999191E+02  0.51100775844E+00  0.57178801642E+02  0.41800000000E+01 0. -1.
        -11    1    1    2    0    0 -0.50440217573E+02 -0.16498040469E+02  0.30750464446E+02  0.61335079292E+02  0.00000000000E+00 0.  1.
         11    1    1    2    0    0 -0.71770778070E+01 -0.33228506196E+02 -0.49866568388E+02  0.60351625601E+02  0.00000000000E+00 0. -1.
</event>
<event>
 6    1  0.6447971E-006  0.1880963E+03  0.7561462E-02  0.1160190E+00
         -2   -1    0    0    0  501 -0.00000000000E+00  0.00000000000E+00  0.35895043019E+02  0.35895043019E+02  0.00000000000E+00 0.  1.
          2   -1    0    0  501    0  0.00000000000E+00 -0.00000000000E+00 -0.10555196291E+04  0.10555196291E+04  0.00000000000E+00 0. -1.
          5    1    1    2  502    0  0.14770554027E+02 -0.62166173468E+02 -0.11461613142E+03  0.13129026001E+03  0.41800000000E+01 0. -1.
         -5    1    1    2    0  502  0.12764847275E+03 -0.86748141887E+01 -0.48207471311E+03  0.49878140143E+03  0.41800000000E+01 0. -1.
        -11    1    1    2    0    0 -0.13454638811E+03  0.24024679024E+02 -0.30569756469E+03  0.33485954789E+03  0.00000000000E+00 0.  1.
         11    1    1    2    0    0 -0.78726386629E+01  0.46816308633E+02 -0.11723617683E+03  0.12648346275E+03  0.00000000000E+00 0. -1.
</event>
<event>
 6    1  0.6447971E-006  0.1505714E+03  0.7561462E-02  0.1199773E+00
          2   -1    0    0  501    0  0.00000000000E+00  0.00000000000E+00  0.73851689796E+02  0.73851689796E+02  0.00000000000E+00 0.  1.
         -2   -1    0    0    0  501 -0.00000000000E+00 -0.00000000000E+00 -0.40767231688E+03  0.40767231688E+03  0.00000000000E+00 0. -1.
          5    1    1    2  502    0 -0.13830071300E+03  0.17441116195E+02 -0.96024076332E+02  0.16932033365E+03  0.41800000000E+01 0. -1.
         -5    1    1    2    0  502  0.62629372848E+01  0.81245981445E+01 -0.95119122763E+02  0.95761962144E+02  0.41800000000E+01 0. -1.
        -11    1    1    2    0    0  0.55053225214E+02  0.22911671997E+02 -0.18363222827E+02  0.62393992281E+02  0.00000000000E+00 0.  1.
         11    1    1    2    0    0  0.76984550502E+02 -0.48477386337E+02 -0.12431420516E+03  0.15404771860E+03  0.00000000000E+00 0. -1.
</event>
<event>
 6    1  0.6447971E-006  0.1888507E+03  0.7561462E-02  0.1159502E+00
         -2   -1    0    0    0  501 -0.00000000000E+00  0.00000000000E+00  0.52389837836E+02  0.52389837836E+02  0.00000000000E+00 0.  1.
          2   -1    0    0  501    0  0.00000000000E+00 -0.00000000000E+00 -0.99201599207E+03  0.99201599207E+03  0.00000000000E+00 0. -1.
          5    1    1    2  502    0 -0.48967886009E+02  0.16420952706E+02 -0.86883002137E+01  0.52540084779E+02  0.41800000000E+01 0.  1.
         -5    1    1    2    0  502 -0.54175811720E+02  0.11787258135E+03 -0.24406824706E+03  0.27643398060E+03  0.41800000000E+01 0.  1.
        -11    1    1    2    0    0  0.98831911474E+02 -0.48324296804E+02 -0.31267326225E+03  0.33146274800E+03  0.00000000000E+00 0.  1.
         11    1    1    2    0    0  0.43117862557E+01 -0.85969237250E+02 -0.37419634471E+03  0.38396901652E+03  0.00000000000E+00 0. -1.
</event>
<event>
 6    1  0.6447971E-006  0.1044479E+03  0.7561462E-02  0.1271211E+00
          3   -1    0    0  501    0  0.00000000000E+00  0.00000000000E+00  0.48578195723E+02  0.48578195723E+02  0.00000000000E+00 0. -1.
         -3   -1    0    0    0  501 -0.00000000000E+00 -0.00000000000E+00 -0.35954263211E+03  0.35954263211E+03  0.00000000000E+00 0.  1.
          5    1    1    2  502    0 -0.61048476338E+02  0.31452526154E+02 -0.40136825307E+02  0.79653091656E+02  0.41800000000E+01 0.  1.
         -5    1    1    2    0  502 -0.17629679575E+01 -0.61353533593E+02 -0.12183520252E+03  0.13648682396E+03  0.41800000000E+01 0.  1.
        -11    1    1    2    0    0  0.33887695543E+02 -0.38711604521E+01  0.24012414101E+01  0.34192510185E+02  0.00000000000E+00 0. -1.
         11    1    1    2    0    0  0.28923748753E+02  0.33772167891E+02 -0.15139364997E+03  0.15778840204E+03  0.00000000000E+00 0.  1.
</event>
<event>
 6    1  0.6447971E-006  0.8763809E+02  0.7561462E-02  0.1308674E+00
          1   -1    0    0  501    0  0.00000000000E+00  0.00000000000E+00  0.27121089455E+03  0.27121089455E+03  0.00000000000E+00 0. -1.
         -1   -1    0    0    0  501 -0.00000000000E+00 -0.00000000000E+00 -0.43827860869E+02  0.43827860869E+02  0.00000000000E+00 0.  1.
          5    1    1    2  502    0 -0.61144989653E+02  0.73546225186E+01  0.28173891314E+02  0.67853082346E+02  0.41800000000E+01 0.  1.
         -5    1    1    2    0  502  0.56135117965E+02 -0.82507334426E+01  0.76489633723E+02  0.95327658832E+02  0.41800000000E+01 0.  1.
        -11    1    1    2    0    0 -0.18165089211E+00 -0.27645891295E+02  0.20189644193E+01  0.27720110387E+02  0.00000000000E+00 0.  1.
         11    1    1    2    0    0  0.51915225801E+01  0.28542002219E+02  0.12070054422E+03  0.12413790385E+03  0.00000000000E+00 0. -1.
</event>
<event>
 6    1  0.6447971E-006  0.9961151E+02  0.7561462E-02  0.1281115E+00
         -1   -1    0    0    0  501 -0.00000000000E+00  0.00000000000E+00  0.49103235270E+02  0.49103235270E+02  0.00000000000E+00 0.  1.
          1   -1    0    0  501    0  0.00000000000E+00 -0.00000000000E+00 -0.32739752999E+03  0.32739752999E+03  0.00000000000E+00 0. -1.
          5    1    1    2  502    0 -0.27733593219E+02 -0.61852823442E+02 -0.40577658228E+02  0.79113479938E+02  0.41800000000E+01 0. -1.
         -5    1    1    2    0  502  0.57036560086E+02  0.28426327681E+02 -0.57552860555E+02  0.85971096596E+02  0.41800000000E+01 0. -1.
        -11    1    1    2    0    0  0.24524947931E+01 -0.11872280233E+02  0.85019604064E+01  0.14807062484E+02  0.00000000000E+00 0.  1.
         11    1    1    2    0    0 -0.31755461660E+02  0.45298775995E+02 -0.18866573634E+03  0.19660912624E+03  0.00000000000E+00 0. -1.
</event>
<event>
 6    1  0.6447971E-006  0.1106607E+03  0.7561462E-02  0.1259351E+00
         -1   -1    0    0    0  501 -0.00000000000E+00  0.00000000000E+00  0.89155686831E+02  0.89155686831E+02  0.00000000000E+00 0.  1.
          1   -1    0    0  501    0  0.00000000000E+00 -0.00000000000E+00 -0.15403421506E+03  0.15403421506E+03  0.00000000000E+00 0. -1.
          5    1    1    2  502    0  0.57983223460E+02  0.15270987768E+02  0.69666209458E+01  0.60508375269E+02  0.41800000000E+01 0.  1.
         -5    1    1    2    0  502 -0.66054918515E+02  0.84376921252E+01 -0.67537925267E+01  0.67063649035E+02  0.41800000000E+01 0.  1.
        -11    1    1    2    0    0  0.49452936240E+02 -0.18432963637E+02 -0.44805870818E+02  0.69231012639E+02  0.00000000000E+00 0. -1.
         11    1    1    2    0    0 -0.41381241185E+02 -0.52757162565E+01 -0.20285485825E+02  0.46386864943E+02  0.00000000000E+00 0.  1.
</event>
<event>
 6    1  0.6447971E-006  0.1697492E+03  0.7561462E-02  0.1178110E+00
          1   -1    0    0  501    0  0.00000000000E+00  0.00000000000E+00  0.24630839012E+03  0.24630839012E+03  0.00000000000E+00 0. -1.
         -1   -1    0    0    0  501 -0.00000000000E+00 -0.00000000000E+00 -0.13975647953E+03  0.13975647953E+03  0.00000000000E+00 0.  1.
          5    1    1    2  502    0  0.22721470023E+02  0.86051626823E+02  0.48184821091E+02  0.10129361807E+03  0.41800000000E+01 0. -1.
         -5    1    1    2    0  502 -0.86176934397E+02  0.49423068307E+02 -0.60932362289E+00  0.99433130184E+02  0.41800000000E+01 0. -1.
        -11    1    1    2    0    0  0.63017068463E+02 -0.12046461690E+03  0.81320527129E+02  0.15841686455E+03  0.00000000000E+00 0. -1.
         11    1    1    2    0    0  0.43839591131E+00 -0.15010078229E+02 -0.22344114006E+02  0.26921256845E+02  0.00000000000E+00 0.  1.
</event>
<event>
 6    1  0.6447971E-006  0.2601914E+03  0.7561462E-02  0.1107028E+00
          2   -1    0    0  501    0  0.00000000000E+00  0.00000000000E+00  0.14031415641E+04  0.14031415641E+04  0.00000000000E+00 0. -1.
         -2   -1    0    0    0  501 -0.00000000000E+00 -0.00000000000E+00 -0.50698647583E+02  0.50698647583E+02  0.00000000000E+00 0.  1.
          5    1    1    2  502    0  0.89236735010E+02  0.93832565453E+02  0.41792171579E+03  0.43754288721E+03  0.41800000000E+01 0. -1.
         -5    1    1    2    0  502  0.13235258863E+03  0.48047082625E+01  0.22873324445E+03  0.26434194230E+03  0.41800000000E+01 0. -1.
        -11    1    1    2    0    0 -0.34982189733E+02 -0.57384667323E+02  0.21549782588E+03  0.22573450468E+03  0.00000000000E+00 0.  1.
         11    1    1    2    0    0 -0.18660713391E+03 -0.41252606392E+02  0.49029013036E+03  0.52622087748E+03  0.00000000000E+00 0. -1.
</event>
<event>
 6    1  0.6447971E-006  0.1475977E+03  0.7561462E-02  0.1203456E+00
         -2   -1    0    0    0  501 -0.00000000000E+00  0.00000000000E+00  0.45656405980E+03  0.45656405980E+03  0.00000000000E+00 0.  1.
          2   -1    0    0  501    0  0.00000000000E+00 -0.00000000000E+00 -0.49746880547E+02  0.49746880547E+02  0.00000000000E+00 0. -1.
          5    1    1    2  502    0 -0.15732524922E+02 -0.96538702894E+02  0.13101822899E+03  0.16355574653E+03  0.41800000000E+01 0. -1.
         -5    1    1    2    0  502  0.63917049712E+02  0.47030183742E+01  0.10145991360E+03  0.12007953237E+03  0.41800000000E+01 0. -1.
        -11    1    1    2    0    0  0.21598894980E+02  0.59453030162E+01  0.57676874180E+02  0.61874717838E+02  0.00000000000E+00 0.  1.
         11    1    1    2    0    0 -0.69783419770E+02  0.85890381503E+02  0.11666216248E+03  0.16080094360E+03  0.00000000000E+00 0. -1.
</event>
<event>
 6    1  0.6447971E-006  0.7543246E+02  0.7561462E-02  0.1342537E+00
          1   -1    0    0  501    0  0.00000000000E+00  0.00000000000E+00  0.66542949217E+02  0.66542949217E+02  0.00000000000E+00 0. -1.
         -1   -1    0    0    0  501 -0.00000000000E+00 -0.00000000000E+00 -0.25319622855E+03  0.25319622855E+03  0.00000000000E+00 0.  1.
          5    1    1    2  502    0  0.14178289322E+02 -0.20147947524E+02  0.57916024774E+01  0.25651096210E+02  0.41800000000E+01 0. -1.
         -5    1    1    2    0  502 -0.29504221639E+02  0.14897254163E+02 -0.19851337130E+03  0.20128948870E+03  0.41800000000E+01 0.  1.
        -11    1    1    2    0    0  0.51760030385E+02 -0.10590079278E+02  0.21318192840E+01  0.52875279461E+02  0.00000000000E+00 0. -1.
         11    1    1    2    0    0 -0.36434098068E+02  0.15840772639E+02  0.39366702091E+01  0.39923313392E+02  0.00000000000E+00 0.  1.
</event>
<event>
 6    1  0.6447971E-006  0.1293807E+03  0.7561462E-02  0.1228378E+00
          1   -1    0    0  501    0  0.00000000000E+00  0.00000000000E+00  0.66345449363E+03  0.66345449363E+03  0.00000000000E+00 0. -1.
         -1   -1    0    0    0  501 -0.00000000000E+00 -0.00000000000E+00 -0.31728503940E+02  0.31728503940E+02  0.00000000000E+00 0.  1.
          5    1    1    2  502    0 -0.36168435277E+02 -0.13480673868E+02  0.88120511966E+02  0.96294243377E+02  0.41800000000E+01 0.  1.
         -5    1    1    2    0  502  0.49341454967E+02  0.92399522752E+02  0.11956460923E+03  0.15901389613E+03  0.41800000000E+01 0.  1.
        -11    1    1    2    0    0  0.10144604620E+00  0.17638740242E+02  0.98108071501E+02  0.99681137345E+02  0.00000000000E+00 0.  1.
         11    1    1    2    0    0 -0.13274465736E+02 -0.96557589125E+02  0.32593279699E+03  0.34019372071E+03  0.00000000000E+00 0. -1.
</event>
<event>
 6    1  0.6447971E-006  0.1359713E+03  0.7561462E-02  0.1218855E+00
         -1   -1    0    0    0  501 -0.00000000000E+00  0.00000000000E+00  0.57854210248E+02  0.57854210248E+02  0.00000000000E+00 0.  1.
          1   -1    0    0  501    0  0.00000000000E+00 -0.00000000000E+00 -0.39808493138E+03  0.39808493138E+03  0.00000000000E+00 0. -1.
          5    1    1    2  502    0  0.47632612068E+02  0.35811554732E+01 -0.13675963357E+02  0.49861756695E+02  0.41800000000E+01 0. -1.
         -5    1    1    2    0  502 -0.48444015136E+02 -0.87512593080E+02 -0.73366584114E+02  0.12411851036E+03  0.41800000000E+01 0. -1.
        -11    1    1    2    0    0  0.41115323935E+02  0.14498881184E+02 -0.81518319601E+02  0.92444166114E+02  0.00000000000E+00 0. -1.
         11    1    1    2    0    0 -0.40303920867E+02  0.69432556423E+02 -0.17166985406E+03  0.18951470846E+03  0.00000000000E+00 0.  1.
</event>
<event>
 6    1  0.6447971E-006  0.2660271E+03  0.7561462E-02  0.1103575E+00
         -2   -1    0    0    0  501 -0.00000000000E+00  0.00000000000E+00  0.93798679239E+02  0.93798679239E+02  0.00000000000E+00 0.  1.
          2   -1    0    0  501    0  0.00000000000E+00 -0.00000000000E+00 -0.95838249451E+03  0.95838249451E+03  0.00000000000E+00 0. -1.
          5    1    1    2  502    0 -0.54416183014E+01  0.15010456251E+02 -0.39589790785E+02  0.42892294658E+02  0.41800000000E+01 0.  1.
         -5    1    1    2    0  502  0.25355194985E+03 -0.99733538643E+01 -0.17615834761E+03  0.30892927167E+03  0.41800000000E+01 0.  1.
        -11    1    1    2    0    0 -0.24537037168E+02 -0.27751203932E+02 -0.65737078198E+02  0.75455675484E+02  0.00000000000E+00 0.  1.
         11    1    1    2    0    0 -0.22357329439E+03  0.22714101546E+02 -0.58309859868E+03  0.62490393194E+03  0.00000000000E+00 0. -1.
</event>
<event>
 6    1  0.6447971E-006  0.1024984E+03  0.7561462E-02  0.1275128E+00
         -1   -1    0    0    0  501 -0.00000000000E+00  0.00000000000E+00  0.24890412737E+03  0.24890412737E+03  0.00000000000E+00 0.  1.
          1   -1    0    0  501    0  0.00000000000E+00 -0.00000000000E+00 -0.52833216766E+02  0.52833216766E+02  0.00000000000E+00 0. -1.
          5    1    1    2  502    0  0.35721957612E+02 -0.27547732452E+02  0.10742568905E+03  0.11658767897E+03  0.41800000000E+01 0. -1.
         -5    1    1    2    0  502 -0.63769301030E+02  0.76600819721E+01  0.25724174835E+02  0.69313823878E+02  0.41800000000E+01 0. -1.
        -11    1    1    2    0    0  0.13508741155E+02  0.55364863447E+02  0.26113755008E+02  0.62687178854E+02  0.00000000000E+00 0. -1.
         11    1    1    2    0    0  0.14538602262E+02 -0.35477212966E+02  0.36807291706E+02  0.53148662432E+02  0.00000000000E+00 0.  1.
</event>
<event>
 6    1  0.6447971E-006  0.8435280E+02  0.7561462E-02  0.1317134E+00
          1   -1    0    0  501    0  0.00000000000E+00  0.00000000000E+00  0.42179667875E+02  0.42179667875E+02  0.00000000000E+00 0. -1.
         -1   -1    0    0    0  501 -0.00000000000E+00 -0.00000000000E+00 -0.29758930772E+03  0.29758930772E+03  0.00000000000E+00 0.  1.
          5    1    1    2  502    0 -0.19370449304E+02  0.20008118393E+02  0.64372822894E+01  0.28886850143E+02  0.41800000000E+01 0. -1.
         -5    1    1    2    0  502 -0.18464129085E+01 -0.45329824615E+02 -0.17537720679E+03  0.18119834244E+03  0.41800000000E+01 0.  1.
        -11    1    1    2    0    0  0.47400445996E+02 -0.12466529434E+02 -0.56540659192E+02  0.74826885400E+02  0.00000000000E+00 0.  1.
         11    1    1    2    0    0 -0.26183583783E+02  0.37788235656E+02 -0.29929056148E+02  0.54856897612E+02  0.00000000000E+00 0. -1.
</event>
<event>
 6    1  0.6447971E-006  0.1442449E+03  0.7561462E-02  0.1207729E+00
          1   -1    0    0  501    0  0.00000000000E+00  0.00000000000E+00  0.22090417305E+03  0.22090417305E+03  0.00000000000E+00 0. -1.
         -1   -1    0    0    0  501 -0.00000000000E+00 -0.00000000000E+00 -0.10847103663E+03  0.10847103663E+03  0.00000000000E+00 0.  1.
          5    1    1    2  502    0  0.85117674181E+02  0.48891934210E+01 -0.11774783218E+02  0.86168675225E+02  0.41800000000E+01 0. -1.
         -5    1    1    2    0  502 -0.14131787483E+02  0.73627344799E+02  0.20921156433E+02  0.77947806295E+02  0.41800000000E+01 0. -1.
        -11    1    1    2    0    0  0.78478501617E+01 -0.39143748922E+02  0.23144717918E+02  0.46146503652E+02  0.00000000000E+00 0.  1.
         11    1    1    2    0    0 -0.78833736860E+02 -0.39372789298E+02  0.80142045291E+02  0.11911222451E+03  0.00000000000E+00 0. -1.
</event>
<event>
 6    1  0.6447971E-006  0.8853899E+02  0.7561462E-02  0.1306429E+00
          4   -1    0    0  501    0  0.00000000000E+00  0.00000000000E+00  0.47466380941E+02  0.47466380941E+02  0.00000000000E+00 0. -1.
         -4   -1    0    0    0  501 -0.00000000000E+00 -0.00000000000E+00 -0.28638332493E+03  0.28638332493E+03  0.00000000000E+00 0.  1.
          5    1    1    2  502    0 -0.53970554696E+02  0.20815355421E+02 -0.12248961930E+02  0.59275705511E+02  0.41800000000E+01 0. -1.
         -5    1    1    2    0  502  0.15105935809E+02 -0.32682039372E+02 -0.12784607462E+03  0.13288489828E+03  0.41800000000E+01 0. -1.
        -11    1    1    2    0    0  0.33368476585E+02  0.41185201834E+02 -0.18722504678E+02  0.56215729659E+02  0.00000000000E+00 0.  1.
         11    1    1    2    0    0  0.54961423018E+01 -0.29318517882E+02 -0.80099402761E+02  0.85473372425E+02  0.00000000000E+00 0. -1.
</event>
<event>
 6    1  0.6447971E-006  0.1115682E+03  0.7561462E-02  0.1257693E+00
         -2   -1    0    0    0  501 -0.00000000000E+00  0.00000000000E+00  0.69020087245E+02  0.69020087245E+02  0.00000000000E+00 0. -1.
          2   -1    0    0  501    0  0.00000000000E+00 -0.00000000000E+00 -0.20932768236E+03  0.20932768236E+03  0.00000000000E+00 0.  1.
          5    1    1    2  502    0  0.90800842573E+01 -0.43711650753E+02  0.29628318642E+01  0.44937813857E+02  0.41800000000E+01 0.  1.
         -5    1    1    2    0  502 -0.58835366396E+02  0.47929984955E+02 -0.79472792851E+02  0.10996490804E+03  0.41800000000E+01 0.  1.
        -11    1    1    2    0    0 -0.20632187056E+02 -0.21518527424E+02 -0.33613830382E+02  0.44929097011E+02  0.00000000000E+00 0.  1.
         11    1    1    2    0    0  0.70387469194E+02  0.17300193222E+02 -0.30183803744E+02  0.78515950695E+02  0.00000000000E+00 0. -1.
</event>
<event>
 6    1  0.6447971E-006  0.1097688E+03  0.7561462E-02  0.1260999E+00
         -1   -1    0    0    0  501 -0.00000000000E+00  0.00000000000E+00  0.20009667336E+02  0.20009667336E+02  0.00000000000E+00 0.  1.
          1   -1    0    0  501    0  0.00000000000E+00 -0.00000000000E+00 -0.76319199659E+03  0.76319199659E+03  0.00000000000E+00 0. -1.
          5    1    1    2  502    0  0.39612493246E+02 -0.16835177452E+01 -0.63584373743E+02  0.75049509242E+02  0.41800000000E+01 0.  1.
         -5    1    1    2    0  502 -0.72463750040E+02  0.50189514703E+02 -0.35154965594E+03  0.36245636350E+03  0.41800000000E+01 0.  1.
        -11    1    1    2    0    0 -0.43415573054E+01 -0.53694752862E+02 -0.27774636292E+03  0.28292228212E+03  0.00000000000E+00 0. -1.
         11    1    1    2    0    0  0.37192814100E+02  0.51887559049E+01 -0.50301936661E+02  0.62773509065E+02  0.00000000000E+00 0.  1.
</event>
<event>
 6    1  0.6447971E-006  0.8762133E+02  0.7561462E-02  0.1308716E+00
         -1   -1    0    0    0  501 -0.00000000000E+00  0.00000000000E+00  0.37018495532E+02  0.37018495532E+02  0.00000000000E+00 0.  1.
          1   -1    0    0  501    0  0.00000000000E+00 -0.00000000000E+00 -0.31619133409E+03  0.31619133409E+03  0.00000000000E+00 0. -1.
          5    1    1    2  502    0 -0.22698870759E+02  0.53710425187E+02 -0.11809424412E+03  0.13177166388E+03  0.41800000000E+01 0.  1.
         -5    1    1    2    0  502  0.39460329490E+02 -0.40014505381E+02 -0.31976858724E+02  0.64794059436E+02  0.41800000000E+01 0.  1.
        -11    1    1    2    0    0  0.11402041306E+02  0.15905825592E+02  0.16665092261E+01  0.19641259804E+02  0.00000000000E+00 0.  1.
         11    1    1    2    0    0 -0.28163500037E+02 -0.29601745398E+02 -0.13076824494E+03  0.13700284651E+03  0.00000000000E+00 0. -1.
</event>
<event>
 6    1  0.6447971E-006  0.1343517E+03  0.7561462E-02  0.1221138E+00
         -3   -1    0    0    0  501 -0.00000000000E+00  0.00000000000E+00  0.90280170757E+02  0.90280170757E+02  0.00000000000E+00 0.  1.
          3   -1    0    0  501    0  0.00000000000E+00 -0.00000000000E+00 -0.21872545609E+03  0.21872545609E+03  0.00000000000E+00 0. -1.
          5    1    1    2  502    0  0.19000139809E+02  0.78870056945E+02 -0.31223705719E+02  0.87028060958E+02  0.41800000000E+01 0. -1.
         -5    1    1    2    0  502  0.58071565375E+02 -0.37493896808E+02 -0.53823914454E+02  0.87707383783E+02  0.41800000000E+01 0. -1.
        -11    1    1    2    0    0 -0.34637025733E+02  0.22666101233E+02  0.75632988552E+01  0.42079438998E+02  0.00000000000E+00 0.  1.
         11    1    1    2    0    0 -0.42434679451E+02 -0.64042261371E+02 -0.50960964018E+02  0.92190743110E+02  0.00000000000E+00 0. -1.
</event>
<event>
 6    1  0.6447971E-006  0.8445371E+02  0.7561462E-02  0.1316867E+00
         -1   -1    0    0    0  501 -0.00000000000E+00  0.00000000000E+00  0.83956294502E+02  0.83956294502E+02  0.00000000000E+00 0.  1.
          1   -1    0    0  501    0  0.00000000000E+00 -0.00000000000E+00 -0.16010823889E+03  0.16010823889E+03  0.00000000000E+00 0. -1.
          5    1    1    2  502    0  0.10881178473E+02  0.22587710863E+02  0.32914374027E+02  0.41586453859E+02  0.41800000000E+01 0.  1.
         -5    1    1    2    0  502  0.81702373436E+01 -0.56780007340E+02 -0.78234926485E+02  0.97102513531E+02  0.41800000000E+01 0.  1.
        -11    1    1    2    0    0  0.22155743809E+02 -0.11065587150E+02  0.14961693444E+02  0.28934002029E+02  0.00000000000E+00 0.  1.
         11    1    1    2    0    0 -0.41207159625E+02  0.45257883627E+02 -0.45793085370E+02  0.76441563972E+02  0.00000000000E+00 0. -1.
</event>
<event>
 6    1  0.6447971E-006  0.8183372E+02  0.7561462E-02  0.1323927E+00
          1   -1    0    0  501    0  0.00000000000E+00  0.00000000000E+00  0.38304267359E+03  0.38304267359E+03  0.00000000000E+00 0. -1.
         -1   -1    0    0    0  501 -0.00000000000E+00 -0.00000000000E+00 -0.42160647877E+02  0.42160647877E+02  0.00000000000E+00 0.  1.
          5    1    1    2  502    0 -0.10976946576E+02 -0.28118765874E+01  0.19814889971E+03  0.19851664631E+03  0.41800000000E+01 0.  1.
         -5    1    1    2    0  502 -0.54197957104E+02 -0.28053225614E+01  0.13825122622E+02  0.56159547758E+02  0.41800000000E+01 0.  1.
        -11    1    1    2    0    0 -0.55486446034E+01  0.23551579206E+02  0.21774991762E+01  0.24294152438E+02  0.00000000000E+00 0.  1.
         11    1    1    2    0    0  0.70723548283E+02 -0.17934380057E+02  0.12673050421E+03  0.14623297496E+03  0.00000000000E+00 0. -1.
</event>
<event>
 6    1  0.6447971E-006  0.1224321E+03  0.7561462E-02  0.1239138E+00
         -2   -1    0    0    0  501 -0.00000000000E+00  0.00000000000E+00  0.90728652743E+02  0.90728652743E+02  0.00000000000E+00 0. -1.
          2   -1    0    0  501    0  0.00000000000E+00 -0.00000000000E+00 -0.19278467921E+03  0.19278467921E+03  0.00000000000E+00 0.  1.
          5    1    1    2  502    0  0.33073321653E+02 -0.11409169241E+02 -0.43223147395E+02  0.55764922834E+02  0.41800000000E+01 0. -1.
         -5    1    1    2    0  502 -0.48132798212E+02  0.85053906779E+02 -0.50566489130E+01  0.97948840832E+02  0.41800000000E+01 0. -1.
        -11    1    1    2    0    0  0.49156282648E+02 -0.35414991021E+02 -0.49788666933E+02  0.78418576037E+02  0.00000000000E+00 0.  1.
         11    1    1    2    0    0 -0.34096806089E+02 -0.38229746518E+02 -0.39875632270E+01  0.51380992252E+02  0.00000000000E+00 0. -1.
</event>
<event>
 6    1  0.6447971E-006  0.1132291E+03  0.7561462E-02  0.1254704E+00
          1   -1    0    0  501    0  0.00000000000E+00  0.00000000000E+00  0.90678619910E+03  0.90678619910E+03  0.00000000000E+00 0. -1.
         -1   -1    0    0    0  501 -0.00000000000E+00 -0.00000000000E+00 -0.14497991614E+02  0.14497991614E+02  0.00000000000E+00 0.  1.
          5    1    1    2  502    0  0.34344521856E+02  0.58165209960E+02  0.23758791915E+03  0.24703892316E+03  0.41800000000E+01 0. -1.
         -5    1    1    2    0  502 -0.53982740021E+02 -0.26934942163E+02  0.20916840834E+03  0.21773498289E+03  0.41800000000E+01 0.  1.
        -11    1    1    2    0    0  0.33263985622E+02  0.24258294078E+02  0.22243717843E+03  0.22621506564E+03  0.00000000000E+00 0. -1.
         11    1    1    2    0    0 -0.13625767457E+02 -0.55488561875E+02  0.22309470157E+03  0.23029521902E+03  0.00000000000E+00 0.  1.
</event>
<event>
 6    1  0.6447971E-006  0.1531391E+03  0.7561462E-02  0.1196668E+00
          2   -1    0    0  501    0  0.00000000000E+00  0.00000000000E+00  0.21722057803E+03  0.21722057803E+03  0.00000000000E+00 0. -1.
         -2   -1    0    0    0  501 -0.00000000000E+00 -0.00000000000E+00 -0.13439834661E+03  0.13439834661E+03  0.00000000000E+00 0.  1.
          5    1    1    2  502    0 -0.85767803451E+02 -0.26413991430E+02  0.16957873699E+01  0.89856347282E+02  0.41800000000E+01 0. -1.
         -5    1    1    2    0  502  0.27242450841E+02 -0.76852077919E+02 -0.15849778570E+02  0.83168989949E+02  0.41800000000E+01 0. -1.
        -11    1    1    2    0    0  0.68223229036E+02  0.61288569971E+02  0.25588534140E+02  0.95212766311E+02  0.00000000000E+00 0. -1.
         11    1    1    2    0    0 -0.96978764262E+01  0.41977499378E+02  0.71387688472E+02  0.83380821096E+02  0.00000000000E+00 0.  1.
</event>
<event>
 6    1  0.6447971E-006  0.9384409E+02  0.7561462E-02  0.1293801E+00
          1   -1    0    0  501    0  0.00000000000E+00  0.00000000000E+00  0.62811601268E+03  0.62811601268E+03  0.00000000000E+00 0. -1.
         -1   -1    0    0    0  501 -0.00000000000E+00 -0.00000000000E+00 -0.20734550194E+02  0.20734550194E+02  0.00000000000E+00 0.  1.
          5    1    1    2  502    0  0.40617110481E+02  0.11125150175E+02  0.28198895701E+02  0.50854387707E+02  0.41800000000E+01 0.  1.
         -5    1    1    2    0  502 -0.52096918332E+02  0.14429892527E+02  0.24500798513E+03  0.25093564091E+03  0.41800000000E+01 0.  1.
        -11    1    1    2    0    0  0.46924626416E+02 -0.29589133608E+02  0.16217974896E+03  0.17140510018E+03  0.00000000000E+00 0.  1.
         11    1    1    2    0    0 -0.35444818565E+02  0.40340909051E+01  0.17199483269E+03  0.17565543408E+03  0.00000000000E+00 0. -1.
</event>
<event>
 6    1  0.6447971E-006  0.9427206E+02  0.7561462E-02  0.1292824E+00
         -1   -1    0    0    0  501 -0.00000000000E+00  0.00000000000E+00  0.75161221653E+03  0.75161221653E+03  0.00000000000E+00 0.  1.
          1   -1    0    0  501    0  0.00000000000E+00 -0.00000000000E+00 -0.23972425824E+02  0.23972425824E+02  0.00000000000E+00 0. -1.
          5    1    1    2  502    0 -0.15978891310E+02 -0.33834000254E+02  0.55777613104E+02  0.67295460949E+02  0.41800000000E+01 0. -1.
         -5    1    1    2    0  502 -0.27233091078E+02  0.57470162129E+02  0.52412148470E+03  0.52798225719E+03  0.41800000000E+01 0. -1.
        -11    1    1    2    0    0 -0.17012314367E+02 -0.20797855324E+02  0.99580866614E+02  0.10314222521E+03  0.00000000000E+00 0.  1.
         11    1    1    2    0    0  0.60224296754E+02 -0.28383065508E+01  0.48159826286E+02  0.77164698999E+02  0.00000000000E+00 0. -1.
</event>
<event>
 6    1  0.6447971E-006  0.1704511E+03  0.7561462E-02  0.1177378E+00
          1   -1    0    0  501    0  0.00000000000E+00  0.00000000000E+00  0.25081383717E+03  0.25081383717E+03  0.00000000000E+00 0. -1.
         -1   -1    0    0    0  501 -0.00000000000E+00 -0.00000000000E+00 -0.34023035986E+03  0.34023035986E+03  0.00000000000E+00 0.  1.
          5    1    1    2  502    0  0.55071287115E+02 -0.17534059188E+02 -0.19648564323E+02  0.61186831721E+02  0.41800000000E+01 0. -1.
         -5    1    1    2    0  502  0.10078093804E+03  0.62554959480E+02 -0.24364303220E+03  0.27101535006E+03  0.41800000000E+01 0.  1.
        -11    1    1    2    0    0 -0.16446465627E+02 -0.13651536927E+02 -0.11904883339E+02  0.24465832081E+02  0.00000000000E+00 0.  1.
         11    1    1    2    0    0 -0.13940575953E+03 -0.31369363365E+02  0.18577995718E+03  0.23437618317E+03  0.00000000000E+00 0. -1.
</event>
<event>
 6    1  0.6447971E-006  0.6574461E+02  0.7561462E-02  0.1375192E+00
         -2   -1    0    0    0  501 -0.00000000000E+00  0.00000000000E+00  0.32582555716E+02  0.32582555716E+02  0.00000000000E+00 0.  1.
          2   -1    0    0  501    0  0.00000000000E+00 -0.00000000000E+00 -0.36081635343E+03  0.36081635343E+03  0.00000000000E+00 0. -1.
          5    1    1    2  502    0 -0.35376856014E+02 -0.13991085572E+02 -0.17067496801E+03  0.17491337720E+03  0.41800000000E+01 0.  1.
         -5    1    1    2    0  502  0.33663524714E+02  0.14926597335E+02 -0.44718452327E+00  0.37063574817E+02  0.41800000000E+01 0.  1.
        -11    1    1    2    0    0  0.21712020219E+02 -0.19266344476E+02 -0.83469498452E+01  0.30203897483E+02  0.00000000000E+00 0.  1.
         11    1    1    2    0    0 -0.19998688919E+02  0.18330832712E+02 -0.14876469534E+03  0.15121805965E+03  0.00000000000E+00 0. -1.
</event>
<event>
 6    1  0.6447971E-006  0.1039778E+03  0.7561462E-02  0.1272147E+00
          2   -1    0    0  501    0  0.00000000000E+00  0.00000000000E+00  0.16086739690E+03  0.16086739690E+03  0.00000000000E+00 0. -1.
         -2   -1    0    0    0  501 -0.00000000000E+00 -0.00000000000E+00 -0.83604378027E+02  0.83604378027E+02  0.00000000000E+00 0.  1.
          5    1    1    2  502    0  0.33557785120E+02  0.56497412060E+02  0.40829949436E+01  0.65971401071E+02  0.41800000000E+01 0.  1.
         -5    1    1    2    0  502 -0.41362848990E+02 -0.43329898390E+02 -0.17253129125E+01  0.60073409057E+02  0.41800000000E+01 0.  1.
        -11    1    1    2    0    0 -0.35826695010E+02 -0.13888290090E+02  0.91328087093E+01  0.39494871463E+02  0.00000000000E+00 0.  1.
         11    1    1    2    0    0  0.43631758879E+02  0.72077642071E+00  0.65772528135E+02  0.78932093339E+02  0.00000000000E+00 0. -1.
</event>
<event>
 6    1  0.6447971E-006  0.1004481E+03  0.7561462E-02  0.1279356E+00
         -1   -1    0    0    0  501 -0.00000000000E+00  0.00000000000E+00  0.14202690570E+03  0.14202690570E+03  0.00000000000E+00 0.  1.
          1   -1    0    0  501    0  0.00000000000E+00 -0.00000000000E+00 -0.90555084091E+02  0.90555084091E+02  0.00000000000E+00 0. -1.
          5    1    1    2  502    0  0.48608738926E+02  0.11655434213E+02  0.61942711429E+01  0.50542062103E+02  0.41800000000E+01 0. -1.
         -5    1    1    2    0  502 -0.40657381786E+02 -0.57290551275E+02  0.45163051048E+02  0.83620592792E+02  0.41800000000E+01 0.  1.
        -11    1    1    2    0    0 -0.75679824782E+01 -0.16537030151E+02 -0.25378875180E+02  0.31222348253E+02  0.00000000000E+00 0.  1.
         11    1    1    2    0    0 -0.38337466218E+00  0.62172147213E+02  0.25493374596E+02  0.67196986640E+02  0.00000000000E+00 0. -1.
</event>
<event>
 6    1  0.6447971E-006  0.1103588E+03  0.7561462E-02  0.1259907E+00
         -1   -1    0    0    0  501 -0.00000000000E+00  0.00000000000E+00  0.25050521545E+02  0.25050521545E+02  0.00000000000E+00 0.  1.
          1   -1    0    0  501    0  0.00000000000E+00 -0.00000000000E+00 -0.56485822124E+03  0.56485822124E+03  0.00000000000E+00 0. -1.
          5    1    1    2  502    0 -0.72828332636E+02  0.91436214244E+00 -0.17919369983E+03  0.19347520914E+03  0.41800000000E+01 0. -1.
         -5    1    1    2    0  502  0.45502191711E+02 -0.40491138504E+02 -0.14618994866E+03  0.15842649790E+03  0.41800000000E+01 0. -1.
        -11    1    1    2    0    0  0.38700971003E+02  0.55181710866E+02 -0.20634616390E+03  0.21707493113E+03  0.00000000000E+00 0. -1.
         11    1    1    2    0    0 -0.11374830078E+02 -0.15604934505E+02 -0.80778873072E+01  0.20932104614E+02  0.00000000000E+00 0.  1.
</event>
<event>
 6    1  0.6447971E-006  0.1952574E+03  0.7561462E-02  0.1153803E+00
         -1   -1    0    0    0  501 -0.00000000000E+00  0.00000000000E+00  0.79785644738E+02  0.79785644738E+02  0.00000000000E+00 0.  1.
          1   -1    0    0  501    0  0.00000000000E+00 -0.00000000000E+00 -0.66563098922E+03  0.66563098922E+03  0.00000000000E+00 0. -1.
          5    1    1    2  502    0 -0.29342000836E+02 -0.83660303691E+02 -0.15033191476E+03  0.17457707875E+03  0.41800000000E+01 0. -1.
         -5    1    1    2    0  502 -0.82709952457E+02 -0.64637363577E+02 -0.20191251248E+02  0.10697702572E+03  0.41800000000E+01 0. -1.
        -11    1    1    2    0    0  0.88972852925E+02  0.14908161099E+03 -0.40026380528E+03  0.43629417726E+03  0.00000000000E+00 0. -1.
         11    1    1    2    0    0  0.23079100368E+02 -0.78394372561E+00 -0.15058373191E+02  0.27568352231E+02  0.00000000000E+00 0.  1.
</event>
<event>
 6    1  0.6447971E-006  0.1042818E+03  0.7561462E-02  0.1271541E+00
          2   -1    0    0  501    0  0.00000000000E+00  0.00000000000E+00  0.49561743436E+03  0.49561743436E+03  0.00000000000E+00 0. -1.
         -2   -1    0    0    0  501 -0.00000000000E+00 -0.00000000000E+00 -0.26388230862E+02  0.26388230862E+02  0.00000000000E+00 0.  1.
          5    1    1    2  502    0 -0.37592747319E+02 -0.29183780438E+02  0.36581773500E+02  0.60171473674E+02  0.41800000000E+01 0.  1.
         -5    1    1    2    0  502  0.24756084396E+02  0.58327812840E+02  0.19346485187E+03  0.20362003530E+03  0.41800000000E+01 0.  1.
        -11    1    1    2    0    0  0.52543421828E+02 -0.11246112956E+02  0.13364542406E+03  0.14404299916E+03  0.00000000000E+00 0. -1.
         11    1    1    2    0    0 -0.39706758906E+02 -0.17897919446E+02  0.10553715406E+03  0.11417115709E+03  0.00000000000E+00 0.  1.
</event>
<event>
 6    1  0.6447971E-006  0.3020288E+03  0.7561462E-02  0.1084231E+00
          2   -1    0    0  501    0  0.00000000000E+00  0.00000000000E+00  0.51806874247E+03  0.51806874247E+03  0.00000000000E+00 0. -1.
         -2   -1    0    0    0  501 -0.00000000000E+00 -0.00000000000E+00 -0.18433317864E+03  0.18433317864E+03  0.00000000000E+00 0.  1.
          5    1    1    2  502    0  0.16100279967E+03  0.12140833095E+03  0.77069123684E+02  0.21591435004E+03  0.41800000000E+01 0. -1.
         -5    1    1    2    0  502  0.10693911881E+02  0.11056141734E+03  0.69560400204E+02  0.13112706979E+03  0.41800000000E+01 0. -1.
        -11    1    1    2    0    0 -0.76565140297E+02 -0.72055859379E+02  0.11496964326E+03  0.15579565607E+03  0.00000000000E+00 0. -1.
         11    1    1    2    0    0 -0.95131571253E+02 -0.15991388891E+03  0.72136396684E+02  0.19956484521E+03  0.00000000000E+00 0.  1.
</event>
<event>
 6    1  0.6447971E-006  0.1350452E+03  0.7561462E-02  0.1220156E+00
          2   -1    0    0  501    0  0.00000000000E+00  0.00000000000E+00  0.32137646819E+03  0.32137646819E+03  0.00000000000E+00 0. -1.
         -2   -1    0    0    0  501 -0.00000000000E+00 -0.00000000000E+00 -0.74915886034E+02  0.74915886034E+02  0.00000000000E+00 0.  1.
          5    1    1    2  502    0 -0.22049362875E+02 -0.22327771075E+02 -0.10397959760E+02  0.33321070384E+02  0.41800000000E+01 0. -1.
         -5    1    1    2    0  502 -0.49252147449E+01  0.11601044393E+03  0.72803955731E+02  0.13711516769E+03  0.41800000000E+01 0. -1.
        -11    1    1    2    0    0  0.52635135926E+02 -0.67313191601E+02  0.86478275265E+02  0.12157308662E+03  0.00000000000E+00 0.  1.
         11    1    1    2    0    0 -0.25660558306E+02 -0.26369481257E+02  0.97576310919E+02  0.10428302952E+03  0.00000000000E+00 0. -1.
</event>
<event>
 6    1  0.6447971E-006  0.1190383E+03  0.7561462E-02  0.1244692E+00
         -1   -1    0    0    0  501 -0.00000000000E+00  0.00000000000E+00  0.73864613944E+03  0.73864613944E+03  0.00000000000E+00 0.  1.
          1   -1    0    0  501    0  0.00000000000E+00 -0.00000000000E+00 -0.25892739346E+02  0.25892739346E+02  0.00000000000E+00 0. -1.
          5    1    1    2  502    0  0.46526504558E+02  0.52814350161E+02  0.32887939530E+03  0.33635279137E+03  0.41800000000E+01 0. -1.
         -5    1    1    2    0  502 -0.63489649276E+02 -0.54995730910E+01  0.25236891745E+03  0.26032426656E+03  0.41800000000E+01 0. -1.
        -11    1    1    2    0    0  0.30060844994E+02 -0.70741488563E+02  0.10513130261E+03  0.13023288139E+03  0.00000000000E+00 0.  1.
         11    1    1    2    0    0 -0.13097700276E+02  0.23426711494E+02  0.26373784745E+02  0.37628939471E+02  0.00000000000E+00 0. -1.
</event>
<event>
 6    1  0.6447971E-006  0.1138651E+03  0.7561462E-02  0.1253575E+00
         -1   -1    0    0    0  501 -0.00000000000E+00  0.00000000000E+00  0.92353763083E+02  0.92353763083E+02  0.00000000000E+00 0.  1.
          1   -1    0    0  501    0  0.00000000000E+00 -0.00000000000E+00 -0.36068817206E+03  0.36068817206E+03  0.00000000000E+00 0. -1.
          5    1    1    2  502    0  0.26967726286E+02 -0.36394615292E+02  0.56636816033E+02  0.72643152559E+02  0.41800000000E+01 0. -1.
         -5    1    1    2    0  502 -0.71335337362E+02 -0.11388862051E+02 -0.66207684543E+02  0.98078368807E+02  0.41800000000E+01 0.  1.
        -11    1    1    2    0    0 -0.21171961509E+02  0.38158591032E+02 -0.13593491691E+03  0.14276775427E+03  0.00000000000E+00 0. -1.
         11    1    1    2    0    0  0.65539572585E+02  0.96248863118E+01 -0.12282862356E+03  0.13955265951E+03  0.00000000000E+00 0.  1.
</event>
<event>
 6    1  0.6447971E-006  0.1399260E+03  0.7561462E-02  0.1213429E+00
         -2   -1    0    0    0  501 -0.00000000000E+00  0.00000000000E+00  0.38194368216E+02  0.38194368216E+02  0.00000000000E+00 0.  1.
          2   -1    0    0  501    0  0.00000000000E+00 -0.00000000000E+00 -0.68848040212E+03  0.68848040212E+03  0.00000000000E+00 0. -1.
          5    1    1    2  502    0 -0.12062932857E+02 -0.46660675096E+02 -0.12675418782E+03  0.13567177112E+03  0.41800000000E+01 0. -1.
         -5    1    1    2    0  502  0.10512373356E+03 -0.80479249254E+01 -0.10401816376E+03  0.14816551301E+03  0.41800000000E+01 0. -1.
        -11    1    1    2    0    0 -0.72151281887E+02  0.53405581348E+01 -0.33521932267E+03  0.34293778347E+03  0.00000000000E+00 0. -1.
         11    1    1    2    0    0 -0.20909518820E+02  0.49368041886E+02 -0.84294359653E+02  0.99899702734E+02  0.00000000000E+00 0.  1.
</event>
<event>
 6    1  0.6447971E-006  0.7629922E+02  0.7561462E-02  0.1339894E+00
         -1   -1    0    0    0  501 -0.00000000000E+00  0.00000000000E+00  0.24425560842E+03  0.24425560842E+03  0.00000000000E+00 0.  1.
          1   -1    0    0  501    0  0.00000000000E+00 -0.00000000000E+00 -0.51548744018E+02  0.51548744018E+02  0.00000000000E+00 0. -1.
          5    1    1    2  502    0  0.53828353601E+02  0.19988945309E+02  0.24213554598E+02  0.62456530581E+02  0.41800000000E+01 0. -1.
         -5    1    1    2    0  502 -0.51564887554E+02  0.39571443748E+01  0.11545345833E+03  0.12657634084E+03  0.41800000000E+01 0. -1.
        -11    1    1    2    0    0  0.14519114894E+02 -0.21842010073E+02 -0.19247184868E+02  0.32532018484E+02  0.00000000000E+00 0. -1.
         11    1    1    2    0    0 -0.16782580942E+02 -0.21040796109E+01  0.72287036341E+02  0.74239462532E+02  0.00000000000E+00 0.  1.
</event>
<event>
 6    1  0.6447971E-006  0.1161470E+03  0.7561462E-02  0.1249592E+00
          2   -1    0    0  501    0  0.00000000000E+00  0.00000000000E+00  0.98362524652E+03  0.98362524652E+03  0.00000000000E+00 0. -1.
         -2   -1    0    0    0  501 -0.00000000000E+00 -0.00000000000E+00 -0.15091499427E+02  0.15091499427E+02  0.00000000000E+00 0.  1.
          5    1    1    2  502    0 -0.23069603302E+02 -0.45253469414E+02  0.18460836733E+03  0.19151450279E+03  0.41800000000E+01 0.  1.
         -5    1    1    2    0  502  0.67175244616E+02  0.44199438199E+02  0.21913249498E+03  0.23345797606E+03  0.41800000000E+01 0.  1.
        -11    1    1    2    0    0 -0.63906136571E+02 -0.24533183219E+02  0.39762051667E+03  0.40346988320E+03  0.00000000000E+00 0.  1.
         11    1    1    2    0    0  0.19800495256E+02  0.25587214433E+02  0.16717236810E+03  0.17027438390E+03  0.00000000000E+00 0. -1.
</event>
<event>
 6    1  0.6447971E-006  0.8082980E+02  0.7561462E-02  0.1326713E+00
         -2   -1    0    0    0  501 -0.00000000000E+00  0.00000000000E+00  0.22342699308E+03  0.22342699308E+03  0.00000000000E+00 0.  1.
          2   -1    0    0  501    0  0.00000000000E+00 -0.00000000000E+00 -0.77469071064E+02  0.77469071064E+02  0.00000000000E+00 0. -1.
          5    1    1    2  502    0 -0.38830927310E+02 -0.11374779279E+02 -0.21240955543E+02  0.45889836694E+02  0.41800000000E+01 0. -1.
         -5    1    1    2    0  502 -0.30556469975E+02  0.22262134867E+02  0.12636423623E+03  0.13196474190E+03  0.41800000000E+01 0. -1.
        -11    1    1    2    0    0  0.37619871441E+02  0.16426482637E+02  0.63344024953E+02  0.75482114149E+02  0.00000000000E+00 0.  1.
         11    1    1    2    0    0  0.31767525843E+02 -0.27313838225E+02 -0.22509383627E+02  0.47559371401E+02  0.00000000000E+00 0. -1.
</event>
<event>
 6    1  0.6447971E-006  0.1073386E+03  0.7561462E-02  0.1265579E+00
         -3   -1    0    0    0  501 -0.00000000000E+00  0.00000000000E+00  0.56302034991E+02  0.56302034991E+02  0.00000000000E+00 0.  1.
          3   -1    0    0  501    0  0.00000000000E+00 -0.00000000000E+00 -0.27965593950E+03  0.27965593950E+03  0.00000000000E+00 0. -1.
          5    1    1    2  502    0 -0.56953795169E+02  0.45941422548E+02 -0.27226909680E+02  0.78186482851E+02  0.41800000000E+01 0. -1.
         -5    1    1    2    0  502  0.51819917422E+01 -0.59135828367E+02 -0.53281393901E+02  0.79876645968E+02  0.41800000000E+01 0. -1.
        -11    1    1    2    0    0  0.16057727533E+02 -0.24918280495E+02 -0.44564202180E+01  0.29977174608E+02  0.00000000000E+00 0.  1.
         11    1    1    2    0    0  0.35714075894E+02  0.38112686314E+02 -0.13838918071E+03  0.14791767106E+03  0.00000000000E+00 0. -1.
</event>
<event>
 6    1  0.6447971E-006  0.1224662E+03  0.7561462E-02  0.1239083E+00
         -3   -1    0    0    0  501 -0.00000000000E+00  0.00000000000E+00  0.51930346176E+03  0.51930346176E+03  0.00000000000E+00 0. -1.
          3   -1    0    0  501    0  0.00000000000E+00 -0.00000000000E+00 -0.32547942697E+02  0.32547942697E+02  0.00000000000E+00 0.  1.
          5    1    1    2  502    0 -0.44388041271E+02 -0.18124750211E+02  0.15808891563E+03  0.16525248084E+03  0.41800000000E+01 0.  1.
         -5    1    1    2    0  502  0.77511713458E+02 -0.42459064879E+02  0.14573123440E+03  0.17048725170E+03  0.41800000000E+01 0.  1.
        -11    1    1    2    0    0  0.19536574675E+02  0.51247984419E+02  0.12890879966E+03  0.14009108568E+03  0.00000000000E+00 0. -1.
         11    1    1    2    0    0 -0.52660246862E+02  0.93358306701E+01  0.54026569387E+02  0.76020586249E+02  0.00000000000E+00 0.  1.
</event>
<event>
 6    1  0.6447971E-006  0.8315416E+02  0.7561462E-02  0.1320331E+00
          2   -1    0    0  501    0  0.00000000000E+00  0.00000000000E+00  0.96289151780E+03  0.96289151780E+03  0.00000000000E+00 0. -1.
         -2   -1    0    0    0  501 -0.00000000000E+00 -0.00000000000E+00 -0.15187882899E+02  0.15187882899E+02  0.00000000000E+00 0.  1.
          5    1    1    2  502    0  0.13956926735E+01  0.12100064917E+02  0.36645643971E+03  0.36668263407E+03  0.41800000000E+01 0. -1.
         -5    1    1    2    0  502 -0.28830732300E+01 -0.52488349368E+02  0.59047409555E+02  0.79166962212E+02  0.41800000000E+01 0.  1.
        -11    1    1    2    0    0 -0.24783215488E+02 -0.21914428289E+02  0.12435701962E+03  0.12868223757E+03  0.00000000000E+00 0.  1.
         11    1    1    2    0    0  0.26270596045E+02  0.62302712741E+02  0.39784276602E+03  0.40354756684E+03  0.00000000000E+00 0. -1.
</event>
<event>
 6    1  0.6447971E-006  0.1146986E+03  0.7561462E-02  0.1252108E+00
          2   -1    0    0  501    0  0.00000000000E+00  0.00000000000E+00  0.16585769620E+03  0.16585769620E+03  0.00000000000E+00 0. -1.
         -2   -1    0    0    0  501 -0.00000000000E+00 -0.00000000000E+00 -0.95973352123E+02  0.95973352123E+02  0.00000000000E+00 0.  1.
          5    1    1    2  502    0  0.68507168795E+02  0.49597521861E+02  0.53946772741E+01  0.84851171435E+02  0.41800000000E+01 0. -1.
         -5    1    1    2    0  502 -0.49766695561E+02  0.15072174721E+01 -0.13758093720E+02  0.51824253341E+02  0.41800000000E+01 0. -1.
        -11    1    1    2    0    0 -0.42930312305E+02 -0.55501164122E+02  0.70279219867E+02  0.99310420796E+02  0.00000000000E+00 0. -1.
         11    1    1    2    0    0  0.24189839071E+02  0.43964247896E+01  0.79685406607E+01  0.25845202756E+02  0.00000000000E+00 0.  1.
</event>
<event>
 6    1  0.6447971E-006  0.1374794E+03  0.7561462E-02  0.1216761E+00
         -2   -1    0    0    0  501 -0.00000000000E+00  0.00000000000E+00  0.50366466734E+02  0.50366466734E+02  0.00000000000E+00 0.  1.
          2   -1    0    0  501    0  0.00000000000E+00 -0.00000000000E+00 -0.59686987592E+03  0.59686987592E+03  0.00000000000E+00 0. -1.
          5    1    1    2  502    0 -0.11171926314E+03  0.87775637820E+01 -0.16708348744E+03  0.20122774052E+03  0.41800000000E+01 0.  1.
         -5    1    1    2    0  502  0.19999428125E+01  0.29816037418E+02  0.90205688859E+01  0.31493474270E+02  0.41800000000E+01 0.  1.
        -11    1    1    2    0    0  0.10112707451E+02 -0.31159715252E+02 -0.38264168961E+02  0.50372029271E+02  0.00000000000E+00 0.  1.
         11    1    1    2    0    0  0.99606612877E+02 -0.74338859483E+01 -0.35017632168E+03  0.36414309859E+03  0.00000000000E+00 0. -1.
</event>
<event>
 6    1  0.6447971E-006  0.1420433E+03  0.7561462E-02  0.1210606E+00
          1   -1    0    0  501    0  0.00000000000E+00  0.00000000000E+00  0.55000931860E+02  0.55000931860E+02  0.00000000000E+00 0. -1.
         -1   -1    0    0    0  501 -0.00000000000E+00 -0.00000000000E+00 -0.54583694198E+03  0.54583694198E+03  0.00000000000E+00 0.  1.
          5    1    1    2  502    0  0.47446723031E+02 -0.33311451166E+02 -0.29108105961E+03  0.29682739087E+03  0.41800000000E+01 0.  1.
         -5    1    1    2    0  502  0.21312970564E+02 -0.70734704148E+02 -0.56621639772E+02  0.93172547329E+02  0.41800000000E+01 0.  1.
        -11    1    1    2    0    0 -0.85841304545E+02  0.60013416306E+02 -0.11632248643E+03  0.15652878506E+03  0.00000000000E+00 0.  1.
         11    1    1    2    0    0  0.17081610949E+02  0.44032739009E+02 -0.26810824306E+02  0.54309150585E+02  0.00000000000E+00 0. -1.
</event>
<event>
 6    1  0.6447971E-006  0.7477496E+02  0.7561462E-02  0.1344569E+00
         -1   -1    0    0    0  501 -0.00000000000E+00  0.00000000000E+00  0.39704740908E+02  0.39704740908E+02  0.00000000000E+00 0.  1.
          1   -1    0    0  501    0  0.00000000000E+00 -0.00000000000E+00 -0.43409493671E+03  0.43409493671E+03  0.00000000000E+00 0. -1.
          5    1    1    2  502    0 -0.31386504048E+02 -0.61995994806E+00 -0.15123562919E+03  0.15451596980E+03  0.41800000000E+01 0. -1.
         -5    1    1    2    0  502 -0.10904684092E+02  0.47304014293E+02  0.37844113938E+01  0.48871014651E+02  0.41800000000E+01 0. -1.
        -11    1    1    2    0    0  0.25658477513E+02 -0.77268933192E+01 -0.83134501747E+01  0.28056653444E+02  0.00000000000E+00 0.  1.
         11    1    1    2    0    0  0.16632710627E+02 -0.38957161026E+02 -0.23862552783E+03  0.24235603972E+03  0.00000000000E+00 0. -1.
</event>
<event>
 6    1  0.6447971E-006  0.1119689E+03  0.7561462E-02  0.1256967E+00
          1   -1    0    0  501    0  0.00000000000E+00  0.00000000000E+00  0.16474126451E+02  0.16474126451E+02  0.00000000000E+00 0. -1.
         -1   -1    0    0    0  501 -0.00000000000E+00 -0.00000000000E+00 -0.10981035425E+04  0.10981035425E+04  0.00000000000E+00 0.  1.
          5    1    1    2  502    0 -0.11806420595E+02  0.23716187200E+02 -0.43816539236E+03  0.43898545826E+03  0.41800000000E+01 0.  1.
         -5    1    1    2    0  502  0.82362503813E+02  0.81154270640E+01 -0.21215183730E+03  0.22776153464E+03  0.41800000000E+01 0.  1.
        -11    1    1    2    0    0 -0.15955649192E+01  0.24901417956E+02 -0.46272428342E+02  0.52571513848E+02  0.00000000000E+00 0. -1.
         11    1    1    2    0    0 -0.68960518298E+02 -0.56733032220E+02 -0.38503975803E+03  0.39525916218E+03  0.00000000000E+00 0.  1.
</event>
<event>
 6    1  0.6447971E-006  0.1190341E+03  0.7561462E-02  0.1244699E+00
         -2   -1    0    0    0  501 -0.00000000000E+00  0.00000000000E+00  0.22943098804E+03  0.22943098804E+03  0.00000000000E+00 0. -1.
          2   -1    0    0  501    0  0.00000000000E+00 -0.00000000000E+00 -0.72857048886E+02  0.72857048886E+02  0.00000000000E+00 0.  1.
          5    1    1    2  502    0  0.25078343492E+02  0.17213168014E+02 -0.27359114568E+01  0.30824893786E+02  0.41800000000E+01 0.  1.
         -5    1    1    2    0  502 -0.72817794988E+02 -0.59625881351E+02  0.11709059692E+03  0.15028425493E+03  0.41800000000E+01 0.  1.
        -11    1    1    2    0    0  0.50252094993E+02 -0.17484630764E+02  0.25114838188E+02  0.58836557185E+02  0.00000000000E+00 0. -1.
         11    1    1    2    0    0 -0.25126434965E+01  0.59897344101E+02  0.17104415504E+02  0.62342331023E+02  0.00000000000E+00 0.  1.
</event>
<event>
 6    1  0.6447971E-006  0.7893997E+02  0.7561462E-02  0.1332087E+00
         -3   -1    0    0    0  501 -0.00000000000E+00  0.00000000000E+00  0.14066496797E+03  0.14066496797E+03  0.00000000000E+00 0.  1.
          3   -1    0    0  501    0  0.00000000000E+00 -0.00000000000E+00 -0.90922213594E+02  0.90922213594E+02  0.00000000000E+00 0. -1.
          5    1    1    2  502    0  0.50821820194E+02 -0.22231990454E+02 -0.33953746363E+02  0.65172448929E+02  0.41800000000E+01 0.  1.
         -5    1    1    2    0  502 -0.20812061317E+02  0.70083692710E+01  0.64018300707E+02  0.67809102350E+02  0.41800000000E+01 0.  1.
        -11    1    1    2    0    0  0.65439617813E+01 -0.24825481607E+02  0.33923092031E+02  0.42542968229E+02  0.00000000000E+00 0.  1.
         11    1    1    2    0    0 -0.36553720658E+02  0.40049102790E+02 -0.14244892002E+02  0.56062662052E+02  0.00000000000E+00 0. -1.
</event>
<event>
 6    1  0.6447971E-006  0.2263238E+03  0.7561462E-02  0.1129254E+00
         -1   -1    0    0    0  501 -0.00000000000E+00  0.00000000000E+00  0.21547391640E+03  0.21547391640E+03  0.00000000000E+00 0.  1.
          1   -1    0    0  501    0  0.00000000000E+00 -0.00000000000E+00 -0.32033304742E+03  0.32033304742E+03  0.00000000000E+00 0. -1.
          5    1    1    2  502    0 -0.11599469648E+03 -0.15583124363E+02 -0.94690186455E+01  0.11749356617E+03  0.41800000000E+01 0. -1.
         -5    1    1    2    0  502 -0.85205059271E+02  0.77764284175E+02  0.69361799295E+02  0.13466891854E+03  0.41800000000E+01 0. -1.
        -11    1    1    2    0    0  0.44816581164E+02  0.12892188913E+02 -0.34377012144E+01  0.46760584596E+02  0.00000000000E+00 0.  1.
         11    1    1    2    0    0  0.15638317459E+03 -0.75073348725E+02 -0.16131421046E+03  0.23688389451E+03  0.00000000000E+00 0. -1.
</event>
<event>
 6    1  0.6447971E-006  0.1010177E+03  0.7561462E-02  0.1278170E+00
         -1   -1    0    0    0  501 -0.00000000000E+00  0.00000000000E+00  0.34982446492E+02  0.34982446492E+02  0.00000000000E+00 0.  1.
          1   -1    0    0  501    0  0.00000000000E+00 -0.00000000000E+00 -0.40090987127E+03  0.40090987127E+03  0.00000000000E+00 0. -1.
          5    1    1    2  502    0  0.58532711620E+02 -0.32972294724E+02 -0.68650476305E+02  0.96143698940E+02  0.41800000000E+01 0. -1.
         -5    1    1    2    0  502 -0.44121955653E+02  0.38441839695E+02 -0.54935541029E+02  0.80373553349E+02  0.41800000000E+01 0. -1.
        -11    1    1    2    0    0  0.32335563176E+01 -0.38485630416E+02 -0.19616424968E+03  0.19993001897E+03  0.00000000000E+00 0. -1.
         11    1    1    2    0    0 -0.17644312284E+02  0.33016085445E+02 -0.46177157772E+02  0.59445046505E+02  0.00000000000E+00 0.  1.
</event>
<event>
 6    1  0.6447971E-006  0.1405305E+03  0.7561462E-02  0.1212617E+00
         -1   -1    0    0    0  501 -0.00000000000E+00  0.00000000000E+00  0.13775931308E+02  0.13775931308E+02  0.00000000000E+00 0. -1.
          1   -1    0    0  501    0  0.00000000000E+00 -0.00000000000E+00 -0.16917876551E+04  0.16917876551E+04  0.00000000000E+00 0.  1.
          5    1    1    2  502    0  0.65686477907E+02  0.10706481385E+03 -0.90153354736E+03  0.91025150214E+03  0.41800000000E+01 0.  1.
         -5    1    1    2    0  502 -0.28951770697E+02 -0.87070580418E+01 -0.10149436756E+03  0.10598394658E+03  0.41800000000E+01 0.  1.
        -11    1    1    2    0    0 -0.53034101212E+02 -0.94100284912E+02 -0.65168967366E+03  0.66058073713E+03  0.00000000000E+00 0.  1.
         11    1    1    2    0    0  0.16299394002E+02 -0.42574708963E+01 -0.23294135219E+02  0.28747400558E+02  0.00000000000E+00 0. -1.
</event>
<event>
 6    1  0.6447971E-006  0.4282605E+03  0.7561462E-02  0.1034411E+00
          4   -1    0    0  501    0  0.00000000000E+00  0.00000000000E+00  0.39805128948E+03  0.39805128948E+03  0.00000000000E+00 0. -1.
         -4   -1    0    0    0  501 -0.00000000000E+00 -0.00000000000E+00 -0.60063422524E+03  0.60063422524E+03  0.00000000000E+00 0.  1.
          5    1    1    2  502    0  0.19861810424E+03 -0.91430080411E+02 -0.15898646224E+03  0.27037525499E+03  0.41800000000E+01 0. -1.
         -5    1    1    2    0  502  0.11491374698E+03 -0.18212677635E+03 -0.18000337279E+03  0.28070272269E+03  0.41800000000E+01 0. -1.
        -11    1    1    2    0    0 -0.10717580961E+03  0.14126052604E+03  0.87185581027E+02  0.19759179113E+03  0.00000000000E+00 0. -1.
         11    1    1    2    0    0 -0.20635604161E+03  0.13229633073E+03  0.49221318242E+02  0.25001574591E+03  0.00000000000E+00 0.  1.
</event>
<event>
 6    1  0.6447971E-006  0.8498256E+02  0.7561462E-02  0.1315478E+00
          1   -1    0    0  501    0  0.00000000000E+00  0.00000000000E+00  0.50485660931E+02  0.50485660931E+02  0.00000000000E+00 0. -1.
         -1   -1    0    0    0  501 -0.00000000000E+00 -0.00000000000E+00 -0.30589662787E+03  0.30589662787E+03  0.00000000000E+00 0.  1.
          5    1    1    2  502    0  0.47539613320E+02 -0.11898151069E+02 -0.16469548295E+03  0.17188267899E+03  0.41800000000E+01 0. -1.
         -5    1    1    2    0  502 -0.21503949053E+02 -0.37164890586E+02 -0.11614121492E+01  0.43156345945E+02  0.41800000000E+01 0. -1.
        -11    1    1    2    0    0 -0.33249028316E+02  0.57642465867E+01 -0.91378080014E+02  0.97409845137E+02  0.00000000000E+00 0.  1.
         11    1    1    2    0    0  0.72133640497E+01  0.43298795069E+02  0.18240081712E+01  0.43933418728E+02  0.00000000000E+00 0. -1.
</event>
<event>
 6    1  0.6447971E-006  0.1453537E+03  0.7561462E-02  0.1206301E+00
          1   -1    0    0  501    0  0.00000000000E+00  0.00000000000E+00  0.63834275357E+03  0.63834275357E+03  0.00000000000E+00 0. -1.
         -1   -1    0    0    0  501 -0.00000000000E+00 -0.00000000000E+00 -0.45930664396E+02  0.45930664396E+02  0.00000000000E+00 0.  1.
          5    1    1    2  502    0 -0.10083292544E+03 -0.27614072480E+01  0.81655384158E+02  0.12984597947E+03  0.41800000000E+01 0. -1.
         -5    1    1    2    0  502 -0.18303355234E+02  0.51787408792E+02  0.17441899993E+03  0.18291093040E+03  0.41800000000E+01 0. -1.
        -11    1    1    2    0    0  0.94531627630E+02 -0.54969593514E+02  0.32655795278E+03  0.34438057633E+03  0.00000000000E+00 0. -1.
         11    1    1    2    0    0  0.24604653049E+02  0.59435919704E+01  0.97797523040E+01  0.27135931756E+02  0.00000000000E+00 0.  1.
</event>
<event>
 6    1  0.6447971E-006  0.1128995E+03  0.7561462E-02  0.1255293E+00
          1   -1    0    0  501    0  0.00000000000E+00  0.00000000000E+00  0.57087733135E+02  0.57087733135E+02  0.00000000000E+00 0. -1.
         -1   -1    0    0    0  501 -0.00000000000E+00 -0.00000000000E+00 -0.29514939103E+03  0.29514939103E+03  0.00000000000E+00 0.  1.
          5    1    1    2  502    0  0.73800989135E+02 -0.47632707170E+02 -0.95153130313E+02  0.12956485402E+03  0.41800000000E+01 0.  1.
         -5    1    1    2    0  502 -0.27187909184E+02  0.26926006062E+02 -0.10569803017E+03  0.11248883585E+03  0.41800000000E+01 0.  1.
        -11    1    1    2    0    0 -0.69539612125E+01  0.49736918872E+02 -0.30188785277E+01  0.50311353619E+02  0.00000000000E+00 0. -1.
         11    1    1    2    0    0 -0.39659118738E+02 -0.29030217765E+02 -0.34191618882E+02  0.59872080675E+02  0.00000000000E+00 0.  1.
</event>
<event>
 6    1  0.6447971E-006  0.2522363E+03  0.7561462E-02  0.1111900E+00
         -2   -1    0    0    0  501 -0.00000000000E+00  0.00000000000E+00  0.11764172422E+03  0.11764172422E+03  0.00000000000E+00 0. -1.
          2   -1    0    0  501    0  0.00000000000E+00 -0.00000000000E+00 -0.11935333207E+04  0.11935333207E+04  0.00000000000E+00 0.  1.
          5    1    1    2  502    0  0.13208696069E+03 -0.82885410581E+02  0.18464038779E+02  0.15708389351E+03  0.41800000000E+01 0. -1.
         -5    1    1    2    0  502 -0.21238813335E+03  0.81520607502E+02 -0.85161949023E+03  0.88149166598E+03  0.41800000000E+01 0.  1.
        -11    1    1    2    0    0  0.72201723944E+02  0.39264860152E+02 -0.13437832225E+03  0.15751936920E+03  0.00000000000E+00 0. -1.
         11    1    1    2    0    0  0.80994487209E+01 -0.37900057073E+02 -0.10835782274E+03  0.11508011620E+03  0.00000000000E+00 0.  1.
</event>
<event>
 6    1  0.6447971E-006  0.7516534E+02  0.7561462E-02  0.1343360E+00
          3   -1    0    0  501    0  0.00000000000E+00  0.00000000000E+00  0.47876677156E+03  0.47876677156E+03  0.00000000000E+00 0. -1.
         -3   -1    0    0    0  501 -0.00000000000E+00 -0.00000000000E+00 -0.31025004643E+02  0.31025004643E+02  0.00000000000E+00 0.  1.
          5    1    1    2  502    0 -0.18048309524E+02 -0.39411710193E+02  0.26989721778E+03  0.27338801170E+03  0.41800000000E+01 0. -1.
         -5    1    1    2    0  502 -0.28673991751E+02  0.17074761363E+02  0.63161763287E+01  0.34221510223E+02  0.41800000000E+01 0. -1.
        -11    1    1    2    0    0 -0.23080266679E+01  0.23979649444E+02  0.14385344187E+03  0.14585665330E+03  0.00000000000E+00 0.  1.
         11    1    1    2    0    0  0.49030327943E+02 -0.16427006136E+01  0.27674930950E+02  0.56325600987E+02  0.00000000000E+00 0. -1.
</event>
<event>
 6    1  0.6447971E-006  0.9164252E+02  0.7561462E-02  0.1298922E+00
         -2   -1    0    0    0  501 -0.00000000000E+00  0.00000000000E+00  0.13450624477E+03  0.13450624477E+03  0.00000000000E+00 0.  1.
          2   -1    0    0  501    0  0.00000000000E+00 -0.00000000000E+00 -0.15817410933E+03  0.15817410933E+03  0.00000000000E+00 0. -1.
          5    1    1    2  502    0  0.32564656715E+02 -0.26995148131E+01  0.72850324599E+02  0.79952401098E+02  0.41800000000E+01 0.  1.
         -5    1    1    2    0  502  0.48587371087E+02 -0.34928102892E+02 -0.46720052317E+02  0.76032497587E+02  0.41800000000E+01 0.  1.
        -11    1    1    2    0    0 -0.58152242128E+02  0.20420315811E+02  0.17040753338E+02  0.63945756987E+02  0.00000000000E+00 0.  1.
         11    1    1    2    0    0 -0.22999785673E+02  0.17207301894E+02 -0.66838890188E+02  0.72749698426E+02  0.00000000000E+00 0. -1.
</event>
<event>
 6    1  0.6447971E-006  0.1362828E+03  0.7561462E-02  0.1218420E+00
         -2   -1    0    0    0  501 -0.00000000000E+00  0.00000000000E+00  0.22517518907E+03  0.22517518907E+03  0.00000000000E+00 0.  1.
          2   -1    0    0  501    0  0.00000000000E+00 -0.00000000000E+00 -0.11443978204E+03  0.11443978204E+03  0.00000000000E+00 0. -1.
          5    1    1    2  502    0 -0.31009573191E+02  0.50026791032E-01  0.49338444723E+02  0.58423887750E+02  0.41800000000E+01 0. -1.
         -5    1    1    2    0  502 -0.92877516180E+01 -0.10148342766E+03 -0.35911147003E+02  0.10813062147E+03  0.41800000000E+01 0. -1.
        -11    1    1    2    0    0  0.32406186845E+02 -0.47969721061E+01  0.41286686519E+02  0.52704481508E+02  0.00000000000E+00 0.  1.
         11    1    1    2    0    0  0.78911379636E+01  0.10623037298E+03  0.56021422793E+02  0.12035598038E+03  0.00000000000E+00 0. -1.
</event>
<event>
 6    1  0.6447971E-006  0.1078661E+03  0.7561462E-02  0.1264573E+00
          3   -1    0    0  501    0  0.00000000000E+00  0.00000000000E+00  0.38868229151E+02  0.38868229151E+02  0.00000000000E+00 0. -1.
         -3   -1    0    0    0  501 -0.00000000000E+00 -0.00000000000E+00 -0.33103640257E+03  0.33103640257E+03  0.00000000000E+00 0.  1.
          5    1    1    2  502    0  0.45108912251E+02  0.88717672095E+01 -0.38018676778E+02  0.59803130368E+02  0.41800000000E+01 0.  1.
         -5    1    1    2    0  502 -0.74959108941E+02  0.84301606887E+01 -0.16010092626E+03  0.17703026468E+03  0.41800000000E+01 0.  1.
        -11    1    1    2    0    0  0.49222935054E+02 -0.40539792784E+02 -0.66888015868E+02  0.92414169915E+02  0.00000000000E+00 0.  1.
         11    1    1    2    0    0 -0.19372738364E+02  0.23237864885E+02 -0.27160554509E+02  0.40657066759E+02  0.00000000000E+00 0. -1.
</event>
<event>
 6    1  0.6447971E-006  0.9892483E+02  0.7561462E-02  0.1282573E+00
          1   -1    0    0  501    0  0.00000000000E+00  0.00000000000E+00  0.29843938237E+02  0.29843938237E+02  0.00000000000E+00 0. -1.
         -1   -1    0    0    0  501 -0.00000000000E+00 -0.00000000000E+00 -0.42436233531E+03  0.42436233531E+03  0.00000000000E+00 0.  1.
          5    1    1    2  502    0  0.38360302751E+02  0.13347514123E+02 -0.42057563083E+02  0.58617232730E+02  0.41800000000E+01 0. -1.
         -5    1    1    2    0  502 -0.72060571907E+02 -0.15965998898E+02 -0.21902663311E+03  0.23116612545E+03  0.41800000000E+01 0.  1.
        -11    1    1    2    0    0 -0.37482812470E+01 -0.31925514689E+02 -0.14953864199E+02  0.35452872309E+02  0.00000000000E+00 0.  1.
         11    1    1    2    0    0  0.37448550403E+02  0.34543999464E+02 -0.11848033668E+03  0.12897004305E+03  0.00000000000E+00 0. -1.
</event>
<event>
 6    1  0.6447971E-006  0.9806946E+02  0.7561462E-02  0.1284409E+00
          2   -1    0    0  501    0  0.00000000000E+00  0.00000000000E+00  0.22056922234E+03  0.22056922234E+03  0.00000000000E+00 0. -1.
         -2   -1    0    0    0  501 -0.00000000000E+00 -0.00000000000E+00 -0.80957201147E+02  0.80957201147E+02  0.00000000000E+00 0.  1.
          5    1    1    2  502    0 -0.14256048050E+02 -0.35816370427E+01  0.93728355683E+02  0.94965994382E+02  0.41800000000E+01 0. -1.
         -5    1    1    2    0  502 -0.59676776837E+02  0.18886010922E+02 -0.23690149227E+02  0.67057398343E+02  0.41800000000E+01 0. -1.
        -11    1    1    2    0    0  0.67024977688E+02 -0.49446059463E+02  0.34752501612E+02  0.90249636004E+02  0.00000000000E+00 0.  1.
         11    1    1    2    0    0  0.69078471992E+01  0.34141685584E+02  0.34821313124E+02  0.49253394757E+02  0.00000000000E+00 0. -1.
</event>
<event>
 6    1  0.6447971E-006  0.1524296E+03  0.7561462E-02  0.1197519E+00
         -2   -1    0    0    0  501 -0.00000000000E+00  0.00000000000E+00  0.11315024329E+03  0.11315024329E+03  0.00000000000E+00 0.  1.
          2   -1    0    0  501    0  0.00000000000E+00 -0.00000000000E+00 -0.35252419964E+03  0.35252419964E+03  0.00000000000E+00 0. -1.
          5    1    1    2  502    0  0.11401220557E+03 -0.23606256497E+01 -0.62190736084E+02  0.12995966923E+03  0.41800000000E+01 0. -1.
         -5    1    1    2    0  502  0.21992121601E+02 -0.22084106384E+02  0.47549717980E+02  0.57007098219E+02  0.41800000000E+01 0. -1.
        -11    1    1    2    0    0 -0.90980990164E+02 -0.23051463818E+02 -0.16637699553E+03  0.19102412203E+03  0.00000000000E+00 0.  1.
         11    1    1    2    0    0 -0.45023337003E+02  0.47496195852E+02 -0.58355942717E+02  0.87683553450E+02  0.00000000000E+00 0. -1.
</event>
<event>
 6    1  0.6447971E-006  0.2198379E+03  0.7561462E-02  0.1134004E+00
          1   -1    0    0  501    0  0.00000000000E+00  0.00000000000E+00  0.29900804907E+03  0.29900804907E+03  0.00000000000E+00 0. -1.
         -1   -1    0    0    0  501 -0.00000000000E+00 -0.00000000000E+00 -0.21345166831E+03  0.21345166831E+03  0.00000000000E+00 0.  1.
          5    1    1    2  502    0  0.91033744192E+02  0.14164408409E+03 -0.71080097337E+01  0.16857694190E+03  0.41800000000E+01 0. -1.
         -5    1    1    2    0  502  0.58953733629E+02 -0.41769922838E+02 -0.57739375104E+02  0.92582811580E+02  0.41800000000E+01 0.  1.
        -11    1    1    2    0    0 -0.69747744700E+02  0.12831342816E+01  0.34643508833E+02  0.77888170017E+02  0.00000000000E+00 0. -1.
         11    1    1    2    0    0 -0.80239733121E+02 -0.10115729554E+03  0.11576025677E+03  0.17341179388E+03  0.00000000000E+00 0.  1.
</event>
<event>
 6    1  0.6447971E-006  0.1101557E+03  0.7561462E-02  0.1260282E+00
          1   -1    0    0  501    0  0.00000000000E+00  0.00000000000E+00  0.31277998313E+02  0.31277998313E+02  0.00000000000E+00 0. -1.
         -1   -1    0    0    0  501 -0.00000000000E+00 -0.00000000000E+00 -0.45770311059E+03  0.45770311059E+03  0.00000000000E+00 0.  1.
          5    1    1    2  502    0  0.19705368852E+02 -0.49905421968E+02 -0.46187068427E+02  0.70919464135E+02  0.41800000000E+01 0. -1.
         -5    1    1    2    0  502 -0.59809098455E+02  0.19242541795E+02 -0.20160285108E+03  0.21120744692E+03  0.41800000000E+01 0. -1.
        -11    1    1    2    0    0 -0.16371539315E+02  0.42745400222E+02 -0.66659506284E+02  0.80862143910E+02  0.00000000000E+00 0.  1.
         11    1    1    2    0    0  0.56475268918E+02 -0.12082520049E+02 -0.11197568648E+03  0.12599205393E+03  0.00000000000E+00 0. -1.
</event>
<event>
 6    1  0.6447971E-006  0.1246629E+03  0.7561462E-02  0.1235597E+00
         -2   -1    0    0    0  501 -0.00000000000E+00  0.00000000000E+00  0.23225426480E+03  0.23225426480E+03  0.00000000000E+00 0.  1.
          2   -1    0    0  501    0  0.00000000000E+00 -0.00000000000E+00 -0.14556361114E+03  0.14556361114E+03  0.00000000000E+00 0. -1.
          5    1    1    2  502    0 -0.51697526658E+02 -0.13420561592E+02  0.28491028655E+02  0.60679130265E+02  0.41800000000E+01 0. -1.
         -5    1    1    2    0  502  0.26979490343E+02 -0.82175241950E+02  0.13688995229E+03  0.16197837735E+03  0.41800000000E+01 0.  1.
        -11    1    1    2    0    0 -0.12996768543E+02  0.39340727418E+02 -0.76967751717E+02  0.87410775255E+02  0.00000000000E+00 0. -1.
         11    1    1    2    0    0  0.37714804857E+02  0.56255076124E+02 -0.17225755802E+01  0.67749593074E+02  0.00000000000E+00 0.  1.
</event>
<event>
 6    1  0.6447971E-006  0.7967300E+02  0.7561462E-02  0.1329982E+00
          1   -1    0    0  501    0  0.00000000000E+00  0.00000000000E+00  0.13167894405E+03  0.13167894405E+03  0.00000000000E+00 0. -1.
         -1   -1    0    0    0  501 -0.00000000000E+00 -0.00000000000E+00 -0.10922833851E+03  0.10922833851E+03  0.00000000000E+00 0.  1.
          5    1    1    2  502    0  0.22950436371E+02  0.49731284594E+02  0.54151985032E+02  0.77135161113E+02  0.41800000000E+01 0.  1.
         -5    1    1    2    0  502  0.92369556816E+01 -0.11259017917E+02 -0.55610598237E+02  0.57637642830E+02  0.41800000000E+01 0.  1.
        -11    1    1    2    0    0 -0.45444121238E+02 -0.52853980301E+02 -0.64690162980E+01  0.70003996747E+02  0.00000000000E+00 0.  1.
         11    1    1    2    0    0  0.13256729185E+02  0.14381713625E+02  0.30378235043E+02  0.36130481865E+02  0.00000000000E+00 0. -1.
</event>
<event>
 6    1  0.6447971E-006  0.9928300E+02  0.7561462E-02  0.1281811E+00
         -3   -1    0    0    0  501 -0.00000000000E+00  0.00000000000E+00  0.24921014753E+03  0.24921014753E+03  0.00000000000E+00 0.  1.
          3   -1    0    0  501    0  0.00000000000E+00 -0.00000000000E+00 -0.67745730551E+02  0.67745730551E+02  0.00000000000E+00 0. -1.
          5    1    1    2  502    0 -0.20599267512E+02  0.37673873285E+02  0.95095831710E+01  0.44176409116E+02  0.41800000000E+01 0. -1.
         -5    1    1    2    0  502 -0.16312191634E+02 -0.54139571408E+02  0.16388087407E+03  0.17341163189E+03  0.41800000000E+01 0. -1.
        -11    1    1    2    0    0  0.23045396614E+02  0.54000966693E+02  0.86659349337E+01  0.59348910160E+02  0.00000000000E+00 0. -1.
         11    1    1    2    0    0  0.13866062532E+02 -0.37535268570E+02 -0.59197519818E+00  0.40018926915E+02  0.00000000000E+00 0.  1.
</event>
<event>
 6    1  0.6447971E-006  0.1097910E+03  0.7561462E-02  0.1260957E+00
          1   -1    0    0  501    0  0.00000000000E+00  0.00000000000E+00  0.40051823323E+03  0.40051823323E+03  0.00000000000E+00 0. -1.
         -1   -1    0    0    0  501 -0.00000000000E+00 -0.00000000000E+00 -0.48249552127E+02  0.48249552127E+02  0.00000000000E+00 0.  1.
          5    1    1    2  502    0  0.57379043546E+02 -0.42541409596E+02  0.11075082059E+02  0.72403425412E+02  0.41800000000E+01 0. -1.
         -5    1    1    2    0  502  0.15028599555E+02  0.37913878124E+02  0.10601111854E+03  0.11366244152E+03  0.41800000000E+01 0. -1.
        -11    1    1    2    0    0 -0.29097235886E+02  0.41136935580E+02  0.16494022396E+03  0.17246499380E+03  0.00000000000E+00 0.  1.
         11    1    1    2    0    0 -0.43310407215E+02 -0.36509404108E+02  0.70242256545E+02  0.90236924626E+02  0.00000000000E+00 0. -1.
</event>
<event>
 6    1  0.6447971E-006  0.1090061E+03  0.7561462E-02  0.1262422E+00
         -1   -1    0    0    0  501 -0.00000000000E+00  0.00000000000E+00  0.22072944296E+03  0.22072944296E+03  0.00000000000E+00 0.  1.
          1   -1    0    0  501    0  0.00000000000E+00 -0.00000000000E+00 -0.72465349024E+02  0.72465349024E+02  0.00000000000E+00 0. -1.
          5    1    1    2  502    0 -0.18104917567E+02  0.30898479059E+02 -0.31369151967E+01  0.36191389656E+02  0.41800000000E+01 0.  1.
         -5    1    1    2    0  502 -0.15155191705E+02 -0.74767505790E+02  0.12723021851E+03  0.14840775135E+03  0.41800000000E+01 0.  1.
        -11    1    1    2    0    0  0.47158346305E+02 -0.11439955260E+02  0.15302946864E+02  0.50881847306E+02  0.00000000000E+00 0.  1.
         11    1    1    2    0    0 -0.13898237033E+02  0.55308981991E+02  0.88678437561E+01  0.57713803673E+02  0.00000000000E+00 0. -1.
</event>
<event>
 6    1  0.6447971E-006  0.1027229E+03  0.7561462E-02  0.1274672E+00
         -1   -1    0    0    0  501 -0.00000000000E+00  0.00000000000E+00  0.14601259139E+02  0.14601259139E+02  0.00000000000E+00 0.  1.
          1   -1    0    0  501    0  0.00000000000E+00 -0.00000000000E+00 -0.12902997372E+04  0.12902997372E+04  0.00000000000E+00 0. -1.
          5    1    1    2  502    0 -0.48961537857E+02  0.11750060821E+02 -0.70350288018E+02  0.86613691428E+02  0.41800000000E+01 0. -1.
         -5    1    1    2    0  502 -0.32768470337E+02 -0.54890846826E+01 -0.56943706329E+03  0.57042084828E+03  0.41800000000E+01 0. -1.
        -11    1    1    2    0    0  0.74112186784E+02  0.33225651704E+02 -0.48163732078E+03  0.48843737462E+03  0.00000000000E+00 0. -1.
         11    1    1    2    0    0  0.76178214102E+01 -0.39486627843E+02 -0.15427380596E+03  0.15942908200E+03  0.00000000000E+00 0.  1.
</event>
<event>
 6    1  0.6447971E-006  0.1332518E+03  0.7561462E-02  0.1222709E+00
          3   -1    0    0  501    0  0.00000000000E+00  0.00000000000E+00  0.64912858840E+02  0.64912858840E+02  0.00000000000E+00 0. -1.
         -3   -1    0    0    0  501 -0.00000000000E+00 -0.00000000000E+00 -0.42548161722E+03  0.42548161722E+03  0.00000000000E+00 0.  1.
          5    1    1    2  502    0 -0.66153001853E+02  0.76040565918E+02 -0.75980703024E+02  0.12628906109E+03  0.41800000000E+01 0. -1.
         -5    1    1    2    0  502 -0.40355001913E+02 -0.18847361342E+02 -0.16477400550E+03  0.17073867312E+03  0.41800000000E+01 0. -1.
        -11    1    1    2    0    0  0.23298933323E+02 -0.12350228719E+02  0.13749796936E+02  0.29739289823E+02  0.00000000000E+00 0. -1.
         11    1    1    2    0    0  0.83209070443E+02 -0.44842975858E+02 -0.13356384679E+03  0.16362745203E+03  0.00000000000E+00 0.  1.
</event>
<event>
 6    1  0.6447971E-006  0.1525271E+03  0.7561462E-02  0.1197402E+00
         -2   -1    0    0    0  501 -0.00000000000E+00  0.00000000000E+00  0.26366311689E+02  0.26366311689E+02  0.00000000000E+00 0.  1.
          2   -1    0    0  501    0  0.00000000000E+00 -0.00000000000E+00 -0.12458368812E+04  0.12458368812E+04  0.00000000000E+00 0. -1.
          5    1    1    2  502    0  0.67812865295E+02 -0.10079901187E+03 -0.26318381682E+03  0.28990036104E+03  0.41800000000E+01 0.  1.
         -5    1    1    2    0  502  0.38414844280E+02  0.26212982011E+01 -0.35708820509E+03  0.35918244679E+03  0.41800000000E+01 0.  1.
        -11    1    1    2    0    0 -0.39308404583E+02  0.32549880274E+02 -0.75698682553E+02  0.91295870208E+02  0.00000000000E+00 0.  1.
         11    1    1    2    0    0 -0.66919304992E+02  0.65627833400E+02 -0.52349986508E+03  0.53182451489E+03  0.00000000000E+00 0. -1.
</event>
<event>
 6    1  0.6447971E-006  0.9168832E+02  0.7561462E-02  0.1298814E+00
         -1   -1    0    0    0  501 -0.00000000000E+00  0.00000000000E+00  0.53697029203E+02  0.53697029203E+02  0.00000000000E+00 0.  1.
          1   -1    0    0  501    0  0.00000000000E+00 -0.00000000000E+00 -0.24648099590E+03  0.24648099590E+03  0.00000000000E+00 0. -1.
          5    1    1    2  502    0  0.17893650052E+02 -0.50996825889E+02 -0.35543366376E+02  0.64820230301E+02  0.41800000000E+01 0. -1.
         -5    1    1    2    0  502 -0.24973324625E+02  0.66512478804E+02 -0.27538318384E+02  0.76311258402E+02  0.41800000000E+01 0. -1.
        -11    1    1    2    0    0 -0.23002224333E+02 -0.15820678592E+02 -0.21563466418E+01  0.28000821885E+02  0.00000000000E+00 0.  1.
         11    1    1    2    0    0  0.30081898906E+02  0.30502567669E+00 -0.12754593529E+03  0.13104571451E+03  0.00000000000E+00 0. -1.
</event>
<event>
 6    1  0.6447971E-006  0.9653897E+02  0.7561462E-02  0.1287747E+00
         -1   -1    0    0    0  501 -0.00000000000E+00  0.00000000000E+00  0.54062503558E+02  0.54062503558E+02  0.00000000000E+00 0.  1.
          1   -1    0    0  501    0  0.00000000000E+00 -0.00000000000E+00 -0.30955406107E+03  0.30955406107E+03  0.00000000000E+00 0. -1.
          5    1    1    2  502    0  0.43448162475E+02 -0.26948068637E+02 -0.53851634678E+01  0.51579197467E+02  0.41800000000E+01 0. -1.
         -5    1    1    2    0  502 -0.74194045798E+02 -0.16612863500E+02 -0.72417236520E+02  0.10508316807E+03  0.41800000000E+01 0. -1.
        -11    1    1    2    0    0  0.10606832717E+02 -0.59660975015E+01  0.74370586066E+01  0.14262154831E+02  0.00000000000E+00 0.  1.
         11    1    1    2    0    0  0.20139050605E+02  0.49527029638E+02 -0.18512621614E+03  0.19269204427E+03  0.00000000000E+00 0. -1.
</event>
<event>
 6    1  0.6447971E-006  0.1398603E+03  0.7561462E-02  0.1213517E+00
         -1   -1    0    0    0  501 -0.00000000000E+00  0.00000000000E+00  0.18781742093E+03  0.18781742093E+03  0.00000000000E+00 0.  1.
          1   -1    0    0  501    0  0.00000000000E+00 -0.00000000000E+00 -0.11867377336E+03  0.11867377336E+03  0.00000000000E+00 0. -1.
          5    1    1    2  502    0 -0.11281300527E+03  0.24771674914E+02  0.36299246936E+02  0.12114255142E+03  0.41800000000E+01 0.  1.
         -5    1    1    2    0  502  0.11930627751E+02 -0.43730471587E+02  0.44989272874E+01  0.45742832996E+02  0.41800000000E+01 0.  1.
        -11    1    1    2    0    0  0.50869120373E+02 -0.20574165068E+02  0.47989594191E+02  0.72896946619E+02  0.00000000000E+00 0.  1.
         11    1    1    2    0    0  0.50013257143E+02  0.39532961741E+02 -0.19644120836E+02  0.66708863260E+02  0.00000000000E+00 0. -1.
</event>
<event>
 6    1  0.6447971E-006  0.1005519E+03  0.7561462E-02  0.1279140E+00
         -4   -1    0    0    0  501 -0.00000000000E+00  0.00000000000E+00  0.15559782268E+03  0.15559782268E+03  0.00000000000E+00 0.  1.
          4   -1    0    0  501    0  0.00000000000E+00 -0.00000000000E+00 -0.11537294301E+03  0.11537294301E+03  0.00000000000E+00 0. -1.
          5    1    1    2  502    0  0.83890118396E+01  0.50706999120E+02  0.26652664700E+01  0.51634787931E+02  0.41800000000E+01 0.  1.
         -5    1    1    2    0  502  0.40268407289E+02 -0.58206023796E+02  0.76811862550E+02  0.10453238953E+03  0.41800000000E+01 0.  1.
        -11    1    1    2    0    0 -0.56376089463E+01  0.29697123731E+02  0.21521319900E+02  0.37106185506E+02  0.00000000000E+00 0.  1.
         11    1    1    2    0    0 -0.43019810182E+02 -0.22198099055E+02 -0.60773569251E+02  0.77697402719E+02  0.00000000000E+00 0. -1.
</event>
<event>
 6    1  0.6447971E-006  0.8101152E+02  0.7561462E-02  0.1326205E+00
         -1   -1    0    0    0  501 -0.00000000000E+00  0.00000000000E+00  0.45035480135E+02  0.45035480135E+02  0.00000000000E+00 0.  1.
          1   -1    0    0  501    0  0.00000000000E+00 -0.00000000000E+00 -0.24058093434E+03  0.24058093434E+03  0.00000000000E+00 0. -1.
          5    1    1    2  502    0  0.78572505012E+01 -0.29695835547E+02  0.14755923449E+02  0.34333492556E+02  0.41800000000E+01 0.  1.
         -5    1    1    2    0  502  0.74965361993E+01  0.35966447728E+02 -0.97926771517E+02  0.10467525208E+03  0.41800000000E+01 0. -1.
        -11    1    1    2    0    0 -0.37566140575E+02 -0.39219949418E+02 -0.68409046200E+02  0.87345388842E+02  0.00000000000E+00 0. -1.
         11    1    1    2    0    0  0.22212353874E+02  0.32949337237E+02 -0.43965559935E+02  0.59262281001E+02  0.00000000000E+00 0.  1.
</event>
<event>
 6    1  0.6447971E-006  0.1383565E+03  0.7561462E-02  0.1215558E+00
         -2   -1    0    0    0  501 -0.00000000000E+00  0.00000000000E+00  0.68093274052E+02  0.68093274052E+02  0.00000000000E+00 0.  1.
          2   -1    0    0  501    0  0.00000000000E+00 -0.00000000000E+00 -0.34930105776E+03  0.34930105776E+03  0.00000000000E+00 0. -1.
          5    1    1    2  502    0  0.30662076219E+02  0.16414185507E+02 -0.75841954860E+01  0.35841049442E+02  0.41800000000E+01 0. -1.
         -5    1    1    2    0  502  0.51848585672E+01 -0.11839535031E+03 -0.16456177386E+03  0.20283587342E+03  0.41800000000E+01 0. -1.
        -11    1    1    2    0    0  0.94219090846E+01  0.61976816112E+02 -0.99429881060E+02  0.11754233005E+03  0.00000000000E+00 0. -1.
         11    1    1    2    0    0 -0.45268843871E+02  0.40004348686E+02 -0.96319333083E+01  0.61175078900E+02  0.00000000000E+00 0.  1.
</event>
<event>
 6    1  0.6447971E-006  0.1010134E+03  0.7561462E-02  0.1278179E+00
         -1   -1    0    0    0  501 -0.00000000000E+00  0.00000000000E+00  0.28720486524E+03  0.28720486524E+03  0.00000000000E+00 0.  1.
          1   -1    0    0  501    0  0.00000000000E+00 -0.00000000000E+00 -0.48292832237E+02  0.48292832237E+02  0.00000000000E+00 0. -1.
          5    1    1    2  502    0 -0.28516906857E+02 -0.70466029709E+02  0.13262795865E+03  0.15292587464E+03  0.41800000000E+01 0.  1.
         -5    1    1    2    0  502 -0.74030599036E+01  0.53523088396E+02  0.70493373981E+02  0.88917458706E+02  0.41800000000E+01 0.  1.
        -11    1    1    2    0    0  0.31143307943E+02 -0.18308765410E+02 -0.82344897577E+01  0.37052980204E+02  0.00000000000E+00 0. -1.
         11    1    1    2    0    0  0.47766588177E+01  0.35251706722E+02  0.44025190135E+02  0.56601383930E+02  0.00000000000E+00 0.  1.
</event>
<event>
 6    1  0.6447971E-006  0.1005537E+03  0.7561462E-02  0.1279136E+00
         -2   -1    0    0    0  501 -0.00000000000E+00  0.00000000000E+00  0.26041482221E+02  0.26041482221E+02  0.00000000000E+00 0.  1.
          2   -1    0    0  501    0  0.00000000000E+00 -0.00000000000E+00 -0.51960634881E+03  0.51960634881E+03  0.00000000000E+00 0. -1.
          5    1    1    2  502    0  0.32783250723E+02  0.18350430450E+02 -0.23621561819E+02  0.44574997571E+02  0.41800000000E+01 0. -1.
         -5    1    1    2    0  502 -0.64643016438E+02 -0.53756288974E+02 -0.18555737197E+03  0.20375835902E+03  0.41800000000E+01 0. -1.
        -11    1    1    2    0    0 -0.19408907337E+02  0.79884927226E+01 -0.31645328852E+02  0.37972997487E+02  0.00000000000E+00 0.  1.
         11    1    1    2    0    0  0.51268673052E+02  0.27417365802E+02 -0.25274060395E+03  0.25934147696E+03  0.00000000000E+00 0. -1.
</event>
<event>
 6    1  0.6447971E-006  0.7160326E+02  0.7561462E-02  0.1354724E+00
          2   -1    0    0  501    0  0.00000000000E+00  0.00000000000E+00  0.13931139817E+02  0.13931139817E+02  0.00000000000E+00 0. -1.
         -2   -1    0    0    0  501 -0.00000000000E+00 -0.00000000000E+00 -0.10752232127E+04  0.10752232127E+04  0.00000000000E+00 0.  1.
          5    1    1    2  502    0 -0.76253447265E+01  0.36874258950E+02 -0.80446295381E+02  0.88920951951E+02  0.41800000000E+01 0. -1.
         -5    1    1    2    0  502  0.20824264306E+02 -0.30688966967E+02 -0.75918793127E+03  0.76010476255E+03  0.41800000000E+01 0. -1.
        -11    1    1    2    0    0 -0.44488541760E+01 -0.36334299599E+02 -0.19655090697E+03  0.19993056960E+03  0.00000000000E+00 0.  1.
         11    1    1    2    0    0 -0.87500654039E+01  0.30149007616E+02 -0.25106939274E+02  0.40198068418E+02  0.00000000000E+00 0. -1.
</event>
<event>
 6    1  0.6447971E-006  0.1249633E+03  0.7561462E-02  0.1235127E+00
         -3   -1    0    0    0  501 -0.00000000000E+00  0.00000000000E+00  0.58025830764E+02  0.58025830764E+02  0.00000000000E+00 0.  1.
          3   -1    0    0  501    0  0.00000000000E+00 -0.00000000000E+00 -0.26989460159E+03  0.26989460159E+03  0.00000000000E+00 0. -1.
          5    1    1    2  502    0 -0.46325980595E+02 -0.36541315835E+02 -0.51823225222E+02  0.78641485957E+02  0.41800000000E+01 0. -1.
         -5    1    1    2    0  502  0.22958104192E+01  0.80124887383E+02 -0.60065908361E+02  0.10025295043E+03  0.41800000000E+01 0. -1.
        -11    1    1    2    0    0  0.28052940184E+02 -0.72352832148E+02 -0.69735188457E+02  0.10433070632E+03  0.00000000000E+00 0.  1.
         11    1    1    2    0    0  0.15977229991E+02  0.28769260600E+02 -0.30244448790E+02  0.44695289643E+02  0.00000000000E+00 0. -1.
</event>
<event>
 6    1  0.6447971E-006  0.1538181E+03  0.7561462E-02  0.1195858E+00
         -2   -1    0    0    0  501 -0.00000000000E+00  0.00000000000E+00  0.25383815448E+03  0.25383815448E+03  0.00000000000E+00 0.  1.
          2   -1    0    0  501    0  0.00000000000E+00 -0.00000000000E+00 -0.28168132122E+03  0.28168132122E+03  0.00000000000E+00 0. -1.
          5    1    1    2  502    0 -0.57514434133E+02 -0.11576975776E+02 -0.41440202907E+02  0.71949282962E+02  0.41800000000E+01 0. -1.
         -5    1    1    2    0  502 -0.21740879961E+02  0.33868587063E+02  0.18760020899E+03  0.19191419402E+03  0.41800000000E+01 0.  1.
        -11    1    1    2    0    0  0.93224030056E+02  0.69013428212E+02 -0.10354095649E+03  0.15548087575E+03  0.00000000000E+00 0.  1.
         11    1    1    2    0    0 -0.13968715963E+02 -0.91305039500E+02 -0.70462216338E+02  0.11617512296E+03  0.00000000000E+00 0. -1.
</event>
<event>
 6    1  0.6447971E-006  0.1741436E+03  0.7561462E-02  0.1173594E+00
          2   -1    0    0  501    0  0.00000000000E+00  0.00000000000E+00  0.55977421099E+03  0.55977421099E+03  0.00000000000E+00 0. -1.
         -2   -1    0    0    0  501 -0.00000000000E+00 -0.00000000000E+00 -0.11378029822E+03  0.11378029822E+03  0.00000000000E+00 0.  1.
          5    1    1    2  502    0  0.77388773581E+02  0.97128348910E+02  0.80742739990E+02  0.14818839664E+03  0.41800000000E+01 0. -1.
         -5    1    1    2    0  502  0.28863782285E+02  0.40539423876E+02 -0.47109631474E+02  0.68653860733E+02  0.41800000000E+01 0. -1.
        -11    1    1    2    0    0 -0.19576255257E+02 -0.30704898936E+02  0.20233335640E+03  0.20558406480E+03  0.00000000000E+00 0. -1.
         11    1    1    2    0    0 -0.86676300609E+02 -0.10696287385E+03  0.21002744786E+03  0.25112818704E+03  0.00000000000E+00 0.  1.
</event>
<event>
 6    1  0.6447971E-006  0.1404135E+03  0.7561462E-02  0.1212774E+00
          2   -1    0    0  501    0  0.00000000000E+00  0.00000000000E+00  0.93946806883E+02  0.93946806883E+02  0.00000000000E+00 0. -1.
         -2   -1    0    0    0  501 -0.00000000000E+00 -0.00000000000E+00 -0.26128036746E+03  0.26128036746E+03  0.00000000000E+00 0.  1.
          5    1    1    2  502    0  0.84676100355E+02  0.70008565801E+02 -0.10370942649E+03  0.15114350399E+03  0.41800000000E+01 0. -1.
         -5    1    1    2    0  502 -0.40839601069E+02  0.30823385679E+02 -0.15343531789E+02  0.53580318103E+02  0.41800000000E+01 0. -1.
        -11    1    1    2    0    0  0.61762817272E+00 -0.57364995705E+02 -0.64427635478E+02  0.86267284703E+02  0.00000000000E+00 0.  1.
         11    1    1    2    0    0 -0.44454127458E+02 -0.43466955776E+02  0.16147033181E+02  0.64236067540E+02  0.00000000000E+00 0. -1.
</event>
<event>
 6    1  0.6447971E-006  0.1566258E+03  0.7561462E-02  0.1192560E+00
          2   -1    0    0  501    0  0.00000000000E+00  0.00000000000E+00  0.90572037114E+03  0.90572037114E+03  0.00000000000E+00 0. -1.
         -2   -1    0    0    0  501 -0.00000000000E+00 -0.00000000000E+00 -0.51225029068E+02  0.51225029068E+02  0.00000000000E+00 0.  1.
          5    1    1    2  502    0 -0.25733992813E+02  0.17334644275E+02  0.12724392126E+03  0.13103898724E+03  0.41800000000E+01 0.  1.
         -5    1    1    2    0  502 -0.11797301473E+03 -0.30318022793E+02  0.57892828670E+02  0.13492911740E+03  0.41800000000E+01 0.  1.
        -11    1    1    2    0    0  0.74239486848E+02 -0.28075709113E+02  0.45625537353E+03  0.46310766860E+03  0.00000000000E+00 0. -1.
         11    1    1    2    0    0  0.69467520698E+02  0.41059087631E+02  0.21310321862E+03  0.22786962697E+03  0.00000000000E+00 0.  1.
</event>
<event>
 6    1  0.6447971E-006  0.1114522E+03  0.7561462E-02  0.1257904E+00
         -2   -1    0    0    0  501 -0.00000000000E+00  0.00000000000E+00  0.72249596232E+02  0.72249596232E+02  0.00000000000E+00 0.  1.
          2   -1    0    0  501    0  0.00000000000E+00 -0.00000000000E+00 -0.30528968722E+03  0.30528968722E+03  0.00000000000E+00 0. -1.
          5    1    1    2  502    0  0.99104270178E+02 -0.18582791269E+02 -0.11790701549E+03  0.15519830282E+03  0.41800000000E+01 0.  1.
         -5    1    1    2    0  502  0.40536981147E+00  0.12051320280E+02  0.26239789203E+02  0.29178717974E+02  0.41800000000E+01 0.  1.
        -11    1    1    2    0    0 -0.90065746518E+02  0.20493957677E+02 -0.14848221256E+03  0.17486797433E+03  0.00000000000E+00 0. -1.
         11    1    1    2    0    0 -0.94438934709E+01 -0.13962486689E+02  0.71093478584E+01  0.18294288327E+02  0.00000000000E+00 0.  1.
</event>
<event>
 6    1  0.6447971E-006  0.5788988E+02  0.7561462E-02  0.1406906E+00
          2   -1    0    0  501    0  0.00000000000E+00  0.00000000000E+00  0.23811386751E+03  0.23811386751E+03  0.00000000000E+00 0. -1.
         -2   -1    0    0    0  501 -0.00000000000E+00 -0.00000000000E+00 -0.51986555298E+02  0.51986555298E+02  0.00000000000E+00 0.  1.
          5    1    1    2  502    0 -0.12372605919E+02  0.84893556764E+01  0.13078336114E+03  0.13170767057E+03  0.41800000000E+01 0.  1.
         -5    1    1    2    0  502 -0.16078717453E+02  0.15987094435E+02 -0.26711327518E+02  0.35285687767E+02  0.41800000000E+01 0.  1.
        -11    1    1    2    0    0  0.47674497868E+02 -0.30977295529E+02  0.24190075415E+02  0.61786813592E+02  0.00000000000E+00 0.  1.
         11    1    1    2    0    0 -0.19223174496E+02  0.65008454169E+01  0.57865203177E+02  0.61320250876E+02  0.00000000000E+00 0. -1.
</event>
<event>
 6    1  0.6447971E-006  0.1020709E+03  0.7561462E-02  0.1276000E+00
         -1   -1    0    0    0  501 -0.00000000000E+00  0.00000000000E+00  0.15195331620E+03  0.15195331620E+03  0.00000000000E+00 0.  1.
          1   -1    0    0  501    0  0.00000000000E+00 -0.00000000000E+00 -0.81147306682E+02  0.81147306682E+02  0.00000000000E+00 0. -1.
          5    1    1    2  502    0  0.47332979781E+02  0.56449467286E+02  0.23140844277E+02  0.77329970941E+02  0.41800000000E+01 0. -1.
         -5    1    1    2    0  502 -0.28653708613E+02 -0.44406437237E+02  0.23707762987E+02  0.58073204761E+02  0.41800000000E+01 0. -1.
        -11    1    1    2    0    0 -0.47069085820E+02 -0.16129461208E+01  0.41466285340E+02  0.62749926335E+02  0.00000000000E+00 0. -1.
         11    1    1    2    0    0  0.28389814652E+02 -0.10430083928E+02 -0.17508883083E+02  0.34947520849E+02  0.00000000000E+00 0.  1.
</event>
<event>
 6    1  0.6447971E-006  0.1551795E+03  0.7561462E-02  0.1194249E+00
         -2   -1    0    0    0  501 -0.00000000000E+00  0.00000000000E+00  0.84732702931E+02  0.84732702931E+02  0.00000000000E+00 0.  1.
          2   -1    0    0  501    0  0.00000000000E+00 -0.00000000000E+00 -0.33694674243E+03  0.33694674243E+03  0.00000000000E+00 0. -1.
          5    1    1    2  502    0 -0.32199088600E+01  0.11113887299E+03 -0.10265191946E+03  0.15138396834E+03  0.41800000000E+01 0.  1.
         -5    1    1    2    0  502 -0.53751426409E+02  0.20004797717E+01  0.34583642097E+00  0.53951920847E+02  0.41800000000E+01 0.  1.
        -11    1    1    2    0    0  0.49774170770E+02 -0.12314215560E+03 -0.10366566779E+03  0.16848747502E+03  0.00000000000E+00 0.  1.
         11    1    1    2    0    0  0.71971644986E+01  0.10002802833E+02 -0.46242288669E+02  0.47856081146E+02  0.00000000000E+00 0. -1.
</event>
<event>
 6    1  0.6447971E-006  0.1073172E+03  0.7561462E-02  0.1265620E+00
          2   -1    0    0  501    0  0.00000000000E+00  0.00000000000E+00  0.21867602918E+03  0.21867602918E+03  0.00000000000E+00 0. -1.
         -2   -1    0    0    0  501 -0.00000000000E+00 -0.00000000000E+00 -0.66978107160E+02  0.66978107160E+02  0.00000000000E+00 0.  1.
          5    1    1    2  502    0  0.50988454355E+02  0.48765133246E+02  0.57442602441E+02  0.91076811941E+02  0.41800000000E+01 0.  1.
         -5    1    1    2    0  502 -0.60288615455E+02  0.33482125099E+01  0.12887787388E+02  0.61882914801E+02  0.41800000000E+01 0.  1.
        -11    1    1    2    0    0  0.27721462383E+02 -0.57839807533E+02  0.18236824930E+02  0.66682116010E+02  0.00000000000E+00 0.  1.
         11    1    1    2    0    0 -0.18421301283E+02  0.57264617763E+01  0.63130707258E+02  0.66012293584E+02  0.00000000000E+00 0. -1.
</event>
<event>
 6    1  0.6447971E-006  0.1184458E+03  0.7561462E-02  0.1245683E+00
          1   -1    0    0  501    0  0.00000000000E+00  0.00000000000E+00  0.62499473360E+03  0.62499473360E+03  0.00000000000E+00 0. -1.
         -1   -1    0    0    0  501 -0.00000000000E+00 -0.00000000000E+00 -0.35943294406E+02  0.35943294406E+02  0.00000000000E+00 0.  1.
          5    1    1    2  502    0  0.56134946849E+01  0.89369529207E+02  0.52642345375E+02  0.10395726526E+03  0.41800000000E+01 0.  1.
         -5    1    1    2    0  502  0.22820208908E+02 -0.81994070539E+01  0.13586397426E+03  0.13807419785E+03  0.41800000000E+01 0.  1.
        -11    1    1    2    0    0  0.28619128014E+02 -0.77291767606E+01  0.93525144434E+02  0.98110892887E+02  0.00000000000E+00 0.  1.
         11    1    1    2    0    0 -0.57052831607E+02 -0.73440945392E+02  0.30701997513E+03  0.32079567201E+03  0.00000000000E+00 0. -1.
</event>
<event>
 6    1  0.6447971E-006  0.1664548E+03  0.7561462E-02  0.1181596E+00
          1   -1    0    0  501    0  0.00000000000E+00  0.00000000000E+00  0.44692224302E+03  0.44692224302E+03  0.00000000000E+00 0. -1.
         -1   -1    0    0    0  501 -0.00000000000E+00 -0.00000000000E+00 -0.74374284702E+02  0.74374284702E+02  0.00000000000E+00 0.  1.
          5    1    1    2  502    0 -0.16387209768E+02 -0.35007291285E+02  0.91642219826E+02  0.99548078544E+02  0.41800000000E+01 0.  1.
         -5    1    1    2    0  502  0.99340232248E+02 -0.80236047913E+02  0.51605023484E+02  0.13779280089E+03  0.41800000000E+01 0.  1.
        -11    1    1    2    0    0  0.23284364070E+01  0.69410504615E+02  0.79173846697E+02  0.10531731941E+03  0.00000000000E+00 0.  1.
         11    1    1    2    0    0 -0.85281458887E+02  0.45832834583E+02  0.15012686831E+03  0.17863832888E+03  0.00000000000E+00 0. -1.
</event>
<event>
 6    1  0.6447971E-006  0.9394846E+02  0.7561462E-02  0.1293562E+00
          4   -1    0    0  501    0  0.00000000000E+00  0.00000000000E+00  0.34946241885E+03  0.34946241885E+03  0.00000000000E+00 0. -1.
         -4   -1    0    0    0  501 -0.00000000000E+00 -0.00000000000E+00 -0.39224718557E+02  0.39224718557E+02  0.00000000000E+00 0.  1.
          5    1    1    2  502    0  0.70806163804E+02  0.93651941127E+01  0.33797529148E+02  0.79126260305E+02  0.41800000000E+01 0. -1.
         -5    1    1    2    0  502 -0.25424618054E+02 -0.11313138636E+01  0.12779356838E+03  0.13037008703E+03  0.41800000000E+01 0. -1.
        -11    1    1    2    0    0 -0.39594861992E+02 -0.41170167295E+02  0.53207534057E+02  0.78062650811E+02  0.00000000000E+00 0.  1.
         11    1    1    2    0    0 -0.57866837585E+01  0.32936287046E+02  0.95439068712E+02  0.10112813926E+03  0.00000000000E+00 0. -1.
</event>
<event>
 6    1  0.6447971E-006  0.8044201E+02  0.7561462E-02  0.1327802E+00
         -1   -1    0    0    0  501 -0.00000000000E+00  0.00000000000E+00  0.29946079394E+02  0.29946079394E+02  0.00000000000E+00 0.  1.
          1   -1    0    0  501    0  0.00000000000E+00 -0.00000000000E+00 -0.49333980784E+03  0.49333980784E+03  0.00000000000E+00 0. -1.
          5    1    1    2  502    0 -0.92615442443E+01 -0.13378309708E+02 -0.16787441559E+03  0.16871291350E+03  0.41800000000E+01 0. -1.
         -5    1    1    2    0  502  0.14190937484E+02  0.57648881474E+02 -0.23001400944E+02  0.63806842010E+02  0.41800000000E+01 0. -1.
        -11    1    1    2    0    0 -0.15743797113E+02  0.16521189171E+02 -0.18578116392E+02  0.29427253487E+02  0.00000000000E+00 0.  1.
         11    1    1    2    0    0  0.10814403873E+02 -0.60791760937E+02 -0.25393979553E+03  0.26133887824E+03  0.00000000000E+00 0. -1.
</event>
<event>
 6    1  0.6447971E-006  0.1665351E+03  0.7561462E-02  0.1181510E+00
         -2   -1    0    0    0  501 -0.00000000000E+00  0.00000000000E+00  0.72127977010E+02  0.72127977010E+02  0.00000000000E+00 0.  1.
          2   -1    0    0  501    0  0.00000000000E+00 -0.00000000000E+00 -0.51833474128E+03  0.51833474128E+03  0.00000000000E+00 0. -1.
          5    1    1    2  502    0  0.14696911293E+03  0.16119123227E+02 -0.24755533866E+03  0.28837625490E+03  0.41800000000E+01 0.  1.
         -5    1    1    2    0  502  0.95019256139E+01  0.17269923910E+02  0.11355320643E+02  0.23129041682E+02  0.41800000000E+01 0.  1.
        -11    1    1    2    0    0 -0.73528774132E+02  0.48291266326E+01 -0.15683250938E+03  0.17328080415E+03  0.00000000000E+00 0. -1.
         11    1    1    2    0    0 -0.82942264412E+02 -0.38218173770E+02 -0.53174236874E+02  0.10567661756E+03  0.00000000000E+00 0.  1.
</event>
<event>
 6    1  0.6447971E-006  0.1298153E+03  0.7561462E-02  0.1227730E+00
         -1   -1    0    0    0  501 -0.00000000000E+00  0.00000000000E+00  0.27541716696E+03  0.27541716696E+03  0.00000000000E+00 0.  1.
          1   -1    0    0  501    0  0.00000000000E+00 -0.00000000000E+00 -0.13854499210E+03  0.13854499210E+03  0.00000000000E+00 0. -1.
          5    1    1    2  502    0 -0.44409874238E+02  0.49190919318E+02  0.20286699636E+01  0.66434715134E+02  0.41800000000E+01 0. -1.
         -5    1    1    2    0  502 -0.46059945525E+02  0.42546373027E+02  0.17412004316E+03  0.18511340921E+03  0.41800000000E+01 0. -1.
        -11    1    1    2    0    0  0.43898676023E+02 -0.30517947659E+02  0.27885245538E+02  0.60299467698E+02  0.00000000000E+00 0.  1.
         11    1    1    2    0    0  0.46571143739E+02 -0.61219344686E+02 -0.67161783803E+02  0.10211456701E+03  0.00000000000E+00 0. -1.
</event>
<event>
 6    1  0.6447971E-006  0.1354861E+03  0.7561462E-02  0.1219535E+00
         -1   -1    0    0    0  501 -0.00000000000E+00  0.00000000000E+00  0.15012969269E+03  0.15012969269E+03  0.00000000000E+00 0.  1.
          1   -1    0    0  501    0  0.00000000000E+00 -0.00000000000E+00 -0.19731810548E+03  0.19731810548E+03  0.00000000000E+00 0. -1.
          5    1    1    2  502    0 -0.46744006214E+00 -0.10323413843E+03  0.41700589691E+02  0.11141776079E+03  0.41800000000E+01 0. -1.
         -5    1    1    2    0  502 -0.53100933995E+02  0.19191228929E+02  0.23428778525E+02  0.61273097866E+02  0.41800000000E+01 0. -1.
        -11    1    1    2    0    0  0.11133746454E+02  0.62427602052E+02 -0.13171047094E+02  0.64766058160E+02  0.00000000000E+00 0.  1.
         11    1    1    2    0    0  0.42434627603E+02  0.21615307451E+02 -0.99146733918E+02  0.10999088136E+03  0.00000000000E+00 0. -1.
</event>
<event>
 6    1  0.6447971E-006  0.9087972E+02  0.7561462E-02  0.1300735E+00
          2   -1    0    0  501    0  0.00000000000E+00  0.00000000000E+00  0.30800521810E+02  0.30800521810E+02  0.00000000000E+00 0. -1.
         -2   -1    0    0    0  501 -0.00000000000E+00 -0.00000000000E+00 -0.43719649189E+03  0.43719649189E+03  0.00000000000E+00 0.  1.
          5    1    1    2  502    0 -0.71518211068E+02 -0.43659334122E+02 -0.16275339936E+03  0.18310415990E+03  0.41800000000E+01 0. -1.
         -5    1    1    2    0  502  0.30553473144E+02  0.35192139961E+02 -0.65041241305E+02  0.80123884746E+02  0.41800000000E+01 0. -1.
        -11    1    1    2    0    0  0.10600998976E+02 -0.10782222408E+02  0.63177504490E+01  0.16387540086E+02  0.00000000000E+00 0. -1.
         11    1    1    2    0    0  0.30363738948E+02  0.19249416569E+02 -0.18491907987E+03  0.18838142897E+03  0.00000000000E+00 0.  1.
</event>
<event>
 6    1  0.6447971E-006  0.2045956E+03  0.7561462E-02  0.1145919E+00
          4   -1    0    0  501    0  0.00000000000E+00  0.00000000000E+00  0.60591585225E+03  0.60591585225E+03  0.00000000000E+00 0. -1.
         -4   -1    0    0    0  501 -0.00000000000E+00 -0.00000000000E+00 -0.71434863966E+02  0.71434863966E+02  0.00000000000E+00 0.  1.
          5    1    1    2  502    0  0.52868434032E+02 -0.58427813443E+02  0.61349567596E+02  0.99950600524E+02  0.41800000000E+01 0.  1.
         -5    1    1    2    0  502 -0.58095017788E+02 -0.12250692825E+03  0.20039158290E+03  0.24198602740E+03  0.41800000000E+01 0.  1.
        -11    1    1    2    0    0  0.37252804815E+02  0.12200455857E+03  0.19095135026E+03  0.22964168164E+03  0.00000000000E+00 0.  1.
         11    1    1    2    0    0 -0.32026221059E+02  0.58930183120E+02  0.81788487527E+02  0.10577240666E+03  0.00000000000E+00 0. -1.
</event>
<event>
 6    1  0.6447971E-006  0.5557174E+02  0.7561462E-02  0.1417414E+00
         -1   -1    0    0    0  501 -0.00000000000E+00  0.00000000000E+00  0.23289824391E+02  0.23289824391E+02  0.00000000000E+00 0.  1.
          1   -1    0    0  501    0  0.00000000000E+00 -0.00000000000E+00 -0.53932172197E+03  0.53932172197E+03  0.00000000000E+00 0. -1.
          5    1    1    2  502    0  0.13009517724E+02  0.48367184545E+01 -0.23372965080E+03  0.23417869984E+03  0.41800000000E+01 0.  1.
         -5    1    1    2    0  502 -0.19216310480E+02 -0.20658950255E+01  0.10062040589E+02  0.22186743149E+02  0.41800000000E+01 0.  1.
        -11    1    1    2    0    0 -0.10853181489E+02  0.34348443767E+02 -0.57473194754E+02  0.67829014831E+02  0.00000000000E+00 0.  1.
         11    1    1    2    0    0  0.17059974245E+02 -0.37119267196E+02 -0.23489109262E+03  0.23841708855E+03  0.00000000000E+00 0. -1.
</event>
<event>
 6    1  0.6447971E-006  0.7215208E+02  0.7561462E-02  0.1352924E+00
          1   -1    0    0  501    0  0.00000000000E+00  0.00000000000E+00  0.55056998250E+03  0.55056998250E+03  0.00000000000E+00 0. -1.
         -1   -1    0    0    0  501 -0.00000000000E+00 -0.00000000000E+00 -0.30693194687E+02  0.30693194687E+02  0.00000000000E+00 0.  1.
          5    1    1    2  502    0  0.43629240420E+01  0.61442886610E+01 -0.20718692718E+02  0.22439340839E+02  0.41800000000E+01 0. -1.
         -5    1    1    2    0  502  0.98087994423E+01  0.33906077420E+02  0.18493598165E+03  0.18832053617E+03  0.41800000000E+01 0. -1.
        -11    1    1    2    0    0  0.33324845636E+02  0.61455195863E+01  0.17078696952E+03  0.17411634531E+03  0.00000000000E+00 0.  1.
         11    1    1    2    0    0 -0.47496569120E+02 -0.46195885667E+02  0.18487252936E+03  0.19638695487E+03  0.00000000000E+00 0. -1.
</event>
<event>
 6    1  0.6447971E-006  0.9949412E+02  0.7561462E-02  0.1281363E+00
         -1   -1    0    0    0  501 -0.00000000000E+00  0.00000000000E+00  0.10542731035E+04  0.10542731035E+04  0.00000000000E+00 0.  1.
          1   -1    0    0  501    0  0.00000000000E+00 -0.00000000000E+00 -0.11523632663E+02  0.11523632663E+02  0.00000000000E+00 0. -1.
          5    1    1    2  502    0  0.12237962985E+02 -0.61049152635E+02  0.54907518481E+03  0.55260998701E+03  0.41800000000E+01 0. -1.
         -5    1    1    2    0  502 -0.17142098003E+02  0.44201307921E+02  0.13792114688E+03  0.14590175565E+03  0.41800000000E+01 0. -1.
        -11    1    1    2    0    0 -0.94772906890E+01 -0.34442768058E+02  0.18494071280E+03  0.18835920620E+03  0.00000000000E+00 0. -1.
         11    1    1    2    0    0  0.14381425707E+02  0.51290612773E+02  0.17081242638E+03  0.17892578733E+03  0.00000000000E+00 0.  1.
</event>
<event>
 6    1  0.6447971E-006  0.1102812E+03  0.7561462E-02  0.1260050E+00
         -2   -1    0    0    0  501 -0.00000000000E+00  0.00000000000E+00  0.47360750829E+03  0.47360750829E+03  0.00000000000E+00 0. -1.
          2   -1    0    0  501    0  0.00000000000E+00 -0.00000000000E+00 -0.31806657487E+02  0.31806657487E+02  0.00000000000E+00 0.  1.
          5    1    1    2  502    0 -0.33844712050E+02  0.21525328171E+02  0.33160044696E+02  0.52209819487E+02  0.41800000000E+01 0. -1.
         -5    1    1    2    0  502  0.72859031314E+02  0.57674373046E+01  0.25903772256E+03  0.26918342424E+03  0.41800000000E+01 0. -1.
        -11    1    1    2    0    0  0.32232828101E+02 -0.92138033543E+01  0.42754855541E+02  0.54330719229E+02  0.00000000000E+00 0.  1.
         11    1    1    2    0    0 -0.71247147366E+02 -0.18078962122E+02  0.10684822801E+03  0.12969020282E+03  0.00000000000E+00 0. -1.
</event>
<event>
 6    1  0.6447971E-006  0.2909860E+03  0.7561462E-02  0.1089835E+00
          2   -1    0    0  501    0  0.00000000000E+00  0.00000000000E+00  0.18939713130E+04  0.18939713130E+04  0.00000000000E+00 0. -1.
         -2   -1    0    0    0  501 -0.00000000000E+00 -0.00000000000E+00 -0.47563354206E+02  0.47563354206E+02  0.00000000000E+00 0.  1.
          5    1    1    2  502    0  0.12564840137E+01 -0.27057586533E+02  0.81832062721E+02  0.86299771901E+02  0.41800000000E+01 0.  1.
         -5    1    1    2    0  502  0.26886382674E+03  0.20390739813E+02  0.62745608402E+03  0.68295105928E+03  0.41800000000E+01 0.  1.
        -11    1    1    2    0    0 -0.32850586385E+02  0.32517147777E+02  0.19452118024E+03  0.19993752896E+03  0.00000000000E+00 0.  1.
         11    1    1    2    0    0 -0.23726972437E+03 -0.25850301057E+02  0.94259863184E+03  0.97234630709E+03  0.00000000000E+00 0. -1.
</event>
<event>
 6    1  0.6447971E-006  0.1951573E+03  0.7561462E-02  0.1153890E+00
          1   -1    0    0  501    0  0.00000000000E+00  0.00000000000E+00  0.40818001874E+03  0.40818001874E+03  0.00000000000E+00 0. -1.
         -1   -1    0    0    0  501 -0.00000000000E+00 -0.00000000000E+00 -0.99228433733E+02  0.99228433733E+02  0.00000000000E+00 0.  1.
          5    1    1    2  502    0  0.12503010745E+02 -0.17250275417E+03  0.85959535162E+02  0.19318395265E+03  0.41800000000E+01 0.  1.
         -5    1    1    2    0  502 -0.29981328137E+02  0.10815513981E+02  0.14626885782E+02  0.35316760429E+02  0.41800000000E+01 0.  1.
        -11    1    1    2    0    0 -0.34545164813E+02  0.40186498618E+02  0.66127158649E+02  0.84741513994E+02  0.00000000000E+00 0.  1.
         11    1    1    2    0    0  0.52023482204E+02  0.12150074157E+03  0.14223800542E+03  0.19416622540E+03  0.00000000000E+00 0. -1.
</event>
<event>
 6    1  0.6447971E-006  0.9264718E+02  0.7561462E-02  0.1296565E+00
         -1   -1    0    0    0  501 -0.00000000000E+00  0.00000000000E+00  0.15909269145E+02  0.15909269145E+02  0.00000000000E+00 0.  1.
          1   -1    0    0  501    0  0.00000000000E+00 -0.00000000000E+00 -0.87295075761E+03  0.87295075761E+03  0.00000000000E+00 0. -1.
          5    1    1    2  502    0 -0.29959812337E+02  0.96512569649E+01 -0.25895337336E+02  0.40972893625E+02  0.41800000000E+01 0.  1.
         -5    1    1    2    0  502  0.19665053801E+01 -0.53433000690E+02 -0.47134624963E+03  0.47438772344E+03  0.41800000000E+01 0.  1.
        -11    1    1    2    0    0 -0.59651827109E+00  0.64562630151E+02 -0.24642682950E+03  0.25474471799E+03  0.00000000000E+00 0.  1.
         11    1    1    2    0    0  0.28589825228E+02 -0.20780886426E+02 -0.11337307200E+03  0.11875469170E+03  0.00000000000E+00 0. -1.
</event>
<event>
 6    1  0.6447971E-006  0.1323931E+03  0.7561462E-02  0.1223947E+00
          3   -1    0    0  501    0  0.00000000000E+00  0.00000000000E+00  0.27451001151E+02  0.27451001151E+02  0.00000000000E+00 0.  1.
         -3   -1    0    0    0  501 -0.00000000000E+00 -0.00000000000E+00 -0.11692493546E+04  0.11692493546E+04  0.00000000000E+00 0. -1.
          5    1    1    2  502    0 -0.64765288796E+02  0.70530634518E+02 -0.53077165066E+03  0.53935621864E+03  0.41800000000E+01 0. -1.
         -5    1    1    2    0  502  0.49385043002E+02  0.11447789243E+02 -0.45127168898E+03  0.45412943532E+03  0.41800000000E+01 0. -1.
        -11    1    1    2    0    0  0.35543256516E+01 -0.98052770249E+02 -0.99494966368E+02  0.13973627774E+03  0.00000000000E+00 0.  1.
         11    1    1    2    0    0  0.11825920142E+02  0.16074346489E+02 -0.60260047429E+02  0.63478424038E+02  0.00000000000E+00 0. -1.
</event>
<event>
 6    1  0.6447971E-006  0.1165067E+03  0.7561462E-02  0.1248974E+00
          2   -1    0    0  501    0  0.00000000000E+00  0.00000000000E+00  0.24875550295E+03  0.24875550295E+03  0.00000000000E+00 0. -1.
         -2   -1    0    0    0  501 -0.00000000000E+00 -0.00000000000E+00 -0.80204521112E+02  0.80204521112E+02  0.00000000000E+00 0.  1.
          5    1    1    2  502    0  0.27044200409E+02  0.19232292274E+02  0.65297724457E+01  0.34079028303E+02  0.41800000000E+01 0.  1.
         -5    1    1    2    0  502 -0.89702758986E+02 -0.73974765817E+02  0.45171242617E+02  0.12480690889E+03  0.41800000000E+01 0.  1.
        -11    1    1    2    0    0  0.22468080068E+02  0.18579520928E+02 -0.11079554130E+02  0.31189256798E+02  0.00000000000E+00 0.  1.
         11    1    1    2    0    0  0.40190478510E+02  0.36162952615E+02  0.12792952090E+03  0.13888483007E+03  0.00000000000E+00 0. -1.
</event>
<event>
 6    1  0.6447971E-006  0.1016116E+03  0.7561462E-02  0.1276943E+00
         -2   -1    0    0    0  501 -0.00000000000E+00  0.00000000000E+00  0.76636314275E+02  0.76636314275E+02  0.00000000000E+00 0.  1.
          2   -1    0    0  501    0  0.00000000000E+00 -0.00000000000E+00 -0.31174460572E+03  0.31174460572E+03  0.00000000000E+00 0. -1.
          5    1    1    2  502    0 -0.54983106071E+02  0.73893877952E+01 -0.76071059881E+02  0.94244488203E+02  0.41800000000E+01 0.  1.
         -5    1    1    2    0  502 -0.15159392579E+02  0.22306146868E+02  0.47679306277E+02  0.54937783160E+02  0.41800000000E+01 0.  1.
        -11    1    1    2    0    0 -0.59014558836E+01 -0.42736928489E+02 -0.70725625416E+02  0.82845557085E+02  0.00000000000E+00 0. -1.
         11    1    1    2    0    0  0.76043954533E+02  0.13041393825E+02 -0.13599091242E+03  0.15635309154E+03  0.00000000000E+00 0.  1.
</event>
<event>
 6    1  0.6447971E-006  0.9695471E+02  0.7561462E-02  0.1286833E+00
         -2   -1    0    0    0  501 -0.00000000000E+00  0.00000000000E+00  0.12497492310E+03  0.12497492310E+03  0.00000000000E+00 0. -1.
          2   -1    0    0  501    0  0.00000000000E+00 -0.00000000000E+00 -0.25457203150E+03  0.25457203150E+03  0.00000000000E+00 0.  1.
          5    1    1    2  502    0 -0.10155052074E+02  0.61280100170E+02  0.28775697611E+02  0.68584903095E+02  0.41800000000E+01 0.  1.
         -5    1    1    2    0  502  0.15816647030E+02 -0.87534533962E+02  0.47353230261E+02  0.10085763122E+03  0.41800000000E+01 0. -1.
        -11    1    1    2    0    0  0.13943748223E+02  0.11172404527E+02 -0.92111419232E+02  0.93828376786E+02  0.00000000000E+00 0. -1.
         11    1    1    2    0    0 -0.19605343180E+02  0.15082029265E+02 -0.11361461704E+03  0.11627604351E+03  0.00000000000E+00 0.  1.
</event>
<event>
 6    1  0.6447971E-006  0.6857931E+02  0.7561462E-02  0.1364992E+00
          1   -1    0    0  501    0  0.00000000000E+00  0.00000000000E+00  0.12288586831E+03  0.12288586831E+03  0.00000000000E+00 0. -1.
         -1   -1    0    0    0  501 -0.00000000000E+00 -0.00000000000E+00 -0.11071045988E+03  0.11071045988E+03  0.00000000000E+00 0.  1.
          5    1    1    2  502    0 -0.11222399326E+02 -0.14577450349E+02 -0.45405669612E+02  0.49169009938E+02  0.41800000000E+01 0.  1.
         -5    1    1    2    0  502  0.12828775843E+02  0.58404164232E+02  0.58960370529E+02  0.84079852415E+02  0.41800000000E+01 0.  1.
        -11    1    1    2    0    0 -0.12571677959E+02 -0.45547757792E+02 -0.38910056169E+02  0.61209785146E+02  0.00000000000E+00 0.  1.
         11    1    1    2    0    0  0.10965301443E+02  0.17210439088E+01  0.37530763678E+02  0.39137680694E+02  0.00000000000E+00 0. -1.
</event>
<event>
 6    1  0.6447971E-006  0.1102761E+03  0.7561462E-02  0.1260059E+00
          2   -1    0    0  501    0  0.00000000000E+00  0.00000000000E+00  0.12712656935E+03  0.12712656935E+03  0.00000000000E+00 0. -1.
         -2   -1    0    0    0  501 -0.00000000000E+00 -0.00000000000E+00 -0.10645755712E+03  0.10645755712E+03  0.00000000000E+00 0.  1.
          5    1    1    2  502    0  0.17668252903E+02  0.85336561344E+02  0.15164425151E+02  0.88554661384E+02  0.41800000000E+01 0.  1.
         -5    1    1    2    0  502 -0.52950941184E+01 -0.44405687507E+02  0.55561046555E+01  0.45257549687E+02  0.41800000000E+01 0.  1.
        -11    1    1    2    0    0  0.31928202829E+02 -0.27387318115E+02  0.23092580153E+02  0.47986900166E+02  0.00000000000E+00 0.  1.
         11    1    1    2    0    0 -0.44301361614E+02 -0.13543555722E+02 -0.23144097726E+02  0.51785015226E+02  0.00000000000E+00 0. -1.
</event>
<event>
 6    1  0.6447971E-006  0.5333685E+02  0.7561462E-02  0.1428132E+00
          2   -1    0    0  501    0  0.00000000000E+00  0.00000000000E+00  0.18211581705E+03  0.18211581705E+03  0.00000000000E+00 0. -1.
         -2   -1    0    0    0  501 -0.00000000000E+00 -0.00000000000E+00 -0.77617472713E+02  0.77617472713E+02  0.00000000000E+00 0.  1.
          5    1    1    2  502    0 -0.86763069524E+01  0.14894676917E+02 -0.30341469534E+02  0.35145510044E+02  0.41800000000E+01 0.  1.
         -5    1    1    2    0  502  0.32102693424E+02  0.22041098984E+02  0.11653026300E+03  0.12293562366E+03  0.41800000000E+01 0.  1.
        -11    1    1    2    0    0 -0.25315542806E+02 -0.18786475671E+02  0.53451365780E+02  0.62055272777E+02  0.00000000000E+00 0. -1.
         11    1    1    2    0    0  0.18891563345E+01 -0.18149300230E+02 -0.35141814910E+02  0.39596883283E+02  0.00000000000E+00 0.  1.
</event>
<event>
 6    1  0.6447971E-006  0.8986194E+02  0.7561462E-02  0.1303186E+00
         -2   -1    0    0    0  501 -0.00000000000E+00  0.00000000000E+00  0.20023099447E+02  0.20023099447E+02  0.00000000000E+00 0.  1.
          2   -1    0    0  501    0  0.00000000000E+00 -0.00000000000E+00 -0.62017591164E+03  0.62017591164E+03  0.00000000000E+00 0. -1.
          5    1    1    2  502    0  0.37257066932E+02  0.34653452727E+02 -0.47944761021E+02  0.70036585665E+02  0.41800000000E+01 0. -1.
         -5    1    1    2    0  502 -0.12972268318E+02 -0.31193429614E+02 -0.27590536136E+03  0.27799739320E+03  0.41800000000E+01 0. -1.
        -11    1    1    2    0    0  0.12626190342E+02 -0.40449485335E+02 -0.13591384913E+03  0.14236627385E+03  0.00000000000E+00 0. -1.
         11    1    1    2    0    0 -0.36910988956E+02  0.36989462222E+02 -0.14038884069E+03  0.14979875838E+03  0.00000000000E+00 0.  1.
</event>
<event>
 6    1  0.6447971E-006  0.1509586E+03  0.7561462E-02  0.1199300E+00
          2   -1    0    0  501    0  0.00000000000E+00  0.00000000000E+00  0.54395021610E+03  0.54395021610E+03  0.00000000000E+00 0.  1.
         -2   -1    0    0    0  501 -0.00000000000E+00 -0.00000000000E+00 -0.43822545509E+02  0.43822545509E+02  0.00000000000E+00 0. -1.
          5    1    1    2  502    0  0.27095658728E+02  0.33073142134E+02  0.84912271734E+02  0.95160778389E+02  0.41800000000E+01 0.  1.
         -5    1    1    2    0  502 -0.11681257199E+03  0.28317934913E+02  0.14827053922E+03  0.19091544624E+03  0.41800000000E+01 0.  1.
        -11    1    1    2    0    0  0.10043083264E+03 -0.28942812505E+02  0.17805196035E+03  0.20646195564E+03  0.00000000000E+00 0. -1.
         11    1    1    2    0    0 -0.10713919377E+02 -0.32448264543E+02  0.88892899285E+02  0.95234581343E+02  0.00000000000E+00 0.  1.
</event>
<event>
 6    1  0.6447971E-006  0.1099759E+03  0.7561462E-02  0.1260614E+00
          1   -1    0    0  501    0  0.00000000000E+00  0.00000000000E+00  0.73301971532E+03  0.73301971532E+03  0.00000000000E+00 0. -1.
         -1   -1    0    0    0  501 -0.00000000000E+00 -0.00000000000E+00 -0.19480875731E+02  0.19480875731E+02  0.00000000000E+00 0.  1.
          5    1    1    2  502    0 -0.39836828033E+02 -0.42744043011E+02  0.21795367154E+03  0.22568850529E+03  0.41800000000E+01 0. -1.
         -5    1    1    2    0  502 -0.27014361017E+01  0.64222226307E+02  0.95991585127E+02  0.11560124966E+03  0.41800000000E+01 0. -1.
        -11    1    1    2    0    0 -0.25804119568E+02 -0.99200363444E+01  0.10588509788E+03  0.10943451768E+03  0.00000000000E+00 0. -1.
         11    1    1    2    0    0  0.68342383703E+02 -0.11558146952E+02  0.29370848504E+03  0.30177631842E+03  0.00000000000E+00 0.  1.
</event>
<event>
 6    1  0.6447971E-006  0.1599089E+03  0.7561462E-02  0.1188800E+00
         -1   -1    0    0    0  501 -0.00000000000E+00  0.00000000000E+00  0.52397787061E+02  0.52397787061E+02  0.00000000000E+00 0.  1.
          1   -1    0    0  501    0  0.00000000000E+00 -0.00000000000E+00 -0.61783259405E+03  0.61783259405E+03  0.00000000000E+00 0. -1.
          5    1    1    2  502    0  0.11447215136E+03 -0.99376485488E+01 -0.25554887041E+03  0.28022371039E+03  0.41800000000E+01 0.  1.
         -5    1    1    2    0  502  0.79762531819E+01 -0.61978403124E+02 -0.54529996014E+02  0.83041772223E+02  0.41800000000E+01 0.  1.
        -11    1    1    2    0    0 -0.86556776479E+02  0.46755332195E+02 -0.81749662962E+02  0.12791068774E+03  0.00000000000E+00 0.  1.
         11    1    1    2    0    0 -0.35891628058E+02  0.25160719478E+02 -0.17360627760E+03  0.17905421076E+03  0.00000000000E+00 0. -1.
</event>
<event>
 6    1  0.6447971E-006  0.1147262E+03  0.7561462E-02  0.1252060E+00
         -2   -1    0    0    0  501 -0.00000000000E+00  0.00000000000E+00  0.14480108877E+03  0.14480108877E+03  0.00000000000E+00 0. -1.
          2   -1    0    0  501    0  0.00000000000E+00 -0.00000000000E+00 -0.22959951366E+03  0.22959951366E+03  0.00000000000E+00 0.  1.
          5    1    1    2  502    0 -0.27469586848E+02 -0.56502127924E+02  0.19163431560E+02  0.65816245492E+02  0.41800000000E+01 0.  1.
         -5    1    1    2    0  502 -0.53765463804E+02  0.64243308777E+02  0.60810483933E+02  0.10360171416E+03  0.41800000000E+01 0.  1.
        -11    1    1    2    0    0  0.52781064422E+02  0.11692228208E+01 -0.16693843814E+03  0.17508754945E+03  0.00000000000E+00 0.  1.
         11    1    1    2    0    0  0.28453986229E+02 -0.89104036736E+01  0.21660977610E+01  0.29895093334E+02  0.00000000000E+00 0. -1.
</event>
<event>
 6    1  0.6447971E-006  0.1078621E+03  0.7561462E-02  0.1264581E+00
          2   -1    0    0  501    0  0.00000000000E+00  0.00000000000E+00  0.21787824401E+03  0.21787824401E+03  0.00000000000E+00 0. -1.
         -2   -1    0    0    0  501 -0.00000000000E+00 -0.00000000000E+00 -0.93239893484E+02  0.93239893484E+02  0.00000000000E+00 0.  1.
          5    1    1    2  502    0 -0.45145826711E+02  0.16429112711E+02 -0.17812405011E+02  0.51408322149E+02  0.41800000000E+01 0.  1.
         -5    1    1    2    0  502  0.78158661859E+02 -0.15224333593E+02 -0.43288452451E+01  0.79854668355E+02  0.41800000000E+01 0.  1.
        -11    1    1    2    0    0 -0.60361775932E+02  0.45954650329E+00  0.47348302760E+02  0.76717774674E+02  0.00000000000E+00 0.  1.
         11    1    1    2    0    0  0.27348940784E+02 -0.16643256209E+01  0.99431298025E+02  0.10313737232E+03  0.00000000000E+00 0. -1.
</event>
<event>
 6    1  0.6447971E-006  0.2221972E+03  0.7561462E-02  0.1132255E+00
          2   -1    0    0  501    0  0.00000000000E+00  0.00000000000E+00  0.49205664883E+03  0.49205664883E+03  0.00000000000E+00 0. -1.
         -2   -1    0    0    0  501 -0.00000000000E+00 -0.00000000000E+00 -0.27218539084E+03  0.27218539084E+03  0.00000000000E+00 0.  1.
          5    1    1    2  502    0 -0.14367750695E+03  0.62748852070E+02 -0.87520945149E+02  0.17960521340E+03  0.41800000000E+01 0. -1.
         -5    1    1    2    0  502  0.15931640632E+03 -0.10847435116E+03 -0.60567892336E+02  0.20207509536E+03  0.41800000000E+01 0.  1.
        -11    1    1    2    0    0 -0.29977124134E+02 -0.14189108788E+02  0.60538499022E+02  0.69028027955E+02  0.00000000000E+00 0.  1.
         11    1    1    2    0    0  0.14338224770E+02  0.59914607878E+02  0.30742159645E+03  0.31353370296E+03  0.00000000000E+00 0. -1.
</event>
<event>
 6    1  0.6447971E-006  0.5614959E+02  0.7561462E-02  0.1414739E+00
          1   -1    0    0  501    0  0.00000000000E+00  0.00000000000E+00  0.37692920543E+02  0.37692920543E+02  0.00000000000E+00 0. -1.
         -1   -1    0    0    0  501 -0.00000000000E+00 -0.00000000000E+00 -0.42023791260E+03  0.42023791260E+03  0.00000000000E+00 0.  1.
          5    1    1    2  502    0  0.35819059807E+01 -0.35473585858E+02 -0.30924210190E+03  0.31131873591E+03  0.41800000000E+01 0.  1.
         -5    1    1    2    0  502  0.19661166126E+02  0.91777254134E+01  0.20775057325E+01  0.22194155250E+02  0.41800000000E+01 0.  1.
        -11    1    1    2    0    0  0.84054188396E+01  0.20464020252E+02  0.16152815761E+02  0.27392346518E+02  0.00000000000E+00 0. -1.
         11    1    1    2    0    0 -0.31648490947E+02  0.58318401929E+01 -0.91533211659E+02  0.97025595468E+02  0.00000000000E+00 0.  1.
</event>
<event>
 6    1  0.6447971E-006  0.1016658E+03  0.7561462E-02  0.1276832E+00
          1   -1    0    0  501    0  0.00000000000E+00  0.00000000000E+00  0.57195197984E+02  0.57195197984E+02  0.00000000000E+00 0. -1.
         -1   -1    0    0    0  501 -0.00000000000E+00 -0.00000000000E+00 -0.29884258523E+03  0.29884258523E+03  0.00000000000E+00 0.  1.
          5    1    1    2  502    0  0.12008888748E+02  0.29877838451E+02 -0.12031324299E+02  0.34628367040E+02  0.41800000000E+01 0.  1.
         -5    1    1    2    0  502 -0.27276818384E+02 -0.97492743641E+02 -0.15607986263E+03  0.18608400201E+03  0.41800000000E+01 0.  1.
        -11    1    1    2    0    0  0.87816245753E+01  0.50022166856E+02 -0.94448909861E+02  0.10723772975E+03  0.00000000000E+00 0.  1.
         11    1    1    2    0    0  0.64863050598E+01  0.17592738334E+02  0.20912709547E+02  0.28087684419E+02  0.00000000000E+00 0. -1.
</event>
<event>
 6    1  0.6447971E-006  0.3376688E+03  0.7561462E-02  0.1067793E+00
          2   -1    0    0  501    0  0.00000000000E+00  0.00000000000E+00  0.11455515686E+04  0.11455515686E+04  0.00000000000E+00 0. -1.
         -2   -1    0    0    0  501 -0.00000000000E+00 -0.00000000000E+00 -0.12052375947E+03  0.12052375947E+03  0.00000000000E+00 0.  1.
          5    1    1    2  502    0 -0.17891469067E+03  0.44371707243E+02  0.10754703851E+03  0.21345527127E+03  0.41800000000E+01 0.  1.
         -5    1    1    2    0  502 -0.14794858755E+03 -0.59029532672E+02  0.17416836628E+03  0.23606220048E+03  0.41800000000E+01 0.  1.
        -11    1    1    2    0    0  0.31543141521E+03  0.24696500549E+02  0.66063927022E+03  0.73249651207E+03  0.00000000000E+00 0.  1.
         11    1    1    2    0    0  0.11431863010E+02 -0.10038675119E+02  0.82673134097E+02  0.84061344217E+02  0.00000000000E+00 0. -1.
</event>
<event>
 6    1  0.6447971E-006  0.1409089E+03  0.7561462E-02  0.1212111E+00
         -2   -1    0    0    0  501 -0.00000000000E+00  0.00000000000E+00  0.62268439066E+03  0.62268439066E+03  0.00000000000E+00 0.  1.
          2   -1    0    0  501    0  0.00000000000E+00 -0.00000000000E+00 -0.38163196740E+02  0.38163196740E+02  0.00000000000E+00 0. -1.
          5    1    1    2  502    0  0.36309537744E+02  0.11501791814E+02  0.41261361813E+02  0.56308490699E+02  0.41800000000E+01 0. -1.
         -5    1    1    2    0  502 -0.33418543869E+02 -0.11834374487E+03  0.23402073768E+03  0.26439595134E+03  0.41800000000E+01 0. -1.
        -11    1    1    2    0    0  0.24175927532E+02  0.74284565958E+02  0.27442884670E+03  0.28533114816E+03  0.00000000000E+00 0.  1.
         11    1    1    2    0    0 -0.27066921407E+02  0.32557387098E+02  0.34810247730E+02  0.54811997192E+02  0.00000000000E+00 0. -1.
</event>
<event>
 6    1  0.6447971E-006  0.1507209E+03  0.7561462E-02  0.1199590E+00
         -2   -1    0    0    0  501 -0.00000000000E+00  0.00000000000E+00  0.46586679347E+02  0.46586679347E+02  0.00000000000E+00 0.  1.
          2   -1    0    0  501    0  0.00000000000E+00 -0.00000000000E+00 -0.83101177157E+03  0.83101177157E+03  0.00000000000E+00 0. -1.
          5    1    1    2  502    0 -0.75336619776E+01  0.11654944341E+03 -0.27302313557E+03  0.29698423153E+03  0.41800000000E+01 0. -1.
         -5    1    1    2    0  502 -0.65297318339E+01  0.33227782691E+02  0.53828042566E+01  0.34542291790E+02  0.41800000000E+01 0. -1.
        -11    1    1    2    0    0  0.91796445899E+01 -0.10884369789E+03 -0.47491329268E+03  0.48731288923E+03  0.00000000000E+00 0.  1.
         11    1    1    2    0    0  0.48837492216E+01 -0.40933528210E+02 -0.41871468226E+02  0.58759038365E+02  0.00000000000E+00 0. -1.
</event>
<event>
 6    1  0.6447971E-006  0.1279938E+03  0.7561462E-02  0.1230463E+00
         -1   -1    0    0    0  501 -0.00000000000E+00  0.00000000000E+00  0.34570816340E+03  0.34570816340E+03  0.00000000000E+00 0.  1.
          1   -1    0    0  501    0  0.00000000000E+00 -0.00000000000E+00 -0.71076201225E+02  0.71076201225E+02  0.00000000000E+00 0. -1.
          5    1    1    2  502    0  0.47550444276E+02  0.67627547008E+02  0.17543893973E+02  0.84615545150E+02  0.41800000000E+01 0. -1.
         -5    1    1    2    0  502 -0.38015006550E+01  0.36038516493E+02  0.14433947546E+03  0.14887774399E+03  0.41800000000E+01 0. -1.
        -11    1    1    2    0    0 -0.24976416585E+02 -0.11302793043E+03  0.11374905388E+03  0.16228980776E+03  0.00000000000E+00 0.  1.
         11    1    1    2    0    0 -0.18772527036E+02  0.93618669321E+01 -0.10004611390E+01  0.21001267730E+02  0.00000000000E+00 0. -1.
</event>
<event>
 6    1  0.6447971E-006  0.6844001E+02  0.7561462E-02  0.1365480E+00
         -2   -1    0    0    0  501 -0.00000000000E+00  0.00000000000E+00  0.74126792573E+02  0.74126792573E+02  0.00000000000E+00 0. -1.
          2   -1    0    0  501    0  0.00000000000E+00 -0.00000000000E+00 -0.22063268412E+03  0.22063268412E+03  0.00000000000E+00 0.  1.
          5    1    1    2  502    0  0.11829259564E+02  0.62744113572E+01  0.42419744475E+02  0.44678929497E+02  0.41800000000E+01 0. -1.
         -5    1    1    2    0  502 -0.38199246238E+02  0.40802275912E+02 -0.78131270481E+02  0.96155998043E+02  0.41800000000E+01 0. -1.
        -11    1    1    2    0    0  0.62189840869E+01 -0.46217721526E+02 -0.12217032246E+03  0.13076827305E+03  0.00000000000E+00 0.  1.
         11    1    1    2    0    0  0.20151002587E+02 -0.85896574321E+00  0.11375956916E+02  0.23156276107E+02  0.00000000000E+00 0. -1.
</event>
<event>
 6    1  0.6447971E-006  0.1023926E+03  0.7561462E-02  0.1275344E+00
          1   -1    0    0  501    0  0.00000000000E+00  0.00000000000E+00  0.15987144005E+02  0.15987144005E+02  0.00000000000E+00 0. -1.
         -1   -1    0    0    0  501 -0.00000000000E+00 -0.00000000000E+00 -0.78206093702E+03  0.78206093702E+03  0.00000000000E+00 0.  1.
          5    1    1    2  502    0 -0.65223225997E+02  0.28590663563E-01 -0.16709410010E+03  0.17942123820E+03  0.41800000000E+01 0. -1.
         -5    1    1    2    0  502  0.50853312050E+02  0.25074333458E+02 -0.28155262802E+03  0.28723533260E+03  0.41800000000E+01 0. -1.
        -11    1    1    2    0    0  0.11324284704E+02 -0.53160264338E+02 -0.27576454321E+03  0.28106998492E+03  0.00000000000E+00 0.  1.
         11    1    1    2    0    0  0.30456292419E+01  0.28057340217E+02 -0.41662521674E+02  0.50321525312E+02  0.00000000000E+00 0. -1.
</event>
<event>
 6    1  0.6447971E-006  0.1207512E+03  0.7561462E-02  0.1241863E+00
         -2   -1    0    0    0  501 -0.00000000000E+00  0.00000000000E+00  0.26013653866E+02  0.26013653866E+02  0.00000000000E+00 0.  1.
          2   -1    0    0  501    0  0.00000000000E+00 -0.00000000000E+00 -0.63045830271E+03  0.63045830271E+03  0.00000000000E+00 0. -1.
          5    1    1    2  502    0  0.76174406758E+01  0.43375477181E+02 -0.11082237932E+03  0.11932530990E+03  0.41800000000E+01 0. -1.
         -5    1    1    2    0  502  0.34439740295E+02 -0.83268497756E+02 -0.13136215779E+03  0.15935252533E+03  0.41800000000E+01 0. -1.
        -11    1    1    2    0    0  0.27113945592E+02  0.23712827925E+02 -0.13183562509E+03  0.13666783197E+03  0.00000000000E+00 0.  1.
         11    1    1    2    0    0 -0.69171126563E+02  0.16180192650E+02 -0.23042448664E+03  0.24112628938E+03  0.00000000000E+00 0. -1.
</event>
<event>
 6    1  0.6447971E-006  0.1198629E+03  0.7561462E-02  0.1243323E+00
          4   -1    0    0  501    0  0.00000000000E+00  0.00000000000E+00  0.61992590310E+02  0.61992590310E+02  0.00000000000E+00 0. -1.
         -4   -1    0    0    0  501 -0.00000000000E+00 -0.00000000000E+00 -0.73384184382E+03  0.73384184382E+03  0.00000000000E+00 0.  1.
          5    1    1    2  502    0  0.86736862698E+02  0.56553467965E+02 -0.33625293416E+03  0.35185946942E+03  0.41800000000E+01 0.  1.
         -5    1    1    2    0  502 -0.26919277298E+02 -0.10831217114E+01 -0.32057701727E+03  0.32173423356E+03  0.41800000000E+01 0.  1.
        -11    1    1    2    0    0 -0.14193985486E+02  0.17648283410E+02  0.19022043017E+02  0.29576498302E+02  0.00000000000E+00 0.  1.
         11    1    1    2    0    0 -0.45623599915E+02 -0.73118629663E+02 -0.34041345098E+02  0.92664232847E+02  0.00000000000E+00 0. -1.
</event>
<event>
 6    1  0.6447971E-006  0.1518891E+03  0.7561462E-02  0.1198171E+00
         -3   -1    0    0    0  501 -0.00000000000E+00  0.00000000000E+00  0.14935875296E+03  0.14935875296E+03  0.00000000000E+00 0.  1.
          3   -1    0    0  501    0  0.00000000000E+00 -0.00000000000E+00 -0.22184905059E+03  0.22184905059E+03  0.00000000000E+00 0. -1.
          5    1    1    2  502    0  0.45933045323E+02 -0.15702014104E+02  0.45286593724E+02  0.66518763298E+02  0.41800000000E+01 0. -1.
         -5    1    1    2    0  502  0.98847658903E+02 -0.40545971564E+01 -0.83647918466E+02  0.12962154949E+03  0.41800000000E+01 0. -1.
        -11    1    1    2    0    0 -0.27340609854E+02  0.26932109193E+02  0.22503048212E+02  0.44488589904E+02  0.00000000000E+00 0.  1.
         11    1    1    2    0    0 -0.11744009437E+03 -0.71754979323E+01 -0.56632021099E+02  0.13057890086E+03  0.00000000000E+00 0. -1.
</event>
<event>
 6    1  0.6447971E-006  0.1103266E+03  0.7561462E-02  0.1259966E+00
          2   -1    0    0  501    0  0.00000000000E+00  0.00000000000E+00  0.47751467134E+03  0.47751467134E+03  0.00000000000E+00 0. -1.
         -2   -1    0    0    0  501 -0.00000000000E+00 -0.00000000000E+00 -0.48699489981E+02  0.48699489981E+02  0.00000000000E+00 0.  1.
          5    1    1    2  502    0  0.87619920362E+02 -0.16672561202E+02  0.18308465903E+02  0.91147666262E+02  0.41800000000E+01 0.  1.
         -5    1    1    2    0  502 -0.10292302599E+02 -0.12241358522E+02  0.95814012812E+02  0.97229521249E+02  0.41800000000E+01 0.  1.
        -11    1    1    2    0    0  0.15530732652E+02  0.13753351880E+02  0.21325514147E+02  0.29751233558E+02  0.00000000000E+00 0.  1.
         11    1    1    2    0    0 -0.92858350415E+02  0.15160567844E+02  0.29336718849E+03  0.30808574025E+03  0.00000000000E+00 0. -1.
</event>
<event>
 6    1  0.6447971E-006  0.1239935E+03  0.7561462E-02  0.1236651E+00
          1   -1    0    0  501    0  0.00000000000E+00  0.00000000000E+00  0.25520732731E+03  0.25520732731E+03  0.00000000000E+00 0. -1.
         -1   -1    0    0    0  501 -0.00000000000E+00 -0.00000000000E+00 -0.74100346818E+02  0.74100346818E+02  0.00000000000E+00 0.  1.
          5    1    1    2  502    0  0.44768999182E+02 -0.38747071716E+02  0.12466406540E+02  0.60650495022E+02  0.41800000000E+01 0.  1.
         -5    1    1    2    0  502 -0.68861351605E+02 -0.42985811235E+02  0.94712681230E+02  0.12481037656E+03  0.41800000000E+01 0.  1.
        -11    1    1    2    0    0  0.41410417344E+02  0.25788991038E+02 -0.94226699275E+00  0.48793263781E+02  0.00000000000E+00 0.  1.
         11    1    1    2    0    0 -0.17318064921E+02  0.55943891913E+02  0.74870159710E+02  0.95053538756E+02  0.00000000000E+00 0. -1.
</event>
<event>
 6    1  0.6447971E-006  0.1131544E+03  0.7561462E-02  0.1254837E+00
         -1   -1    0    0    0  501 -0.00000000000E+00  0.00000000000E+00  0.88041221887E+03  0.88041221887E+03  0.00000000000E+00 0.  1.
          1   -1    0    0  501    0  0.00000000000E+00 -0.00000000000E+00 -0.17584884945E+02  0.17584884945E+02  0.00000000000E+00 0. -1.
          5    1    1    2  502    0  0.46637174366E+02  0.68810650366E+02  0.47336685448E+03  0.48062832101E+03  0.41800000000E+01 0. -1.
         -5    1    1    2    0  502 -0.20874068547E+02 -0.40353035686E+02  0.17821286341E+03  0.18396029819E+03  0.41800000000E+01 0. -1.
        -11    1    1    2    0    0  0.17900302342E+02  0.23528469352E+02  0.86072342122E+02  0.91008009386E+02  0.00000000000E+00 0.  1.
         11    1    1    2    0    0 -0.43663408161E+02 -0.51986084032E+02  0.12517527392E+03  0.14240047523E+03  0.00000000000E+00 0. -1.
</event>
<event>
 6    1  0.6447971E-006  0.6048374E+02  0.7561462E-02  0.1395813E+00
          1   -1    0    0  501    0  0.00000000000E+00  0.00000000000E+00  0.20256814868E+03  0.20256814868E+03  0.00000000000E+00 0. -1.
         -1   -1    0    0    0  501 -0.00000000000E+00 -0.00000000000E+00 -0.74075421979E+02  0.74075421979E+02  0.00000000000E+00 0.  1.
          5    1    1    2  502    0  0.15979241835E+02 -0.13809037781E+02 -0.55878693122E+02  0.59882605481E+02  0.41800000000E+01 0.  1.
         -5    1    1    2    0  502  0.75021283323E+01 -0.10026227656E+01  0.68307353176E+02  0.68852407945E+02  0.41800000000E+01 0.  1.
        -11    1    1    2    0    0 -0.48031726451E+02  0.34652166136E+02  0.85184363208E+02  0.10375063903E+03  0.00000000000E+00 0. -1.
         11    1    1    2    0    0  0.24550356283E+02 -0.19840505589E+02  0.30879703439E+02  0.44157918204E+02  0.00000000000E+00 0.  1.
</event>
<event>
 6    1  0.6447971E-006  0.1361877E+03  0.7561462E-02  0.1218553E+00
         -1   -1    0    0    0  501 -0.00000000000E+00  0.00000000000E+00  0.31319403178E+03  0.31319403178E+03  0.00000000000E+00 0.  1.
          1   -1    0    0  501    0  0.00000000000E+00 -0.00000000000E+00 -0.10973779501E+03  0.10973779501E+03  0.00000000000E+00 0. -1.
          5    1    1    2  502    0  0.26039487332E+02  0.12516683661E+03  0.87098182317E+02  0.15475256913E+03  0.41800000000E+01 0. -1.
         -5    1    1    2    0  502 -0.11738022630E+02  0.84293861316E+00  0.11082240210E+03  0.11152384914E+03  0.41800000000E+01 0. -1.
        -11    1    1    2    0    0 -0.22400772878E+02 -0.11949754436E+03  0.34090560074E+02  0.12626806413E+03  0.00000000000E+00 0.  1.
         11    1    1    2    0    0  0.80993081757E+01 -0.65122308679E+01 -0.28554907718E+02  0.30387344382E+02  0.00000000000E+00 0. -1.
</event>
<event>
 6    1  0.6447971E-006  0.1724617E+03  0.7561462E-02  0.1175305E+00
         -4   -1    0    0    0  501 -0.00000000000E+00  0.00000000000E+00  0.31952802859E+03  0.31952802859E+03  0.00000000000E+00 0.  1.
          4   -1    0    0  501    0  0.00000000000E+00 -0.00000000000E+00 -0.10978503569E+03  0.10978503569E+03  0.00000000000E+00 0. -1.
          5    1    1    2  502    0  0.15581036608E+02 -0.17724739149E+02  0.37912857353E+02  0.44853006949E+02  0.41800000000E+01 0. -1.
         -5    1    1    2    0  502 -0.16099933751E+03  0.37883254810E+02  0.11940859677E+03  0.20403875381E+03  0.41800000000E+01 0. -1.
        -11    1    1    2    0    0  0.59165836537E+02 -0.33865932121E+02  0.62525736971E+02  0.92503866705E+02  0.00000000000E+00 0. -1.
         11    1    1    2    0    0  0.86252464363E+02  0.13707416459E+02 -0.10104198199E+02  0.87917436814E+02  0.00000000000E+00 0.  1.
</event>
<event>
 6    1  0.6447971E-006  0.1582011E+03  0.7561462E-02  0.1190743E+00
         -2   -1    0    0    0  501 -0.00000000000E+00  0.00000000000E+00  0.98306770073E+02  0.98306770073E+02  0.00000000000E+00 0.  1.
          2   -1    0    0  501    0  0.00000000000E+00 -0.00000000000E+00 -0.26687154138E+03  0.26687154138E+03  0.00000000000E+00 0. -1.
          5    1    1    2  502    0 -0.51943922252E+02 -0.28753821037E+02 -0.51319292861E+02  0.78588138437E+02  0.41800000000E+01 0. -1.
         -5    1    1    2    0  502  0.55428891944E+02  0.11803496912E+03 -0.79341331649E+02  0.15269949347E+03  0.41800000000E+01 0.  1.
        -11    1    1    2    0    0  0.22419179073E+00  0.18534457552E+02  0.24784196931E+01  0.18700773858E+02  0.00000000000E+00 0. -1.
         11    1    1    2    0    0 -0.37091614831E+01 -0.10781560563E+03 -0.40382566486E+02  0.11518990569E+03  0.00000000000E+00 0.  1.
</event>
<event>
 6    1  0.6447971E-006  0.1686164E+03  0.7561462E-02  0.1179298E+00
          3   -1    0    0  501    0  0.00000000000E+00  0.00000000000E+00  0.11695703633E+03  0.11695703633E+03  0.00000000000E+00 0. -1.
         -3   -1    0    0    0  501 -0.00000000000E+00 -0.00000000000E+00 -0.29074687686E+03  0.29074687686E+03  0.00000000000E+00 0.  1.
          5    1    1    2  502    0 -0.12223305092E+03 -0.69011528490E+01 -0.89406008814E+02  0.15165570039E+03  0.41800000000E+01 0.  1.
         -5    1    1    2    0  502  0.30679993998E+01 -0.60244629440E+02 -0.72943665750E+02  0.94747447299E+02  0.41800000000E+01 0.  1.
        -11    1    1    2    0    0  0.42142231642E+02  0.64688015003E+02  0.17185296532E+02  0.79093877068E+02  0.00000000000E+00 0. -1.
         11    1    1    2    0    0  0.77022819878E+02  0.24577672858E+01 -0.28625462499E+02  0.82206888430E+02  0.00000000000E+00 0.  1.
</event>
<event>
 6    1  0.6447971E-006  0.9609981E+02  0.7561462E-02  0.1288718E+00
         -2   -1    0    0    0  501 -0.00000000000E+00  0.00000000000E+00  0.44472423725E+02  0.44472423725E+02  0.00000000000E+00 0. -1.
          2   -1    0    0  501    0  0.00000000000E+00 -0.00000000000E+00 -0.44747432878E+03  0.44747432878E+03  0.00000000000E+00 0.  1.
          5    1    1    2  502    0  0.25457609076E+02 -0.28401169818E+02  0.38959461281E+01  0.38566398628E+02  0.41800000000E+01 0.  1.
         -5    1    1    2    0  502  0.34491218301E+02 -0.37584752408E+02 -0.22441521117E+03  0.23017801189E+03  0.41800000000E+01 0.  1.
        -11    1    1    2    0    0 -0.69257638460E+02  0.56818573268E+02 -0.18858651991E+03  0.20878181493E+03  0.00000000000E+00 0.  1.
         11    1    1    2    0    0  0.93088110828E+01  0.91673489584E+01  0.61038799000E+01  0.14420527055E+02  0.00000000000E+00 0. -1.
</event>
<event>
 6    1  0.6447971E-006  0.8908759E+02  0.7561462E-02  0.1305076E+00
         -2   -1    0    0    0  501 -0.00000000000E+00  0.00000000000E+00  0.41225105552E+02  0.41225105552E+02  0.00000000000E+00 0.  1.
          2   -1    0    0  501    0  0.00000000000E+00 -0.00000000000E+00 -0.40702741490E+03  0.40702741490E+03  0.00000000000E+00 0. -1.
          5    1    1    2  502    0  0.90113863014E+01  0.29144735435E+02 -0.17856258599E+03  0.18119793101E+03  0.41800000000E+01 0.  1.
         -5    1    1    2    0  502 -0.27846253730E+02  0.36991434406E+02  0.11591007115E+01  0.46503720074E+02  0.41800000000E+01 0.  1.
        -11    1    1    2    0    0 -0.77250190096E+01 -0.73043941440E+02 -0.79458224975E+02  0.10820675957E+03  0.00000000000E+00 0.  1.
         11    1    1    2    0    0  0.26559886439E+02  0.69077716000E+01 -0.10894059910E+03  0.11234410981E+03  0.00000000000E+00 0. -1.
</event>
<event>
 6    1  0.6447971E-006  0.8481102E+02  0.7561462E-02  0.1315927E+00
          2   -1    0    0  501    0  0.00000000000E+00  0.00000000000E+00  0.18791739269E+03  0.18791739269E+03  0.00000000000E+00 0. -1.
         -2   -1    0    0    0  501 -0.00000000000E+00 -0.00000000000E+00 -0.13478178195E+03  0.13478178195E+03  0.00000000000E+00 0.  1.
          5    1    1    2  502    0 -0.47455001497E+01  0.92533482034E+00  0.36818873620E+02  0.37369477798E+02  0.41800000000E+01 0. -1.
         -5    1    1    2    0  502  0.37068423488E+02  0.43650307356E+02 -0.10772289570E+03  0.12207011104E+03  0.41800000000E+01 0.  1.
        -11    1    1    2    0    0 -0.58206053913E+02 -0.48623062377E+01  0.61955805619E+02  0.85147569455E+02  0.00000000000E+00 0.  1.
         11    1    1    2    0    0  0.25883130574E+02 -0.39713335939E+02  0.62083827196E+02  0.78112016355E+02  0.00000000000E+00 0. -1.
</event>
<event>
 6    1  0.6447971E-006  0.1038009E+03  0.7561462E-02  0.1272500E+00
         -1   -1    0    0    0  501 -0.00000000000E+00  0.00000000000E+00  0.11831669360E+04  0.11831669360E+04  0.00000000000E+00 0.  1.
          1   -1    0    0  501    0  0.00000000000E+00 -0.00000000000E+00 -0.13011217396E+02  0.13011217396E+02  0.00000000000E+00 0. -1.
          5    1    1    2  502    0 -0.26362493839E+02 -0.44740384732E+02  0.29213720975E+03  0.29674619598E+03  0.41800000000E+01 0. -1.
         -5    1    1    2    0  502  0.14123401290E+02  0.72677288354E+02  0.62541758212E+03  0.62979844643E+03  0.41800000000E+01 0. -1.
        -11    1    1    2    0    0  0.12208204582E+02 -0.53961249219E+02  0.95305738790E+02  0.11020000237E+03  0.00000000000E+00 0. -1.
         11    1    1    2    0    0  0.30887966931E-01  0.26024345597E+02  0.15729518792E+03  0.15943350859E+03  0.00000000000E+00 0.  1.
</event>
<event>
 6    1  0.6447971E-006  0.9591469E+02  0.7561462E-02  0.1289129E+00
         -1   -1    0    0    0  501 -0.00000000000E+00  0.00000000000E+00  0.71389948664E+02  0.71389948664E+02  0.00000000000E+00 0.  1.
          1   -1    0    0  501    0  0.00000000000E+00 -0.00000000000E+00 -0.16581412372E+03  0.16581412372E+03  0.00000000000E+00 0. -1.
          5    1    1    2  502    0 -0.58437476886E+01 -0.58212575815E+02 -0.51256733968E+02  0.77894663149E+02  0.41800000000E+01 0. -1.
         -5    1    1    2    0  502  0.17728522575E+02  0.55132058571E+02 -0.57056360642E+00  0.58065844847E+02  0.41800000000E+01 0. -1.
        -11    1    1    2    0    0 -0.20993969186E+02 -0.32330158392E+02 -0.50800996050E+02  0.63770895270E+02  0.00000000000E+00 0. -1.
         11    1    1    2    0    0  0.91091943006E+01  0.35410675635E+02  0.82041185641E+01  0.37472669122E+02  0.00000000000E+00 0.  1.
</event>
<event>
 6    1  0.6447971E-006  0.2000062E+03  0.7561462E-02  0.1149734E+00
          3   -1    0    0  501    0  0.00000000000E+00  0.00000000000E+00  0.10734340298E+03  0.10734340298E+03  0.00000000000E+00 0. -1.
         -3   -1    0    0    0  501 -0.00000000000E+00 -0.00000000000E+00 -0.66717209348E+03  0.66717209348E+03  0.00000000000E+00 0.  1.
          5    1    1    2  502    0  0.30379054332E+02  0.50391493473E+02 -0.37878717564E+02  0.70103203928E+02  0.41800000000E+01 0.  1.
         -5    1    1    2    0  502  0.56979578298E+02  0.12875655383E+03 -0.45052341786E+03  0.47203150841E+03  0.41800000000E+01 0.  1.
        -11    1    1    2    0    0 -0.24902995629E+02 -0.71422924627E+02 -0.76733496331E+02  0.10774703157E+03  0.00000000000E+00 0.  1.
         11    1    1    2    0    0 -0.62455637002E+02 -0.10772512268E+03  0.53069412527E+01  0.12463375255E+03  0.00000000000E+00 0. -1.
</event>
<event>
 6    1  0.6447971E-006  0.8968399E+02  0.7561462E-02  0.1303619E+00
         -3   -1    0    0    0  501 -0.00000000000E+00  0.00000000000E+00  0.10072945417E+04  0.10072945417E+04  0.00000000000E+00 0.  1.
          3   -1    0    0  501    0  0.00000000000E+00 -0.00000000000E+00 -0.26882768345E+02  0.26882768345E+02  0.00000000000E+00 0. -1.
          5    1    1    2  502    0  0.40920269479E+01  0.29336664486E+02  0.65496552504E+03  0.65564830204E+03  0.41800000000E+01 0. -1.
         -5    1    1    2    0  502  0.66920130728E+02  0.27086371676E+01  0.17751805870E+03  0.18977822366E+03  0.41800000000E+01 0. -1.
        -11    1    1    2    0    0 -0.27401233068E+02 -0.26962916863E+02  0.44431072696E+01  0.38698419368E+02  0.00000000000E+00 0. -1.
         11    1    1    2    0    0 -0.43610924609E+02 -0.50823847903E+01  0.14348508231E+03  0.15005236494E+03  0.00000000000E+00 0.  1.
</event>
<event>
 6    1  0.6447971E-006  0.2083739E+03  0.7561462E-02  0.1142860E+00
         -2   -1    0    0    0  501 -0.00000000000E+00  0.00000000000E+00  0.12782844537E+03  0.12782844537E+03  0.00000000000E+00 0.  1.
          2   -1    0    0  501    0  0.00000000000E+00 -0.00000000000E+00 -0.36333571282E+03  0.36333571282E+03  0.00000000000E+00 0. -1.
          5    1    1    2  502    0 -0.12091221399E+03  0.35784313053E+02 -0.33402620735E+02  0.13051240563E+03  0.41800000000E+01 0. -1.
         -5    1    1    2    0  502 -0.11752891335E+02  0.92583199410E+02 -0.61429557455E+02  0.11180716523E+03  0.41800000000E+01 0. -1.
        -11    1    1    2    0    0  0.13046398546E+02 -0.55685620470E+02 -0.74768857626E+02  0.94135428574E+02  0.00000000000E+00 0. -1.
         11    1    1    2    0    0  0.11961870678E+03 -0.72681891993E+02 -0.65906231640E+02  0.15470915876E+03  0.00000000000E+00 0.  1.
</event>
<event>
 6    1  0.6447971E-006  0.1429039E+03  0.7561462E-02  0.1209474E+00
          3   -1    0    0  501    0  0.00000000000E+00  0.00000000000E+00  0.12768996674E+03  0.12768996674E+03  0.00000000000E+00 0. -1.
         -3   -1    0    0    0  501 -0.00000000000E+00 -0.00000000000E+00 -0.30920659593E+03  0.30920659593E+03  0.00000000000E+00 0.  1.
          5    1    1    2  502    0 -0.15994497928E+02 -0.27437537588E+02  0.10065124959E+02  0.33577098941E+02  0.41800000000E+01 0.  1.
         -5    1    1    2    0  502  0.56354591965E+01 -0.98621135574E+02 -0.22268178520E+03  0.24364428300E+03  0.41800000000E+01 0.  1.
        -11    1    1    2    0    0 -0.14992345220E+02 -0.90005001276E+01  0.11345495031E+02  0.20844655796E+02  0.00000000000E+00 0.  1.
         11    1    1    2    0    0  0.25351383951E+02  0.13505917329E+03  0.19754536017E+02  0.13883052493E+03  0.00000000000E+00 0. -1.
</event>
<event>
 6    1  0.6447971E-006  0.7180597E+02  0.7561462E-02  0.1354057E+00
          2   -1    0    0  501    0  0.00000000000E+00  0.00000000000E+00  0.47309482141E+03  0.47309482141E+03  0.00000000000E+00 0. -1.
         -2   -1    0    0    0  501 -0.00000000000E+00 -0.00000000000E+00 -0.16059572235E+02  0.16059572235E+02  0.00000000000E+00 0.  1.
          5    1    1    2  502    0 -0.62948685400E+02  0.29211858380E+02  0.29216449704E+03  0.30032221929E+03  0.41800000000E+01 0. -1.
         -5    1    1    2    0  502  0.29663943900E+02 -0.25872522065E+02  0.30645065025E+02  0.50059258645E+02  0.41800000000E+01 0.  1.
        -11    1    1    2    0    0  0.21043977320E+02 -0.61958063181E+01  0.71074193090E+02  0.74382645293E+02  0.00000000000E+00 0.  1.
         11    1    1    2    0    0  0.12240764181E+02  0.28564700031E+01  0.63151494019E+02  0.64390270425E+02  0.00000000000E+00 0. -1.
</event>
<event>
 6    1  0.6447971E-006  0.1882507E+03  0.7561462E-02  0.1160049E+00
         -1   -1    0    0    0  501 -0.00000000000E+00  0.00000000000E+00  0.12968345837E+03  0.12968345837E+03  0.00000000000E+00 0.  1.
          1   -1    0    0  501    0  0.00000000000E+00 -0.00000000000E+00 -0.35921063384E+03  0.35921063384E+03  0.00000000000E+00 0. -1.
          5    1    1    2  502    0  0.67067205621E+00 -0.82845094527E+02 -0.64555136760E+01  0.83203999574E+02  0.41800000000E+01 0. -1.
         -5    1    1    2    0  502  0.16324150740E+01 -0.95909950294E+02 -0.17911803239E+03  0.20322924315E+03  0.41800000000E+01 0. -1.
        -11    1    1    2    0    0  0.39299451434E+02  0.11382725947E+03 -0.23666568938E+02  0.12272407411E+03  0.00000000000E+00 0. -1.
         11    1    1    2    0    0 -0.41602538564E+02  0.64927785351E+02 -0.20287060464E+02  0.79736775379E+02  0.00000000000E+00 0.  1.
</event>
<event>
 6    1  0.6447971E-006  0.8854971E+02  0.7561462E-02  0.1306402E+00
         -2   -1    0    0    0  501 -0.00000000000E+00  0.00000000000E+00  0.44940108924E+02  0.44940108924E+02  0.00000000000E+00 0.  1.
          2   -1    0    0  501    0  0.00000000000E+00 -0.00000000000E+00 -0.31332833325E+03  0.31332833325E+03  0.00000000000E+00 0. -1.
          5    1    1    2  502    0 -0.19863240053E+02  0.37467216346E+02 -0.26408120163E+01  0.42694108425E+02  0.41800000000E+01 0.  1.
         -5    1    1    2    0  502  0.55838775504E+02 -0.42269930274E+02 -0.10497597038E+03  0.12626219788E+03  0.41800000000E+01 0.  1.
        -11    1    1    2    0    0  0.88211701282E+01  0.15895452837E+02  0.36456550776E+01  0.18541015729E+02  0.00000000000E+00 0.  1.
         11    1    1    2    0    0 -0.44796705579E+02 -0.11092738909E+02 -0.16441709700E+03  0.17077112014E+03  0.00000000000E+00 0. -1.
</event>
<event>
 6    1  0.6447971E-006  0.1316852E+03  0.7561462E-02  0.1224976E+00
         -2   -1    0    0    0  501 -0.00000000000E+00  0.00000000000E+00  0.37495490864E+02  0.37495490864E+02  0.00000000000E+00 0.  1.
          2   -1    0    0  501    0  0.00000000000E+00 -0.00000000000E+00 -0.74382329251E+03  0.74382329251E+03  0.00000000000E+00 0. -1.
          5    1    1    2  502    0  0.38212721038E+02  0.77305894176E+02 -0.28338615657E+03  0.29624584294E+03  0.41800000000E+01 0.  1.
         -5    1    1    2    0  502  0.21728609139E+02  0.26185456809E+02  0.17368366115E+01  0.34326368943E+02  0.41800000000E+01 0.  1.
        -11    1    1    2    0    0 -0.50572766465E+02 -0.13594106667E+02 -0.23320292124E+03  0.23901047449E+03  0.00000000000E+00 0. -1.
         11    1    1    2    0    0 -0.93685637110E+01 -0.89897244318E+02 -0.19147556044E+03  0.21173609699E+03  0.00000000000E+00 0.  1.
</event>
<event>
 6    1  0.6447971E-006  0.1173846E+03  0.7561462E-02  0.1247475E+00
         -1   -1    0    0    0  501 -0.00000000000E+00  0.00000000000E+00  0.23591981385E+03  0.23591981385E+03  0.00000000000E+00 0.  1.
          1   -1    0    0  501    0  0.00000000000E+00 -0.00000000000E+00 -0.63687760826E+02  0.63687760826E+02  0.00000000000E+00 0. -1.
          5    1    1    2  502    0 -0.47881014909E+02 -0.68152527600E-01  0.28694517675E+02  0.55977173724E+02  0.41800000000E+01 0.  1.
         -5    1    1    2    0  502  0.70984850818E+02  0.42586542707E+02  0.10024634027E+03  0.13007407045E+03  0.41800000000E+01 0.  1.
        -11    1    1    2    0    0  0.34075619660E+02 -0.27800952903E+01  0.64966283306E+01  0.34800617303E+02  0.00000000000E+00 0. -1.
         11    1    1    2    0    0 -0.57179455568E+02 -0.39738294889E+02  0.36794566750E+02  0.78755713203E+02  0.00000000000E+00 0.  1.
</event>
<event>
 6    1  0.6447971E-006  0.1115117E+03  0.7561462E-02  0.1257796E+00
          4   -1    0    0  501    0  0.00000000000E+00  0.00000000000E+00  0.50164032600E+02  0.50164032600E+02  0.00000000000E+00 0. -1.
         -4   -1    0    0    0  501 -0.00000000000E+00 -0.00000000000E+00 -0.36769015642E+03  0.36769015642E+03  0.00000000000E+00 0.  1.
          5    1    1    2  502    0  0.57273222039E+02  0.40263040534E+02 -0.60580501333E+02  0.92675800172E+02  0.41800000000E+01 0. -1.
         -5    1    1    2    0  502 -0.51058868153E+02  0.38587958931E+02 -0.16603032012E+03  0.17798757876E+03  0.41800000000E+01 0. -1.
        -11    1    1    2    0    0  0.16406516338E+02 -0.46237013120E+02 -0.95371023037E+02  0.10725048809E+03  0.00000000000E+00 0.  1.
         11    1    1    2    0    0 -0.22620870223E+02 -0.32613986345E+02  0.44557206725E+01  0.39940322002E+02  0.00000000000E+00 0. -1.
</event>
<event>
 6    1  0.6447971E-006  0.1060839E+03  0.7561462E-02  0.1267999E+00
          4   -1    0    0  501    0  0.00000000000E+00  0.00000000000E+00  0.92295426186E+02  0.92295426186E+02  0.00000000000E+00 0.  1.
         -4   -1    0    0    0  501 -0.00000000000E+00 -0.00000000000E+00 -0.24159820080E+03  0.24159820080E+03  0.00000000000E+00 0. -1.
          5    1    1    2  502    0  0.73787253626E+01 -0.25546637113E+02  0.25450481925E+02  0.37044239579E+02  0.41800000000E+01 0.  1.
         -5    1    1    2    0  502 -0.32646405716E+02 -0.69287414748E+02 -0.13756399599E+03  0.15750510798E+03  0.41800000000E+01 0.  1.
        -11    1    1    2    0    0  0.31548636267E+02  0.30427255651E+02  0.24266822964E+02  0.50100030275E+02  0.00000000000E+00 0.  1.
         11    1    1    2    0    0 -0.62809559134E+01  0.64406796210E+02 -0.61456083514E+02  0.89244249149E+02  0.00000000000E+00 0. -1.
</event>
<event>
 6    1  0.6447971E-006  0.1725320E+03  0.7561462E-02  0.1175233E+00
         -1   -1    0    0    0  501 -0.00000000000E+00  0.00000000000E+00  0.80390553224E+02  0.80390553224E+02  0.00000000000E+00 0.  1.
          1   -1    0    0  501    0  0.00000000000E+00 -0.00000000000E+00 -0.42555660585E+03  0.42555660585E+03  0.00000000000E+00 0. -1.
          5    1    1    2  502    0 -0.74848244161E+02 -0.43725569157E+02 -0.62224428521E+02  0.10678734455E+03  0.41800000000E+01 0.  1.
         -5    1    1    2    0  502 -0.59006289337E+02  0.77411638135E+02 -0.36512434470E+02  0.10404294388E+03  0.41800000000E+01 0.  1.
        -11    1    1    2    0    0  0.93892360747E+02  0.17916015378E+02 -0.16582543956E+03  0.19140228687E+03  0.00000000000E+00 0. -1.
         11    1    1    2    0    0  0.39962172752E+02 -0.51602084356E+02 -0.80603750079E+02  0.10371458378E+03  0.00000000000E+00 0.  1.
</event>
<event>
 6    1  0.6447971E-006  0.1095005E+03  0.7561462E-02  0.1261498E+00
          1   -1    0    0  501    0  0.00000000000E+00  0.00000000000E+00  0.42457699772E+02  0.42457699772E+02  0.00000000000E+00 0. -1.
         -1   -1    0    0    0  501 -0.00000000000E+00 -0.00000000000E+00 -0.40807190045E+03  0.40807190045E+03  0.00000000000E+00 0.  1.
          5    1    1    2  502    0  0.26156179875E+02  0.27753646810E+02 -0.31228748443E+02  0.49468351359E+02  0.41800000000E+01 0. -1.
         -5    1    1    2    0  502 -0.73863340107E+02 -0.18062400764E+02 -0.26474108292E+03  0.27547659923E+03  0.41800000000E+01 0.  1.
        -11    1    1    2    0    0 -0.25928220690E+02  0.10739282228E+02 -0.19880978319E+02  0.34392704311E+02  0.00000000000E+00 0.  1.
         11    1    1    2    0    0  0.73635380922E+02 -0.20430528273E+02 -0.49763390988E+02  0.91191945323E+02  0.00000000000E+00 0. -1.
</event>
<event>
 6    1  0.6447971E-006  0.1464202E+03  0.7561462E-02  0.1204942E+00
         -2   -1    0    0    0  501 -0.00000000000E+00  0.00000000000E+00  0.35399609814E+02  0.35399609814E+02  0.00000000000E+00 0.  1.
          2   -1    0    0  501    0  0.00000000000E+00 -0.00000000000E+00 -0.15175680717E+04  0.15175680717E+04  0.00000000000E+00 0. -1.
          5    1    1    2  502    0 -0.61819062682E+02  0.22650166025E+02 -0.92078007515E+03  0.92314031746E+03  0.41800000000E+01 0. -1.
         -5    1    1    2    0  502  0.11137088736E+03  0.23125132582E+02 -0.90412664361E+02  0.14536219792E+03  0.41800000000E+01 0.  1.
        -11    1    1    2    0    0  0.20695698531E+01  0.25199686308E+02 -0.12502039604E+03  0.12755158461E+03  0.00000000000E+00 0. -1.
         11    1    1    2    0    0 -0.51621394528E+02 -0.70974984915E+02 -0.34595532630E+03  0.35691358149E+03  0.00000000000E+00 0.  1.
</event>
<event>
 6    1  0.6447971E-006  0.1140393E+03  0.7561462E-02  0.1253267E+00
          3   -1    0    0  501    0  0.00000000000E+00  0.00000000000E+00  0.77277675993E+02  0.77277675993E+02  0.00000000000E+00 0. -1.
         -3   -1    0    0    0  501 -0.00000000000E+00 -0.00000000000E+00 -0.28930145530E+03  0.28930145530E+03  0.00000000000E+00 0.  1.
          5    1    1    2  502    0  0.41046139414E+02 -0.85574424699E+02 -0.67982626832E+02  0.11681985137E+03  0.41800000000E+01 0.  1.
         -5    1    1    2    0  502 -0.13830058877E+02  0.90804431621E+01 -0.12962721492E+03  0.13074560117E+03  0.41800000000E+01 0.  1.
        -11    1    1    2    0    0 -0.43100955597E+02  0.57207689771E+01  0.54235635447E+01  0.43815917343E+02  0.00000000000E+00 0. -1.
         11    1    1    2    0    0  0.15884875061E+02  0.70773212559E+02 -0.19837501100E+02  0.75197761413E+02  0.00000000000E+00 0.  1.
</event>
<event>
 6    1  0.6447971E-006  0.1442868E+03  0.7561462E-02  0.1207674E+00
          2   -1    0    0  501    0  0.00000000000E+00  0.00000000000E+00  0.31349700569E+03  0.31349700569E+03  0.00000000000E+00 0.  1.
         -2   -1    0    0    0  501 -0.00000000000E+00 -0.00000000000E+00 -0.92851362609E+02  0.92851362609E+02  0.00000000000E+00 0. -1.
          5    1    1    2  502    0 -0.21392661062E+02  0.70331927041E+02  0.91319395072E+02  0.11730699137E+03  0.41800000000E+01 0. -1.
         -5    1    1    2    0  502 -0.84847465981E+02  0.42020108449E+01  0.66669248249E+00  0.85056841333E+02  0.41800000000E+01 0. -1.
        -11    1    1    2    0    0  0.79543027773E+02 -0.58580650605E+02  0.13959864236E+03  0.17101627654E+03  0.00000000000E+00 0.  1.
         11    1    1    2    0    0  0.26697099270E+02 -0.15953287281E+02 -0.10939086832E+02  0.32968259057E+02  0.00000000000E+00 0. -1.
</event>
<event>
 6    1  0.6447971E-006  0.1824698E+03  0.7561462E-02  0.1165434E+00
          2   -1    0    0  501    0  0.00000000000E+00  0.00000000000E+00  0.81040971524E+02  0.81040971524E+02  0.00000000000E+00 0. -1.
         -2   -1    0    0    0  501 -0.00000000000E+00 -0.00000000000E+00 -0.70591527613E+03  0.70591527613E+03  0.00000000000E+00 0.  1.
          5    1    1    2  502    0 -0.47651892705E+02 -0.42247092165E+02 -0.32015061322E+03  0.32644970090E+03  0.41800000000E+01 0. -1.
         -5    1    1    2    0  502 -0.11089048787E+03  0.42518352863E+02 -0.21697863126E+03  0.24738979254E+03  0.41800000000E+01 0. -1.
        -11    1    1    2    0    0  0.36255266425E+02 -0.39732001972E+02 -0.61976881373E+02  0.82062233390E+02  0.00000000000E+00 0.  1.
         11    1    1    2    0    0  0.12228711415E+03  0.39460741275E+02 -0.25768178749E+02  0.13105452081E+03  0.00000000000E+00 0. -1.
</event>
<event>
 6    1  0.6447971E-006  0.9964812E+02  0.7561462E-02  0.1281038E+00
          2   -1    0    0  501    0  0.00000000000E+00  0.00000000000E+00  0.36089548862E+03  0.36089548862E+03  0.00000000000E+00 0. -1.
         -2   -1    0    0    0  501 -0.00000000000E+00 -0.00000000000E+00 -0.75280631855E+02  0.75280631855E+02  0.00000000000E+00 0.  1.
          5    1    1    2  502    0 -0.60987049997E+02  0.25853220482E+02  0.19024830159E+03  0.20149366723E+03  0.41800000000E+01 0. -1.
         -5    1    1    2    0  502  0.73705221568E+02 -0.70131556087E+01 -0.28123971396E+02  0.79309988054E+02  0.41800000000E+01 0.  1.
        -11    1    1    2    0    0  0.20700609565E+02 -0.63092538843E+00 -0.50493911821E+01  0.21316886605E+02  0.00000000000E+00 0.  1.
         11    1    1    2    0    0 -0.33418781136E+02 -0.18209139485E+02  0.12853991776E+03  0.13405557859E+03  0.00000000000E+00 0. -1.
</event>
<event>
 6    1  0.6447971E-006  0.2597390E+03  0.7561462E-02  0.1107300E+00
         -2   -1    0    0    0  501 -0.00000000000E+00  0.00000000000E+00  0.72425624499E+02  0.72425624499E+02  0.00000000000E+00 0. -1.
          2   -1    0    0  501    0  0.00000000000E+00 -0.00000000000E+00 -0.15071047480E+04  0.15071047480E+04  0.00000000000E+00 0.  1.
          5    1    1    2  502    0 -0.15718123638E+03  0.21071908618E+02 -0.14298730785E+03  0.21357155477E+03  0.41800000000E+01 0.  1.
         -5    1    1    2    0  502 -0.73021861045E+02 -0.82803027826E+02 -0.10509509028E+03  0.15248273348E+03  0.41800000000E+01 0.  1.
        -11    1    1    2    0    0  0.13052422903E+03  0.73807346693E+02 -0.80772053239E+03  0.82152088059E+03  0.00000000000E+00 0.  1.
         11    1    1    2    0    0  0.99678868391E+02 -0.12076227485E+02 -0.37887619302E+03  0.39195520370E+03  0.00000000000E+00 0. -1.
</event>
<event>
 6    1  0.6447971E-006  0.1077647E+03  0.7561462E-02  0.1264766E+00
         -1   -1    0    0    0  501 -0.00000000000E+00  0.00000000000E+00  0.13096209829E+03  0.13096209829E+03  0.00000000000E+00 0.  1.
          1   -1    0    0  501    0  0.00000000000E+00 -0.00000000000E+00 -0.99526144338E+02  0.99526144338E+02  0.00000000000E+00 0. -1.
          5    1    1    2  502    0  0.47493664310E+02 -0.60016748859E+02  0.37647978643E+02  0.85396141535E+02  0.41800000000E+01 0.  1.
         -5    1    1    2    0  502 -0.23880347762E+02  0.32906946120E+02 -0.20789103832E+02  0.45856268387E+02  0.41800000000E+01 0.  1.
        -11    1    1    2    0    0  0.30066023550E+02  0.32238944075E+02  0.93095558081E+01  0.45055333941E+02  0.00000000000E+00 0.  1.
         11    1    1    2    0    0 -0.53679340098E+02 -0.51291413359E+01  0.52675233304E+01  0.54180498763E+02  0.00000000000E+00 0. -1.
</event>
<event>
 6    1  0.6447971E-006  0.6425224E+02  0.7561462E-02  0.1380807E+00
          3   -1    0    0  501    0  0.00000000000E+00  0.00000000000E+00  0.26557844549E+02  0.26557844549E+02  0.00000000000E+00 0. -1.
         -3   -1    0    0    0  501 -0.00000000000E+00 -0.00000000000E+00 -0.45674880399E+03  0.45674880399E+03  0.00000000000E+00 0.  1.
          5    1    1    2  502    0  0.89412732266E+01 -0.10778056512E+02 -0.28382964657E+03  0.28420565361E+03  0.41800000000E+01 0.  1.
         -5    1    1    2    0  502 -0.20936300706E+02  0.66631606945E+01  0.38640881669E+01  0.22696474948E+02  0.41800000000E+01 0.  1.
        -11    1    1    2    0    0  0.25429521899E+02  0.43236745507E+02 -0.94712919601E+02  0.10717562169E+03  0.00000000000E+00 0.  1.
         11    1    1    2    0    0 -0.13434494419E+02 -0.39121849690E+02 -0.55512481437E+02  0.69228898292E+02  0.00000000000E+00 0. -1.
</event>
<event>
 6    1  0.6447971E-006  0.1323560E+03  0.7561462E-02  0.1224001E+00
         -2   -1    0    0    0  501 -0.00000000000E+00  0.00000000000E+00  0.38845979045E+02  0.38845979045E+02  0.00000000000E+00 0.  1.
          2   -1    0    0  501    0  0.00000000000E+00 -0.00000000000E+00 -0.89482334100E+03  0.89482334100E+03  0.00000000000E+00 0. -1.
          5    1    1    2  502    0  0.20439438812E+02  0.51285018902E+02 -0.45663737773E+03  0.45998162024E+03  0.41800000000E+01 0. -1.
         -5    1    1    2    0  502  0.75794375954E+02 -0.52793684857E+02 -0.62354969753E+02  0.11152387744E+03  0.41800000000E+01 0.  1.
        -11    1    1    2    0    0 -0.54435778493E+02  0.33789966306E+02 -0.95704603527E+02  0.11517112025E+03  0.00000000000E+00 0. -1.
         11    1    1    2    0    0 -0.41798036273E+02 -0.32281300351E+02 -0.24128041094E+03  0.24699270211E+03  0.00000000000E+00 0.  1.
</event>
<event>
 6    1  0.6447971E-006  0.1185579E+03  0.7561462E-02  0.1245495E+00
         -1   -1    0    0    0  501 -0.00000000000E+00  0.00000000000E+00  0.10793374690E+02  0.10793374690E+02  0.00000000000E+00 0.  1.
          1   -1    0    0  501    0  0.00000000000E+00 -0.00000000000E+00 -0.15829892488E+04  0.15829892488E+04  0.00000000000E+00 0. -1.
          5    1    1    2  502    0  0.55676913416E+02 -0.68938399376E+02 -0.83191484538E+03  0.83663146245E+03  0.41800000000E+01 0.  1.
         -5    1    1    2    0  502  0.67777617554E+01  0.31046060302E+02 -0.71931676896E+02  0.78749187016E+02  0.41800000000E+01 0.  1.
        -11    1    1    2    0    0  0.11027445619E+02 -0.19977329270E+02 -0.13274501885E+03  0.13469201265E+03  0.00000000000E+00 0.  1.
         11    1    1    2    0    0 -0.73482120791E+02  0.57869668344E+02 -0.53560433302E+03  0.54370996142E+03  0.00000000000E+00 0. -1.
</event>
<event>
 6    1  0.6447971E-006  0.8369456E+02  0.7561462E-02  0.1318882E+00
         -1   -1    0    0    0  501 -0.00000000000E+00  0.00000000000E+00  0.20092947757E+03  0.20092947757E+03  0.00000000000E+00 0.  1.
          1   -1    0    0  501    0  0.00000000000E+00 -0.00000000000E+00 -0.75121553169E+02  0.75121553169E+02  0.00000000000E+00 0. -1.
          5    1    1    2  502    0 -0.21188406686E+02 -0.20453996823E+02 -0.32063441655E+01  0.29917680505E+02  0.41800000000E+01 0. -1.
         -5    1    1    2    0  502  0.32655742187E+02  0.42970258927E+02  0.13434356100E+03  0.14483958517E+03  0.41800000000E+01 0.  1.
        -11    1    1    2    0    0  0.34198604925E+02 -0.48202601552E+01  0.25935210016E+02  0.43190445765E+02  0.00000000000E+00 0.  1.
         11    1    1    2    0    0 -0.45665940426E+02 -0.17696001950E+02 -0.31264502451E+02  0.58103319298E+02  0.00000000000E+00 0. -1.
</event>
<event>
 6    1  0.6447971E-006  0.1063857E+03  0.7561462E-02  0.1267413E+00
         -2   -1    0    0    0  501 -0.00000000000E+00  0.00000000000E+00  0.42330204522E+02  0.42330204522E+02  0.00000000000E+00 0.  1.
          2   -1    0    0  501    0  0.00000000000E+00 -0.00000000000E+00 -0.50876198879E+03  0.50876198879E+03  0.00000000000E+00 0. -1.
          5    1    1    2  502    0 -0.30146991568E+02 -0.74059795687E+01  0.16000678385E+02  0.35173622827E+02  0.41800000000E+01 0.  1.
         -5    1    1    2    0  502 -0.54873721410E+02  0.83520539005E+01 -0.17781360814E+03  0.18632239196E+03  0.41800000000E+01 0.  1.
        -11    1    1    2    0    0  0.81864085857E+02 -0.36826506303E+02 -0.22249172849E+03  0.23991767206E+03  0.00000000000E+00 0.  1.
         11    1    1    2    0    0  0.31566271205E+01  0.35880431972E+02 -0.82127126016E+02  0.89678506460E+02  0.00000000000E+00 0. -1.
</event>
<event>
 6    1  0.6447971E-006  0.1079395E+03  0.7561462E-02  0.1264434E+00
         -2   -1    0    0    0  501 -0.00000000000E+00  0.00000000000E+00  0.29965313153E+02  0.29965313153E+02  0.00000000000E+00 0.  1.
          2   -1    0    0  501    0  0.00000000000E+00 -0.00000000000E+00 -0.47144487550E+03  0.47144487550E+03  0.00000000000E+00 0. -1.
          5    1    1    2  502    0  0.78012496973E+02  0.25327133162E+02 -0.10849569340E+03  0.13607424901E+03  0.41800000000E+01 0. -1.
         -5    1    1    2    0  502 -0.45442759436E+02 -0.13127341596E+02 -0.72989859355E+02  0.87076767574E+02  0.41800000000E+01 0. -1.
        -11    1    1    2    0    0 -0.24218901894E+02 -0.45710991242E+02 -0.21716046237E+03  0.22323690633E+03  0.00000000000E+00 0. -1.
         11    1    1    2    0    0 -0.83508356438E+01  0.33511199676E+02 -0.42833547229E+02  0.55022265747E+02  0.00000000000E+00 0.  1.
</event>
<event>
 6    1  0.6447971E-006  0.1721127E+03  0.7561462E-02  0.1175662E+00
          1   -1    0    0  501    0  0.00000000000E+00  0.00000000000E+00  0.18323248666E+03  0.18323248666E+03  0.00000000000E+00 0. -1.
         -1   -1    0    0    0  501 -0.00000000000E+00 -0.00000000000E+00 -0.23044113380E+03  0.23044113380E+03  0.00000000000E+00 0.  1.
          5    1    1    2  502    0 -0.17237327879E+02  0.69499390022E+01  0.34801284940E+02  0.39674033800E+02  0.41800000000E+01 0.  1.
         -5    1    1    2    0  502 -0.10167231405E+03  0.11570190464E+03 -0.92746315995E+02  0.17984310304E+03  0.41800000000E+01 0.  1.
        -11    1    1    2    0    0  0.79832237371E+02 -0.75834771542E+02 -0.37587767383E+02  0.11634835175E+03  0.00000000000E+00 0.  1.
         11    1    1    2    0    0  0.39077404555E+02 -0.46817072100E+02  0.48324151295E+02  0.77808131870E+02  0.00000000000E+00 0. -1.
</event>
<event>
 6    1  0.6447971E-006  0.2675674E+03  0.7561462E-02  0.1102680E+00
          2   -1    0    0  501    0  0.00000000000E+00  0.00000000000E+00  0.18945360323E+04  0.18945360323E+04  0.00000000000E+00 0. -1.
         -2   -1    0    0    0  501 -0.00000000000E+00 -0.00000000000E+00 -0.47119721629E+02  0.47119721629E+02  0.00000000000E+00 0.  1.
          5    1    1    2  502    0  0.18592434847E+03 -0.26285416746E+02  0.58464100005E+03  0.61406950570E+03  0.41800000000E+01 0. -1.
         -5    1    1    2    0  502  0.78140888803E+02  0.75715821858E+01  0.79792508348E+02  0.11201626734E+03  0.41800000000E+01 0. -1.
        -11    1    1    2    0    0 -0.48300809344E+02  0.21606601426E+02  0.12385970721E+03  0.13468867985E+03  0.00000000000E+00 0.  1.
         11    1    1    2    0    0 -0.21576442793E+03 -0.28927668660E+01  0.10591230951E+04  0.10808813011E+04  0.00000000000E+00 0. -1.
</event>
<event>
 6    1  0.6447971E-006  0.1715861E+03  0.7561462E-02  0.1176204E+00
          2   -1    0    0  501    0  0.00000000000E+00  0.00000000000E+00  0.88382876312E+03  0.88382876312E+03  0.00000000000E+00 0. -1.
         -2   -1    0    0    0  501 -0.00000000000E+00 -0.00000000000E+00 -0.40454515856E+02  0.40454515856E+02  0.00000000000E+00 0.  1.
          5    1    1    2  502    0  0.38226441156E+02 -0.44982385528E+02  0.15237895591E+03  0.16346710499E+03  0.41800000000E+01 0. -1.
         -5    1    1    2    0  502 -0.80294255962E+02 -0.91576766441E+02  0.14540795744E+03  0.18972194965E+03  0.41800000000E+01 0. -1.
        -11    1    1    2    0    0  0.56886047142E+02  0.54628220652E+02  0.18669102207E+03  0.20266672783E+03  0.00000000000E+00 0.  1.
         11    1    1    2    0    0 -0.14818232335E+02  0.81930931316E+02  0.35889631185E+03  0.36842749650E+03  0.00000000000E+00 0. -1.
</event>
<event>
 6    1  0.6447971E-006  0.2229148E+03  0.7561462E-02  0.1131728E+00
          1   -1    0    0  501    0  0.00000000000E+00  0.00000000000E+00  0.63968101119E+03  0.63968101119E+03  0.00000000000E+00 0. -1.
         -1   -1    0    0    0  501 -0.00000000000E+00 -0.00000000000E+00 -0.93691743041E+02  0.93691743041E+02  0.00000000000E+00 0.  1.
          5    1    1    2  502    0 -0.95705206587E+02 -0.86465227088E+02  0.20196529382E+03  0.23967305725E+03  0.41800000000E+01 0.  1.
         -5    1    1    2    0  502 -0.47775408475E+02 -0.72749500825E+02  0.11929222764E+02  0.87947474557E+02  0.41800000000E+01 0.  1.
        -11    1    1    2    0    0  0.14677763624E+03  0.11807413050E+03  0.29634797568E+03  0.35115138828E+03  0.00000000000E+00 0. -1.
         11    1    1    2    0    0 -0.32970211821E+01  0.41140597410E+02  0.35746775878E+02  0.54600834147E+02  0.00000000000E+00 0.  1.
</event>
<event>
 6    1  0.6447971E-006  0.1177327E+03  0.7561462E-02  0.1246885E+00
         -1   -1    0    0    0  501 -0.00000000000E+00  0.00000000000E+00  0.10517867003E+02  0.10517867003E+02  0.00000000000E+00 0.  1.
          1   -1    0    0  501    0  0.00000000000E+00 -0.00000000000E+00 -0.13207851097E+04  0.13207851097E+04  0.00000000000E+00 0. -1.
          5    1    1    2  502    0 -0.74697024905E+01  0.39807050370E+02 -0.23114783905E+03  0.23470661177E+03  0.41800000000E+01 0.  1.
         -5    1    1    2    0  502  0.39086067518E+02 -0.89197221527E+02 -0.56700786953E+03  0.57532535274E+03  0.41800000000E+01 0.  1.
        -11    1    1    2    0    0 -0.56317422353E+02  0.45215079495E+02 -0.38429308579E+03  0.39102075554E+03  0.00000000000E+00 0. -1.
         11    1    1    2    0    0  0.24701057325E+02  0.41750916617E+01 -0.12781844833E+03  0.13025025664E+03  0.00000000000E+00 0.  1.
</event>
<event>
 6    1  0.6447971E-006  0.1024160E+03  0.7561462E-02  0.1275296E+00
          1   -1    0    0  501    0  0.00000000000E+00  0.00000000000E+00  0.12090160857E+03  0.12090160857E+03  0.00000000000E+00 0. -1.
         -1   -1    0    0    0  501 -0.00000000000E+00 -0.00000000000E+00 -0.13764830933E+03  0.13764830933E+03  0.00000000000E+00 0.  1.
          5    1    1    2  502    0  0.58040834849E+02  0.24779755487E+02 -0.72327826193E+01  0.63659723030E+02  0.41800000000E+01 0. -1.
         -5    1    1    2    0  502 -0.49851955380E+02 -0.19128517611E+01 -0.67594075524E+02  0.84114849480E+02  0.41800000000E+01 0. -1.
        -11    1    1    2    0    0 -0.18038366775E+02  0.31483804543E+02  0.10240638814E+02  0.37702563675E+02  0.00000000000E+00 0.  1.
         11    1    1    2    0    0  0.98494873067E+01 -0.54350708268E+02  0.47839518575E+02  0.73072781711E+02  0.00000000000E+00 0. -1.
</event>
<event>
 6    1  0.6447971E-006  0.9647885E+02  0.7561462E-02  0.1287880E+00
         -1   -1    0    0    0  501 -0.00000000000E+00  0.00000000000E+00  0.11097136987E+03  0.11097136987E+03  0.00000000000E+00 0.  1.
          1   -1    0    0  501    0  0.00000000000E+00 -0.00000000000E+00 -0.13888345113E+03  0.13888345113E+03  0.00000000000E+00 0. -1.
          5    1    1    2  502    0 -0.12335209595E+02 -0.10338510777E+02  0.51642550204E+02  0.54253733442E+02  0.41800000000E+01 0.  1.
         -5    1    1    2    0  502  0.68551738393E+02  0.72023165250E+01 -0.46108626049E+02  0.83034282054E+02  0.41800000000E+01 0.  1.
        -11    1    1    2    0    0 -0.18912529666E+02  0.46424521484E+02 -0.19142358810E+02  0.53659573929E+02  0.00000000000E+00 0. -1.
         11    1    1    2    0    0 -0.37303999132E+02 -0.43288327232E+02 -0.14303646599E+02  0.58907231574E+02  0.00000000000E+00 0.  1.
</event>
<event>
 6    1  0.6447971E-006  0.1221913E+03  0.7561462E-02  0.1239525E+00
         -2   -1    0    0    0  501 -0.00000000000E+00  0.00000000000E+00  0.43149571596E+03  0.43149571596E+03  0.00000000000E+00 0.  1.
          2   -1    0    0  501    0  0.00000000000E+00 -0.00000000000E+00 -0.73303437311E+02  0.73303437311E+02  0.00000000000E+00 0. -1.
          5    1    1    2  502    0 -0.16013665017E+02  0.61047602842E+01  0.18235220570E+03  0.18320345217E+03  0.41800000000E+01 0. -1.
         -5    1    1    2    0  502  0.87515615478E+02  0.63899073741E+02  0.14321618985E+03  0.17963970611E+03  0.41800000000E+01 0. -1.
        -11    1    1    2    0    0 -0.57571443536E+02 -0.12210075722E+02 -0.20408716173E+02  0.62290230019E+02  0.00000000000E+00 0. -1.
         11    1    1    2    0    0 -0.13930506925E+02 -0.57793758303E+02  0.53032599278E+02  0.79665764969E+02  0.00000000000E+00 0.  1.
</event>
<event>
 6    1  0.6447971E-006  0.1094951E+03  0.7561462E-02  0.1261508E+00
         -1   -1    0    0    0  501 -0.00000000000E+00  0.00000000000E+00  0.36302128314E+03  0.36302128314E+03  0.00000000000E+00 0.  1.
          1   -1    0    0  501    0  0.00000000000E+00 -0.00000000000E+00 -0.62611600006E+02  0.62611600006E+02  0.00000000000E+00 0. -1.
          5    1    1    2  502    0  0.76637648984E+02 -0.41931962500E+02  0.20121508032E+03  0.21940054619E+03  0.41800000000E+01 0.  1.
         -5    1    1    2    0  502  0.49918313544E+01 -0.20662411788E+02 -0.15779946646E+02  0.26801730491E+02  0.41800000000E+01 0.  1.
        -11    1    1    2    0    0 -0.35356296037E+02  0.51183564062E+02  0.11614663207E+03  0.13175684059E+03  0.00000000000E+00 0.  1.
         11    1    1    2    0    0 -0.46273184302E+02  0.11410810225E+02 -0.11720826102E+01  0.47673765878E+02  0.00000000000E+00 0. -1.
</event>
<event>
 6    1  0.6447971E-006  0.1181338E+03  0.7561462E-02  0.1246208E+00
         -1   -1    0    0    0  501 -0.00000000000E+00  0.00000000000E+00  0.17568786150E+03  0.17568786150E+03  0.00000000000E+00 0.  1.
          1   -1    0    0  501    0  0.00000000000E+00 -0.00000000000E+00 -0.10701009848E+03  0.10701009848E+03  0.00000000000E+00 0. -1.
          5    1    1    2  502    0 -0.47485286559E+01  0.44568055732E+02  0.51663633937E+02  0.68523452830E+02  0.41800000000E+01 0. -1.
         -5    1    1    2    0  502 -0.26707945992E+02 -0.82736223718E+02  0.52952458292E+02  0.10188244370E+03  0.41800000000E+01 0. -1.
        -11    1    1    2    0    0 -0.32684471352E+02  0.10204117646E+02 -0.22693172958E+02  0.41077716384E+02  0.00000000000E+00 0. -1.
         11    1    1    2    0    0  0.64140945999E+02  0.27964050340E+02 -0.13245156252E+02  0.71214347075E+02  0.00000000000E+00 0.  1.
</event>
<event>
 6    1  0.6447971E-006  0.1043791E+03  0.7561462E-02  0.1271348E+00
          1   -1    0    0  501    0  0.00000000000E+00  0.00000000000E+00  0.25053822079E+02  0.25053822079E+02  0.00000000000E+00 0. -1.
         -1   -1    0    0    0  501 -0.00000000000E+00 -0.00000000000E+00 -0.64353717683E+03  0.64353717683E+03  0.00000000000E+00 0.  1.
          5    1    1    2  502    0 -0.21227269599E+01 -0.98844672114E+02 -0.42381505926E+03  0.43521425991E+03  0.41800000000E+01 0.  1.
         -5    1    1    2    0  502 -0.20941231092E+02  0.35967583361E+02 -0.13489311340E+03  0.14122969467E+03  0.41800000000E+01 0.  1.
        -11    1    1    2    0    0  0.17318019787E+02  0.30356953853E+02 -0.42013341454E+02  0.54649604909E+02  0.00000000000E+00 0.  1.
         11    1    1    2    0    0  0.57459382649E+01  0.32520134900E+02 -0.17761840635E+02  0.37497439422E+02  0.00000000000E+00 0. -1.
</event>
<event>
 6    1  0.6447971E-006  0.1045478E+03  0.7561462E-02  0.1271013E+00
          1   -1    0    0  501    0  0.00000000000E+00  0.00000000000E+00  0.24976447314E+03  0.24976447314E+03  0.00000000000E+00 0. -1.
         -1   -1    0    0    0  501 -0.00000000000E+00 -0.00000000000E+00 -0.72350829759E+02  0.72350829759E+02  0.00000000000E+00 0.  1.
          5    1    1    2  502    0  0.51297516399E+02 -0.13569729290E+02 -0.25540829657E+01  0.53287601574E+02  0.41800000000E+01 0. -1.
         -5    1    1    2    0  502 -0.42240525991E+02  0.69248662938E+02  0.30451241842E+02  0.86743241146E+02  0.41800000000E+01 0. -1.
        -11    1    1    2    0    0  0.62644317918E+01 -0.58697368317E+02  0.15474061030E+03  0.16561787533E+03  0.00000000000E+00 0. -1.
         11    1    1    2    0    0 -0.15321422200E+02  0.30184346688E+01 -0.52241258001E+01  0.16466584845E+02  0.00000000000E+00 0.  1.
</event>
<event>
 6    1  0.6447971E-006  0.1042453E+03  0.7561462E-02  0.1271614E+00
         -1   -1    0    0    0  501 -0.00000000000E+00  0.00000000000E+00  0.58425111269E+02  0.58425111269E+02  0.00000000000E+00 0.  1.
          1   -1    0    0  501    0  0.00000000000E+00 -0.00000000000E+00 -0.31651360135E+03  0.31651360135E+03  0.00000000000E+00 0. -1.
          5    1    1    2  502    0  0.45841781741E+02  0.14237775266E+02 -0.13321278700E+03  0.14165910567E+03  0.41800000000E+01 0. -1.
         -5    1    1    2    0  502 -0.38381491013E+02  0.49212554610E+02  0.94099566015E+01  0.63253727691E+02  0.41800000000E+01 0.  1.
        -11    1    1    2    0    0  0.78727071683E+01 -0.76935878938E+02 -0.76678829818E+02  0.10890707933E+03  0.00000000000E+00 0. -1.
         11    1    1    2    0    0 -0.15332997896E+02  0.13485549063E+02 -0.57606829859E+02  0.61118799926E+02  0.00000000000E+00 0.  1.
</event>
<event>
 6    1  0.6447971E-006  0.1412359E+03  0.7561462E-02  0.1211676E+00
          2   -1    0    0  501    0  0.00000000000E+00  0.00000000000E+00  0.50468315960E+03  0.50468315960E+03  0.00000000000E+00 0.  1.
         -2   -1    0    0    0  501 -0.00000000000E+00 -0.00000000000E+00 -0.60453020007E+02  0.60453020007E+02  0.00000000000E+00 0. -1.
          5    1    1    2  502    0  0.44500361890E+02  0.54932435655E+02 -0.22126733560E+01  0.70853532154E+02  0.41800000000E+01 0.  1.
         -5    1    1    2    0  502  0.62575810461E+02 -0.69451633419E+01  0.12519307610E+03  0.14019538528E+03  0.41800000000E+01 0.  1.
        -11    1    1    2    0    0 -0.13630509198E+02 -0.53243729012E+02  0.13099214049E+03  0.14205501163E+03  0.00000000000E+00 0. -1.
         11    1    1    2    0    0 -0.93445663153E+02  0.52564566989E+01  0.19025759636E+03  0.21203225054E+03  0.00000000000E+00 0.  1.
</event>
<event>
 6    1  0.6447971E-006  0.1007958E+03  0.7561462E-02  0.1278631E+00
         -2   -1    0    0    0  501 -0.00000000000E+00  0.00000000000E+00  0.69935762071E+02  0.69935762071E+02  0.00000000000E+00 0.  1.
          2   -1    0    0  501    0  0.00000000000E+00 -0.00000000000E+00 -0.27505133754E+03  0.27505133754E+03  0.00000000000E+00 0. -1.
          5    1    1    2  502    0  0.19143991006E+02  0.38855293749E+02 -0.28329921472E+02  0.51925745970E+02  0.41800000000E+01 0. -1.
         -5    1    1    2    0  502 -0.50609572341E+02 -0.37070394123E+02  0.26718787356E+02  0.68314778275E+02  0.41800000000E+01 0.  1.
        -11    1    1    2    0    0 -0.25992690293E+02 -0.22242486875E+02 -0.79785610369E+02  0.86810666355E+02  0.00000000000E+00 0.  1.
         11    1    1    2    0    0  0.57458271628E+02  0.20457587249E+02 -0.12371883098E+03  0.13793590901E+03  0.00000000000E+00 0. -1.
</event>
<event>
 6    1  0.6447971E-006  0.8583346E+02  0.7561462E-02  0.1313267E+00
         -1   -1    0    0    0  501 -0.00000000000E+00  0.00000000000E+00  0.35830631705E+03  0.35830631705E+03  0.00000000000E+00 0.  1.
          1   -1    0    0  501    0  0.00000000000E+00 -0.00000000000E+00 -0.46891229501E+02  0.46891229501E+02  0.00000000000E+00 0. -1.
          5    1    1    2  502    0 -0.64196721351E+02  0.20588202711E+02  0.27817924877E+02  0.73050684237E+02  0.41800000000E+01 0. -1.
         -5    1    1    2    0  502 -0.39896664327E+01 -0.13445954503E+02  0.17113627609E+03  0.17176090511E+03  0.41800000000E+01 0. -1.
        -11    1    1    2    0    0  0.43415158090E+02 -0.32350706296E+02  0.11271308669E+03  0.12504272894E+03  0.00000000000E+00 0.  1.
         11    1    1    2    0    0  0.24771229693E+02  0.25208458088E+02 -0.25220009836E+00  0.35343228271E+02  0.00000000000E+00 0. -1.
</event>
<event>
 6    1  0.6447971E-006  0.1342596E+03  0.7561462E-02  0.1221269E+00
          3   -1    0    0  501    0  0.00000000000E+00  0.00000000000E+00  0.52926188717E+03  0.52926188717E+03  0.00000000000E+00 0. -1.
         -3   -1    0    0    0  501 -0.00000000000E+00 -0.00000000000E+00 -0.34308607267E+02  0.34308607267E+02  0.00000000000E+00 0.  1.
          5    1    1    2  502    0 -0.14038927074E+01 -0.62362700315E+02  0.12380604409E+03  0.13869566056E+03  0.41800000000E+01 0. -1.
         -5    1    1    2    0  502 -0.74320502198E+02  0.41570347842E+02  0.16096006559E+03  0.18214622143E+03  0.41800000000E+01 0. -1.
        -11    1    1    2    0    0  0.31068511609E+02 -0.36609323825E+02  0.71440109655E+02  0.86076618614E+02  0.00000000000E+00 0.  1.
         11    1    1    2    0    0  0.44655883296E+02  0.57401676298E+02  0.13874706057E+03  0.15665199383E+03  0.00000000000E+00 0. -1.
</event>
<event>
 6    1  0.6447971E-006  0.8287799E+02  0.7561462E-02  0.1321077E+00
          2   -1    0    0  501    0  0.00000000000E+00  0.00000000000E+00  0.56448463789E+03  0.56448463789E+03  0.00000000000E+00 0. -1.
         -2   -1    0    0    0  501 -0.00000000000E+00 -0.00000000000E+00 -0.44111350011E+02  0.44111350011E+02  0.00000000000E+00 0.  1.
          5    1    1    2  502    0  0.18892345978E+02  0.15645271917E+02  0.91947920059E+02  0.95255381334E+02  0.41800000000E+01 0. -1.
         -5    1    1    2    0  502 -0.49036737426E+01 -0.43934717076E+02 -0.24090320998E+02  0.50518524786E+02  0.41800000000E+01 0. -1.
        -11    1    1    2    0    0 -0.54897484719E+01  0.61725372486E+02  0.26398727683E+03  0.27116312668E+03  0.00000000000E+00 0. -1.
         11    1    1    2    0    0 -0.84989237636E+01 -0.33435927327E+02  0.18852841199E+03  0.19165895510E+03  0.00000000000E+00 0.  1.
</event>
<event>
 6    1  0.6447971E-006  0.1328080E+03  0.7561462E-02  0.1223348E+00
         -1   -1    0    0    0  501 -0.00000000000E+00  0.00000000000E+00  0.10593435674E+03  0.10593435674E+03  0.00000000000E+00 0.  1.
          1   -1    0    0  501    0  0.00000000000E+00 -0.00000000000E+00 -0.22740013567E+03  0.22740013567E+03  0.00000000000E+00 0. -1.
          5    1    1    2  502    0 -0.18884473376E+02  0.10846056088E+03  0.89335850655E+01  0.11053324361E+03  0.41800000000E+01 0.  1.
         -5    1    1    2    0  502 -0.29267477479E+02 -0.10567864882E+02 -0.52322215231E+02  0.61019272470E+02  0.41800000000E+01 0.  1.
        -11    1    1    2    0    0 -0.14011621967E+02 -0.17068280752E+02  0.12518019719E+02  0.25384100844E+02  0.00000000000E+00 0.  1.
         11    1    1    2    0    0  0.62163572822E+02 -0.80824415248E+02 -0.90595168482E+02  0.13639787549E+03  0.00000000000E+00 0. -1.
</event>
<event>
 6    1  0.6447971E-006  0.7977687E+02  0.7561462E-02  0.1329686E+00
          1   -1    0    0  501    0  0.00000000000E+00  0.00000000000E+00  0.15763672366E+03  0.15763672366E+03  0.00000000000E+00 0. -1.
         -1   -1    0    0    0  501 -0.00000000000E+00 -0.00000000000E+00 -0.92133027777E+02  0.92133027777E+02  0.00000000000E+00 0.  1.
          5    1    1    2  502    0  0.79416597455E+01 -0.66522394101E+02 -0.37085459359E+02  0.76688347044E+02  0.41800000000E+01 0. -1.
         -5    1    1    2    0  502 -0.19098337830E+02  0.20781651210E+02  0.50024330743E+02  0.57589318464E+02  0.41800000000E+01 0. -1.
        -11    1    1    2    0    0  0.26094572300E+02  0.40275581228E+02 -0.11610742566E+02  0.49374674579E+02  0.00000000000E+00 0.  1.
         11    1    1    2    0    0 -0.14937894216E+02  0.54651616633E+01  0.64175567069E+02  0.66117411355E+02  0.00000000000E+00 0. -1.
</event>
<event>
 6    1  0.6447971E-006  0.7788092E+02  0.7561462E-02  0.1335175E+00
         -3   -1    0    0    0  501 -0.00000000000E+00  0.00000000000E+00  0.18581621856E+03  0.18581621856E+03  0.00000000000E+00 0.  1.
          3   -1    0    0  501    0  0.00000000000E+00 -0.00000000000E+00 -0.94904803256E+02  0.94904803256E+02  0.00000000000E+00 0. -1.
          5    1    1    2  502    0 -0.97931789479E+01 -0.40857275529E+02 -0.15589733633E+02  0.45008171617E+02  0.41800000000E+01 0.  1.
         -5    1    1    2    0  502 -0.32988522031E+02  0.10157859351E+02  0.12374324740E+03  0.12853516394E+03  0.41800000000E+01 0.  1.
        -11    1    1    2    0    0  0.35319187148E+02  0.48194339604E+02  0.21917272430E+02  0.63643587119E+02  0.00000000000E+00 0.  1.
         11    1    1    2    0    0  0.74625138311E+01 -0.17494923426E+02 -0.39159370897E+02  0.43534099134E+02  0.00000000000E+00 0. -1.
</event>
<event>
 6    1  0.6447971E-006  0.7627848E+02  0.7561462E-02  0.1339957E+00
          2   -1    0    0  501    0  0.00000000000E+00  0.00000000000E+00  0.19642796767E+03  0.19642796767E+03  0.00000000000E+00 0. -1.
         -2   -1    0    0    0  501 -0.00000000000E+00 -0.00000000000E+00 -0.86576354053E+02  0.86576354053E+02  0.00000000000E+00 0.  1.
          5    1    1    2  502    0 -0.12887824080E+02  0.32244460354E+02 -0.31641339681E+02  0.47164054214E+02  0.41800000000E+01 0. -1.
         -5    1    1    2    0  502  0.44692911667E+01  0.40265908111E+02  0.11045224370E+03  0.11772208144E+03  0.41800000000E+01 0. -1.
        -11    1    1    2    0    0  0.92665354677E+01 -0.77297859546E+01  0.49342437164E+02  0.50796598073E+02  0.00000000000E+00 0. -1.
         11    1    1    2    0    0 -0.84800255446E+00 -0.64780582511E+02 -0.18301727567E+02  0.67321587999E+02  0.00000000000E+00 0.  1.
</event>
<event>
 6    1  0.6447971E-006  0.8883183E+02  0.7561462E-02  0.1305705E+00
          2   -1    0    0  501    0  0.00000000000E+00  0.00000000000E+00  0.54495311021E+02  0.54495311021E+02  0.00000000000E+00 0. -1.
         -2   -1    0    0    0  501 -0.00000000000E+00 -0.00000000000E+00 -0.49155090524E+03  0.49155090524E+03  0.00000000000E+00 0.  1.
          5    1    1    2  502    0 -0.61657356255E+02  0.29881308843E+02 -0.11489816589E+03  0.13384163449E+03  0.41800000000E+01 0.  1.
         -5    1    1    2    0  502  0.27036748339E+02 -0.14768559397E+02 -0.28901624923E+03  0.29068360949E+03  0.41800000000E+01 0.  1.
        -11    1    1    2    0    0  0.36098610684E+01  0.26102704623E+02 -0.58414468883E+02  0.64083012261E+02  0.00000000000E+00 0.  1.
         11    1    1    2    0    0  0.31010746848E+02 -0.41215454068E+02  0.25273289785E+02  0.57437960015E+02  0.00000000000E+00 0. -1.
</event>
<event>
 6    1  0.6447971E-006  0.1176559E+03  0.7561462E-02  0.1247015E+00
         -1   -1    0    0    0  501 -0.00000000000E+00  0.00000000000E+00  0.57624946014E+02  0.57624946014E+02  0.00000000000E+00 0.  1.
          1   -1    0    0  501    0  0.00000000000E+00 -0.00000000000E+00 -0.45756125576E+03  0.45756125576E+03  0.00000000000E+00 0. -1.
          5    1    1    2  502    0  0.35981308680E+02 -0.13267271188E+02  0.12482597878E+02  0.40545810004E+02  0.41800000000E+01 0. -1.
         -5    1    1    2    0  502 -0.52734990882E+02 -0.69290957131E+02 -0.10465154895E+03  0.13620438723E+03  0.41800000000E+01 0. -1.
        -11    1    1    2    0    0  0.42741835449E+02  0.66368071560E+02 -0.29479715083E+03  0.30518346213E+03  0.00000000000E+00 0. -1.
         11    1    1    2    0    0 -0.25988153247E+02  0.16190156759E+02 -0.12970207842E+02  0.33252542407E+02  0.00000000000E+00 0.  1.
</event>
<event>
 6    1  0.6447971E-006  0.1046184E+03  0.7561462E-02  0.1270873E+00
          3   -1    0    0  501    0  0.00000000000E+00  0.00000000000E+00  0.94235108323E+02  0.94235108323E+02  0.00000000000E+00 0. -1.
         -3   -1    0    0    0  501 -0.00000000000E+00 -0.00000000000E+00 -0.14898780143E+03  0.14898780143E+03  0.00000000000E+00 0.  1.
          5    1    1    2  502    0  0.61101779476E+02 -0.25255155508E+02 -0.73154195509E+02  0.98692750774E+02  0.41800000000E+01 0.  1.
         -5    1    1    2    0  502 -0.43648876811E+02 -0.32664249076E+00  0.97605304880E+01  0.44922950677E+02  0.41800000000E+01 0.  1.
        -11    1    1    2    0    0 -0.30499182270E+02 -0.29561253862E+02  0.15807988899E+01  0.42503726592E+02  0.00000000000E+00 0.  1.
         11    1    1    2    0    0  0.13046279605E+02  0.55143051861E+02  0.70601730253E+01  0.57103481709E+02  0.00000000000E+00 0. -1.
</event>
<event>
 6    1  0.6447971E-006  0.8557951E+02  0.7561462E-02  0.1313924E+00
         -2   -1    0    0    0  501 -0.00000000000E+00  0.00000000000E+00  0.14484762275E+03  0.14484762275E+03  0.00000000000E+00 0.  1.
          2   -1    0    0  501    0  0.00000000000E+00 -0.00000000000E+00 -0.17165463198E+03  0.17165463198E+03  0.00000000000E+00 0. -1.
          5    1    1    2  502    0  0.46032248929E+02 -0.10334294167E+02 -0.44086249888E+02  0.64705760227E+02  0.41800000000E+01 0. -1.
         -5    1    1    2    0  502 -0.22562249372E+02  0.31500045491E+02  0.11000924410E+03  0.11670824371E+03  0.41800000000E+01 0.  1.
        -11    1    1    2    0    0 -0.18326484234E+02  0.29049180591E+02 -0.73395056205E+02  0.81034247037E+02  0.00000000000E+00 0.  1.
         11    1    1    2    0    0 -0.51435153219E+01 -0.50214931915E+02 -0.19334947235E+02  0.54054003753E+02  0.00000000000E+00 0. -1.
</event>
<event>
 6    1  0.6447971E-006  0.1257704E+03  0.7561462E-02  0.1233870E+00
         -1   -1    0    0    0  501 -0.00000000000E+00  0.00000000000E+00  0.31545574208E+02  0.31545574208E+02  0.00000000000E+00 0.  1.
          1   -1    0    0  501    0  0.00000000000E+00 -0.00000000000E+00 -0.59841250007E+03  0.59841250007E+03  0.00000000000E+00 0. -1.
          5    1    1    2  502    0  0.32999670569E+01 -0.41527434499E+02 -0.31074802864E+02  0.52139556689E+02  0.41800000000E+01 0. -1.
         -5    1    1    2    0  502  0.87831204520E+02  0.38083079049E+02 -0.26816431547E+03  0.28477045824E+03  0.41800000000E+01 0. -1.
        -11    1    1    2    0    0 -0.27252616008E+02  0.33557206942E+02 -0.61618008601E+02  0.75269982071E+02  0.00000000000E+00 0.  1.
         11    1    1    2    0    0 -0.63878555569E+02 -0.30112851491E+02 -0.20600979893E+03  0.21777807727E+03  0.00000000000E+00 0. -1.
</event>
<event>
 6    1  0.6447971E-006  0.9184676E+02  0.7561462E-02  0.1298440E+00
          3   -1    0    0  501    0  0.00000000000E+00  0.00000000000E+00  0.13823260390E+03  0.13823260390E+03  0.00000000000E+00 0. -1.
         -3   -1    0    0    0  501 -0.00000000000E+00 -0.00000000000E+00 -0.10892534460E+03  0.10892534460E+03  0.00000000000E+00 0.  1.
          5    1    1    2  502    0  0.26156751716E+02 -0.28899710700E+02  0.21933896050E+02  0.44921455172E+02  0.41800000000E+01 0.  1.
         -5    1    1    2    0  502 -0.64851766713E+02  0.42128721966E+02 -0.42301735205E+02  0.88246756664E+02  0.41800000000E+01 0.  1.
        -11    1    1    2    0    0 -0.13464981404E+02 -0.12264756344E+01 -0.21218711131E+02  0.25160359074E+02  0.00000000000E+00 0.  1.
         11    1    1    2    0    0  0.52159996402E+02 -0.12002535632E+02  0.70893809580E+02  0.88829377590E+02  0.00000000000E+00 0. -1.
</event>
<event>
 6    1  0.6447971E-006  0.8505323E+02  0.7561462E-02  0.1315293E+00
         -1   -1    0    0    0  501 -0.00000000000E+00  0.00000000000E+00  0.11100886569E+03  0.11100886569E+03  0.00000000000E+00 0.  1.
          1   -1    0    0  501    0  0.00000000000E+00 -0.00000000000E+00 -0.15186146671E+03  0.15186146671E+03  0.00000000000E+00 0. -1.
          5    1    1    2  502    0  0.77835475556E+02 -0.26314324807E+02  0.21938849944E+02  0.85144527023E+02  0.41800000000E+01 0.  1.
         -5    1    1    2    0  502 -0.43973107515E+02  0.17368198203E+02  0.17972892714E+02  0.50752199616E+02  0.41800000000E+01 0.  1.
        -11    1    1    2    0    0 -0.15538162915E+02 -0.60710147162E+01 -0.96889453937E+02  0.98315095538E+02  0.00000000000E+00 0. -1.
         11    1    1    2    0    0 -0.18324205126E+02  0.15017141321E+02  0.16125110261E+02  0.28658510217E+02  0.00000000000E+00 0.  1.
</event>
<event>
 6    1  0.6447971E-006  0.1079029E+03  0.7561462E-02  0.1264503E+00
         -4   -1    0    0    0  501 -0.00000000000E+00  0.00000000000E+00  0.26895405947E+03  0.26895405947E+03  0.00000000000E+00 0.  1.
          4   -1    0    0  501    0  0.00000000000E+00 -0.00000000000E+00 -0.66514142366E+02  0.66514142366E+02  0.00000000000E+00 0. -1.
          5    1    1    2  502    0 -0.65166813347E+02 -0.72185729167E+02  0.10260398285E+03  0.14143034594E+03  0.41800000000E+01 0.  1.
         -5    1    1    2    0  502  0.36426708826E+01  0.28126923080E+02 -0.11438070640E+02  0.30865753078E+02  0.41800000000E+01 0.  1.
        -11    1    1    2    0    0  0.23627116313E+02 -0.84058901854E+01  0.92419164271E+02  0.95761169268E+02  0.00000000000E+00 0.  1.
         11    1    1    2    0    0  0.37897026151E+02  0.52464696272E+02  0.18854840618E+02  0.67410933540E+02  0.00000000000E+00 0. -1.
</event>
<event>
 6    1  0.6447971E-006  0.9585282E+02  0.7561462E-02  0.1289267E+00
         -1   -1    0    0    0  501 -0.00000000000E+00  0.00000000000E+00  0.13747297775E+03  0.13747297775E+03  0.00000000000E+00 0.  1.
          1   -1    0    0  501    0  0.00000000000E+00 -0.00000000000E+00 -0.10009333650E+03  0.10009333650E+03  0.00000000000E+00 0. -1.
          5    1    1    2  502    0  0.62040345427E+02 -0.16949198669E+01  0.66104946506E+02  0.90770113840E+02  0.41800000000E+01 0. -1.
         -5    1    1    2    0  502 -0.48941729886E+02  0.13815359720E+02 -0.22497423624E+01  0.51075344631E+02  0.41800000000E+01 0.  1.
        -11    1    1    2    0    0 -0.10795991323E+02  0.32268783838E+02  0.12850297827E+02  0.36372489511E+02  0.00000000000E+00 0.  1.
         11    1    1    2    0    0 -0.23026242174E+01 -0.44389223690E+02 -0.39325860719E+02  0.59348366274E+02  0.00000000000E+00 0. -1.
</event>
<event>
 6    1  0.6447971E-006  0.2946665E+03  0.7561462E-02  0.1087938E+00
         -1   -1    0    0    0  501 -0.00000000000E+00  0.00000000000E+00  0.95708272502E+03  0.95708272502E+03  0.00000000000E+00 0.  1.
          1   -1    0    0  501    0  0.00000000000E+00 -0.00000000000E+00 -0.11228979465E+03  0.11228979465E+03  0.00000000000E+00 0. -1.
          5    1    1    2  502    0  0.21646110280E+03 -0.18314368982E+03  0.62567057610E+03  0.68693388499E+03  0.41800000000E+01 0. -1.
         -5    1    1    2    0  502 -0.13322402053E+01 -0.14048864148E+01 -0.49795532304E+01  0.67835772405E+01  0.41800000000E+01 0. -1.
        -11    1    1    2    0    0 -0.13236946445E+03  0.17263103308E+03  0.16971459095E+03  0.27590975170E+03  0.00000000000E+00 0.  1.
         11    1    1    2    0    0 -0.82759398138E+02  0.11917543157E+02  0.54387316549E+02  0.99745305737E+02  0.00000000000E+00 0. -1.
</event>
<event>
 6    1  0.6447971E-006  0.1158453E+03  0.7561462E-02  0.1250113E+00
          1   -1    0    0  501    0  0.00000000000E+00  0.00000000000E+00  0.54591896539E+03  0.54591896539E+03  0.00000000000E+00 0. -1.
         -1   -1    0    0    0  501 -0.00000000000E+00 -0.00000000000E+00 -0.27796496653E+02  0.27796496653E+02  0.00000000000E+00 0.  1.
          5    1    1    2  502    0 -0.72262431915E+02  0.21570404202E+02  0.19089043335E+03  0.20528948182E+03  0.41800000000E+01 0. -1.
         -5    1    1    2    0  502  0.44669038714E+02  0.26075384765E+02  0.52301968401E+02  0.73676434556E+02  0.41800000000E+01 0. -1.
        -11    1    1    2    0    0 -0.16060007362E+02 -0.57345700597E+02  0.12820195097E+03  0.14135838654E+03  0.00000000000E+00 0.  1.
         11    1    1    2    0    0  0.43653400563E+02  0.96999116307E+01  0.14672811602E+03  0.15339115913E+03  0.00000000000E+00 0. -1.
</event>
<event>
 6    1  0.6447971E-006  0.1318215E+03  0.7561462E-02  0.1224778E+00
         -3   -1    0    0    0  501 -0.00000000000E+00  0.00000000000E+00  0.16828966470E+03  0.16828966470E+03  0.00000000000E+00 0.  1.
          3   -1    0    0  501    0  0.00000000000E+00 -0.00000000000E+00 -0.11698354455E+03  0.11698354455E+03  0.00000000000E+00 0. -1.
          5    1    1    2  502    0  0.94601922405E+02  0.77390670795E+01  0.24339950382E+02  0.98078144694E+02  0.41800000000E+01 0. -1.
         -5    1    1    2    0  502 -0.17650041106E+02 -0.52037866968E+02 -0.99327608006E+01  0.55996389944E+02  0.41800000000E+01 0. -1.
        -11    1    1    2    0    0 -0.89737236510E+02  0.30660507840E+02  0.59185605061E+01  0.95015092043E+02  0.00000000000E+00 0. -1.
         11    1    1    2    0    0  0.12785355211E+02  0.13638292048E+02  0.30980370070E+02  0.36183582569E+02  0.00000000000E+00 0.  1.
</event>
<event>
 6    1  0.6447971E-006  0.1077981E+03  0.7561462E-02  0.1264703E+00
         -1   -1    0    0    0  501 -0.00000000000E+00  0.00000000000E+00  0.18988370535E+04  0.18988370535E+04  0.00000000000E+00 0.  1.
          1   -1    0    0  501    0  0.00000000000E+00 -0.00000000000E+00 -0.85086144708E+01  0.85086144708E+01  0.00000000000E+00 0. -1.
          5    1    1    2  502    0 -0.46986028597E+01 -0.54996516574E+02  0.67082902684E+03  0.67310901743E+03  0.41800000000E+01 0.  1.
         -5    1    1    2    0  502  0.23408237158E+02  0.67690424725E+02  0.84520528845E+03  0.84824488869E+03  0.41800000000E+01 0.  1.
        -11    1    1    2    0    0  0.18661783817E+02  0.27742264060E+02  0.81959230945E+02  0.88516726823E+02  0.00000000000E+00 0. -1.
         11    1    1    2    0    0 -0.37371418115E+02 -0.40436172210E+02  0.29233489280E+03  0.29747503503E+03  0.00000000000E+00 0.  1.
</event>
<event>
 6    1  0.6447971E-006  0.1304922E+03  0.7561462E-02  0.1226727E+00
         -2   -1    0    0    0  501 -0.00000000000E+00  0.00000000000E+00  0.31825243046E+03  0.31825243046E+03  0.00000000000E+00 0. -1.
          2   -1    0    0  501    0  0.00000000000E+00 -0.00000000000E+00 -0.97692359304E+02  0.97692359304E+02  0.00000000000E+00 0.  1.
          5    1    1    2  502    0  0.12880805337E+02 -0.74629894593E+02  0.18210322317E+03  0.19726781947E+03  0.41800000000E+01 0.  1.
         -5    1    1    2    0  502 -0.60740634953E+02 -0.27945276139E+02  0.29094224415E+02  0.73036357298E+02  0.41800000000E+01 0.  1.
        -11    1    1    2    0    0  0.32043164745E+02  0.30099301732E+02  0.45375313183E+02  0.63179517393E+02  0.00000000000E+00 0. -1.
         11    1    1    2    0    0  0.15816664871E+02  0.72475869000E+02 -0.36012689605E+02  0.82461095600E+02  0.00000000000E+00 0.  1.
</event>
<event>
 6    1  0.6447971E-006  0.1605867E+03  0.7561462E-02  0.1188036E+00
         -3   -1    0    0    0  501 -0.00000000000E+00  0.00000000000E+00  0.21394623428E+02  0.21394623428E+02  0.00000000000E+00 0.  1.
          3   -1    0    0  501    0  0.00000000000E+00 -0.00000000000E+00 -0.12788599271E+04  0.12788599271E+04  0.00000000000E+00 0. -1.
          5    1    1    2  502    0  0.33293243363E+02 -0.17832832127E+02 -0.12200269275E+03  0.12778332988E+03  0.41800000000E+01 0.  1.
         -5    1    1    2    0  502  0.44410599371E+00  0.13105253868E+03 -0.66634987484E+03  0.67912781803E+03  0.41800000000E+01 0.  1.
        -11    1    1    2    0    0 -0.63677972200E+02 -0.10166596161E+03 -0.35023477246E+03  0.37020973479E+03  0.00000000000E+00 0.  1.
         11    1    1    2    0    0  0.29940622843E+02 -0.11553744945E+02 -0.11887796357E+03  0.12313366778E+03  0.00000000000E+00 0. -1.
</event>
<event>
 6    1  0.6447971E-006  0.1613131E+03  0.7561462E-02  0.1187222E+00
          2   -1    0    0  501    0  0.00000000000E+00  0.00000000000E+00  0.80266177272E+03  0.80266177272E+03  0.00000000000E+00 0. -1.
         -2   -1    0    0    0  501 -0.00000000000E+00 -0.00000000000E+00 -0.52354697427E+02  0.52354697427E+02  0.00000000000E+00 0.  1.
          5    1    1    2  502    0 -0.19150856649E+02 -0.50020752633E+02  0.10118351127E+03  0.11456180148E+03  0.41800000000E+01 0.  1.
         -5    1    1    2    0  502 -0.10841842119E+03  0.22425704626E+02  0.51969051462E+02  0.12237532836E+03  0.41800000000E+01 0.  1.
        -11    1    1    2    0    0  0.40614771288E+02  0.53692295795E+02  0.21527206753E+03  0.22555373048E+03  0.00000000000E+00 0.  1.
         11    1    1    2    0    0  0.86954506551E+02 -0.26097247788E+02  0.38188244503E+03  0.39252560983E+03  0.00000000000E+00 0. -1.
</event>
<event>
 6    1  0.6447971E-006  0.8807030E+02  0.7561462E-02  0.1307593E+00
          1   -1    0    0  501    0  0.00000000000E+00  0.00000000000E+00  0.39738256907E+02  0.39738256907E+02  0.00000000000E+00 0. -1.
         -1   -1    0    0    0  501 -0.00000000000E+00 -0.00000000000E+00 -0.26885047414E+03  0.26885047414E+03  0.00000000000E+00 0.  1.
          5    1    1    2  502    0  0.24278085210E+02 -0.33280176772E+02 -0.68008159656E+01  0.41960923312E+02  0.41800000000E+01 0.  1.
         -5    1    1    2    0  502 -0.20986444374E+02  0.51884030151E+02 -0.14598885042E+03  0.15640524377E+03  0.41800000000E+01 0.  1.
        -11    1    1    2    0    0 -0.39754182902E+02 -0.71530222362E+01 -0.47511968075E+02  0.62361429551E+02  0.00000000000E+00 0.  1.
         11    1    1    2    0    0  0.36462542066E+02 -0.11450831143E+02 -0.28810582777E+02  0.47861134418E+02  0.00000000000E+00 0. -1.
</event>
<event>
 6    1  0.6447971E-006  0.1316629E+03  0.7561462E-02  0.1225009E+00
          1   -1    0    0  501    0  0.00000000000E+00  0.00000000000E+00  0.20141209241E+03  0.20141209241E+03  0.00000000000E+00 0. -1.
         -1   -1    0    0    0  501 -0.00000000000E+00 -0.00000000000E+00 -0.11695149319E+03  0.11695149319E+03  0.00000000000E+00 0.  1.
          5    1    1    2  502    0 -0.63448937417E+00  0.17918390206E+02  0.28212090799E+02  0.33687768576E+02  0.41800000000E+01 0. -1.
         -5    1    1    2    0  502 -0.27502371867E+02 -0.10568995982E+03 -0.40774301332E+02  0.11664803519E+03  0.41800000000E+01 0.  1.
        -11    1    1    2    0    0 -0.32964268488E+02  0.60108420381E+02  0.36396634432E+02  0.77616880868E+02  0.00000000000E+00 0.  1.
         11    1    1    2    0    0  0.61101129730E+02  0.27663149230E+02  0.60626175317E+02  0.90410900964E+02  0.00000000000E+00 0. -1.
</event>
<event>
 6    1  0.6447971E-006  0.1538467E+03  0.7561462E-02  0.1195824E+00
         -1   -1    0    0    0  501 -0.00000000000E+00  0.00000000000E+00  0.92216955997E+02  0.92216955997E+02  0.00000000000E+00 0.  1.
          1   -1    0    0  501    0  0.00000000000E+00 -0.00000000000E+00 -0.33154905544E+03  0.33154905544E+03  0.00000000000E+00 0. -1.
          5    1    1    2  502    0 -0.11387354470E+03  0.14177851578E+02 -0.96042401567E+02  0.14969906799E+03  0.41800000000E+01 0.  1.
         -5    1    1    2    0  502 -0.14371579599E+02 -0.40419154854E+02  0.18956831705E+02  0.47085924091E+02  0.41800000000E+01 0.  1.
        -11    1    1    2    0    0  0.50813385576E+02  0.47403624250E+02 -0.38400280360E+02  0.79395751003E+02  0.00000000000E+00 0. -1.
         11    1    1    2    0    0  0.77431738718E+02 -0.21162320974E+02 -0.12384624922E+03  0.14758526835E+03  0.00000000000E+00 0.  1.
</event>
<event>
 6    1  0.6447971E-006  0.1060406E+03  0.7561462E-02  0.1268083E+00
          2   -1    0    0  501    0  0.00000000000E+00  0.00000000000E+00  0.15386252542E+03  0.15386252542E+03  0.00000000000E+00 0. -1.
         -2   -1    0    0    0  501 -0.00000000000E+00 -0.00000000000E+00 -0.10509130847E+03  0.10509130847E+03  0.00000000000E+00 0.  1.
          5    1    1    2  502    0  0.19016171689E+01  0.49070782865E+02 -0.38063079248E+01  0.49431955847E+02  0.41800000000E+01 0. -1.
         -5    1    1    2    0  502 -0.15415273149E+02 -0.77035360013E+02 -0.25968561912E+02  0.82848753438E+02  0.41800000000E+01 0. -1.
        -11    1    1    2    0    0  0.87699905650E+01  0.55496261332E+02  0.16389373599E+02  0.58526569379E+02  0.00000000000E+00 0.  1.
         11    1    1    2    0    0  0.47436654149E+01 -0.27531684184E+02  0.62156713185E+02  0.68146555229E+02  0.00000000000E+00 0. -1.
</event>
<event>
 6    1  0.6447971E-006  0.1858791E+03  0.7561462E-02  0.1162232E+00
          2   -1    0    0  501    0  0.00000000000E+00  0.00000000000E+00  0.84549978299E+03  0.84549978299E+03  0.00000000000E+00 0. -1.
         -2   -1    0    0    0  501 -0.00000000000E+00 -0.00000000000E+00 -0.69472411841E+02  0.69472411841E+02  0.00000000000E+00 0.  1.
          5    1    1    2  502    0  0.15438403179E+03 -0.56637909081E+02  0.70832069414E+02  0.17910035309E+03  0.41800000000E+01 0. -1.
         -5    1    1    2    0  502  0.74582370169E+01  0.17870487731E+02  0.68760395674E+02  0.71557278067E+02  0.41800000000E+01 0. -1.
        -11    1    1    2    0    0 -0.35279341547E+01 -0.18698096465E+02  0.10880359220E+03  0.11045490848E+03  0.00000000000E+00 0.  1.
         11    1    1    2    0    0 -0.15831433466E+03  0.57465517815E+02  0.52763131386E+03  0.55385965520E+03  0.00000000000E+00 0. -1.
</event>
<event>
 6    1  0.6447971E-006  0.2036536E+03  0.7561462E-02  0.1146693E+00
         -2   -1    0    0    0  501 -0.00000000000E+00  0.00000000000E+00  0.37424462902E+02  0.37424462902E+02  0.00000000000E+00 0.  1.
          2   -1    0    0  501    0  0.00000000000E+00 -0.00000000000E+00 -0.12711776448E+04  0.12711776448E+04  0.00000000000E+00 0. -1.
          5    1    1    2  502    0  0.19681978523E+02  0.38198427936E+02 -0.31107899950E+03  0.31406068920E+03  0.41800000000E+01 0. -1.
         -5    1    1    2    0  502 -0.96789483317E+02  0.13246685949E+03 -0.42017837342E+03  0.45109091194E+03  0.41800000000E+01 0. -1.
        -11    1    1    2    0    0  0.86082439548E+02 -0.11507258573E+03 -0.29048615831E+03  0.32408963969E+03  0.00000000000E+00 0.  1.
         11    1    1    2    0    0 -0.89749347546E+01 -0.55592701702E+02 -0.21200965070E+03  0.21936086690E+03  0.00000000000E+00 0. -1.
</event>
<event>
 6    1  0.6447971E-006  0.1472057E+03  0.7561462E-02  0.1203949E+00
         -1   -1    0    0    0  501 -0.00000000000E+00  0.00000000000E+00  0.27970116835E+02  0.27970116835E+02  0.00000000000E+00 0.  1.
          1   -1    0    0  501    0  0.00000000000E+00 -0.00000000000E+00 -0.84459385966E+03  0.84459385966E+03  0.00000000000E+00 0. -1.
          5    1    1    2  502    0  0.71449722737E+02  0.99360066435E+02 -0.26922591773E+03  0.29576604413E+03  0.41800000000E+01 0.  1.
         -5    1    1    2    0  502  0.68102289911E+01 -0.35817136179E+02 -0.55423332116E+02  0.66471532297E+02  0.41800000000E+01 0.  1.
        -11    1    1    2    0    0 -0.78665402637E+02 -0.72868351873E+01 -0.30557747759E+03  0.31562467956E+03  0.00000000000E+00 0.  1.
         11    1    1    2    0    0  0.40545090844E+00 -0.56256095068E+02 -0.18639701539E+03  0.19470172051E+03  0.00000000000E+00 0. -1.
</event>
<event>
 6    1  0.6447971E-006  0.1647964E+03  0.7561462E-02  0.1183386E+00
          4   -1    0    0  501    0  0.00000000000E+00  0.00000000000E+00  0.10151993755E+04  0.10151993755E+04  0.00000000000E+00 0. -1.
         -4   -1    0    0    0  501 -0.00000000000E+00 -0.00000000000E+00 -0.35132964040E+02  0.35132964040E+02  0.00000000000E+00 0.  1.
          5    1    1    2  502    0  0.67211589845E+02  0.30477788890E+02  0.44439710432E+03  0.45050255510E+03  0.41800000000E+01 0. -1.
         -5    1    1    2    0  502 -0.99230264521E+02  0.70266118636E+02  0.17615037624E+03  0.21408035939E+03  0.41800000000E+01 0.  1.
        -11    1    1    2    0    0  0.17269889649E+02 -0.11332197212E+03  0.33738921132E+03  0.35633074295E+03  0.00000000000E+00 0. -1.
         11    1    1    2    0    0  0.14748785026E+02  0.12578064594E+02  0.22129719612E+02  0.29418682139E+02  0.00000000000E+00 0.  1.
</event>
<event>
 6    1  0.6447971E-006  0.1348531E+03  0.7561462E-02  0.1220427E+00
          2   -1    0    0  501    0  0.00000000000E+00  0.00000000000E+00  0.17972594316E+03  0.17972594316E+03  0.00000000000E+00 0. -1.
         -2   -1    0    0    0  501 -0.00000000000E+00 -0.00000000000E+00 -0.13181418138E+03  0.13181418138E+03  0.00000000000E+00 0.  1.
          5    1    1    2  502    0  0.20515840833E+02 -0.11633848738E+02 -0.23501097033E+02  0.33556223317E+02  0.41800000000E+01 0. -1.
         -5    1    1    2    0  502 -0.11266865850E+03  0.61139927331E+02  0.18512977546E+02  0.12958595626E+03  0.41800000000E+01 0. -1.
        -11    1    1    2    0    0  0.50908834761E+02  0.26813308048E+01 -0.15205255193E+02  0.53198672700E+02  0.00000000000E+00 0.  1.
         11    1    1    2    0    0  0.41243982906E+02 -0.52187409398E+02  0.68105136464E+02  0.95199272258E+02  0.00000000000E+00 0. -1.
</event>
<event>
 6    1  0.6447971E-006  0.2008864E+03  0.7561462E-02  0.1148993E+00
         -2   -1    0    0    0  501 -0.00000000000E+00  0.00000000000E+00  0.82025364414E+03  0.82025364414E+03  0.00000000000E+00 0.  1.
          2   -1    0    0  501    0  0.00000000000E+00 -0.00000000000E+00 -0.63470196928E+02  0.63470196928E+02  0.00000000000E+00 0. -1.
          5    1    1    2  502    0 -0.92365585908E+02  0.94886961648E+02  0.15797459555E+03  0.20617561008E+03  0.41800000000E+01 0.  1.
         -5    1    1    2    0  502 -0.32060629846E+02  0.56928230290E+02  0.30581926525E+03  0.31274846568E+03  0.41800000000E+01 0.  1.
        -11    1    1    2    0    0  0.63695537893E+02 -0.11854005861E+03  0.12738366378E+03  0.18529831311E+03  0.00000000000E+00 0. -1.
         11    1    1    2    0    0  0.60730677861E+02 -0.33275133329E+02  0.16560592263E+03  0.17950145220E+03  0.00000000000E+00 0.  1.
</event>
<event>
 6    1  0.6447971E-006  0.1800341E+03  0.7561462E-02  0.1167770E+00
          4   -1    0    0  501    0  0.00000000000E+00  0.00000000000E+00  0.25782002805E+03  0.25782002805E+03  0.00000000000E+00 0. -1.
         -4   -1    0    0    0  501 -0.00000000000E+00 -0.00000000000E+00 -0.25918203087E+03  0.25918203087E+03  0.00000000000E+00 0.  1.
          5    1    1    2  502    0  0.32156794697E+02 -0.15310126466E+02 -0.19391247662E+02  0.40767049237E+02  0.41800000000E+01 0. -1.
         -5    1    1    2    0  502 -0.17454732465E+03  0.10759461532E+02 -0.15574468323E+03  0.23421446007E+03  0.41800000000E+01 0.  1.
        -11    1    1    2    0    0  0.11630151177E+03  0.21356679369E+02  0.17472060129E+03  0.21097259990E+03  0.00000000000E+00 0. -1.
         11    1    1    2    0    0  0.26089018175E+02 -0.16806014436E+02 -0.94667322115E+00  0.31047949703E+02  0.00000000000E+00 0.  1.
</event>
<event>
 6    1  0.6447971E-006  0.8514516E+02  0.7561462E-02  0.1315053E+00
         -3   -1    0    0    0  501 -0.00000000000E+00  0.00000000000E+00  0.72676536634E+02  0.72676536634E+02  0.00000000000E+00 0.  1.
          3   -1    0    0  501    0  0.00000000000E+00 -0.00000000000E+00 -0.20086074657E+03  0.20086074657E+03  0.00000000000E+00 0. -1.
          5    1    1    2  502    0  0.28396078633E+02  0.12887559726E+02  0.28560605171E+02  0.42492435152E+02  0.41800000000E+01 0. -1.
         -5    1    1    2    0  502 -0.52066723941E+02 -0.38963297364E+02 -0.33450569769E+02  0.73249541304E+02  0.41800000000E+01 0.  1.
        -11    1    1    2    0    0 -0.22609529200E+02  0.82550429040E+01 -0.10027023024E+03  0.10311864825E+03  0.00000000000E+00 0.  1.
         11    1    1    2    0    0  0.46280174508E+02  0.17820694734E+02 -0.23024015098E+02  0.54676658498E+02  0.00000000000E+00 0. -1.
</event>
<event>
 6    1  0.6447971E-006  0.8919500E+02  0.7561462E-02  0.1304813E+00
          1   -1    0    0  501    0  0.00000000000E+00  0.00000000000E+00  0.16976436963E+03  0.16976436963E+03  0.00000000000E+00 0. -1.
         -1   -1    0    0    0  501 -0.00000000000E+00 -0.00000000000E+00 -0.78665606213E+02  0.78665606213E+02  0.00000000000E+00 0.  1.
          5    1    1    2  502    0 -0.40455776788E+02  0.68476440707E+02  0.15667039268E+02  0.81170322944E+02  0.41800000000E+01 0.  1.
         -5    1    1    2    0  502  0.37895483086E+02 -0.32567640122E+02  0.18043260317E+02  0.53289309100E+02  0.41800000000E+01 0.  1.
        -11    1    1    2    0    0  0.13277483226E+02 -0.24898365872E+01 -0.22764352036E+02  0.26470862673E+02  0.00000000000E+00 0.  1.
         11    1    1    2    0    0 -0.10717189524E+02 -0.33418963997E+02  0.80152815872E+02  0.87499481131E+02  0.00000000000E+00 0. -1.
</event>
<event>
 6    1  0.6447971E-006  0.1140043E+03  0.7561462E-02  0.1253329E+00
         -1   -1    0    0    0  501 -0.00000000000E+00  0.00000000000E+00  0.10496308980E+03  0.10496308980E+03  0.00000000000E+00 0.  1.
          1   -1    0    0  501    0  0.00000000000E+00 -0.00000000000E+00 -0.12874084845E+03  0.12874084845E+03  0.00000000000E+00 0. -1.
          5    1    1    2  502    0  0.72770120998E+02  0.13098008851E+02  0.84013653458E+01  0.74532567952E+02  0.41800000000E+01 0. -1.
         -5    1    1    2    0  502 -0.52920324388E+02  0.19252531575E+02  0.12812935527E+00  0.56468659648E+02  0.41800000000E+01 0. -1.
        -11    1    1    2    0    0 -0.55176969428E+02 -0.11182094980E+02 -0.19238626131E+02  0.59495058104E+02  0.00000000000E+00 0.  1.
         11    1    1    2    0    0  0.35327172818E+02 -0.21168445446E+02 -0.13068627220E+02  0.43207652555E+02  0.00000000000E+00 0. -1.
</event>
<event>
 6    1  0.6447971E-006  0.1335008E+03  0.7561462E-02  0.1222352E+00
         -1   -1    0    0    0  501 -0.00000000000E+00  0.00000000000E+00  0.10008000737E+03  0.10008000737E+03  0.00000000000E+00 0.  1.
          1   -1    0    0  501    0  0.00000000000E+00 -0.00000000000E+00 -0.23573565155E+03  0.23573565155E+03  0.00000000000E+00 0. -1.
          5    1    1    2  502    0  0.50837102457E+02 -0.57238114604E+02  0.10308715023E+01  0.76675601371E+02  0.41800000000E+01 0. -1.
         -5    1    1    2    0  502 -0.97517517248E+02 -0.91724660942E+01 -0.58261471556E+02  0.11404241217E+03  0.41800000000E+01 0.  1.
        -11    1    1    2    0    0 -0.38558057752E+01  0.29411742708E+02 -0.76926156289E+02  0.82447264167E+02  0.00000000000E+00 0. -1.
         11    1    1    2    0    0  0.50536220567E+02  0.36998837990E+02 -0.14988878401E+01  0.62650381217E+02  0.00000000000E+00 0.  1.
</event>
<event>
 6    1  0.6447971E-006  0.1316261E+03  0.7561462E-02  0.1225063E+00
         -1   -1    0    0    0  501 -0.00000000000E+00  0.00000000000E+00  0.17832225126E+03  0.17832225126E+03  0.00000000000E+00 0.  1.
          1   -1    0    0  501    0  0.00000000000E+00 -0.00000000000E+00 -0.13124159883E+03  0.13124159883E+03  0.00000000000E+00 0. -1.
          5    1    1    2  502    0 -0.47608764409E+02 -0.70512164372E+02  0.58443723543E+02  0.10330392536E+03  0.41800000000E+01 0. -1.
         -5    1    1    2    0  502 -0.47826576765E+02  0.50582589368E+02  0.14200089127E+02  0.71169478876E+02  0.41800000000E+01 0. -1.
        -11    1    1    2    0    0  0.44492699820E+02 -0.14556644963E+02  0.27115789092E+02  0.54099558852E+02  0.00000000000E+00 0.  1.
         11    1    1    2    0    0  0.50942641354E+02  0.34486219966E+02 -0.52678949325E+02  0.80990887004E+02  0.00000000000E+00 0. -1.
</event>
<event>
 6    1  0.6447971E-006  0.2590355E+03  0.7561462E-02  0.1107724E+00
          1   -1    0    0  501    0  0.00000000000E+00  0.00000000000E+00  0.87405961587E+03  0.87405961587E+03  0.00000000000E+00 0. -1.
         -1   -1    0    0    0  501 -0.00000000000E+00 -0.00000000000E+00 -0.26188520099E+03  0.26188520099E+03  0.00000000000E+00 0.  1.
          5    1    1    2  502    0 -0.80679295816E+01  0.23705546318E+02  0.11600682446E+02  0.27912231140E+02  0.41800000000E+01 0. -1.
         -5    1    1    2    0  502  0.21681838071E+03 -0.11813816831E+03 -0.16931054038E+03  0.29941671381E+03  0.41800000000E+01 0.  1.
        -11    1    1    2    0    0 -0.14598434241E+03  0.18397591351E+02  0.41606070884E+03  0.44131214921E+03  0.00000000000E+00 0. -1.
         11    1    1    2    0    0 -0.62766108716E+02  0.76035030636E+02  0.35382356398E+03  0.36730372271E+03  0.00000000000E+00 0.  1.
</event>
<event>
 6    1  0.6447971E-006  0.3435997E+03  0.7561462E-02  0.1065273E+00
          2   -1    0    0  501    0  0.00000000000E+00  0.00000000000E+00  0.79105856262E+03  0.79105856262E+03  0.00000000000E+00 0. -1.
         -2   -1    0    0    0  501 -0.00000000000E+00 -0.00000000000E+00 -0.17296779847E+03  0.17296779847E+03  0.00000000000E+00 0.  1.
          5    1    1    2  502    0  0.54420419898E+02  0.62264726446E+02  0.98045166159E+02  0.12833084301E+03  0.41800000000E+01 0. -1.
         -5    1    1    2    0  502  0.76308685961E+02  0.24738119338E+03  0.73051108055E+02  0.26902491926E+03  0.41800000000E+01 0. -1.
        -11    1    1    2    0    0 -0.40599416239E+02 -0.19738478550E+03  0.29559146017E+03  0.35774764496E+03  0.00000000000E+00 0. -1.
         11    1    1    2    0    0 -0.90129689619E+02 -0.11226113432E+03  0.15140302976E+03  0.20892295386E+03  0.00000000000E+00 0.  1.
</event>
<event>
 6    1  0.6447971E-006  0.9103129E+02  0.7561462E-02  0.1300373E+00
         -1   -1    0    0    0  501 -0.00000000000E+00  0.00000000000E+00  0.57984962727E+03  0.57984962727E+03  0.00000000000E+00 0.  1.
          1   -1    0    0  501    0  0.00000000000E+00 -0.00000000000E+00 -0.93169949546E+02  0.93169949546E+02  0.00000000000E+00 0. -1.
          5    1    1    2  502    0 -0.40567180006E+02  0.16091918097E+02  0.11657328840E+03  0.12454497136E+03  0.41800000000E+01 0. -1.
         -5    1    1    2    0  502  0.55037314611E+02 -0.14104569883E+01  0.43258942952E+03  0.43609882174E+03  0.41800000000E+01 0.  1.
        -11    1    1    2    0    0  0.24666437548E+02  0.19186996842E+02 -0.50279923113E+02  0.59200039336E+02  0.00000000000E+00 0.  1.
         11    1    1    2    0    0 -0.39136572153E+02 -0.33868457951E+02 -0.12203117087E+02  0.53175744381E+02  0.00000000000E+00 0. -1.
</event>
<event>
 6    1  0.6447971E-006  0.1997850E+03  0.7561462E-02  0.1149921E+00
         -3   -1    0    0    0  501 -0.00000000000E+00  0.00000000000E+00  0.38862460374E+03  0.38862460374E+03  0.00000000000E+00 0.  1.
          3   -1    0    0  501    0  0.00000000000E+00 -0.00000000000E+00 -0.14033869549E+03  0.14033869549E+03  0.00000000000E+00 0. -1.
          5    1    1    2  502    0  0.15975412759E+03  0.10896502398E+03  0.17103958202E+03  0.25819908743E+03  0.41800000000E+01 0.  1.
         -5    1    1    2    0  502 -0.10833286855E+02 -0.21589799553E+01  0.63795018989E+02  0.64879104081E+02  0.41800000000E+01 0.  1.
        -11    1    1    2    0    0 -0.11725605305E+03 -0.46338868574E+02 -0.23525335734E+02  0.12825643898E+03  0.00000000000E+00 0. -1.
         11    1    1    2    0    0 -0.31664787681E+02 -0.60467175447E+02  0.36976642979E+02  0.77628668747E+02  0.00000000000E+00 0.  1.
</event>
<event>
 6    1  0.6447971E-006  0.1086090E+03  0.7561462E-02  0.1263168E+00
         -1   -1    0    0    0  501 -0.00000000000E+00  0.00000000000E+00  0.47584147339E+02  0.47584147339E+02  0.00000000000E+00 0.  1.
          1   -1    0    0  501    0  0.00000000000E+00 -0.00000000000E+00 -0.30395325305E+03  0.30395325305E+03  0.00000000000E+00 0. -1.
          5    1    1    2  502    0  0.74637544155E+02  0.37270980143E+02 -0.11992285482E+03  0.14614668134E+03  0.41800000000E+01 0.  1.
         -5    1    1    2    0  502 -0.33613703631E+02 -0.34201898609E+02 -0.66590597924E+02  0.82167092392E+02  0.41800000000E+01 0.  1.
        -11    1    1    2    0    0 -0.51317289342E+02  0.23954807329E+02 -0.11062208301E+02  0.57703287879E+02  0.00000000000E+00 0.  1.
         11    1    1    2    0    0  0.10293448818E+02 -0.27023888864E+02 -0.58793444664E+02  0.65520338776E+02  0.00000000000E+00 0. -1.
</event>
<event>
 6    1  0.6447971E-006  0.1019424E+03  0.7561462E-02  0.1276264E+00
         -1   -1    0    0    0  501 -0.00000000000E+00  0.00000000000E+00  0.89237393811E+02  0.89237393811E+02  0.00000000000E+00 0.  1.
          1   -1    0    0  501    0  0.00000000000E+00 -0.00000000000E+00 -0.18569505469E+03  0.18569505469E+03  0.00000000000E+00 0. -1.
          5    1    1    2  502    0 -0.33572662683E+02  0.31931627634E+02 -0.17993371022E+02  0.49879718561E+02  0.41800000000E+01 0. -1.
         -5    1    1    2    0  502  0.84583732563E+02 -0.14326778792E+02  0.10665706552E+02  0.86549951479E+02  0.41800000000E+01 0. -1.
        -11    1    1    2    0    0 -0.30365167012E+02  0.14226631779E+02  0.77861361647E+01  0.34424763410E+02  0.00000000000E+00 0.  1.
         11    1    1    2    0    0 -0.20645902867E+02 -0.31831480621E+02 -0.96916132574E+02  0.10407801505E+03  0.00000000000E+00 0. -1.
</event>
<event>
 6    1  0.6447971E-006  0.1001339E+03  0.7561462E-02  0.1280015E+00
          2   -1    0    0  501    0  0.00000000000E+00  0.00000000000E+00  0.94779042451E+03  0.94779042451E+03  0.00000000000E+00 0.  1.
         -2   -1    0    0    0  501 -0.00000000000E+00 -0.00000000000E+00 -0.17346328535E+02  0.17346328535E+02  0.00000000000E+00 0. -1.
          5    1    1    2  502    0 -0.10264757958E+02 -0.17333167461E+02  0.10794764144E+02  0.23233667018E+02  0.41800000000E+01 0. -1.
         -5    1    1    2    0  502  0.49391633739E+02  0.72134745196E+02  0.47122734059E+03  0.47928658845E+03  0.41800000000E+01 0. -1.
        -11    1    1    2    0    0 -0.39326630073E+02 -0.68223640475E+02  0.43949871998E+03  0.44649767504E+03  0.00000000000E+00 0.  1.
         11    1    1    2    0    0  0.19975429143E+00  0.13422062740E+02  0.89232712581E+01  0.16118822535E+02  0.00000000000E+00 0. -1.
</event>
<event>
 6    1  0.6447971E-006  0.1042488E+03  0.7561462E-02  0.1271607E+00
          2   -1    0    0  501    0  0.00000000000E+00  0.00000000000E+00  0.18891944059E+02  0.18891944059E+02  0.00000000000E+00 0. -1.
         -2   -1    0    0    0  501 -0.00000000000E+00 -0.00000000000E+00 -0.67296703033E+03  0.67296703033E+03  0.00000000000E+00 0.  1.
          5    1    1    2  502    0 -0.21544558470E+02 -0.69402470811E+02 -0.23808449771E+03  0.24896299203E+03  0.41800000000E+01 0. -1.
         -5    1    1    2    0  502  0.26935062987E+01  0.56110624012E+02 -0.20135792952E+03  0.20908884543E+03  0.41800000000E+01 0.  1.
        -11    1    1    2    0    0  0.16712904204E+02  0.44790079508E+02 -0.63901574201E+02  0.79805285380E+02  0.00000000000E+00 0.  1.
         11    1    1    2    0    0  0.21381479669E+01 -0.31498232709E+02 -0.15073108485E+03  0.15400185155E+03  0.00000000000E+00 0. -1.
</event>
<event>
 6    1  0.6447971E-006  0.1753106E+03  0.7561462E-02  0.1172420E+00
          1   -1    0    0  501    0  0.00000000000E+00  0.00000000000E+00  0.43840308187E+03  0.43840308187E+03  0.00000000000E+00 0. -1.
         -1   -1    0    0    0  501 -0.00000000000E+00 -0.00000000000E+00 -0.80902089157E+02  0.80902089157E+02  0.00000000000E+00 0.  1.
          5    1    1    2  502    0  0.47893660667E+02  0.20991122798E+02  0.62170751150E+02  0.81345587876E+02  0.41800000000E+01 0.  1.
         -5    1    1    2    0  502 -0.53609134082E+02  0.13048506233E+03  0.92394551350E+02  0.16868466518E+03  0.41800000000E+01 0.  1.
        -11    1    1    2    0    0 -0.14742211343E+02 -0.25909589605E+02  0.10377853928E+03  0.10797511215E+03  0.00000000000E+00 0. -1.
         11    1    1    2    0    0  0.20457684759E+02 -0.12556659552E+03  0.99157150934E+02  0.16129980582E+03  0.00000000000E+00 0.  1.
</event>
<event>
 6    1  0.6447971E-006  0.8687238E+02  0.7561462E-02  0.1310607E+00
          1   -1    0    0  501    0  0.00000000000E+00  0.00000000000E+00  0.29178837549E+03  0.29178837549E+03  0.00000000000E+00 0. -1.
         -1   -1    0    0    0  501 -0.00000000000E+00 -0.00000000000E+00 -0.45955568787E+02  0.45955568787E+02  0.00000000000E+00 0.  1.
          5    1    1    2  502    0 -0.63796887092E+02  0.52822760483E+01  0.11949066372E+02  0.65254868248E+02  0.41800000000E+01 0. -1.
         -5    1    1    2    0  502  0.37661495278E+02  0.18311314521E+02  0.91955207682E+02  0.10112826057E+03  0.41800000000E+01 0. -1.
        -11    1    1    2    0    0 -0.12363665897E+02 -0.26148692366E+02  0.53218563931E+01  0.29409802827E+02  0.00000000000E+00 0.  1.
         11    1    1    2    0    0  0.38499057712E+02  0.25551017969E+01  0.13660667626E+03  0.14195101263E+03  0.00000000000E+00 0. -1.
</event>
<event>
 6    1  0.6447971E-006  0.1247181E+03  0.7561462E-02  0.1235510E+00
         -2   -1    0    0    0  501 -0.00000000000E+00  0.00000000000E+00  0.16603467190E+03  0.16603467190E+03  0.00000000000E+00 0.  1.
          2   -1    0    0  501    0  0.00000000000E+00 -0.00000000000E+00 -0.16975561526E+03  0.16975561526E+03  0.00000000000E+00 0. -1.
          5    1    1    2  502    0  0.99987313220E+02 -0.34884939066E+02  0.10540079364E+03  0.14946980123E+03  0.41800000000E+01 0. -1.
         -5    1    1    2    0  502 -0.87901623045E+00 -0.10779094118E+02 -0.30511288019E+02  0.32640046509E+02  0.41800000000E+01 0. -1.
        -11    1    1    2    0    0 -0.88461892868E+02  0.36694583834E+01 -0.48849462549E+02  0.10111993575E+03  0.00000000000E+00 0. -1.
         11    1    1    2    0    0 -0.10646404121E+02  0.41994574800E+02 -0.29760986436E+02  0.52560503679E+02  0.00000000000E+00 0.  1.
</event>
<event>
 6    1  0.6447971E-006  0.7601912E+02  0.7561462E-02  0.1340744E+00
         -2   -1    0    0    0  501 -0.00000000000E+00  0.00000000000E+00  0.78330204416E+02  0.78330204416E+02  0.00000000000E+00 0.  1.
          2   -1    0    0  501    0  0.00000000000E+00 -0.00000000000E+00 -0.90068730482E+02  0.90068730482E+02  0.00000000000E+00 0. -1.
          5    1    1    2  502    0  0.35219973874E+02 -0.58263261870E+02  0.27706621512E+02  0.73621895649E+02  0.41800000000E+01 0. -1.
         -5    1    1    2    0  502 -0.44080200116E+02  0.30081889506E+02 -0.14364791154E+02  0.55423855364E+02  0.41800000000E+01 0.  1.
        -11    1    1    2    0    0  0.72865642550E+01  0.11984992267E+02 -0.10786202532E+02  0.17693960081E+02  0.00000000000E+00 0. -1.
         11    1    1    2    0    0  0.15736619868E+01  0.16196380097E+02 -0.14294153892E+02  0.21659223804E+02  0.00000000000E+00 0.  1.
</event>
<event>
 6    1  0.6447971E-006  0.1432537E+03  0.7561462E-02  0.1209017E+00
          3   -1    0    0  501    0  0.00000000000E+00  0.00000000000E+00  0.31296567733E+02  0.31296567733E+02  0.00000000000E+00 0. -1.
         -3   -1    0    0    0  501 -0.00000000000E+00 -0.00000000000E+00 -0.88971652879E+03  0.88971652879E+03  0.00000000000E+00 0.  1.
          5    1    1    2  502    0 -0.61062261551E+02 -0.12104639980E+02 -0.20120963552E+03  0.21066065584E+03  0.41800000000E+01 0.  1.
         -5    1    1    2    0  502  0.38729912061E+02 -0.93399829720E+02 -0.43837381998E+03  0.44990289255E+03  0.41800000000E+01 0.  1.
        -11    1    1    2    0    0 -0.18037222760E+02  0.57145160865E+02 -0.17145387812E+03  0.18162418103E+03  0.00000000000E+00 0.  1.
         11    1    1    2    0    0  0.40369572250E+02  0.48359308836E+02 -0.47382627441E+02  0.78825367097E+02  0.00000000000E+00 0. -1.
</event>
<event>
 6    1  0.6447971E-006  0.9861717E+02  0.7561462E-02  0.1283231E+00
          2   -1    0    0  501    0  0.00000000000E+00  0.00000000000E+00  0.38503756299E+03  0.38503756299E+03  0.00000000000E+00 0. -1.
         -2   -1    0    0    0  501 -0.00000000000E+00 -0.00000000000E+00 -0.38402569275E+02  0.38402569275E+02  0.00000000000E+00 0.  1.
          5    1    1    2  502    0  0.17131647614E+02 -0.21517892222E+02  0.60816705770E+01  0.28477572801E+02  0.41800000000E+01 0. -1.
         -5    1    1    2    0  502 -0.38455847984E+02  0.63628729797E+02  0.24386647374E+03  0.25498195410E+03  0.41800000000E+01 0. -1.
        -11    1    1    2    0    0 -0.22432595756E+02 -0.45839406022E+02  0.75730481938E+02  0.91321292103E+02  0.00000000000E+00 0. -1.
         11    1    1    2    0    0  0.43756796127E+02  0.37285684464E+01  0.20956367452E+02  0.48659313258E+02  0.00000000000E+00 0.  1.
</event>
<event>
 6    1  0.6447971E-006  0.9327436E+02  0.7561462E-02  0.1295111E+00
         -2   -1    0    0    0  501 -0.00000000000E+00  0.00000000000E+00  0.18794443597E+03  0.18794443597E+03  0.00000000000E+00 0.  1.
          2   -1    0    0  501    0  0.00000000000E+00 -0.00000000000E+00 -0.82806328821E+02  0.82806328821E+02  0.00000000000E+00 0. -1.
          5    1    1    2  502    0 -0.61250626539E+02 -0.21059985684E+02  0.56436893321E+02  0.86010217859E+02  0.41800000000E+01 0. -1.
         -5    1    1    2    0  502  0.63452803768E+02 -0.17217991695E+02  0.52548782804E+02  0.84270780928E+02  0.41800000000E+01 0. -1.
        -11    1    1    2    0    0 -0.15718520570E+02  0.59467189371E+00  0.38865579592E+02  0.41928019278E+02  0.00000000000E+00 0.  1.
         11    1    1    2    0    0  0.13516343341E+02  0.37683305485E+02 -0.42713148566E+02  0.58541746728E+02  0.00000000000E+00 0. -1.
</event>
<event>
 6    1  0.6447971E-006  0.1170763E+03  0.7561462E-02  0.1248000E+00
          1   -1    0    0  501    0  0.00000000000E+00  0.00000000000E+00  0.10263846625E+03  0.10263846625E+03  0.00000000000E+00 0. -1.
         -1   -1    0    0    0  501 -0.00000000000E+00 -0.00000000000E+00 -0.21864928994E+03  0.21864928994E+03  0.00000000000E+00 0.  1.
          5    1    1    2  502    0 -0.25938240317E+01 -0.28156328297E+02 -0.73013799359E+02  0.78409145150E+02  0.41800000000E+01 0.  1.
         -5    1    1    2    0  502 -0.10042367150E+03  0.15521110001E+02 -0.47872219228E+01  0.10181457925E+03  0.41800000000E+01 0.  1.
        -11    1    1    2    0    0  0.62397133504E+02  0.56642270842E+01 -0.66274435805E+02  0.91201900086E+02  0.00000000000E+00 0.  1.
         11    1    1    2    0    0  0.40620362031E+02  0.69709912117E+01  0.28064633396E+02  0.49862131700E+02  0.00000000000E+00 0. -1.
</event>
<event>
 6    1  0.6447971E-006  0.1554179E+03  0.7561462E-02  0.1193969E+00
         -1   -1    0    0    0  501 -0.00000000000E+00  0.00000000000E+00  0.13953159019E+03  0.13953159019E+03  0.00000000000E+00 0.  1.
          1   -1    0    0  501    0  0.00000000000E+00 -0.00000000000E+00 -0.30421311163E+03  0.30421311163E+03  0.00000000000E+00 0. -1.
          5    1    1    2  502    0 -0.55991985960E+02  0.10472279397E+03 -0.54740019500E+02  0.13082778070E+03  0.41800000000E+01 0.  1.
         -5    1    1    2    0  502 -0.22365216571E+02  0.28040198208E+02  0.57284450074E+02  0.67715849312E+02  0.41800000000E+01 0.  1.
        -11    1    1    2    0    0  0.68358813162E+02 -0.96327542215E+02 -0.62007840000E+02  0.13340500346E+03  0.00000000000E+00 0.  1.
         11    1    1    2    0    0  0.99983893677E+01 -0.36435449963E+02 -0.10521811201E+03  0.11179606835E+03  0.00000000000E+00 0. -1.
</event>
<event>
 6    1  0.6447971E-006  0.1154926E+03  0.7561462E-02  0.1250724E+00
          2   -1    0    0  501    0  0.00000000000E+00  0.00000000000E+00  0.92615511841E+02  0.92615511841E+02  0.00000000000E+00 0. -1.
         -2   -1    0    0    0  501 -0.00000000000E+00 -0.00000000000E+00 -0.21743657471E+03  0.21743657471E+03  0.00000000000E+00 0.  1.
          5    1    1    2  502    0 -0.34148856029E+02  0.40163053058E+01 -0.91933783077E+02  0.98242393840E+02  0.41800000000E+01 0. -1.
         -5    1    1    2    0  502 -0.13064476554E+02  0.75045666587E+02  0.10715614353E+02  0.77037844025E+02  0.41800000000E+01 0. -1.
        -11    1    1    2    0    0 -0.18672855189E+02 -0.21677045403E+01  0.87990880606E+01  0.20755683910E+02  0.00000000000E+00 0.  1.
         11    1    1    2    0    0  0.65886187772E+02 -0.76894267353E+02 -0.52401982203E+02  0.11401616477E+03  0.00000000000E+00 0. -1.
</event>
<event>
 6    1  0.6447971E-006  0.8894726E+02  0.7561462E-02  0.1305421E+00
         -1   -1    0    0    0  501 -0.00000000000E+00  0.00000000000E+00  0.48616557175E+02  0.48616557175E+02  0.00000000000E+00 0.  1.
          1   -1    0    0  501    0  0.00000000000E+00 -0.00000000000E+00 -0.24927742676E+03  0.24927742676E+03  0.00000000000E+00 0. -1.
          5    1    1    2  502    0  0.11721262353E+02  0.68318505321E+02 -0.10580867053E+03  0.12656126311E+03  0.41800000000E+01 0.  1.
         -5    1    1    2    0  502 -0.56274717421E+00 -0.44938025033E+02 -0.10817686078E+02  0.46413764234E+02  0.41800000000E+01 0.  1.
        -11    1    1    2    0    0 -0.30219894632E+02 -0.30530995955E+02 -0.49337340282E+01  0.43240322351E+02  0.00000000000E+00 0.  1.
         11    1    1    2    0    0  0.19061379453E+02  0.71505156668E+01 -0.79100778955E+02  0.81678634246E+02  0.00000000000E+00 0. -1.
</event>
<event>
 6    1  0.6447971E-006  0.3084912E+03  0.7561462E-02  0.1081071E+00
         -2   -1    0    0    0  501 -0.00000000000E+00  0.00000000000E+00  0.10319740638E+03  0.10319740638E+03  0.00000000000E+00 0.  1.
          2   -1    0    0  501    0  0.00000000000E+00 -0.00000000000E+00 -0.98810795836E+03  0.98810795836E+03  0.00000000000E+00 0. -1.
          5    1    1    2  502    0 -0.55211814943E+01  0.20093342573E+02  0.12559326325E+01  0.21290270727E+02  0.41800000000E+01 0. -1.
         -5    1    1    2    0  502 -0.24098151830E+03  0.15060875257E+03 -0.46377601403E+03  0.54393083393E+03  0.41800000000E+01 0. -1.
        -11    1    1    2    0    0  0.10108452105E+03 -0.21829420216E+02 -0.11261212854E+03  0.15289243107E+03  0.00000000000E+00 0. -1.
         11    1    1    2    0    0  0.14541817875E+03 -0.14887267492E+03 -0.30977834203E+03  0.37319182901E+03  0.00000000000E+00 0.  1.
</event>
<event>
 6    1  0.6447971E-006  0.1093389E+03  0.7561462E-02  0.1261799E+00
         -2   -1    0    0    0  501 -0.00000000000E+00  0.00000000000E+00  0.14047264472E+04  0.14047264472E+04  0.00000000000E+00 0. -1.
          2   -1    0    0  501    0  0.00000000000E+00 -0.00000000000E+00 -0.13783449718E+02  0.13783449718E+02  0.00000000000E+00 0.  1.
          5    1    1    2  502    0  0.79223028836E+01  0.82926499856E+02  0.92675437216E+03  0.93050024502E+03  0.41800000000E+01 0. -1.
         -5    1    1    2    0  502 -0.71894701435E+01 -0.39629127330E+02  0.20435111653E+03  0.20832428433E+03  0.41800000000E+01 0. -1.
        -11    1    1    2    0    0 -0.10346164525E+02  0.24346132748E+02  0.13311304710E+03  0.13571610298E+03  0.00000000000E+00 0.  1.
         11    1    1    2    0    0  0.96133317850E+01 -0.67643505274E+02  0.12672446164E+03  0.14396926454E+03  0.00000000000E+00 0. -1.
</event>
<event>
 6    1  0.6447971E-006  0.6845275E+02  0.7561462E-02  0.1365435E+00
          2   -1    0    0  501    0  0.00000000000E+00  0.00000000000E+00  0.12142550954E+03  0.12142550954E+03  0.00000000000E+00 0. -1.
         -2   -1    0    0    0  501 -0.00000000000E+00 -0.00000000000E+00 -0.10565172778E+03  0.10565172778E+03  0.00000000000E+00 0.  1.
          5    1    1    2  502    0 -0.13127752085E+01  0.45064532422E+02  0.52103545606E+02  0.69027438935E+02  0.41800000000E+01 0. -1.
         -5    1    1    2    0  502 -0.60317127198E+01 -0.15841760014E+02 -0.57146804484E+02  0.59754268311E+02  0.41800000000E+01 0. -1.
        -11    1    1    2    0    0  0.31873666871E+02  0.47929982751E+01  0.40672133567E+02  0.51895336218E+02  0.00000000000E+00 0. -1.
         11    1    1    2    0    0 -0.24529178943E+02 -0.34015770683E+02 -0.19855092923E+02  0.46400193855E+02  0.00000000000E+00 0.  1.
</event>
<event>
 6    1  0.6447971E-006  0.1386436E+03  0.7561462E-02  0.1215166E+00
         -1   -1    0    0    0  501 -0.00000000000E+00  0.00000000000E+00  0.11246842386E+04  0.11246842386E+04  0.00000000000E+00 0.  1.
          1   -1    0    0  501    0  0.00000000000E+00 -0.00000000000E+00 -0.29493602390E+02  0.29493602390E+02  0.00000000000E+00 0. -1.
          5    1    1    2  502    0 -0.32000307199E+02  0.41088553520E+02  0.34508853050E+03  0.34902128184E+03  0.41800000000E+01 0. -1.
         -5    1    1    2    0  502  0.10332794526E+03  0.32467242434E+02  0.55865868599E+03  0.56907625670E+03  0.41800000000E+01 0. -1.
        -11    1    1    2    0    0 -0.59730780947E+02 -0.21757333969E+02  0.16490780377E+03  0.17673633333E+03  0.00000000000E+00 0. -1.
         11    1    1    2    0    0 -0.11596857111E+02 -0.51798461986E+02  0.26535615957E+02  0.59343969139E+02  0.00000000000E+00 0.  1.
</event>
<event>
 6    1  0.6447971E-006  0.1392752E+03  0.7561462E-02  0.1214308E+00
          1   -1    0    0  501    0  0.00000000000E+00  0.00000000000E+00  0.14768197194E+03  0.14768197194E+03  0.00000000000E+00 0. -1.
         -1   -1    0    0    0  501 -0.00000000000E+00 -0.00000000000E+00 -0.14181826753E+03  0.14181826753E+03  0.00000000000E+00 0.  1.
          5    1    1    2  502    0 -0.28895373557E+02 -0.68617668517E+02 -0.23573177159E+02  0.78208018304E+02  0.41800000000E+01 0. -1.
         -5    1    1    2    0  502 -0.57258756739E+02  0.52086057553E+02 -0.93088685184E+01  0.78074644077E+02  0.41800000000E+01 0. -1.
        -11    1    1    2    0    0 -0.19595470313E+02  0.36206527123E+01  0.12411233520E+02  0.23476164515E+02  0.00000000000E+00 0. -1.
         11    1    1    2    0    0  0.10574960061E+03  0.12910958252E+02  0.26334516571E+02  0.10974141258E+03  0.00000000000E+00 0.  1.
</event>
<event>
 6    1  0.6447971E-006  0.9842455E+02  0.7561462E-02  0.1283644E+00
          1   -1    0    0  501    0  0.00000000000E+00  0.00000000000E+00  0.55125652633E+03  0.55125652633E+03  0.00000000000E+00 0. -1.
         -1   -1    0    0    0  501 -0.00000000000E+00 -0.00000000000E+00 -0.26451518264E+02  0.26451518264E+02  0.00000000000E+00 0.  1.
          5    1    1    2  502    0  0.28285165166E+02  0.34022249157E+02  0.17784916817E+02  0.47867939922E+02  0.41800000000E+01 0.  1.
         -5    1    1    2    0  502 -0.52968045191E+02 -0.25377294923E+02  0.16475953202E+03  0.17496512996E+03  0.41800000000E+01 0.  1.
        -11    1    1    2    0    0  0.39223769382E+02  0.31832630492E+02  0.17187331168E+03  0.17914311518E+03  0.00000000000E+00 0.  1.
         11    1    1    2    0    0 -0.14540889357E+02 -0.40477584727E+02  0.17038724755E+03  0.17573185954E+03  0.00000000000E+00 0. -1.
</event>
<event>
 6    1  0.6447971E-006  0.1105321E+03  0.7561462E-02  0.1259588E+00
          4   -1    0    0  501    0  0.00000000000E+00  0.00000000000E+00  0.60658713489E+02  0.60658713489E+02  0.00000000000E+00 0. -1.
         -4   -1    0    0    0  501 -0.00000000000E+00 -0.00000000000E+00 -0.28998571645E+03  0.28998571645E+03  0.00000000000E+00 0.  1.
          5    1    1    2  502    0 -0.22918979567E+02 -0.24383394046E+02 -0.13673914298E+02  0.36390628764E+02  0.41800000000E+01 0. -1.
         -5    1    1    2    0  502  0.58924342569E+02  0.86797335124E+02 -0.13245320200E+03  0.16901827905E+03  0.41800000000E+01 0. -1.
        -11    1    1    2    0    0 -0.16835160852E+02 -0.60825567146E+02 -0.10095422589E+03  0.11905850656E+03  0.00000000000E+00 0.  1.
         11    1    1    2    0    0 -0.19170202150E+02 -0.15883739321E+01  0.17754339231E+02  0.26177015563E+02  0.00000000000E+00 0. -1.
</event>
<event>
 6    1  0.6447971E-006  0.1267898E+03  0.7561462E-02  0.1232298E+00
         -2   -1    0    0    0  501 -0.00000000000E+00  0.00000000000E+00  0.15411233854E+03  0.15411233854E+03  0.00000000000E+00 0.  1.
          2   -1    0    0  501    0  0.00000000000E+00 -0.00000000000E+00 -0.17663988903E+03  0.17663988903E+03  0.00000000000E+00 0. -1.
          5    1    1    2  502    0 -0.84671395187E+02  0.91060736326E+01  0.16194136284E+02  0.86786451649E+02  0.41800000000E+01 0.  1.
         -5    1    1    2    0  502  0.14675566712E+02 -0.47199996612E+02  0.66690575510E+02  0.83116287215E+02  0.41800000000E+01 0.  1.
        -11    1    1    2    0    0  0.54441375438E+02  0.66732216561E+02 -0.90759187181E+02  0.12511707375E+03  0.00000000000E+00 0. -1.
         11    1    1    2    0    0  0.15554453037E+02 -0.28638293581E+02 -0.14653075096E+02  0.35732414952E+02  0.00000000000E+00 0.  1.
</event>
<event>
 6    1  0.6447971E-006  0.1445096E+03  0.7561462E-02  0.1207387E+00
         -2   -1    0    0    0  501 -0.00000000000E+00  0.00000000000E+00  0.57173906119E+02  0.57173906119E+02  0.00000000000E+00 0.  1.
          2   -1    0    0  501    0  0.00000000000E+00 -0.00000000000E+00 -0.49466176089E+03  0.49466176089E+03  0.00000000000E+00 0. -1.
          5    1    1    2  502    0 -0.10547774435E+03  0.73872727740E+02 -0.71481159207E+02  0.14734233261E+03  0.41800000000E+01 0. -1.
         -5    1    1    2    0  502  0.20027695752E+02  0.61411794307E+01 -0.75259277617E+02  0.78232051931E+02  0.41800000000E+01 0. -1.
        -11    1    1    2    0    0  0.61051295188E+02 -0.92945020095E+02 -0.17560266942E+03  0.20785171376E+03  0.00000000000E+00 0.  1.
         11    1    1    2    0    0  0.24398753408E+02  0.12931112924E+02 -0.11514474853E+03  0.11840956871E+03  0.00000000000E+00 0. -1.
</event>
<event>
 6    1  0.6447971E-006  0.1276425E+03  0.7561462E-02  0.1230996E+00
         -2   -1    0    0    0  501 -0.00000000000E+00  0.00000000000E+00  0.93901420176E+02  0.93901420176E+02  0.00000000000E+00 0.  1.
          2   -1    0    0  501    0  0.00000000000E+00 -0.00000000000E+00 -0.27197872243E+03  0.27197872243E+03  0.00000000000E+00 0. -1.
          5    1    1    2  502    0  0.59054940548E+02  0.20899345439E+02  0.17151663265E+02  0.65083950369E+02  0.41800000000E+01 0. -1.
         -5    1    1    2    0  502 -0.45635576195E+02  0.74045213073E+02 -0.33789012448E+02  0.93404866874E+02  0.41800000000E+01 0. -1.
        -11    1    1    2    0    0  0.12323733498E+02 -0.78700048400E+01  0.68662335207E+01  0.16154149507E+02  0.00000000000E+00 0. -1.
         11    1    1    2    0    0 -0.25743097852E+02 -0.87074553672E+02 -0.16830618659E+03  0.19123717585E+03  0.00000000000E+00 0.  1.
</event>
<event>
 6    1  0.6447971E-006  0.7419339E+02  0.7561462E-02  0.1346387E+00
          1   -1    0    0  501    0  0.00000000000E+00  0.00000000000E+00  0.76542773838E+03  0.76542773838E+03  0.00000000000E+00 0. -1.
         -1   -1    0    0    0  501 -0.00000000000E+00 -0.00000000000E+00 -0.18285753299E+02  0.18285753299E+02  0.00000000000E+00 0.  1.
          5    1    1    2  502    0 -0.22679104552E+02 -0.14724816254E+02  0.69660313656E+01  0.28234021853E+02  0.41800000000E+01 0. -1.
         -5    1    1    2    0  502 -0.16107200526E+02 -0.11116227742E+02  0.39116247348E+03  0.39167405516E+03  0.41800000000E+01 0. -1.
        -11    1    1    2    0    0 -0.28818317164E+02  0.15184939730E+02  0.83928656715E+02  0.90028313417E+02  0.00000000000E+00 0.  1.
         11    1    1    2    0    0  0.67604622242E+02  0.10656104266E+02  0.26508482352E+03  0.27377710124E+03  0.00000000000E+00 0. -1.
</event>
<event>
 6    1  0.6447971E-006  0.6939567E+02  0.7561462E-02  0.1362160E+00
         -1   -1    0    0    0  501 -0.00000000000E+00  0.00000000000E+00  0.63143707199E+03  0.63143707199E+03  0.00000000000E+00 0.  1.
          1   -1    0    0  501    0  0.00000000000E+00 -0.00000000000E+00 -0.23739820860E+02  0.23739820860E+02  0.00000000000E+00 0. -1.
          5    1    1    2  502    0  0.70360149553E+01  0.23077820549E+02  0.54623491161E+01  0.25087864907E+02  0.41800000000E+01 0.  1.
         -5    1    1    2    0  502 -0.28791295053E+02  0.20418152674E+02  0.40947494035E+03  0.41101464549E+03  0.41800000000E+01 0.  1.
        -11    1    1    2    0    0  0.43650841116E+02 -0.31151365174E+02  0.47446142491E+02  0.71602653021E+02  0.00000000000E+00 0. -1.
         11    1    1    2    0    0 -0.21895561018E+02 -0.12344608048E+02  0.14531381917E+03  0.14747172943E+03  0.00000000000E+00 0.  1.
</event>
<event>
 6    1  0.1051607E-005  0.1389393E+03  0.7561462E-02  0.1214763E+00
         -1   -1    0    0    0  501 -0.00000000000E+00  0.00000000000E+00  0.26046091787E+02  0.26046091787E+02  0.00000000000E+00 0.  1.
          1   -1    0    0  501    0  0.00000000000E+00 -0.00000000000E+00 -0.10600293922E+04  0.10600293922E+04  0.00000000000E+00 0. -1.
          5    1    1    2  502    0 -0.93570741420E+02  0.83107210396E+02 -0.25237409495E+03  0.28173116312E+03  0.41800000000E+01 0.  1.
         -5    1    1    2    0  502 -0.10654274368E+01 -0.16584662026E+01 -0.26421916871E+03  0.26425958291E+03  0.41800000000E+01 0.  1.
        -11    1    1    2    0    0  0.26519627194E+02  0.14611204018E+02 -0.53425292323E+02  0.61408792279E+02  0.00000000000E+00 0.  1.
         11    1    1    2    0    0  0.68116541662E+02 -0.96059948211E+02 -0.46396474443E+03  0.47867594567E+03  0.00000000000E+00 0. -1.
</event>
<event>
 6    1  0.6447971E-006  0.1485167E+03  0.7561462E-02  0.1202308E+00
          1   -1    0    0  501    0  0.00000000000E+00  0.00000000000E+00  0.79816824083E+03  0.79816824083E+03  0.00000000000E+00 0. -1.
         -1   -1    0    0    0  501 -0.00000000000E+00 -0.00000000000E+00 -0.37517830401E+02  0.37517830401E+02  0.00000000000E+00 0.  1.
          5    1    1    2  502    0 -0.78446274937E+02 -0.21488321354E+02  0.36511451259E+03  0.37408775135E+03  0.41800000000E+01 0. -1.
         -5    1    1    2    0  502  0.10921979652E+03  0.49525479176E+02  0.12710338238E+03  0.17479839602E+03  0.41800000000E+01 0.  1.
        -11    1    1    2    0    0 -0.41914867048E+02  0.19885311701E+02  0.17690019324E+03  0.18288236676E+03  0.00000000000E+00 0.  1.
         11    1    1    2    0    0  0.11141345465E+02 -0.47922469523E+02  0.91532322212E+02  0.10391755710E+03  0.00000000000E+00 0. -1.
</event>
<event>
 6    1  0.6447971E-006  0.2355996E+03  0.7561462E-02  0.1122759E+00
         -2   -1    0    0    0  501 -0.00000000000E+00  0.00000000000E+00  0.32641564632E+02  0.32641564632E+02  0.00000000000E+00 0.  1.
          2   -1    0    0  501    0  0.00000000000E+00 -0.00000000000E+00 -0.19744094061E+04  0.19744094061E+04  0.00000000000E+00 0. -1.
          5    1    1    2  502    0  0.10174109415E+03 -0.24390868600E+02 -0.34403995935E+03  0.35962081522E+03  0.41800000000E+01 0. -1.
         -5    1    1    2    0  502  0.10144833527E+03  0.10387626376E+03 -0.37643154736E+03  0.40348509904E+03  0.41800000000E+01 0. -1.
        -11    1    1    2    0    0 -0.15099019346E+02 -0.17681006922E+02 -0.40786035281E+02  0.46947833442E+02  0.00000000000E+00 0.  1.
         11    1    1    2    0    0 -0.18809041007E+03 -0.61804388236E+02 -0.11805102995E+04  0.11969972231E+04  0.00000000000E+00 0. -1.
</event>
<event>
 6    1  0.6447971E-006  0.2409700E+03  0.7561462E-02  0.1119148E+00
          2   -1    0    0  501    0  0.00000000000E+00  0.00000000000E+00  0.83633826684E+03  0.83633826684E+03  0.00000000000E+00 0. -1.
         -2   -1    0    0    0  501 -0.00000000000E+00 -0.00000000000E+00 -0.75414985947E+02  0.75414985947E+02  0.00000000000E+00 0.  1.
          5    1    1    2  502    0  0.83898115743E+02 -0.10838591819E+03  0.19468269521E+03  0.23812858985E+03  0.41800000000E+01 0.  1.
         -5    1    1    2    0  502 -0.38880822672E+02 -0.10993574592E+03  0.12155003538E+03  0.16849175085E+03  0.41800000000E+01 0.  1.
        -11    1    1    2    0    0 -0.28661647799E+02  0.20511322372E+03  0.43540221845E+03  0.48214937150E+03  0.00000000000E+00 0. -1.
         11    1    1    2    0    0 -0.16355645272E+02  0.13208440399E+02  0.92883318551E+01  0.22983540604E+02  0.00000000000E+00 0.  1.
</event>
<event>
 6    1  0.6447971E-006  0.1487698E+03  0.7561462E-02  0.1201993E+00
         -2   -1    0    0    0  501 -0.00000000000E+00  0.00000000000E+00  0.53334593951E+02  0.53334593951E+02  0.00000000000E+00 0.  1.
          2   -1    0    0  501    0  0.00000000000E+00 -0.00000000000E+00 -0.45607580119E+03  0.45607580119E+03  0.00000000000E+00 0. -1.
          5    1    1    2  502    0  0.82730420536E+02 -0.35817115810E+01 -0.17257946515E+03  0.19146356136E+03  0.41800000000E+01 0.  1.
         -5    1    1    2    0  502  0.57290306921E+01  0.71408725383E+02 -0.51508128980E+02  0.88332256874E+02  0.41800000000E+01 0.  1.
        -11    1    1    2    0    0  0.97676315710E+01 -0.39422703214E+02 -0.65821878637E+02  0.77343880576E+02  0.00000000000E+00 0.  1.
         11    1    1    2    0    0 -0.98227082799E+02 -0.28404310587E+02 -0.11283173448E+03  0.15227069633E+03  0.00000000000E+00 0. -1.
</event>
<event>
 6    1  0.6447971E-006  0.1105143E+03  0.7561462E-02  0.1259620E+00
         -2   -1    0    0    0  501 -0.00000000000E+00  0.00000000000E+00  0.59491446242E+02  0.59491446242E+02  0.00000000000E+00 0.  1.
          2   -1    0    0  501    0  0.00000000000E+00 -0.00000000000E+00 -0.27643704458E+03  0.27643704458E+03  0.00000000000E+00 0. -1.
          5    1    1    2  502    0  0.23207999420E+02 -0.88581765654E+02 -0.26249080306E+02  0.95351072675E+02  0.41800000000E+01 0. -1.
         -5    1    1    2    0  502  0.10934658194E+01  0.26301579157E+02 -0.73118877894E+02  0.77825519196E+02  0.41800000000E+01 0. -1.
        -11    1    1    2    0    0  0.28463636991E+02  0.16832672653E+02 -0.99021478712E+01  0.34519125595E+02  0.00000000000E+00 0.  1.
         11    1    1    2    0    0 -0.52765102230E+02  0.45447513844E+02 -0.10767549227E+03  0.12823277336E+03  0.00000000000E+00 0. -1.
</event>
<event>
 6    1  0.6447971E-006  0.1153935E+03  0.7561462E-02  0.1250896E+00
          1   -1    0    0  501    0  0.00000000000E+00  0.00000000000E+00  0.26059209913E+03  0.26059209913E+03  0.00000000000E+00 0. -1.
         -1   -1    0    0    0  501 -0.00000000000E+00 -0.00000000000E+00 -0.65680770670E+02  0.65680770670E+02  0.00000000000E+00 0.  1.
          5    1    1    2  502    0 -0.85645931048E+02 -0.39263582679E+02  0.24171739590E+02  0.97358100971E+02  0.41800000000E+01 0.  1.
         -5    1    1    2    0  502  0.40435927015E+02  0.78194787969E+01  0.22548215719E+02  0.47139186187E+02  0.41800000000E+01 0.  1.
        -11    1    1    2    0    0  0.67275074452E+02  0.27436330817E+02  0.71746109906E+02  0.10210872724E+03  0.00000000000E+00 0.  1.
         11    1    1    2    0    0 -0.22065070420E+02  0.40077730658E+01  0.76445263243E+02  0.79666855403E+02  0.00000000000E+00 0. -1.
</event>
<event>
 6    1  0.6447971E-006  0.1855155E+03  0.7561462E-02  0.1162569E+00
          1   -1    0    0  501    0  0.00000000000E+00  0.00000000000E+00  0.76641899758E+03  0.76641899758E+03  0.00000000000E+00 0. -1.
         -1   -1    0    0    0  501 -0.00000000000E+00 -0.00000000000E+00 -0.71041962821E+02  0.71041962821E+02  0.00000000000E+00 0.  1.
          5    1    1    2  502    0  0.68502146341E+02 -0.29306938701E+02  0.10616432382E+03  0.12976816544E+03  0.41800000000E+01 0.  1.
         -5    1    1    2    0  502  0.93268050747E+02  0.65597536076E+02  0.28008146128E+02  0.11748997693E+03  0.41800000000E+01 0.  1.
        -11    1    1    2    0    0 -0.90225809750E+02 -0.58332747558E+02  0.31077012467E+03  0.32881830328E+03  0.00000000000E+00 0.  1.
         11    1    1    2    0    0 -0.71544387338E+02  0.22042150184E+02  0.25043444014E+03  0.26138451476E+03  0.00000000000E+00 0. -1.
</event>
<event>
 6    1  0.6447971E-006  0.1010191E+03  0.7561462E-02  0.1278167E+00
          1   -1    0    0  501    0  0.00000000000E+00  0.00000000000E+00  0.27047604153E+03  0.27047604153E+03  0.00000000000E+00 0. -1.
         -1   -1    0    0    0  501 -0.00000000000E+00 -0.00000000000E+00 -0.76810225541E+02  0.76810225541E+02  0.00000000000E+00 0.  1.
          5    1    1    2  502    0  0.80555237370E+01  0.83735147029E+02  0.57112785145E+02  0.10176349511E+03  0.41800000000E+01 0. -1.
         -5    1    1    2    0  502  0.26323324338E+01 -0.19656549615E+02 -0.35466843671E+02  0.40849461647E+02  0.41800000000E+01 0. -1.
        -11    1    1    2    0    0  0.28086529609E+02 -0.77055633191E+01  0.10474533756E+03  0.10871897070E+03  0.00000000000E+00 0. -1.
         11    1    1    2    0    0 -0.38774385780E+02 -0.56373034095E+02  0.67274536958E+02  0.95954339603E+02  0.00000000000E+00 0.  1.
</event>
<event>
 6    1  0.6447971E-006  0.9870369E+02  0.7561462E-02  0.1283046E+00
         -2   -1    0    0    0  501 -0.00000000000E+00  0.00000000000E+00  0.74731481928E+02  0.74731481928E+02  0.00000000000E+00 0.  1.
          2   -1    0    0  501    0  0.00000000000E+00 -0.00000000000E+00 -0.21474094214E+03  0.21474094214E+03  0.00000000000E+00 0. -1.
          5    1    1    2  502    0  0.21153725392E+02  0.45214160462E+02  0.34350243025E+02  0.60738883758E+02  0.41800000000E+01 0.  1.
         -5    1    1    2    0  502 -0.45893762649E+02 -0.12206057633E+02 -0.54668297414E+02  0.72534960090E+02  0.41800000000E+01 0.  1.
        -11    1    1    2    0    0 -0.12021376988E+02  0.26837752554E+02 -0.27159099035E+02  0.40029927894E+02  0.00000000000E+00 0.  1.
         11    1    1    2    0    0  0.36761414245E+02 -0.59845855382E+02 -0.92532306788E+02  0.11616865233E+03  0.00000000000E+00 0. -1.
</event>
<event>
 6    1  0.6447971E-006  0.1018668E+03  0.7561462E-02  0.1276419E+00
          1   -1    0    0  501    0  0.00000000000E+00  0.00000000000E+00  0.68192523438E+03  0.68192523438E+03  0.00000000000E+00 0. -1.
         -1   -1    0    0    0  501 -0.00000000000E+00 -0.00000000000E+00 -0.20360289974E+02  0.20360289974E+02  0.00000000000E+00 0.  1.
          5    1    1    2  502    0 -0.57645998836E+02 -0.38152438362E+01  0.31467111161E+03  0.31995780683E+03  0.41800000000E+01 0. -1.
         -5    1    1    2    0  502  0.26914496584E+02  0.37674358478E+02  0.50001090482E+02  0.68273925202E+02  0.41800000000E+01 0. -1.
        -11    1    1    2    0    0  0.17121443951E+02  0.29721626319E+02  0.68827186000E+02  0.76900588078E+02  0.00000000000E+00 0.  1.
         11    1    1    2    0    0  0.13610058301E+02 -0.63580740961E+02  0.22806555632E+03  0.23715320425E+03  0.00000000000E+00 0. -1.
</event>
<event>
 6    1  0.6447971E-006  0.1146125E+03  0.7561462E-02  0.1252259E+00
         -1   -1    0    0    0  501 -0.00000000000E+00  0.00000000000E+00  0.22034584240E+02  0.22034584240E+02  0.00000000000E+00 0.  1.
          1   -1    0    0  501    0  0.00000000000E+00 -0.00000000000E+00 -0.63104635583E+03  0.63104635583E+03  0.00000000000E+00 0. -1.
          5    1    1    2  502    0  0.27883116892E+02 -0.39366507171E+02 -0.98417436529E+02  0.10968433939E+03  0.41800000000E+01 0. -1.
         -5    1    1    2    0  502 -0.74232998239E+02  0.36093764026E+02 -0.25677208044E+03  0.26974556813E+03  0.41800000000E+01 0. -1.
        -11    1    1    2    0    0  0.47477274255E+02  0.39591250168E+02 -0.19447244249E+03  0.20406148472E+03  0.00000000000E+00 0. -1.
         11    1    1    2    0    0 -0.11273929087E+01 -0.36318507024E+02 -0.59349812127E+02  0.69589547827E+02  0.00000000000E+00 0.  1.
</event>
<event>
 6    1  0.6447971E-006  0.1017496E+03  0.7561462E-02  0.1276659E+00
          1   -1    0    0  501    0  0.00000000000E+00  0.00000000000E+00  0.16180355800E+03  0.16180355800E+03  0.00000000000E+00 0. -1.
         -1   -1    0    0    0  501 -0.00000000000E+00 -0.00000000000E+00 -0.98017106897E+02  0.98017106897E+02  0.00000000000E+00 0.  1.
          5    1    1    2  502    0 -0.20619816685E+01 -0.36848723256E+02 -0.66351769767E-02  0.37142329194E+02  0.41800000000E+01 0. -1.
         -5    1    1    2    0  502  0.49851775719E+02  0.84892103256E+02 -0.73530951609E-01  0.98536016483E+02  0.41800000000E+01 0.  1.
        -11    1    1    2    0    0 -0.30179714281E+02 -0.28427744617E+02 -0.12540850784E+02  0.43315410151E+02  0.00000000000E+00 0.  1.
         11    1    1    2    0    0 -0.17610079769E+02 -0.19615635384E+02  0.76407468021E+02  0.80826909073E+02  0.00000000000E+00 0. -1.
</event>
<event>
 6    1  0.6447971E-006  0.1410305E+03  0.7561462E-02  0.1211949E+00
          2   -1    0    0  501    0  0.00000000000E+00  0.00000000000E+00  0.20816925293E+03  0.20816925293E+03  0.00000000000E+00 0.  1.
         -2   -1    0    0    0  501 -0.00000000000E+00 -0.00000000000E+00 -0.15606252952E+03  0.15606252952E+03  0.00000000000E+00 0. -1.
          5    1    1    2  502    0 -0.73664829844E+01 -0.12532284493E+01 -0.53733047415E+02  0.54410922044E+02  0.41800000000E+01 0. -1.
         -5    1    1    2    0  502  0.12687906117E+03 -0.20636164874E+02 -0.18852276236E+01  0.12862804495E+03  0.41800000000E+01 0. -1.
        -11    1    1    2    0    0 -0.88938334760E+02 -0.21789292934E+02  0.77116033427E+02  0.11971500862E+03  0.00000000000E+00 0. -1.
         11    1    1    2    0    0 -0.30574243428E+02  0.43678686257E+02  0.30608965024E+02  0.61477806843E+02  0.00000000000E+00 0.  1.
</event>
<event>
 6    1  0.6447971E-006  0.1412522E+03  0.7561462E-02  0.1211654E+00
         -1   -1    0    0    0  501 -0.00000000000E+00  0.00000000000E+00  0.24023101166E+03  0.24023101166E+03  0.00000000000E+00 0.  1.
          1   -1    0    0  501    0  0.00000000000E+00 -0.00000000000E+00 -0.96807109817E+02  0.96807109817E+02  0.00000000000E+00 0. -1.
          5    1    1    2  502    0  0.77230468213E+02  0.36712778716E+02  0.28920085237E+02  0.90367123843E+02  0.41800000000E+01 0. -1.
         -5    1    1    2    0  502 -0.76868572054E+02 -0.67528892902E+02  0.10882211517E+03  0.14942775477E+03  0.41800000000E+01 0.  1.
        -11    1    1    2    0    0  0.11260944855E+02 -0.30274163017E+02 -0.86255088402E+01  0.33432517527E+02  0.00000000000E+00 0.  1.
         11    1    1    2    0    0 -0.11622841014E+02  0.61090277203E+02  0.14307210276E+02  0.63810725336E+02  0.00000000000E+00 0. -1.
</event>
<event>
 6    1  0.6447971E-006  0.9969035E+02  0.7561462E-02  0.1280948E+00
          1   -1    0    0  501    0  0.00000000000E+00  0.00000000000E+00  0.60544883304E+03  0.60544883304E+03  0.00000000000E+00 0. -1.
         -1   -1    0    0    0  501 -0.00000000000E+00 -0.00000000000E+00 -0.19599432890E+02  0.19599432890E+02  0.00000000000E+00 0.  1.
          5    1    1    2  502    0  0.90859090858E+01 -0.45009890716E+02  0.23482209255E+03  0.23930593715E+03  0.41800000000E+01 0. -1.
         -5    1    1    2    0  502 -0.34496049530E+01  0.64532203191E+02  0.10483512361E+03  0.12322410708E+03  0.41800000000E+01 0. -1.
        -11    1    1    2    0    0 -0.44288196685E+02 -0.22633982366E+02  0.16849104436E+03  0.17567860869E+03  0.00000000000E+00 0.  1.
         11    1    1    2    0    0  0.38651892552E+02  0.31116698900E+01  0.77701139634E+02  0.86839613011E+02  0.00000000000E+00 0. -1.
</event>
<event>
 6    1  0.6447971E-006  0.7876903E+02  0.7561462E-02  0.1332581E+00
         -1   -1    0    0    0  501 -0.00000000000E+00  0.00000000000E+00  0.64633734048E+02  0.64633734048E+02  0.00000000000E+00 0.  1.
          1   -1    0    0  501    0  0.00000000000E+00 -0.00000000000E+00 -0.21410708706E+03  0.21410708706E+03  0.00000000000E+00 0. -1.
          5    1    1    2  502    0 -0.32354218634E+02  0.28701171843E+02 -0.12190421980E+03  0.12941662928E+03  0.41800000000E+01 0.  1.
         -5    1    1    2    0  502  0.10605720995E+02  0.10802806112E+02  0.28877083701E+02  0.32871572837E+02  0.41800000000E+01 0.  1.
        -11    1    1    2    0    0 -0.18313097340E+02 -0.53026042562E+02 -0.16977934160E+02  0.58612123083E+02  0.00000000000E+00 0.  1.
         11    1    1    2    0    0  0.40061594979E+02  0.13522064607E+02 -0.39468282750E+02  0.57840495907E+02  0.00000000000E+00 0. -1.
</event>
<event>
 6    1  0.6447971E-006  0.7251435E+02  0.7561462E-02  0.1351746E+00
         -2   -1    0    0    0  501 -0.00000000000E+00  0.00000000000E+00  0.17168778908E+03  0.17168778908E+03  0.00000000000E+00 0.  1.
          2   -1    0    0  501    0  0.00000000000E+00 -0.00000000000E+00 -0.73702540065E+02  0.73702540065E+02  0.00000000000E+00 0. -1.
          5    1    1    2  502    0  0.24631059213E+02  0.17986141386E+02  0.10497702199E+03  0.10939761380E+03  0.41800000000E+01 0. -1.
         -5    1    1    2    0  502 -0.34331331877E+02 -0.24724890264E+00 -0.22986611235E+02  0.41527800045E+02  0.41800000000E+01 0. -1.
        -11    1    1    2    0    0  0.20730162472E+02 -0.45384122090E+02  0.33346526664E+02  0.60012073906E+02  0.00000000000E+00 0.  1.
         11    1    1    2    0    0 -0.11029889807E+02  0.27645229607E+02 -0.17351688406E+02  0.34452841388E+02  0.00000000000E+00 0. -1.
</event>
<event>
 6    1  0.6447971E-006  0.9051065E+02  0.7561462E-02  0.1301620E+00
          2   -1    0    0  501    0  0.00000000000E+00  0.00000000000E+00  0.22598747001E+03  0.22598747001E+03  0.00000000000E+00 0. -1.
         -2   -1    0    0    0  501 -0.00000000000E+00 -0.00000000000E+00 -0.61690805860E+02  0.61690805860E+02  0.00000000000E+00 0.  1.
          5    1    1    2  502    0 -0.85402925298E+01  0.80607890462E+02  0.48769103401E+02  0.94691427530E+02  0.41800000000E+01 0.  1.
         -5    1    1    2    0  502 -0.12256263116E+02 -0.47946747015E+02  0.24447764707E+02  0.55355868108E+02  0.41800000000E+01 0.  1.
        -11    1    1    2    0    0 -0.50147568984E+01 -0.21485658328E+02 -0.15783921228E+02  0.27127725114E+02  0.00000000000E+00 0.  1.
         11    1    1    2    0    0  0.25811312544E+02 -0.11175485119E+02  0.10686371727E+03  0.11050325512E+03  0.00000000000E+00 0. -1.
</event>
<event>
 6    1  0.6447971E-006  0.1069544E+03  0.7561462E-02  0.1266316E+00
          1   -1    0    0  501    0  0.00000000000E+00  0.00000000000E+00  0.72641619253E+03  0.72641619253E+03  0.00000000000E+00 0. -1.
         -1   -1    0    0    0  501 -0.00000000000E+00 -0.00000000000E+00 -0.25251603644E+02  0.25251603644E+02  0.00000000000E+00 0.  1.
          5    1    1    2  502    0 -0.20768415756E+02  0.24635474445E+02  0.21767053034E+03  0.22008217982E+03  0.41800000000E+01 0. -1.
         -5    1    1    2    0  502 -0.46115093909E+02 -0.53887939202E+02  0.59602425835E+02  0.92738521894E+02  0.41800000000E+01 0. -1.
        -11    1    1    2    0    0  0.54504253787E+02 -0.21152760691E+02  0.17203996494E+03  0.18170278617E+03  0.00000000000E+00 0.  1.
         11    1    1    2    0    0  0.12379255879E+02  0.50405225448E+02  0.25185166776E+03  0.25714430829E+03  0.00000000000E+00 0. -1.
</event>
<event>
 6    1  0.6447971E-006  0.1098844E+03  0.7561462E-02  0.1260784E+00
          1   -1    0    0  501    0  0.00000000000E+00  0.00000000000E+00  0.48379990040E+02  0.48379990040E+02  0.00000000000E+00 0. -1.
         -1   -1    0    0    0  501 -0.00000000000E+00 -0.00000000000E+00 -0.27662859490E+03  0.27662859490E+03  0.00000000000E+00 0.  1.
          5    1    1    2  502    0 -0.22611104994E+02 -0.34983237687E+02 -0.16039341368E+02  0.44831036790E+02  0.41800000000E+01 0.  1.
         -5    1    1    2    0  502  0.47778599781E+02  0.61450883774E+02 -0.12395786717E+03  0.14643097673E+03  0.41800000000E+01 0.  1.
        -11    1    1    2    0    0  0.18663767723E+02  0.25734540286E+02 -0.21760786913E+02  0.38524468023E+02  0.00000000000E+00 0. -1.
         11    1    1    2    0    0 -0.43831262510E+02 -0.52202186373E+02 -0.66490609412E+02  0.95222103397E+02  0.00000000000E+00 0.  1.
</event>
<event>
 6    1  0.6447971E-006  0.8996488E+02  0.7561462E-02  0.1302937E+00
         -3   -1    0    0    0  501 -0.00000000000E+00  0.00000000000E+00  0.82370318148E+02  0.82370318148E+02  0.00000000000E+00 0.  1.
          3   -1    0    0  501    0  0.00000000000E+00 -0.00000000000E+00 -0.16886002287E+03  0.16886002287E+03  0.00000000000E+00 0. -1.
          5    1    1    2  502    0  0.61996824015E+02 -0.82855536654E+00  0.61177005001E+01  0.62443505278E+02  0.41800000000E+01 0.  1.
         -5    1    1    2    0  502 -0.61469219344E+02 -0.11646953792E+02 -0.86592010118E+01  0.63297477213E+02  0.41800000000E+01 0.  1.
        -11    1    1    2    0    0  0.98250209733E+00 -0.21276163491E+02 -0.88834758779E+02  0.91352366202E+02  0.00000000000E+00 0. -1.
         11    1    1    2    0    0 -0.15101067691E+01  0.33751672650E+02  0.48865545730E+01  0.34136992321E+02  0.00000000000E+00 0.  1.
</event>
<event>
 6    1  0.6447971E-006  0.9560816E+02  0.7561462E-02  0.1289812E+00
          2   -1    0    0  501    0  0.00000000000E+00  0.00000000000E+00  0.12915021971E+02  0.12915021971E+02  0.00000000000E+00 0. -1.
         -2   -1    0    0    0  501 -0.00000000000E+00 -0.00000000000E+00 -0.15627478979E+04  0.15627478979E+04  0.00000000000E+00 0.  1.
          5    1    1    2  502    0 -0.66190880403E-01 -0.11203680901E+01  0.24686004475E+01  0.49825690220E+01  0.41800000000E+01 0. -1.
         -5    1    1    2    0  502  0.48297061568E+02 -0.59409692593E+02 -0.10532849923E+04  0.10560723769E+04  0.41800000000E+01 0. -1.
        -11    1    1    2    0    0  0.19334192292E+02 -0.24053431393E+00 -0.23245625393E+02  0.30236202610E+02  0.00000000000E+00 0. -1.
         11    1    1    2    0    0 -0.67565062979E+02  0.60770594997E+02 -0.47577085863E+03  0.48437177135E+03  0.00000000000E+00 0.  1.
</event>
<event>
 6    1  0.6447971E-006  0.1445725E+03  0.7561462E-02  0.1207306E+00
         -2   -1    0    0    0  501 -0.00000000000E+00  0.00000000000E+00  0.63366271874E+03  0.63366271874E+03  0.00000000000E+00 0.  1.
          2   -1    0    0  501    0  0.00000000000E+00 -0.00000000000E+00 -0.34492563939E+02  0.34492563939E+02  0.00000000000E+00 0. -1.
          5    1    1    2  502    0 -0.83292330933E+02  0.53130525756E+01  0.23947310296E+03  0.25363493521E+03  0.41800000000E+01 0. -1.
         -5    1    1    2    0  502  0.17712409829E+02  0.67153992157E+02  0.10932189962E+03  0.12958448310E+03  0.41800000000E+01 0. -1.
        -11    1    1    2    0    0  0.62551595995E+02 -0.94738659530E+02  0.20740665714E+03  0.23644372945E+03  0.00000000000E+00 0. -1.
         11    1    1    2    0    0  0.30283251087E+01  0.22271614798E+02  0.42968495087E+02  0.48492134915E+02  0.00000000000E+00 0.  1.
</event>
<event>
 6    1  0.6447971E-006  0.1995877E+03  0.7561462E-02  0.1150087E+00
          1   -1    0    0  501    0  0.00000000000E+00  0.00000000000E+00  0.99938646395E+02  0.99938646395E+02  0.00000000000E+00 0. -1.
         -1   -1    0    0    0  501 -0.00000000000E+00 -0.00000000000E+00 -0.46352626068E+03  0.46352626068E+03  0.00000000000E+00 0.  1.
          5    1    1    2  502    0 -0.62637047066E+02  0.99154397230E+02 -0.56727199876E+02  0.13034738878E+03  0.41800000000E+01 0. -1.
         -5    1    1    2    0  502  0.15420624179E+02  0.78107888919E+02 -0.16595306258E+03  0.18411010113E+03  0.41800000000E+01 0. -1.
        -11    1    1    2    0    0  0.49355391869E+01 -0.15352739512E+03 -0.87124949858E+02  0.17659495318E+03  0.00000000000E+00 0.  1.
         11    1    1    2    0    0  0.42280883700E+02 -0.23734891027E+02 -0.53782401979E+02  0.72412463990E+02  0.00000000000E+00 0. -1.
</event>
<event>
 6    1  0.6447971E-006  0.6684678E+02  0.7561462E-02  0.1371156E+00
         -2   -1    0    0    0  501 -0.00000000000E+00  0.00000000000E+00  0.75614523860E+02  0.75614523860E+02  0.00000000000E+00 0.  1.
          2   -1    0    0  501    0  0.00000000000E+00 -0.00000000000E+00 -0.18611029046E+03  0.18611029046E+03  0.00000000000E+00 0. -1.
          5    1    1    2  502    0 -0.25689509078E+02  0.11884408676E+02  0.33378574045E+02  0.43963526377E+02  0.41800000000E+01 0.  1.
         -5    1    1    2    0  502  0.32817395308E+02  0.35213846830E+02 -0.88430549884E+02  0.10076919666E+03  0.41800000000E+01 0.  1.
        -11    1    1    2    0    0  0.11443228234E+02 -0.27395489077E+02  0.20689754011E+02  0.36187376462E+02  0.00000000000E+00 0.  1.
         11    1    1    2    0    0 -0.18571114464E+02 -0.19702766429E+02 -0.76133544767E+02  0.80804714814E+02  0.00000000000E+00 0. -1.
</event>
<event>
 6    1  0.6447971E-006  0.1596083E+03  0.7561462E-02  0.1189140E+00
          2   -1    0    0  501    0  0.00000000000E+00  0.00000000000E+00  0.29255141175E+03  0.29255141175E+03  0.00000000000E+00 0. -1.
         -2   -1    0    0    0  501 -0.00000000000E+00 -0.00000000000E+00 -0.96949082455E+02  0.96949082455E+02  0.00000000000E+00 0.  1.
          5    1    1    2  502    0 -0.62207870723E+02 -0.50410071553E+02  0.97325336792E+02  0.12609793050E+03  0.41800000000E+01 0. -1.
         -5    1    1    2    0  502  0.43013510138E+02 -0.76130615098E+02  0.26268140896E+02  0.91397594256E+02  0.41800000000E+01 0. -1.
        -11    1    1    2    0    0 -0.24742400176E+02  0.92962505204E+02  0.24920971367E+02  0.99374385805E+02  0.00000000000E+00 0.  1.
         11    1    1    2    0    0  0.43936760761E+02  0.33578181448E+02  0.47087880242E+02  0.72630583649E+02  0.00000000000E+00 0. -1.
</event>
<event>
 6    1  0.6447971E-006  0.5792676E+02  0.7561462E-02  0.1406744E+00
          2   -1    0    0  501    0  0.00000000000E+00  0.00000000000E+00  0.52121324109E+02  0.52121324109E+02  0.00000000000E+00 0. -1.
         -2   -1    0    0    0  501 -0.00000000000E+00 -0.00000000000E+00 -0.15582401691E+03  0.15582401691E+03  0.00000000000E+00 0.  1.
          5    1    1    2  502    0  0.17220871620E+02 -0.31663656226E+02  0.19623137103E+02  0.41251490333E+02  0.41800000000E+01 0.  1.
         -5    1    1    2    0  502  0.51366159854E+01  0.33427247624E+02 -0.10877189115E+03  0.11398492187E+03  0.41800000000E+01 0.  1.
        -11    1    1    2    0    0 -0.93693134462E+01 -0.20588789702E+02 -0.18841556654E+02  0.29439540638E+02  0.00000000000E+00 0.  1.
         11    1    1    2    0    0 -0.12988174159E+02  0.18825198303E+02  0.42876179041E+01  0.23269388183E+02  0.00000000000E+00 0. -1.
</event>
<event>
 6    1  0.6447971E-006  0.6886431E+02  0.7561462E-02  0.1363998E+00
         -1   -1    0    0    0  501 -0.00000000000E+00  0.00000000000E+00  0.12391774577E+02  0.12391774577E+02  0.00000000000E+00 0.  1.
          1   -1    0    0  501    0  0.00000000000E+00 -0.00000000000E+00 -0.95616615401E+03  0.95616615401E+03  0.00000000000E+00 0. -1.
          5    1    1    2  502    0  0.15192334302E+02  0.91643503219E+01 -0.55345486170E+01  0.19049828523E+02  0.41800000000E+01 0.  1.
         -5    1    1    2    0  502  0.94554741101E+01 -0.30317851803E+02 -0.56633781919E+03  0.56724296027E+03  0.41800000000E+01 0.  1.
        -11    1    1    2    0    0 -0.54279357755E+02  0.73332909000E+01 -0.25876934722E+03  0.26450255367E+03  0.00000000000E+00 0.  1.
         11    1    1    2    0    0  0.29631549343E+02  0.13820210581E+02 -0.11313266440E+03  0.11776258612E+03  0.00000000000E+00 0. -1.
</event>
<event>
 6    1  0.6447971E-006  0.1017573E+03  0.7561462E-02  0.1276643E+00
         -1   -1    0    0    0  501 -0.00000000000E+00  0.00000000000E+00  0.32449090990E+02  0.32449090990E+02  0.00000000000E+00 0.  1.
          1   -1    0    0  501    0  0.00000000000E+00 -0.00000000000E+00 -0.64544820729E+03  0.64544820729E+03  0.00000000000E+00 0. -1.
          5    1    1    2  502    0  0.25986233213E+02  0.67606371253E+02 -0.42373877169E+02  0.84017400679E+02  0.41800000000E+01 0. -1.
         -5    1    1    2    0  502 -0.21038723506E+02  0.21764492606E+02 -0.20509912544E+03  0.20736307454E+03  0.41800000000E+01 0. -1.
        -11    1    1    2    0    0  0.20292998927E+02 -0.44898703756E+02 -0.29675608370E+03  0.30081867066E+03  0.00000000000E+00 0. -1.
         11    1    1    2    0    0 -0.25240508634E+02 -0.44472160104E+02 -0.68770029990E+02  0.85698152403E+02  0.00000000000E+00 0.  1.
</event>
<event>
 6    1  0.6447971E-006  0.1620387E+03  0.7561462E-02  0.1186414E+00
         -1   -1    0    0    0  501 -0.00000000000E+00  0.00000000000E+00  0.11866057665E+03  0.11866057665E+03  0.00000000000E+00 0.  1.
          1   -1    0    0  501    0  0.00000000000E+00 -0.00000000000E+00 -0.24689710696E+03  0.24689710696E+03  0.00000000000E+00 0. -1.
          5    1    1    2  502    0  0.12947305104E+03 -0.83780962016E+02 -0.68395467772E+02  0.16875406055E+03  0.41800000000E+01 0. -1.
         -5    1    1    2    0  502 -0.25332814971E+02  0.45126530307E+01 -0.19117819308E+02  0.32327681124E+02  0.41800000000E+01 0. -1.
        -11    1    1    2    0    0 -0.32748528333E+02 -0.51787421176E+01  0.19596195051E+02  0.38513586413E+02  0.00000000000E+00 0.  1.
         11    1    1    2    0    0 -0.71391707735E+02  0.84447051103E+02 -0.60319438276E+02  0.12596235552E+03  0.00000000000E+00 0. -1.
</event>
<event>
 6    1  0.6447971E-006  0.1022275E+03  0.7561462E-02  0.1275680E+00
         -4   -1    0    0    0  501 -0.00000000000E+00  0.00000000000E+00  0.70489821143E+02  0.70489821143E+02  0.00000000000E+00 0. -1.
          4   -1    0    0  501    0  0.00000000000E+00 -0.00000000000E+00 -0.23963433612E+03  0.23963433612E+03  0.00000000000E+00 0.  1.
          5    1    1    2  502    0 -0.30330673741E+02 -0.36419872817E+02  0.17933984336E+02  0.50847390294E+02  0.41800000000E+01 0. -1.
         -5    1    1    2    0  502 -0.12289038041E+02  0.69253859433E+02 -0.57521148783E+02  0.90957531077E+02  0.41800000000E+01 0. -1.
        -11    1    1    2    0    0  0.58305987495E+02 -0.10688960853E+02 -0.12809045536E+03  0.14114179684E+03  0.00000000000E+00 0. -1.
         11    1    1    2    0    0 -0.15686275714E+02 -0.22145025763E+02 -0.14668951694E+01  0.27177439048E+02  0.00000000000E+00 0.  1.
</event>
<event>
 6    1  0.6447971E-006  0.1667272E+03  0.7561462E-02  0.1181305E+00
          1   -1    0    0  501    0  0.00000000000E+00  0.00000000000E+00  0.89624187729E+03  0.89624187729E+03  0.00000000000E+00 0. -1.
         -1   -1    0    0    0  501 -0.00000000000E+00 -0.00000000000E+00 -0.33776030271E+02  0.33776030271E+02  0.00000000000E+00 0.  1.
          5    1    1    2  502    0  0.93186362935E+02 -0.62348952325E+02  0.22527635027E+03  0.25167041241E+03  0.41800000000E+01 0.  1.
         -5    1    1    2    0  502  0.38378882735E+02  0.57668985108E+02  0.13723371274E+03  0.15378301205E+03  0.41800000000E+01 0.  1.
        -11    1    1    2    0    0 -0.27439388719E+02  0.33991355047E+02  0.82865381679E+02  0.93674990002E+02  0.00000000000E+00 0.  1.
         11    1    1    2    0    0 -0.10412585695E+03 -0.29311387831E+02  0.41709040234E+03  0.43088949310E+03  0.00000000000E+00 0. -1.
</event>
<event>
 6    1  0.6447971E-006  0.1095395E+03  0.7561462E-02  0.1261425E+00
          1   -1    0    0  501    0  0.00000000000E+00  0.00000000000E+00  0.13101886521E+03  0.13101886521E+03  0.00000000000E+00 0. -1.
         -1   -1    0    0    0  501 -0.00000000000E+00 -0.00000000000E+00 -0.12932055168E+03  0.12932055168E+03  0.00000000000E+00 0.  1.
          5    1    1    2  502    0 -0.33343503233E+02  0.19928745307E+02 -0.24407796517E+01  0.39145547674E+02  0.41800000000E+01 0. -1.
         -5    1    1    2    0  502  0.88928788347E+02 -0.40941937069E+02 -0.38279088729E+02  0.10520139087E+03  0.41800000000E+01 0. -1.
        -11    1    1    2    0    0 -0.15194336255E+02  0.35891683663E+02 -0.17082471406E+02  0.42554572489E+02  0.00000000000E+00 0.  1.
         11    1    1    2    0    0 -0.40390948858E+02 -0.14878491900E+02  0.59500653317E+02  0.73437905853E+02  0.00000000000E+00 0. -1.
</event>
<event>
 6    1  0.6447971E-006  0.1071779E+03  0.7561462E-02  0.1265887E+00
          2   -1    0    0  501    0  0.00000000000E+00  0.00000000000E+00  0.50786136601E+02  0.50786136601E+02  0.00000000000E+00 0. -1.
         -2   -1    0    0    0  501 -0.00000000000E+00 -0.00000000000E+00 -0.26853617629E+03  0.26853617629E+03  0.00000000000E+00 0.  1.
          5    1    1    2  502    0 -0.36118851838E+02 -0.27234787060E+02 -0.10287048957E+03  0.11245494702E+03  0.41800000000E+01 0. -1.
         -5    1    1    2    0  502  0.70645945753E+02  0.20682699517E+02 -0.54864056355E+02  0.91902996634E+02  0.41800000000E+01 0. -1.
        -11    1    1    2    0    0 -0.30955138254E+02 -0.38838920103E+02 -0.17469451118E+02  0.52648494959E+02  0.00000000000E+00 0. -1.
         11    1    1    2    0    0 -0.35719556603E+01  0.45391007647E+02 -0.42546042649E+02  0.62315874282E+02  0.00000000000E+00 0.  1.
</event>
<event>
 6    1  0.6447971E-006  0.9406601E+02  0.7561462E-02  0.1293294E+00
         -1   -1    0    0    0  501 -0.00000000000E+00  0.00000000000E+00  0.61480502118E+02  0.61480502118E+02  0.00000000000E+00 0.  1.
          1   -1    0    0  501    0  0.00000000000E+00 -0.00000000000E+00 -0.21763971546E+03  0.21763971546E+03  0.00000000000E+00 0. -1.
          5    1    1    2  502    0 -0.36196404521E+02  0.45115774413E+02 -0.28498786063E+02  0.64616298317E+02  0.41800000000E+01 0.  1.
         -5    1    1    2    0  502  0.17325954873E+02 -0.68086669738E+02 -0.25921112464E+02  0.75002398493E+02  0.41800000000E+01 0.  1.
        -11    1    1    2    0    0  0.10420077107E+02  0.39685033976E+02 -0.11119325455E+03  0.11852181144E+03  0.00000000000E+00 0. -1.
         11    1    1    2    0    0  0.84503725404E+01 -0.16714138651E+02  0.94539397388E+01  0.20979709328E+02  0.00000000000E+00 0.  1.
</event>
<event>
 6    1  0.6447971E-006  0.2276805E+03  0.7561462E-02  0.1128283E+00
         -1   -1    0    0    0  501 -0.00000000000E+00  0.00000000000E+00  0.48829705184E+03  0.48829705184E+03  0.00000000000E+00 0.  1.
          1   -1    0    0  501    0  0.00000000000E+00 -0.00000000000E+00 -0.21978036415E+03  0.21978036415E+03  0.00000000000E+00 0. -1.
          5    1    1    2  502    0  0.10908470837E+03 -0.40943917685E+02  0.84716678772E+02  0.14411893026E+03  0.41800000000E+01 0.  1.
         -5    1    1    2    0  502  0.87102803121E+02 -0.57639517303E+02  0.28623023379E+03  0.30472025106E+03  0.41800000000E+01 0.  1.
        -11    1    1    2    0    0 -0.12151687840E+03  0.15450011639E+02 -0.30138770961E+02  0.12614832583E+03  0.00000000000E+00 0.  1.
         11    1    1    2    0    0 -0.74670633096E+02  0.83133423349E+02 -0.72291453916E+02  0.13308990884E+03  0.00000000000E+00 0. -1.
</event>
<event>
 6    1  0.6447971E-006  0.1007933E+03  0.7561462E-02  0.1278636E+00
         -2   -1    0    0    0  501 -0.00000000000E+00  0.00000000000E+00  0.53010103338E+02  0.53010103338E+02  0.00000000000E+00 0.  1.
          2   -1    0    0  501    0  0.00000000000E+00 -0.00000000000E+00 -0.28646220105E+03  0.28646220105E+03  0.00000000000E+00 0. -1.
          5    1    1    2  502    0  0.27762270351E+02  0.69774815058E+02 -0.35666040974E+02  0.83239457893E+02  0.41800000000E+01 0.  1.
         -5    1    1    2    0  502  0.22039044873E+02 -0.52506605354E+02 -0.60142423430E+02  0.82929166165E+02  0.41800000000E+01 0.  1.
        -11    1    1    2    0    0 -0.32853247081E+02  0.12395500935E+02 -0.13448561870E+03  0.13899412191E+03  0.00000000000E+00 0. -1.
         11    1    1    2    0    0 -0.16948068142E+02 -0.29663710639E+02 -0.31580146005E+01  0.34309558418E+02  0.00000000000E+00 0.  1.
</event>
<event>
 6    1  0.6447971E-006  0.8701936E+02  0.7561462E-02  0.1310235E+00
         -3   -1    0    0    0  501 -0.00000000000E+00  0.00000000000E+00  0.24561115502E+03  0.24561115502E+03  0.00000000000E+00 0.  1.
          3   -1    0    0  501    0  0.00000000000E+00 -0.00000000000E+00 -0.37013368909E+02  0.37013368909E+02  0.00000000000E+00 0. -1.
          5    1    1    2  502    0  0.41785927532E+02 -0.35775711533E+02  0.11506824549E+03  0.12760932096E+03  0.41800000000E+01 0. -1.
         -5    1    1    2    0  502 -0.55649453080E+02  0.11815384568E+02  0.25196805473E+02  0.62360374811E+02  0.41800000000E+01 0. -1.
        -11    1    1    2    0    0 -0.20654910888E+02  0.16683005308E+02  0.36522550727E+02  0.45153568203E+02  0.00000000000E+00 0. -1.
         11    1    1    2    0    0  0.34518436436E+02  0.72773216580E+01  0.31810184425E+02  0.47501259958E+02  0.00000000000E+00 0.  1.
</event>
<event>
 6    1  0.6447971E-006  0.1345508E+03  0.7561462E-02  0.1220855E+00
          3   -1    0    0  501    0  0.00000000000E+00  0.00000000000E+00  0.45427869029E+03  0.45427869029E+03  0.00000000000E+00 0. -1.
         -3   -1    0    0    0  501 -0.00000000000E+00 -0.00000000000E+00 -0.55681300233E+02  0.55681300233E+02  0.00000000000E+00 0.  1.
          5    1    1    2  502    0 -0.47788026389E+02 -0.45219612258E+02  0.62616015334E+02  0.90921650751E+02  0.41800000000E+01 0. -1.
         -5    1    1    2    0  502 -0.71120298481E+01  0.93849272810E+02  0.44989582728E+02  0.10440211650E+03  0.41800000000E+01 0.  1.
        -11    1    1    2    0    0  0.50262345689E+02 -0.70515090027E+02  0.27146343412E+03  0.28494048042E+03  0.00000000000E+00 0. -1.
         11    1    1    2    0    0  0.46377105477E+01  0.21885429476E+02  0.19528357869E+02  0.29695742851E+02  0.00000000000E+00 0.  1.
</event>
<event>
 6    1  0.6447971E-006  0.1044122E+03  0.7561462E-02  0.1271282E+00
          1   -1    0    0  501    0  0.00000000000E+00  0.00000000000E+00  0.35147921859E+03  0.35147921859E+03  0.00000000000E+00 0. -1.
         -1   -1    0    0    0  501 -0.00000000000E+00 -0.00000000000E+00 -0.33659795917E+02  0.33659795917E+02  0.00000000000E+00 0.  1.
          5    1    1    2  502    0  0.56217156131E+01  0.53866503121E+02  0.55153088284E+02  0.77411493929E+02  0.41800000000E+01 0.  1.
         -5    1    1    2    0  502 -0.15687287950E+02 -0.66032654887E+02  0.12755962775E+03  0.14455218278E+03  0.41800000000E+01 0.  1.
        -11    1    1    2    0    0  0.47766684858E+02  0.40319729609E+01  0.10054145538E+03  0.11138445689E+03  0.00000000000E+00 0. -1.
         11    1    1    2    0    0 -0.37701112521E+02  0.81341788047E+01  0.34565251265E+02  0.51790880908E+02  0.00000000000E+00 0.  1.
</event>
<event>
 6    1  0.6447971E-006  0.1854438E+03  0.7561462E-02  0.1162636E+00
         -2   -1    0    0    0  501 -0.00000000000E+00  0.00000000000E+00  0.10060808374E+03  0.10060808374E+03  0.00000000000E+00 0.  1.
          2   -1    0    0  501    0  0.00000000000E+00 -0.00000000000E+00 -0.52671362360E+03  0.52671362360E+03  0.00000000000E+00 0. -1.
          5    1    1    2  502    0 -0.15896268563E+03 -0.91226935033E+02 -0.50553441156E+02  0.19016995533E+03  0.41800000000E+01 0. -1.
         -5    1    1    2    0  502  0.15504866170E+02  0.14719825482E+02 -0.49261109362E+01  0.22334124252E+02  0.41800000000E+01 0. -1.
        -11    1    1    2    0    0  0.85423321640E+02  0.27274693511E+02 -0.10292291857E+03  0.13650706925E+03  0.00000000000E+00 0.  1.
         11    1    1    2    0    0  0.58034497816E+02  0.49232416040E+02 -0.26770306920E+03  0.27831055852E+03  0.00000000000E+00 0. -1.
</event>
<event>
 6    1  0.6447971E-006  0.1201290E+03  0.7561462E-02  0.1242884E+00
         -2   -1    0    0    0  501 -0.00000000000E+00  0.00000000000E+00  0.23272000287E+03  0.23272000287E+03  0.00000000000E+00 0.  1.
          2   -1    0    0  501    0  0.00000000000E+00 -0.00000000000E+00 -0.68091681660E+02  0.68091681660E+02  0.00000000000E+00 0. -1.
          5    1    1    2  502    0  0.95315238797E+02  0.13248121997E+00  0.10993102136E+03  0.14555862790E+03  0.41800000000E+01 0.  1.
         -5    1    1    2    0  502 -0.36793951295E+02 -0.41604220760E+01  0.13268397187E+02  0.39555362818E+02  0.41800000000E+01 0.  1.
        -11    1    1    2    0    0  0.74645054363E+01 -0.31688331000E+02  0.78151119590E+01  0.33480518782E+02  0.00000000000E+00 0. -1.
         11    1    1    2    0    0 -0.65985792939E+02  0.35716271856E+02  0.33613790709E+02  0.82217175036E+02  0.00000000000E+00 0.  1.
</event>
<event>
 6    1  0.6447971E-006  0.1676835E+03  0.7561462E-02  0.1180285E+00
          1   -1    0    0  501    0  0.00000000000E+00  0.00000000000E+00  0.22300309497E+03  0.22300309497E+03  0.00000000000E+00 0. -1.
         -1   -1    0    0    0  501 -0.00000000000E+00 -0.00000000000E+00 -0.16708668788E+03  0.16708668788E+03  0.00000000000E+00 0.  1.
          5    1    1    2  502    0 -0.60504969863E+02 -0.15366477478E+02 -0.26184121051E+02  0.67823746604E+02  0.41800000000E+01 0. -1.
         -5    1    1    2    0  502  0.30240074547E+02 -0.11857430066E+03 -0.26864238948E+02  0.12535344679E+03  0.41800000000E+01 0. -1.
        -11    1    1    2    0    0  0.37699847812E+01  0.12066806939E+03  0.49514952055E+02  0.13048649827E+03  0.00000000000E+00 0.  1.
         11    1    1    2    0    0  0.26494910534E+02  0.13272708756E+02  0.59449815035E+02  0.66426091182E+02  0.00000000000E+00 0. -1.
</event>
<event>
 6    1  0.6447971E-006  0.1346386E+03  0.7561462E-02  0.1220731E+00
          1   -1    0    0  501    0  0.00000000000E+00  0.00000000000E+00  0.37450267629E+03  0.37450267629E+03  0.00000000000E+00 0. -1.
         -1   -1    0    0    0  501 -0.00000000000E+00 -0.00000000000E+00 -0.59802989920E+02  0.59802989920E+02  0.00000000000E+00 0.  1.
          5    1    1    2  502    0  0.22421431607E+02  0.40420954979E+02  0.86159061150E+01  0.47204665393E+02  0.41800000000E+01 0. -1.
         -5    1    1    2    0  502  0.47051253189E+02 -0.88777432435E+02  0.74821413688E+02  0.12534340542E+03  0.41800000000E+01 0. -1.
        -11    1    1    2    0    0 -0.73247384449E+02 -0.55198065343E+00  0.12922940323E+03  0.14854535560E+03  0.00000000000E+00 0.  1.
         11    1    1    2    0    0  0.37746996524E+01  0.48908458110E+02  0.10203296333E+03  0.11321223979E+03  0.00000000000E+00 0. -1.
</event>
<event>
 6    1  0.6447971E-006  0.1251630E+03  0.7561462E-02  0.1234815E+00
         -2   -1    0    0    0  501 -0.00000000000E+00  0.00000000000E+00  0.18719107317E+03  0.18719107317E+03  0.00000000000E+00 0.  1.
          2   -1    0    0  501    0  0.00000000000E+00 -0.00000000000E+00 -0.19942218892E+03  0.19942218892E+03  0.00000000000E+00 0. -1.
          5    1    1    2  502    0  0.95463092923E+02 -0.65320466298E+00  0.62100832460E+02  0.11396321590E+03  0.41800000000E+01 0. -1.
         -5    1    1    2    0  502 -0.29109660647E+02  0.27316076677E+02  0.74297691112E+02  0.84446194068E+02  0.41800000000E+01 0. -1.
        -11    1    1    2    0    0 -0.15411283587E+02 -0.54460437278E+02 -0.84616601799E+02  0.10180086537E+03  0.00000000000E+00 0. -1.
         11    1    1    2    0    0 -0.50942148688E+02  0.27797565263E+02 -0.64013037519E+02  0.86402986754E+02  0.00000000000E+00 0.  1.
</event>
<event>
 6    1  0.6447971E-006  0.4092315E+02  0.7561462E-02  0.1501526E+00
          1   -1    0    0  501    0  0.00000000000E+00  0.00000000000E+00  0.15051471866E+03  0.15051471866E+03  0.00000000000E+00 0. -1.
         -1   -1    0    0    0  501 -0.00000000000E+00 -0.00000000000E+00 -0.91788798250E+02  0.91788798250E+02  0.00000000000E+00 0.  1.
          5    1    1    2  502    0  0.26104997354E+01  0.72498005710E+01 -0.56162175035E+02  0.56842208102E+02  0.41800000000E+01 0.  1.
         -5    1    1    2    0  502 -0.16953107997E+02 -0.27692049698E+02  0.62883897788E+02  0.70895094952E+02  0.41800000000E+01 0.  1.
        -11    1    1    2    0    0  0.20582056789E+02  0.17727664112E+01 -0.26517590998E+02  0.33614675288E+02  0.00000000000E+00 0.  1.
         11    1    1    2    0    0 -0.62394485277E+01  0.18669482716E+02  0.78521788657E+02  0.80951538570E+02  0.00000000000E+00 0. -1.
</event>
<event>
 6    1  0.6447971E-006  0.1116630E+03  0.7561462E-02  0.1257521E+00
         -2   -1    0    0    0  501 -0.00000000000E+00  0.00000000000E+00  0.34169527583E+03  0.34169527583E+03  0.00000000000E+00 0.  1.
          2   -1    0    0  501    0  0.00000000000E+00 -0.00000000000E+00 -0.41651169606E+02  0.41651169606E+02  0.00000000000E+00 0. -1.
          5    1    1    2  502    0  0.32618442784E+02  0.38712313185E+02  0.80544365407E+02  0.95223280770E+02  0.41800000000E+01 0. -1.
         -5    1    1    2    0  502 -0.69798366942E+02 -0.37668085312E+02  0.14740831298E+03  0.16744366161E+03  0.41800000000E+01 0. -1.
        -11    1    1    2    0    0  0.56606291966E+02 -0.25323897051E+02  0.31522369554E+02  0.69564587502E+02  0.00000000000E+00 0. -1.
         11    1    1    2    0    0 -0.19426367809E+02  0.24279669177E+02  0.40569058279E+02  0.51114915546E+02  0.00000000000E+00 0.  1.
</event>
<event>
 6    1  0.6447971E-006  0.1265143E+03  0.7561462E-02  0.1232722E+00
         -2   -1    0    0    0  501 -0.00000000000E+00  0.00000000000E+00  0.23320158169E+03  0.23320158169E+03  0.00000000000E+00 0.  1.
          2   -1    0    0  501    0  0.00000000000E+00 -0.00000000000E+00 -0.10660302562E+03  0.10660302562E+03  0.00000000000E+00 0. -1.
          5    1    1    2  502    0 -0.53402441931E+01 -0.40928683935E+02  0.86957394037E+02  0.96346957162E+02  0.41800000000E+01 0. -1.
         -5    1    1    2    0  502 -0.95913730747E+02 -0.79684869059E+01  0.76626092920E+01  0.96639166545E+02  0.41800000000E+01 0. -1.
        -11    1    1    2    0    0  0.73652719790E+02  0.47354861068E+02 -0.18287848905E+02  0.89451950324E+02  0.00000000000E+00 0. -1.
         11    1    1    2    0    0  0.27601255150E+02  0.15423097721E+01  0.50266401651E+02  0.57366533277E+02  0.00000000000E+00 0.  1.
</event>
<event>
 6    1  0.6447971E-006  0.1705108E+03  0.7561462E-02  0.1177316E+00
         -1   -1    0    0    0  501 -0.00000000000E+00  0.00000000000E+00  0.53730379772E+02  0.53730379772E+02  0.00000000000E+00 0.  1.
          1   -1    0    0  501    0  0.00000000000E+00 -0.00000000000E+00 -0.65077887904E+03  0.65077887904E+03  0.00000000000E+00 0. -1.
          5    1    1    2  502    0 -0.65897797065E+01  0.48693804904E+02 -0.13222064318E+02  0.51056901761E+02  0.41800000000E+01 0. -1.
         -5    1    1    2    0  502 -0.11960675875E+03  0.21634378967E+02 -0.21110231892E+03  0.24362981046E+03  0.41800000000E+01 0. -1.
        -11    1    1    2    0    0  0.67493475692E+02  0.12424330292E+02 -0.16241353355E+03  0.17631758031E+03  0.00000000000E+00 0.  1.
         11    1    1    2    0    0  0.58703062760E+02 -0.82752514163E+02 -0.21031058248E+03  0.23350496629E+03  0.00000000000E+00 0. -1.
</event>
<event>
 6    1  0.6447971E-006  0.1173328E+03  0.7561462E-02  0.1247563E+00
         -2   -1    0    0    0  501 -0.00000000000E+00  0.00000000000E+00  0.23436209236E+02  0.23436209236E+02  0.00000000000E+00 0.  1.
          2   -1    0    0  501    0  0.00000000000E+00 -0.00000000000E+00 -0.70175499451E+03  0.70175499451E+03  0.00000000000E+00 0. -1.
          5    1    1    2  502    0  0.40612425675E+02  0.60524141899E+02 -0.11157141142E+03  0.13333489085E+03  0.41800000000E+01 0. -1.
         -5    1    1    2    0  502 -0.59095243425E+02  0.96377424436E+00 -0.19793639371E+03  0.20661429043E+03  0.41800000000E+01 0. -1.
        -11    1    1    2    0    0  0.25897562396E+02  0.12002927460E+02 -0.46388245999E+02  0.54466718026E+02  0.00000000000E+00 0. -1.
         11    1    1    2    0    0 -0.74147446456E+01 -0.73490843604E+02 -0.32242273415E+03  0.33077530444E+03  0.00000000000E+00 0.  1.
</event>
<event>
 6    1  0.6447971E-006  0.1355065E+03  0.7561462E-02  0.1219506E+00
          1   -1    0    0  501    0  0.00000000000E+00  0.00000000000E+00  0.12687139472E+03  0.12687139472E+03  0.00000000000E+00 0. -1.
         -1   -1    0    0    0  501 -0.00000000000E+00 -0.00000000000E+00 -0.40736464487E+03  0.40736464487E+03  0.00000000000E+00 0.  1.
          5    1    1    2  502    0  0.28237587318E+02 -0.35605449265E+01 -0.21504030296E+03  0.21695585522E+03  0.41800000000E+01 0. -1.
         -5    1    1    2    0  502  0.72976192091E+02 -0.79805999209E+02 -0.10474103169E+03  0.15060769649E+03  0.41800000000E+01 0. -1.
        -11    1    1    2    0    0 -0.42754971331E+02  0.53168658473E+02 -0.26905310537E+02  0.73340231472E+02  0.00000000000E+00 0.  1.
         11    1    1    2    0    0 -0.58458808078E+02  0.30197885663E+02  0.66193395034E+02  0.93332256410E+02  0.00000000000E+00 0. -1.
</event>
<event>
 6    1  0.6447971E-006  0.8241132E+02  0.7561462E-02  0.1322344E+00
         -2   -1    0    0    0  501 -0.00000000000E+00  0.00000000000E+00  0.29454889694E+03  0.29454889694E+03  0.00000000000E+00 0.  1.
          2   -1    0    0  501    0  0.00000000000E+00 -0.00000000000E+00 -0.72179181234E+02  0.72179181234E+02  0.00000000000E+00 0. -1.
          5    1    1    2  502    0  0.32256974920E+02  0.32881686502E+02  0.24150189879E+03  0.24589094586E+03  0.41800000000E+01 0. -1.
         -5    1    1    2    0  502 -0.21831778413E+02 -0.10964990421E+02 -0.25430155843E+01  0.24915796031E+02  0.41800000000E+01 0. -1.
        -11    1    1    2    0    0  0.12210142336E+02 -0.53529617851E+02 -0.15394648547E+02  0.57021949871E+02  0.00000000000E+00 0.  1.
         11    1    1    2    0    0 -0.22635338843E+02  0.31612921771E+02 -0.11945189525E+01  0.38899386408E+02  0.00000000000E+00 0. -1.
</event>
<event>
 6    1  0.6447971E-006  0.1182276E+03  0.7561462E-02  0.1246050E+00
          1   -1    0    0  501    0  0.00000000000E+00  0.00000000000E+00  0.25024853071E+03  0.25024853071E+03  0.00000000000E+00 0. -1.
         -1   -1    0    0    0  501 -0.00000000000E+00 -0.00000000000E+00 -0.77735570593E+02  0.77735570593E+02  0.00000000000E+00 0.  1.
          5    1    1    2  502    0  0.30688506049E+02  0.32463725465E+00  0.56161335190E+02  0.64136243756E+02  0.41800000000E+01 0. -1.
         -5    1    1    2    0  502 -0.55884074534E+02  0.77086626344E+02 -0.52214265246E-01  0.95304002402E+02  0.41800000000E+01 0. -1.
        -11    1    1    2    0    0 -0.21796453299E+02 -0.52819093502E+02  0.23947697846E+02  0.61955098635E+02  0.00000000000E+00 0.  1.
         11    1    1    2    0    0  0.46992021783E+02 -0.24592170096E+02  0.92456141342E+02  0.10658875650E+03  0.00000000000E+00 0. -1.
</event>
<event>
 6    1  0.6447971E-006  0.2039433E+03  0.7561462E-02  0.1146454E+00
          2   -1    0    0  501    0  0.00000000000E+00  0.00000000000E+00  0.13003657923E+04  0.13003657923E+04  0.00000000000E+00 0. -1.
         -2   -1    0    0    0  501 -0.00000000000E+00 -0.00000000000E+00 -0.36005325377E+02  0.36005325377E+02  0.00000000000E+00 0.  1.
          5    1    1    2  502    0  0.16173078023E+02  0.35958489340E+02  0.17435390824E+03  0.17880531068E+03  0.41800000000E+01 0.  1.
         -5    1    1    2    0  502  0.16115099991E+03 -0.82054616917E+02  0.59350862714E+03  0.62046157643E+03  0.41800000000E+01 0.  1.
        -11    1    1    2    0    0 -0.13609207362E+03  0.52019853646E+02  0.26993919875E+03  0.30674792371E+03  0.00000000000E+00 0. -1.
         11    1    1    2    0    0 -0.41232004311E+02 -0.59237260690E+01  0.22655873278E+03  0.23035630686E+03  0.00000000000E+00 0.  1.
</event>
<event>
 6    1  0.6447971E-006  0.1033013E+03  0.7561462E-02  0.1273503E+00
          1   -1    0    0  501    0  0.00000000000E+00  0.00000000000E+00  0.41397384180E+02  0.41397384180E+02  0.00000000000E+00 0. -1.
         -1   -1    0    0    0  501 -0.00000000000E+00 -0.00000000000E+00 -0.32275698452E+03  0.32275698452E+03  0.00000000000E+00 0.  1.
          5    1    1    2  502    0  0.49409434085E+02 -0.30959414150E+02 -0.39177689328E+02  0.70371451898E+02  0.41800000000E+01 0.  1.
         -5    1    1    2    0  502 -0.65339714038E+02 -0.26021737174E+01 -0.10819433752E+03  0.12648927468E+03  0.41800000000E+01 0.  1.
        -11    1    1    2    0    0 -0.29782963705E+02  0.13388581220E+02 -0.10403042519E+03  0.10903489533E+03  0.00000000000E+00 0.  1.
         11    1    1    2    0    0  0.45713243657E+02  0.20173006647E+02 -0.29957148295E+02  0.58258746784E+02  0.00000000000E+00 0. -1.
</event>
<event>
 6    1  0.6447971E-006  0.8360965E+02  0.7561462E-02  0.1319109E+00
         -2   -1    0    0    0  501 -0.00000000000E+00  0.00000000000E+00  0.62657172227E+02  0.62657172227E+02  0.00000000000E+00 0.  1.
          2   -1    0    0  501    0  0.00000000000E+00 -0.00000000000E+00 -0.23803425069E+03  0.23803425069E+03  0.00000000000E+00 0. -1.
          5    1    1    2  502    0  0.25934950017E+02 -0.24624625899E+02  0.33455823110E+02  0.49150364526E+02  0.41800000000E+01 0. -1.
         -5    1    1    2    0  502  0.14042533126E+02  0.32105436387E+02 -0.85160223986E+02  0.92182904768E+02  0.41800000000E+01 0. -1.
        -11    1    1    2    0    0  0.22136681961E+02  0.18249855263E+02 -0.61155273509E+02  0.67550406241E+02  0.00000000000E+00 0. -1.
         11    1    1    2    0    0 -0.62114165103E+02 -0.25730665751E+02 -0.62517404075E+02  0.91807747379E+02  0.00000000000E+00 0.  1.
</event>
<event>
 6    1  0.6447971E-006  0.3528589E+03  0.7561462E-02  0.1061448E+00
         -2   -1    0    0    0  501 -0.00000000000E+00  0.00000000000E+00  0.28195134968E+03  0.28195134968E+03  0.00000000000E+00 0.  1.
          2   -1    0    0  501    0  0.00000000000E+00 -0.00000000000E+00 -0.49470749064E+03  0.49470749064E+03  0.00000000000E+00 0. -1.
          5    1    1    2  502    0  0.51287783731E+02 -0.18824529897E+03  0.43451127453E+02  0.19993049348E+03  0.41800000000E+01 0.  1.
         -5    1    1    2    0  502  0.67064730287E+02 -0.14048067084E+03 -0.74030067164E+02  0.17242511468E+03  0.41800000000E+01 0.  1.
        -11    1    1    2    0    0 -0.12348717488E+03  0.28222555508E+03 -0.13040030735E+03  0.33452142900E+03  0.00000000000E+00 0. -1.
         11    1    1    2    0    0  0.51346608593E+01  0.46500414734E+02 -0.51776893890E+02  0.69781803169E+02  0.00000000000E+00 0.  1.
</event>
<event>
 6    1  0.6447971E-006  0.1170125E+03  0.7561462E-02  0.1248108E+00
          2   -1    0    0  501    0  0.00000000000E+00  0.00000000000E+00  0.48840574092E+03  0.48840574092E+03  0.00000000000E+00 0. -1.
         -2   -1    0    0    0  501 -0.00000000000E+00 -0.00000000000E+00 -0.71038289277E+02  0.71038289277E+02  0.00000000000E+00 0.  1.
          5    1    1    2  502    0  0.33892965051E+02 -0.10172832202E+02  0.85136396390E+02  0.92292458983E+02  0.41800000000E+01 0. -1.
         -5    1    1    2    0  502  0.49118624869E+02  0.48866440428E+02 -0.35137306258E+02  0.77798913875E+02  0.41800000000E+01 0.  1.
        -11    1    1    2    0    0 -0.34209689354E+02 -0.65063891186E+02  0.20889467750E+03  0.22145112117E+03  0.00000000000E+00 0. -1.
         11    1    1    2    0    0 -0.48801900566E+02  0.26370282960E+02  0.15847368402E+03  0.16790153617E+03  0.00000000000E+00 0.  1.
</event>
<event>
 6    1  0.6447971E-006  0.2064073E+03  0.7561462E-02  0.1144443E+00
         -2   -1    0    0    0  501 -0.00000000000E+00  0.00000000000E+00  0.45904749806E+03  0.45904749806E+03  0.00000000000E+00 0.  1.
          2   -1    0    0  501    0  0.00000000000E+00 -0.00000000000E+00 -0.49410215651E+03  0.49410215651E+03  0.00000000000E+00 0. -1.
          5    1    1    2  502    0  0.51891572686E+01  0.23649049839E+02  0.75718848598E+01  0.25710129361E+02  0.41800000000E+01 0. -1.
         -5    1    1    2    0  502 -0.15878253631E+03 -0.10995144177E+03  0.39897403626E+03  0.44328204046E+03  0.41800000000E+01 0.  1.
        -11    1    1    2    0    0  0.24481232234E+01  0.35537484903E+02 -0.50447966708E+02  0.61756809224E+02  0.00000000000E+00 0.  1.
         11    1    1    2    0    0  0.15114525582E+03  0.50764907033E+02 -0.39115261286E+03  0.42240067553E+03  0.00000000000E+00 0. -1.
</event>
<event>
 6    1  0.6447971E-006  0.9784684E+02  0.7561462E-02  0.1284890E+00
         -2   -1    0    0    0  501 -0.00000000000E+00  0.00000000000E+00  0.52527143476E+02  0.52527143476E+02  0.00000000000E+00 0. -1.
          2   -1    0    0  501    0  0.00000000000E+00 -0.00000000000E+00 -0.24043775240E+03  0.24043775240E+03  0.00000000000E+00 0.  1.
          5    1    1    2  502    0 -0.38039037680E+02 -0.27242943558E+02 -0.11956221810E+02  0.48472363273E+02  0.41800000000E+01 0. -1.
         -5    1    1    2    0  502  0.65227650183E+02  0.42438741588E+02 -0.66387742234E+02  0.10237430271E+03  0.41800000000E+01 0. -1.
        -11    1    1    2    0    0 -0.38025196489E+02  0.13313986796E+02 -0.10344011565E+03  0.11100916781E+03  0.00000000000E+00 0.  1.
         11    1    1    2    0    0  0.10836583985E+02 -0.28509784826E+02 -0.61265292277E+01  0.31109062083E+02  0.00000000000E+00 0. -1.
</event>
<event>
 6    1  0.6447971E-006  0.1136699E+03  0.7561462E-02  0.1253921E+00
         -4   -1    0    0    0  501 -0.00000000000E+00  0.00000000000E+00  0.14539753527E+03  0.14539753527E+03  0.00000000000E+00 0.  1.
          4   -1    0    0  501    0  0.00000000000E+00 -0.00000000000E+00 -0.12921153314E+03  0.12921153314E+03  0.00000000000E+00 0. -1.
          5    1    1    2  502    0  0.23236272674E+02 -0.25321786004E+02  0.89264380643E+01  0.35752914717E+02  0.41800000000E+01 0. -1.
         -5    1    1    2    0  502 -0.68290836890E+02  0.61970626366E+02  0.67780649003E+02  0.11452373428E+03  0.41800000000E+01 0.  1.
        -11    1    1    2    0    0  0.67009850333E+02 -0.40234929871E+02 -0.64979282965E+02  0.10164387260E+03  0.00000000000E+00 0. -1.
         11    1    1    2    0    0 -0.21955286117E+02  0.35860895087E+01  0.44581980350E+01  0.22688546806E+02  0.00000000000E+00 0.  1.
</event>
<event>
 6    1  0.6447971E-006  0.9920661E+02  0.7561462E-02  0.1281973E+00
          1   -1    0    0  501    0  0.00000000000E+00  0.00000000000E+00  0.32338334312E+02  0.32338334312E+02  0.00000000000E+00 0. -1.
         -1   -1    0    0    0  501 -0.00000000000E+00 -0.00000000000E+00 -0.15553849388E+04  0.15553849388E+04  0.00000000000E+00 0.  1.
          5    1    1    2  502    0 -0.17763478316E+02  0.38667905550E+02 -0.12107417922E+04  0.12114965571E+04  0.41800000000E+01 0. -1.
         -5    1    1    2    0  502 -0.18825460895E+02  0.52010563848E+02 -0.18198372501E+03  0.19024995479E+03  0.41800000000E+01 0. -1.
        -11    1    1    2    0    0  0.24407318293E+02 -0.81086826824E+02 -0.14283640378E+03  0.16605128399E+03  0.00000000000E+00 0.  1.
         11    1    1    2    0    0  0.12181620918E+02 -0.95916425737E+01  0.12515316506E+02  0.19925477227E+02  0.00000000000E+00 0. -1.
</event>
<event>
 6    1  0.6447971E-006  0.7502086E+02  0.7561462E-02  0.1343806E+00
         -2   -1    0    0    0  501 -0.00000000000E+00  0.00000000000E+00  0.14660376327E+03  0.14660376327E+03  0.00000000000E+00 0.  1.
          2   -1    0    0  501    0  0.00000000000E+00 -0.00000000000E+00 -0.13590905777E+03  0.13590905777E+03  0.00000000000E+00 0. -1.
          5    1    1    2  502    0 -0.13930079933E+02  0.15692163939E+02  0.83461918841E+02  0.86160637374E+02  0.41800000000E+01 0.  1.
         -5    1    1    2    0  502  0.69692877291E+02 -0.20179976734E+02 -0.30189920136E+01  0.72738678286E+02  0.41800000000E+01 0.  1.
        -11    1    1    2    0    0 -0.29393506967E+02  0.14913982323E+01  0.16245846726E+02  0.33617407044E+02  0.00000000000E+00 0.  1.
         11    1    1    2    0    0 -0.26369290391E+02  0.29964145630E+01 -0.85994068054E+02  0.89996098340E+02  0.00000000000E+00 0. -1.
</event>
<event>
 6    1  0.6447971E-006  0.1025518E+03  0.7561462E-02  0.1275020E+00
          1   -1    0    0  501    0  0.00000000000E+00  0.00000000000E+00  0.19175489718E+03  0.19175489718E+03  0.00000000000E+00 0. -1.
         -1   -1    0    0    0  501 -0.00000000000E+00 -0.00000000000E+00 -0.78199006461E+02  0.78199006461E+02  0.00000000000E+00 0.  1.
          5    1    1    2  502    0 -0.13714847685E+02  0.32484054922E+02  0.45601533022E+02  0.57795182197E+02  0.41800000000E+01 0.  1.
         -5    1    1    2    0  502 -0.73979413113E+00 -0.79778377884E+02 -0.12191751646E+02  0.80816137506E+02  0.41800000000E+01 0.  1.
        -11    1    1    2    0    0 -0.25174193565E+02 -0.33527635796E+01 -0.37105790541E+01  0.25666114668E+02  0.00000000000E+00 0.  1.
         11    1    1    2    0    0  0.39628835381E+02  0.50647086541E+02  0.83856688398E+02  0.10567646927E+03  0.00000000000E+00 0. -1.
</event>
<event>
 6    1  0.6447971E-006  0.9918757E+02  0.7561462E-02  0.1282014E+00
         -4   -1    0    0    0  501 -0.00000000000E+00  0.00000000000E+00  0.94338208911E+03  0.94338208911E+03  0.00000000000E+00 0.  1.
          4   -1    0    0  501    0  0.00000000000E+00 -0.00000000000E+00 -0.22050136071E+02  0.22050136071E+02  0.00000000000E+00 0. -1.
          5    1    1    2  502    0 -0.44214443061E+02 -0.49930166229E+02  0.62966187617E+03  0.63319782784E+03  0.41800000000E+01 0.  1.
         -5    1    1    2    0  502  0.44623981478E+02  0.19983781273E+02  0.17791922356E+03  0.18456265535E+03  0.41800000000E+01 0.  1.
        -11    1    1    2    0    0  0.34307851502E+02 -0.32283317399E+01  0.84960873443E+02  0.91683154487E+02  0.00000000000E+00 0.  1.
         11    1    1    2    0    0 -0.34717389919E+02  0.33174716696E+02  0.28789979867E+02  0.55988587510E+02  0.00000000000E+00 0. -1.
</event>
<event>
 6    1  0.6447971E-006  0.1135457E+03  0.7561462E-02  0.1254141E+00
          3   -1    0    0  501    0  0.00000000000E+00  0.00000000000E+00  0.78091969887E+02  0.78091969887E+02  0.00000000000E+00 0. -1.
         -3   -1    0    0    0  501 -0.00000000000E+00 -0.00000000000E+00 -0.21135038780E+03  0.21135038780E+03  0.00000000000E+00 0.  1.
          5    1    1    2  502    0 -0.45754140741E+02 -0.57241887285E+02 -0.61687349376E+02  0.95879489610E+02  0.41800000000E+01 0.  1.
         -5    1    1    2    0  502 -0.11791182832E+01  0.59069599361E+02 -0.70443900800E+02  0.92034903425E+02  0.41800000000E+01 0.  1.
        -11    1    1    2    0    0  0.43244214510E+02 -0.38322779787E+02  0.17520079297E+02  0.60379224223E+02  0.00000000000E+00 0. -1.
         11    1    1    2    0    0  0.36890445142E+01  0.36495067711E+02 -0.18647247029E+02  0.41148740424E+02  0.00000000000E+00 0.  1.
</event>
<event>
 6    1  0.6447971E-006  0.1338089E+03  0.7561462E-02  0.1221911E+00
         -1   -1    0    0    0  501 -0.00000000000E+00  0.00000000000E+00  0.13453151214E+03  0.13453151214E+03  0.00000000000E+00 0.  1.
          1   -1    0    0  501    0  0.00000000000E+00 -0.00000000000E+00 -0.17390320709E+03  0.17390320709E+03  0.00000000000E+00 0. -1.
          5    1    1    2  502    0 -0.66793336898E+02  0.76963133888E+01  0.14022284842E+02  0.68809010790E+02  0.41800000000E+01 0.  1.
         -5    1    1    2    0  502  0.15117856457E+02 -0.89177844456E+02  0.13603370827E+02  0.91562883439E+02  0.41800000000E+01 0.  1.
        -11    1    1    2    0    0  0.41275682262E+02  0.88161652819E+02 -0.82941678251E+02  0.12788854900E+03  0.00000000000E+00 0. -1.
         11    1    1    2    0    0  0.10399798179E+02 -0.66801217513E+01  0.15944327633E+02  0.20174276008E+02  0.00000000000E+00 0.  1.
</event>
<event>
 6    1  0.6447971E-006  0.1135537E+03  0.7561462E-02  0.1254127E+00
         -1   -1    0    0    0  501 -0.00000000000E+00  0.00000000000E+00  0.19577297098E+03  0.19577297098E+03  0.00000000000E+00 0.  1.
          1   -1    0    0  501    0  0.00000000000E+00 -0.00000000000E+00 -0.81533869230E+02  0.81533869230E+02  0.00000000000E+00 0. -1.
          5    1    1    2  502    0  0.30887321296E+02 -0.34490901271E+02  0.20539368203E+02  0.50823094490E+02  0.41800000000E+01 0. -1.
         -5    1    1    2    0  502 -0.40910202559E+02  0.45301417061E+02  0.78318065881E+02  0.99383373381E+02  0.41800000000E+01 0.  1.
        -11    1    1    2    0    0 -0.48611565385E+02  0.20742011803E+02  0.27254233583E+02  0.59465188059E+02  0.00000000000E+00 0.  1.
         11    1    1    2    0    0  0.58634446648E+02 -0.31552527593E+02 -0.11872565916E+02  0.67635184280E+02  0.00000000000E+00 0. -1.
</event>
<event>
 6    1  0.6447971E-006  0.1084996E+03  0.7561462E-02  0.1263374E+00
          1   -1    0    0  501    0  0.00000000000E+00  0.00000000000E+00  0.20813117611E+02  0.20813117611E+02  0.00000000000E+00 0. -1.
         -1   -1    0    0    0  501 -0.00000000000E+00 -0.00000000000E+00 -0.79565964087E+03  0.79565964087E+03  0.00000000000E+00 0.  1.
          5    1    1    2  502    0  0.35017895647E+02  0.77086751069E+02 -0.19243698129E+03  0.21028096532E+03  0.41800000000E+01 0. -1.
         -5    1    1    2    0  502  0.82504881862E+01 -0.15274082301E+02 -0.29787958301E+03  0.29841428672E+03  0.41800000000E+01 0.  1.
        -11    1    1    2    0    0 -0.69642089872E+02 -0.48177387845E+02 -0.17684476386E+03  0.19607435295E+03  0.00000000000E+00 0.  1.
         11    1    1    2    0    0  0.26373706039E+02 -0.13635280923E+02 -0.10768519509E+03  0.11170315348E+03  0.00000000000E+00 0. -1.
</event>
<event>
 6    1  0.6447971E-006  0.1287637E+03  0.7561462E-02  0.1229302E+00
         -2   -1    0    0    0  501 -0.00000000000E+00  0.00000000000E+00  0.83669669993E+03  0.83669669993E+03  0.00000000000E+00 0.  1.
          2   -1    0    0  501    0  0.00000000000E+00 -0.00000000000E+00 -0.35978747681E+02  0.35978747681E+02  0.00000000000E+00 0. -1.
          5    1    1    2  502    0 -0.11507838219E+02 -0.50759806405E+02  0.48253720284E+03  0.48535411074E+03  0.41800000000E+01 0.  1.
         -5    1    1    2    0  502 -0.87999285915E+00 -0.69743840551E+02  0.95441691619E+02  0.11828595260E+03  0.41800000000E+01 0.  1.
        -11    1    1    2    0    0  0.32440220540E+02  0.35454185787E+02  0.28067967506E+02  0.55652295536E+02  0.00000000000E+00 0. -1.
         11    1    1    2    0    0 -0.20052389462E+02  0.85049461168E+02  0.19467109029E+03  0.21338308874E+03  0.00000000000E+00 0.  1.
</event>
<event>
 6    1  0.6447971E-006  0.1337111E+03  0.7561462E-02  0.1222051E+00
          2   -1    0    0  501    0  0.00000000000E+00  0.00000000000E+00  0.19810150736E+03  0.19810150736E+03  0.00000000000E+00 0. -1.
         -2   -1    0    0    0  501 -0.00000000000E+00 -0.00000000000E+00 -0.12621295061E+03  0.12621295061E+03  0.00000000000E+00 0.  1.
          5    1    1    2  502    0 -0.21390939906E+02 -0.76960126741E+01 -0.38498451690E+02  0.44904388468E+02  0.41800000000E+01 0. -1.
         -5    1    1    2    0  502  0.80752214905E+02  0.78963340058E+02  0.88059112707E+01  0.11336289410E+03  0.41800000000E+01 0.  1.
        -11    1    1    2    0    0  0.22376532688E+02  0.69247259482E+00  0.15420749646E+02  0.27184338379E+02  0.00000000000E+00 0.  1.
         11    1    1    2    0    0 -0.81737807688E+02 -0.71959799979E+02  0.86160347524E+02  0.13886283702E+03  0.00000000000E+00 0. -1.
</event>
<event>
 6    1  0.6447971E-006  0.2670451E+03  0.7561462E-02  0.1102983E+00
         -2   -1    0    0    0  501 -0.00000000000E+00  0.00000000000E+00  0.36551131817E+02  0.36551131817E+02  0.00000000000E+00 0.  1.
          2   -1    0    0  501    0  0.00000000000E+00 -0.00000000000E+00 -0.20339656335E+04  0.20339656335E+04  0.00000000000E+00 0. -1.
          5    1    1    2  502    0 -0.85536555605E+02  0.40634689696E+02 -0.39422451555E+03  0.40546038205E+03  0.41800000000E+01 0. -1.
         -5    1    1    2    0  502 -0.38517737397E+02  0.17352115802E+03 -0.49211688895E+03  0.52324918840E+03  0.41800000000E+01 0. -1.
        -11    1    1    2    0    0 -0.76045347595E+01 -0.52368157339E+02 -0.28005417574E+03  0.28500981422E+03  0.00000000000E+00 0.  1.
         11    1    1    2    0    0  0.13165882776E+03 -0.16178769038E+03 -0.83101892142E+03  0.85679738062E+03  0.00000000000E+00 0. -1.
</event>
<event>
 6    1  0.6447971E-006  0.1207987E+03  0.7561462E-02  0.1241785E+00
         -2   -1    0    0    0  501 -0.00000000000E+00  0.00000000000E+00  0.41302600422E+02  0.41302600422E+02  0.00000000000E+00 0.  1.
          2   -1    0    0  501    0  0.00000000000E+00 -0.00000000000E+00 -0.56574236143E+03  0.56574236143E+03  0.00000000000E+00 0. -1.
          5    1    1    2  502    0 -0.36188470582E+01  0.11944129077E+03 -0.10509473082E+03  0.15919074358E+03  0.41800000000E+01 0. -1.
         -5    1    1    2    0  502 -0.36683455848E+00 -0.26058752026E+02 -0.73232492041E+02  0.77843839932E+02  0.41800000000E+01 0. -1.
        -11    1    1    2    0    0 -0.71294826737E+01 -0.60606261099E+02 -0.32223681803E+03  0.32796419820E+03  0.00000000000E+00 0. -1.
         11    1    1    2    0    0  0.11115164290E+02 -0.32776277645E+02 -0.23875720116E+02  0.42046180142E+02  0.00000000000E+00 0.  1.
</event>
<event>
 6    1  0.6447971E-006  0.9034928E+02  0.7561462E-02  0.1302008E+00
         -1   -1    0    0    0  501 -0.00000000000E+00  0.00000000000E+00  0.43200760296E+03  0.43200760296E+03  0.00000000000E+00 0.  1.
          1   -1    0    0  501    0  0.00000000000E+00 -0.00000000000E+00 -0.38053410125E+02  0.38053410125E+02  0.00000000000E+00 0. -1.
          5    1    1    2  502    0  0.65574284018E+02 -0.45030074716E+02  0.67037410729E+02  0.10411138838E+03  0.41800000000E+01 0. -1.
         -5    1    1    2    0  502  0.16011644834E+01  0.31580731227E+02  0.16655581350E+03  0.16958248059E+03  0.41800000000E+01 0. -1.
        -11    1    1    2    0    0 -0.39570265855E+02  0.32010762295E+01  0.71327292086E+01  0.40335203666E+02  0.00000000000E+00 0. -1.
         11    1    1    2    0    0 -0.27605182647E+02  0.10248267260E+02  0.15322823940E+03  0.15603194045E+03  0.00000000000E+00 0.  1.
</event>
<event>
 6    1  0.6447971E-006  0.1066926E+03  0.7561462E-02  0.1266820E+00
          3   -1    0    0  501    0  0.00000000000E+00  0.00000000000E+00  0.51593363710E+03  0.51593363710E+03  0.00000000000E+00 0. -1.
         -3   -1    0    0    0  501 -0.00000000000E+00 -0.00000000000E+00 -0.36875057537E+02  0.36875057537E+02  0.00000000000E+00 0.  1.
          5    1    1    2  502    0 -0.28191852678E+02 -0.77341110604E+02  0.78593304279E+02  0.11388945440E+03  0.41800000000E+01 0. -1.
         -5    1    1    2    0  502 -0.13379900758E+02  0.50215143698E+02  0.46866107236E+02  0.70103400833E+02  0.41800000000E+01 0. -1.
        -11    1    1    2    0    0  0.55248039424E+02  0.32537224215E+02  0.34668433700E+03  0.35256353518E+03  0.00000000000E+00 0. -1.
         11    1    1    2    0    0 -0.13676285988E+02 -0.54112573083E+01  0.69148310563E+01  0.16252304225E+02  0.00000000000E+00 0.  1.
</event>
<event>
 6    1  0.6447971E-006  0.8435555E+02  0.7561462E-02  0.1317126E+00
         -2   -1    0    0    0  501 -0.00000000000E+00  0.00000000000E+00  0.97597134213E+02  0.97597134213E+02  0.00000000000E+00 0.  1.
          2   -1    0    0  501    0  0.00000000000E+00 -0.00000000000E+00 -0.19361430780E+03  0.19361430780E+03  0.00000000000E+00 0. -1.
          5    1    1    2  502    0  0.22423377589E+02  0.70771866681E+02  0.49704997879E+02  0.89440059203E+02  0.41800000000E+01 0.  1.
         -5    1    1    2    0  502  0.72052897583E+01 -0.35163480887E+02 -0.27993826373E+02  0.45711194510E+02  0.41800000000E+01 0.  1.
        -11    1    1    2    0    0  0.52376967958E+01 -0.18790971114E+02  0.10473814813E+02  0.22141247929E+02  0.00000000000E+00 0.  1.
         11    1    1    2    0    0 -0.34866364143E+02 -0.16817414680E+02 -0.12820215990E+03  0.13391894037E+03  0.00000000000E+00 0. -1.
</event>
<event>
 6    1  0.6447971E-006  0.1433143E+03  0.7561462E-02  0.1208938E+00
          1   -1    0    0  501    0  0.00000000000E+00  0.00000000000E+00  0.72542585218E+03  0.72542585218E+03  0.00000000000E+00 0. -1.
         -1   -1    0    0    0  501 -0.00000000000E+00 -0.00000000000E+00 -0.43475119439E+02  0.43475119439E+02  0.00000000000E+00 0.  1.
          5    1    1    2  502    0  0.12593503638E+02 -0.95368732395E+01  0.92284375787E+02  0.93719937578E+02  0.41800000000E+01 0. -1.
         -5    1    1    2    0  502 -0.45525270234E+02  0.12358137594E+03  0.10637047476E+03  0.16934301583E+03  0.41800000000E+01 0. -1.
        -11    1    1    2    0    0 -0.22846997023E+02 -0.33007429945E+02  0.24118737488E+03  0.24450526682E+03  0.00000000000E+00 0. -1.
         11    1    1    2    0    0  0.55778763619E+02 -0.81037072759E+02  0.24210850732E+03  0.26133275139E+03  0.00000000000E+00 0.  1.
</event>
<event>
 6    1  0.6447971E-006  0.1557217E+03  0.7561462E-02  0.1193613E+00
          2   -1    0    0  501    0  0.00000000000E+00  0.00000000000E+00  0.62478462382E+03  0.62478462382E+03  0.00000000000E+00 0. -1.
         -2   -1    0    0    0  501 -0.00000000000E+00 -0.00000000000E+00 -0.64090642873E+02  0.64090642873E+02  0.00000000000E+00 0.  1.
          5    1    1    2  502    0 -0.76327799341E+02  0.68890651939E+02  0.12377427975E+03  0.16096396990E+03  0.41800000000E+01 0. -1.
         -5    1    1    2    0  502  0.26715414209E+02  0.60507373687E+02  0.63078318030E+01  0.66574144898E+02  0.41800000000E+01 0. -1.
        -11    1    1    2    0    0 -0.19556706205E+01 -0.31976476058E+02  0.23944440743E+02  0.39995698658E+02  0.00000000000E+00 0.  1.
         11    1    1    2    0    0  0.51568055753E+02 -0.97421549569E+02  0.40666742865E+03  0.42134145324E+03  0.00000000000E+00 0. -1.
</event>
<event>
 6    1  0.6447971E-006  0.1381041E+03  0.7561462E-02  0.1215903E+00
         -2   -1    0    0    0  501 -0.00000000000E+00  0.00000000000E+00  0.72773522269E+02  0.72773522269E+02  0.00000000000E+00 0.  1.
          2   -1    0    0  501    0  0.00000000000E+00 -0.00000000000E+00 -0.37047666244E+03  0.37047666244E+03  0.00000000000E+00 0. -1.
          5    1    1    2  502    0 -0.15257326976E+02  0.46197699856E+02  0.87987704941E+01  0.49617580157E+02  0.41800000000E+01 0.  1.
         -5    1    1    2    0  502  0.13368134361E+02  0.76961872379E+02 -0.17696540993E+03  0.19348401879E+03  0.41800000000E+01 0.  1.
        -11    1    1    2    0    0  0.42492347740E+02 -0.51294490420E+02 -0.79129586152E+02  0.10343217956E+03  0.00000000000E+00 0. -1.
         11    1    1    2    0    0 -0.40603155125E+02 -0.71865081815E+02 -0.50406914587E+02  0.96716406202E+02  0.00000000000E+00 0.  1.
</event>
<event>
 6    1  0.6447971E-006  0.1153839E+03  0.7561462E-02  0.1250913E+00
         -2   -1    0    0    0  501 -0.00000000000E+00  0.00000000000E+00  0.46909502910E+02  0.46909502910E+02  0.00000000000E+00 0. -1.
          2   -1    0    0  501    0  0.00000000000E+00 -0.00000000000E+00 -0.37605660743E+03  0.37605660743E+03  0.00000000000E+00 0.  1.
          5    1    1    2  502    0 -0.45467189469E+02 -0.71118904955E+02 -0.93766126911E+02  0.12623281236E+03  0.41800000000E+01 0. -1.
         -5    1    1    2    0  502  0.44010987689E+02  0.32559650906E+01 -0.14611869144E+03  0.15269483532E+03  0.41800000000E+01 0. -1.
        -11    1    1    2    0    0 -0.22770625287E+02 -0.65283492691E+01 -0.52496708312E+02  0.57593620339E+02  0.00000000000E+00 0.  1.
         11    1    1    2    0    0  0.24226827066E+02  0.74391289133E+02 -0.36765577858E+02  0.86444842321E+02  0.00000000000E+00 0. -1.
</event>
<event>
 6    1  0.6447971E-006  0.1570804E+03  0.7561462E-02  0.1192033E+00
          1   -1    0    0  501    0  0.00000000000E+00  0.00000000000E+00  0.51860311423E+03  0.51860311423E+03  0.00000000000E+00 0. -1.
         -1   -1    0    0    0  501 -0.00000000000E+00 -0.00000000000E+00 -0.67694757310E+02  0.67694757310E+02  0.00000000000E+00 0.  1.
          5    1    1    2  502    0 -0.73550663954E+02 -0.98527753108E+02  0.44642170673E+02  0.13087327498E+03  0.41800000000E+01 0. -1.
         -5    1    1    2    0  502 -0.30673455408E+02  0.76815328100E+00  0.10928374369E+03  0.11358635465E+03  0.41800000000E+01 0. -1.
        -11    1    1    2    0    0  0.64692181613E+02  0.12079735170E+02  0.70280828107E+02  0.96282880945E+02  0.00000000000E+00 0. -1.
         11    1    1    2    0    0  0.39531937750E+02  0.85679864657E+02  0.22670161445E+03  0.24555536098E+03  0.00000000000E+00 0.  1.
</event>
<event>
 6    1  0.6447971E-006  0.1496339E+03  0.7561462E-02  0.1200924E+00
          2   -1    0    0  501    0  0.00000000000E+00  0.00000000000E+00  0.44558243001E+03  0.44558243001E+03  0.00000000000E+00 0. -1.
         -2   -1    0    0    0  501 -0.00000000000E+00 -0.00000000000E+00 -0.59259296527E+02  0.59259296527E+02  0.00000000000E+00 0.  1.
          5    1    1    2  502    0  0.62815878843E+02  0.47745466878E+02  0.10200643800E+03  0.12902809785E+03  0.41800000000E+01 0. -1.
         -5    1    1    2    0  502 -0.11362003615E+03 -0.52787739848E+02  0.83929139484E+02  0.15085632552E+03  0.41800000000E+01 0.  1.
        -11    1    1    2    0    0  0.69998151179E+01 -0.34915758683E+02  0.11932414933E+03  0.12452453666E+03  0.00000000000E+00 0.  1.
         11    1    1    2    0    0  0.43804342192E+02  0.39958031653E+02  0.81063406673E+02  0.10043276651E+03  0.00000000000E+00 0. -1.
</event>
<event>
 6    1  0.6447971E-006  0.1555467E+03  0.7561462E-02  0.1193818E+00
         -2   -1    0    0    0  501 -0.00000000000E+00  0.00000000000E+00  0.19709205208E+03  0.19709205208E+03  0.00000000000E+00 0.  1.
          2   -1    0    0  501    0  0.00000000000E+00 -0.00000000000E+00 -0.13331304133E+03  0.13331304133E+03  0.00000000000E+00 0. -1.
          5    1    1    2  502    0  0.13521406729E+03  0.31504432017E+02  0.45939334549E+02  0.14629855805E+03  0.41800000000E+01 0. -1.
         -5    1    1    2    0  502 -0.26552723214E+02  0.26961169633E+01  0.26184891208E+02  0.37622295044E+02  0.41800000000E+01 0. -1.
        -11    1    1    2    0    0 -0.12338434872E+03 -0.20513987072E+02 -0.99913642633E+00  0.12508205087E+03  0.00000000000E+00 0.  1.
         11    1    1    2    0    0  0.14723004647E+02 -0.13686561908E+02 -0.73460785779E+01  0.21402189449E+02  0.00000000000E+00 0. -1.
</event>
<event>
 6    1  0.6447971E-006  0.1817904E+03  0.7561462E-02  0.1166081E+00
         -1   -1    0    0    0  501 -0.00000000000E+00  0.00000000000E+00  0.16809246287E+03  0.16809246287E+03  0.00000000000E+00 0.  1.
          1   -1    0    0  501    0  0.00000000000E+00 -0.00000000000E+00 -0.24630621527E+03  0.24630621527E+03  0.00000000000E+00 0. -1.
          5    1    1    2  502    0  0.15309164290E+03  0.14631142073E+02  0.98481514299E+01  0.15416088976E+03  0.41800000000E+01 0. -1.
         -5    1    1    2    0  502  0.17863485333E+02  0.52806516278E+00 -0.61814320969E+02  0.64481513924E+02  0.41800000000E+01 0. -1.
        -11    1    1    2    0    0 -0.11894861534E+03  0.29811656793E+02 -0.13545092127E+01  0.12263499773E+03  0.00000000000E+00 0.  1.
         11    1    1    2    0    0 -0.52006512893E+02 -0.44970864029E+02 -0.24893073648E+02  0.73121276729E+02  0.00000000000E+00 0. -1.
</event>
<event>
 6    1  0.6447971E-006  0.1281644E+03  0.7561462E-02  0.1230205E+00
         -2   -1    0    0    0  501 -0.00000000000E+00  0.00000000000E+00  0.29167501555E+03  0.29167501555E+03  0.00000000000E+00 0.  1.
          2   -1    0    0  501    0  0.00000000000E+00 -0.00000000000E+00 -0.10267623045E+03  0.10267623045E+03  0.00000000000E+00 0. -1.
          5    1    1    2  502    0 -0.20665361532E+00  0.21938650984E+01 -0.20056523237E+02  0.20605636951E+02  0.41800000000E+01 0.  1.
         -5    1    1    2    0  502 -0.65967904976E+02  0.10482899892E+03  0.17828976796E+03  0.21713036927E+03  0.41800000000E+01 0.  1.
        -11    1    1    2    0    0  0.22702870576E+02 -0.57268858029E+02  0.58504585144E+02  0.84958395202E+02  0.00000000000E+00 0.  1.
         11    1    1    2    0    0  0.43471688015E+02 -0.49754005988E+02 -0.27739044763E+02  0.71656844580E+02  0.00000000000E+00 0. -1.
</event>
<event>
 6    1  0.6447971E-006  0.1309506E+03  0.7561462E-02  0.1226052E+00
         -1   -1    0    0    0  501 -0.00000000000E+00  0.00000000000E+00  0.24513732704E+03  0.24513732704E+03  0.00000000000E+00 0.  1.
          1   -1    0    0  501    0  0.00000000000E+00 -0.00000000000E+00 -0.94574128402E+02  0.94574128402E+02  0.00000000000E+00 0. -1.
          5    1    1    2  502    0 -0.16820703168E+02  0.36290434560E+01 -0.15106685963E+02  0.23276390877E+02  0.41800000000E+01 0.  1.
         -5    1    1    2    0  502  0.11706314254E+03 -0.35021358123E+02  0.11712196407E+03  0.16930830379E+03  0.41800000000E+01 0.  1.
        -11    1    1    2    0    0 -0.69139502382E+02  0.50329153189E+02  0.64755308855E+02  0.10726856238E+03  0.00000000000E+00 0. -1.
         11    1    1    2    0    0 -0.31102936985E+02 -0.18936838522E+02 -0.16207388328E+02  0.39858198388E+02  0.00000000000E+00 0.  1.
</event>
<event>
 6    1  0.6447971E-006  0.7503885E+02  0.7561462E-02  0.1343751E+00
         -1   -1    0    0    0  501 -0.00000000000E+00  0.00000000000E+00  0.33416032774E+02  0.33416032774E+02  0.00000000000E+00 0.  1.
          1   -1    0    0  501    0  0.00000000000E+00 -0.00000000000E+00 -0.36319435710E+03  0.36319435710E+03  0.00000000000E+00 0. -1.
          5    1    1    2  502    0  0.21106136997E+01  0.39360539950E+02 -0.17327068171E+03  0.17774675337E+03  0.41800000000E+01 0.  1.
         -5    1    1    2    0  502  0.84109810625E+01 -0.27801040691E+02  0.77175302243E+01  0.30342629067E+02  0.41800000000E+01 0.  1.
        -11    1    1    2    0    0 -0.34940224620E+02 -0.33398396418E+02 -0.49396588937E+02  0.69110745752E+02  0.00000000000E+00 0.  1.
         11    1    1    2    0    0  0.24418629857E+02  0.21838897159E+02 -0.11482858391E+03  0.11941026168E+03  0.00000000000E+00 0. -1.
</event>
<event>
 6    1  0.6447971E-006  0.1580531E+03  0.7561462E-02  0.1190913E+00
         -2   -1    0    0    0  501 -0.00000000000E+00  0.00000000000E+00  0.21409334229E+03  0.21409334229E+03  0.00000000000E+00 0.  1.
          2   -1    0    0  501    0  0.00000000000E+00 -0.00000000000E+00 -0.22857955489E+03  0.22857955489E+03  0.00000000000E+00 0. -1.
          5    1    1    2  502    0  0.11000375481E+03  0.17768906602E+02  0.11041101021E+03  0.15692234923E+03  0.41800000000E+01 0.  1.
         -5    1    1    2    0  502  0.20659850718E+02 -0.62902785201E+02  0.15742621626E+02  0.68182786342E+02  0.41800000000E+01 0.  1.
        -11    1    1    2    0    0 -0.18623396805E+02  0.72748331398E+01  0.12875615383E+02  0.23780991932E+02  0.00000000000E+00 0.  1.
         11    1    1    2    0    0 -0.11204020872E+03  0.37859045460E+02 -0.15351545983E+03  0.19378676967E+03  0.00000000000E+00 0. -1.
</event>
<event>
 6    1  0.6447971E-006  0.1188218E+03  0.7561462E-02  0.1245053E+00
          2   -1    0    0  501    0  0.00000000000E+00  0.00000000000E+00  0.27407400558E+03  0.27407400558E+03  0.00000000000E+00 0.  1.
         -2   -1    0    0    0  501 -0.00000000000E+00 -0.00000000000E+00 -0.63723062311E+02  0.63723062311E+02  0.00000000000E+00 0. -1.
          5    1    1    2  502    0 -0.39863216190E+02  0.72032747209E+01  0.50185968371E+02  0.64630232810E+02  0.41800000000E+01 0. -1.
         -5    1    1    2    0  502  0.78211811208E+02  0.47296147002E+02  0.20617407340E+02  0.93789993172E+02  0.41800000000E+01 0. -1.
        -11    1    1    2    0    0 -0.24796150421E+02  0.18651697039E+02  0.15387254678E+02  0.34633834391E+02  0.00000000000E+00 0. -1.
         11    1    1    2    0    0 -0.13552444597E+02 -0.73151118762E+02  0.12416031287E+03  0.14474300751E+03  0.00000000000E+00 0.  1.
</event>
<event>
 6    1  0.6447971E-006  0.9907747E+02  0.7561462E-02  0.1282248E+00
          1   -1    0    0  501    0  0.00000000000E+00  0.00000000000E+00  0.69907760709E+02  0.69907760709E+02  0.00000000000E+00 0. -1.
         -1   -1    0    0    0  501 -0.00000000000E+00 -0.00000000000E+00 -0.22303246312E+03  0.22303246312E+03  0.00000000000E+00 0.  1.
          5    1    1    2  502    0 -0.84246715103E+02  0.32537931685E+02 -0.10955734913E+03  0.14204404652E+03  0.41800000000E+01 0.  1.
         -5    1    1    2    0  502  0.31763042235E+02 -0.57922553003E+01  0.27464673126E+01  0.32671953663E+02  0.41800000000E+01 0.  1.
        -11    1    1    2    0    0  0.34725618524E+02 -0.40044729091E+02  0.13273294142E+02  0.54640911844E+02  0.00000000000E+00 0. -1.
         11    1    1    2    0    0  0.17758054345E+02  0.13299052706E+02 -0.59587114738E+02  0.63583311803E+02  0.00000000000E+00 0.  1.
</event>
<event>
 6    1  0.6447971E-006  0.1258668E+03  0.7561462E-02  0.1233721E+00
         -1   -1    0    0    0  501 -0.00000000000E+00  0.00000000000E+00  0.32312239799E+03  0.32312239799E+03  0.00000000000E+00 0.  1.
          1   -1    0    0  501    0  0.00000000000E+00 -0.00000000000E+00 -0.93289235726E+02  0.93289235726E+02  0.00000000000E+00 0. -1.
          5    1    1    2  502    0 -0.33768288634E-01 -0.18975471924E+02 -0.18311564730E+01  0.19516536810E+02  0.41800000000E+01 0. -1.
         -5    1    1    2    0  502 -0.18244516812E+02  0.12179480094E+03  0.22922969224E+03  0.26025095607E+03  0.41800000000E+01 0. -1.
        -11    1    1    2    0    0  0.20273022025E+02 -0.29858909083E+02 -0.38655666074E+02  0.52884878683E+02  0.00000000000E+00 0. -1.
         11    1    1    2    0    0 -0.19947369236E+01 -0.72960419937E+02  0.41090292570E+02  0.83759262152E+02  0.00000000000E+00 0.  1.
</event>
<event>
 6    1  0.6447971E-006  0.1313862E+03  0.7561462E-02  0.1225413E+00
          1   -1    0    0  501    0  0.00000000000E+00  0.00000000000E+00  0.20252206314E+03  0.20252206314E+03  0.00000000000E+00 0. -1.
         -1   -1    0    0    0  501 -0.00000000000E+00 -0.00000000000E+00 -0.13749001001E+03  0.13749001001E+03  0.00000000000E+00 0.  1.
          5    1    1    2  502    0 -0.80649862892E+02  0.34267056363E+02 -0.68184918916E+02  0.11110934751E+03  0.41800000000E+01 0. -1.
         -5    1    1    2    0  502  0.33646459287E+02  0.38621052067E+02  0.90599582401E+01  0.52184529591E+02  0.41800000000E+01 0. -1.
        -11    1    1    2    0    0  0.58836096679E+02 -0.10022667035E+02  0.43919258665E+02  0.74101561446E+02  0.00000000000E+00 0. -1.
         11    1    1    2    0    0 -0.11832693074E+02 -0.62865441395E+02  0.80237755138E+02  0.10261663460E+03  0.00000000000E+00 0.  1.
</event>
<event>
 6    1  0.6447971E-006  0.1458306E+03  0.7561462E-02  0.1205692E+00
          2   -1    0    0  501    0  0.00000000000E+00  0.00000000000E+00  0.26255770517E+03  0.26255770517E+03  0.00000000000E+00 0. -1.
         -2   -1    0    0    0  501 -0.00000000000E+00 -0.00000000000E+00 -0.12428301501E+03  0.12428301501E+03  0.00000000000E+00 0.  1.
          5    1    1    2  502    0 -0.15418279711E+02 -0.12129176874E+02 -0.27675185800E+02  0.34179359121E+02  0.41800000000E+01 0.  1.
         -5    1    1    2    0  502  0.43495130586E+02  0.13441301388E+03  0.22224076515E+02  0.14307364070E+03  0.41800000000E+01 0.  1.
        -11    1    1    2    0    0 -0.27902402821E+02 -0.44775352377E+02  0.11571232550E+03  0.12717200374E+03  0.00000000000E+00 0. -1.
         11    1    1    2    0    0 -0.17444805444E+00 -0.77508484630E+02  0.28013473946E+02  0.82415716610E+02  0.00000000000E+00 0.  1.
</event>
<event>
 6    1  0.6447971E-006  0.1630277E+03  0.7561462E-02  0.1185320E+00
         -1   -1    0    0    0  501 -0.00000000000E+00  0.00000000000E+00  0.86593545287E+02  0.86593545287E+02  0.00000000000E+00 0.  1.
          1   -1    0    0  501    0  0.00000000000E+00 -0.00000000000E+00 -0.32737951622E+03  0.32737951622E+03  0.00000000000E+00 0. -1.
          5    1    1    2  502    0 -0.82288149074E+02  0.56569927516E+02 -0.59653726448E+02  0.11639388152E+03  0.41800000000E+01 0. -1.
         -5    1    1    2    0  502 -0.41423453936E+02 -0.62373139935E+02 -0.26019271503E+02  0.79377490581E+02  0.41800000000E+01 0. -1.
        -11    1    1    2    0    0  0.60214559545E+01 -0.28023995743E+02 -0.15835696956E+02  0.32747084868E+02  0.00000000000E+00 0. -1.
         11    1    1    2    0    0  0.11769014706E+03  0.33827208163E+02 -0.13927727603E+03  0.18545460454E+03  0.00000000000E+00 0.  1.
</event>
<event>
 6    1  0.6447971E-006  0.9562950E+02  0.7561462E-02  0.1289765E+00
          2   -1    0    0  501    0  0.00000000000E+00  0.00000000000E+00  0.10247289357E+04  0.10247289357E+04  0.00000000000E+00 0. -1.
         -2   -1    0    0    0  501 -0.00000000000E+00 -0.00000000000E+00 -0.13910868309E+02  0.13910868309E+02  0.00000000000E+00 0.  1.
          5    1    1    2  502    0  0.89182009199E+01  0.38522721828E+02  0.59340461939E+02  0.71430366286E+02  0.41800000000E+01 0. -1.
         -5    1    1    2    0  502  0.38238596227E+02 -0.29281792749E+02  0.56848374187E+03  0.57053558242E+03  0.41800000000E+01 0. -1.
        -11    1    1    2    0    0 -0.56253941812E+02 -0.41327107437E+02  0.24999456003E+03  0.25955676802E+03  0.00000000000E+00 0.  1.
         11    1    1    2    0    0  0.90971446648E+01  0.32086178358E+02  0.13299930356E+03  0.13711708730E+03  0.00000000000E+00 0. -1.
</event>
<event>
 6    1  0.6447971E-006  0.1070928E+03  0.7561462E-02  0.1266050E+00
         -2   -1    0    0    0  501 -0.00000000000E+00  0.00000000000E+00  0.10454844601E+03  0.10454844601E+03  0.00000000000E+00 0.  1.
          2   -1    0    0  501    0  0.00000000000E+00 -0.00000000000E+00 -0.23056591117E+03  0.23056591117E+03  0.00000000000E+00 0. -1.
          5    1    1    2  502    0  0.66919283218E+02  0.44267783122E+02  0.52685194736E+02  0.96078245370E+02  0.41800000000E+01 0.  1.
         -5    1    1    2    0  502 -0.30241214993E+02  0.23693906339E+02 -0.34810755400E+02  0.52011473478E+02  0.41800000000E+01 0.  1.
        -11    1    1    2    0    0 -0.34639073238E+02 -0.84568966303E+01 -0.11584766161E+03  0.12121082953E+03  0.00000000000E+00 0. -1.
         11    1    1    2    0    0 -0.20389949877E+01 -0.59504792831E+02 -0.28044242890E+02  0.65813808807E+02  0.00000000000E+00 0.  1.
</event>
<event>
 6    1  0.6447971E-006  0.1448680E+03  0.7561462E-02  0.1206925E+00
         -2   -1    0    0    0  501 -0.00000000000E+00  0.00000000000E+00  0.55712400118E+02  0.55712400118E+02  0.00000000000E+00 0.  1.
          2   -1    0    0  501    0  0.00000000000E+00 -0.00000000000E+00 -0.49705744357E+03  0.49705744357E+03  0.00000000000E+00 0. -1.
          5    1    1    2  502    0  0.97914902757E+02  0.32460770701E+02 -0.14054053594E+03  0.17438504654E+03  0.41800000000E+01 0.  1.
         -5    1    1    2    0  502  0.19504119398E+02 -0.58919755010E+02 -0.30395162585E+02  0.69233564927E+02  0.41800000000E+01 0.  1.
        -11    1    1    2    0    0 -0.67727902974E+02 -0.55882054870E+00 -0.57465970711E+02  0.88824089702E+02  0.00000000000E+00 0.  1.
         11    1    1    2    0    0 -0.49691119181E+02  0.27017804858E+02 -0.21294337422E+03  0.22032714252E+03  0.00000000000E+00 0. -1.
</event>
<event>
 6    1  0.6447971E-006  0.9453513E+02  0.7561462E-02  0.1292227E+00
          2   -1    0    0  501    0  0.00000000000E+00  0.00000000000E+00  0.54091045881E+03  0.54091045881E+03  0.00000000000E+00 0. -1.
         -2   -1    0    0    0  501 -0.00000000000E+00 -0.00000000000E+00 -0.23266875187E+02  0.23266875187E+02  0.00000000000E+00 0.  1.
          5    1    1    2  502    0  0.50231379915E+02  0.12062163297E+02  0.76259580239E+02  0.92204573041E+02  0.41800000000E+01 0.  1.
         -5    1    1    2    0  502 -0.49790366674E+02 -0.23897382957E+02  0.28365369059E+03  0.28901047405E+03  0.41800000000E+01 0.  1.
        -11    1    1    2    0    0 -0.40470762753E+02  0.14308468966E+01  0.35255811108E+02  0.53692664094E+02  0.00000000000E+00 0.  1.
         11    1    1    2    0    0  0.40029749513E+02  0.10404372763E+02  0.12247450168E+03  0.12926962281E+03  0.00000000000E+00 0. -1.
</event>
<event>
 6    1  0.6447971E-006  0.1304967E+03  0.7561462E-02  0.1226721E+00
         -2   -1    0    0    0  501 -0.00000000000E+00  0.00000000000E+00  0.82936867257E+02  0.82936867257E+02  0.00000000000E+00 0.  1.
          2   -1    0    0  501    0  0.00000000000E+00 -0.00000000000E+00 -0.30244206218E+03  0.30244206218E+03  0.00000000000E+00 0. -1.
          5    1    1    2  502    0  0.54559948442E+02 -0.34467549267E+02  0.13800592720E+02  0.66126611027E+02  0.41800000000E+01 0.  1.
         -5    1    1    2    0  502  0.46637823189E+02  0.63564486574E+02 -0.73715222918E+02  0.10801359634E+03  0.41800000000E+01 0.  1.
        -11    1    1    2    0    0 -0.44810868825E+02 -0.39854065382E+02 -0.13699854118E+03  0.14954919183E+03  0.00000000000E+00 0. -1.
         11    1    1    2    0    0 -0.56386902806E+02  0.10757128075E+02 -0.22592023542E+02  0.61689530231E+02  0.00000000000E+00 0.  1.
</event>
<event>
 6    1  0.6447971E-006  0.1076013E+03  0.7561462E-02  0.1265077E+00
         -1   -1    0    0    0  501 -0.00000000000E+00  0.00000000000E+00  0.80140259839E+02  0.80140259839E+02  0.00000000000E+00 0.  1.
          1   -1    0    0  501    0  0.00000000000E+00 -0.00000000000E+00 -0.17119263919E+03  0.17119263919E+03  0.00000000000E+00 0. -1.
          5    1    1    2  502    0 -0.34894368996E+02 -0.44256791183E+02 -0.54347528080E+02  0.78405400081E+02  0.41800000000E+01 0.  1.
         -5    1    1    2    0  502 -0.62910433201E+01  0.59751607565E+02  0.10752277800E+02  0.61179373244E+02  0.41800000000E+01 0.  1.
        -11    1    1    2    0    0  0.60104919153E+02  0.15570691254E+02 -0.17178876307E+02  0.64421747288E+02  0.00000000000E+00 0.  1.
         11    1    1    2    0    0 -0.18919506837E+02 -0.31065507636E+02 -0.30278252767E+02  0.47326378419E+02  0.00000000000E+00 0. -1.
</event>
<event>
 6    1  0.6447971E-006  0.1237207E+03  0.7561462E-02  0.1237082E+00
          2   -1    0    0  501    0  0.00000000000E+00  0.00000000000E+00  0.12473268615E+04  0.12473268615E+04  0.00000000000E+00 0. -1.
         -2   -1    0    0    0  501 -0.00000000000E+00 -0.00000000000E+00 -0.18065373521E+02  0.18065373521E+02  0.00000000000E+00 0.  1.
          5    1    1    2  502    0 -0.99383994914E+02  0.23689713151E+01  0.25112187269E+03  0.27011563786E+03  0.41800000000E+01 0. -1.
         -5    1    1    2    0  502 -0.16561103455E+01  0.17796526715E+02  0.41616247474E+03  0.41656708564E+03  0.41800000000E+01 0. -1.
        -11    1    1    2    0    0  0.48007259438E+02  0.29979604285E+02  0.15012021632E+03  0.16043551035E+03  0.00000000000E+00 0.  1.
         11    1    1    2    0    0  0.53032845822E+02 -0.50145102315E+02  0.41185692427E+03  0.41827400122E+03  0.00000000000E+00 0. -1.
</event>
<event>
 6    1  0.6447971E-006  0.1267036E+03  0.7561462E-02  0.1232431E+00
          1   -1    0    0  501    0  0.00000000000E+00  0.00000000000E+00  0.39732116504E+03  0.39732116504E+03  0.00000000000E+00 0. -1.
         -1   -1    0    0    0  501 -0.00000000000E+00 -0.00000000000E+00 -0.47394858136E+02  0.47394858136E+02  0.00000000000E+00 0.  1.
          5    1    1    2  502    0 -0.45194815676E+02 -0.12452785548E+02  0.66824290464E+02  0.81734946185E+02  0.41800000000E+01 0.  1.
         -5    1    1    2    0  502  0.74835716761E+02 -0.50275125884E+02  0.51561123866E+02  0.10394226609E+03  0.41800000000E+01 0.  1.
        -11    1    1    2    0    0  0.31931433713E+02  0.62479636606E+01  0.61332098572E+02  0.69428235065E+02  0.00000000000E+00 0.  1.
         11    1    1    2    0    0 -0.61572334798E+02  0.56479947772E+02  0.17020879400E+03  0.18961057584E+03  0.00000000000E+00 0. -1.
</event>
<event>
 6    1  0.6447971E-006  0.2023551E+03  0.7561462E-02  0.1147767E+00
          2   -1    0    0  501    0  0.00000000000E+00  0.00000000000E+00  0.13235321540E+03  0.13235321540E+03  0.00000000000E+00 0.  1.
         -2   -1    0    0    0  501 -0.00000000000E+00 -0.00000000000E+00 -0.33273516055E+03  0.33273516055E+03  0.00000000000E+00 0. -1.
          5    1    1    2  502    0  0.86299172531E+02  0.32560381665E+02 -0.73724153821E+02  0.11815434351E+03  0.41800000000E+01 0.  1.
         -5    1    1    2    0  502  0.85096361218E+02 -0.86221229150E+02 -0.34580646979E+02  0.12605072231E+03  0.41800000000E+01 0.  1.
        -11    1    1    2    0    0 -0.12288477567E+03  0.58068319354E+01 -0.25541760852E+02  0.12564540953E+03  0.00000000000E+00 0.  1.
         11    1    1    2    0    0 -0.48510758079E+02  0.47854015549E+02 -0.66535383499E+02  0.95237900601E+02  0.00000000000E+00 0. -1.
</event>
<event>
 6    1  0.6447971E-006  0.1166408E+03  0.7561462E-02  0.1248744E+00
          2   -1    0    0  501    0  0.00000000000E+00  0.00000000000E+00  0.42320611523E+03  0.42320611523E+03  0.00000000000E+00 0. -1.
         -2   -1    0    0    0  501 -0.00000000000E+00 -0.00000000000E+00 -0.45643427437E+02  0.45643427437E+02  0.00000000000E+00 0.  1.
          5    1    1    2  502    0  0.48638148639E+02  0.31870994848E+02  0.45470181067E+02  0.73935374360E+02  0.41800000000E+01 0.  1.
         -5    1    1    2    0  502 -0.19892903296E+02 -0.73312481358E+02  0.43154149677E+02  0.87465424934E+02  0.41800000000E+01 0.  1.
        -11    1    1    2    0    0 -0.44931225198E+01  0.64962992474E+02  0.13550189432E+03  0.15033676166E+03  0.00000000000E+00 0.  1.
         11    1    1    2    0    0 -0.24252122823E+02 -0.23521505963E+02  0.15343646273E+03  0.15711198171E+03  0.00000000000E+00 0. -1.
</event>
<event>
 6    1  0.6447971E-006  0.2283816E+03  0.7561462E-02  0.1127784E+00
          2   -1    0    0  501    0  0.00000000000E+00  0.00000000000E+00  0.24890606553E+03  0.24890606553E+03  0.00000000000E+00 0. -1.
         -2   -1    0    0    0  501 -0.00000000000E+00 -0.00000000000E+00 -0.22144424243E+03  0.22144424243E+03  0.00000000000E+00 0.  1.
          5    1    1    2  502    0 -0.17454369213E+03 -0.11852960226E+03  0.23844530019E+02  0.21236949189E+03  0.41800000000E+01 0.  1.
         -5    1    1    2    0  502  0.19731427386E+02 -0.21531844361E+02 -0.10631885765E+02  0.31360148966E+02  0.41800000000E+01 0.  1.
        -11    1    1    2    0    0  0.17297206214E+02  0.47282961525E+02 -0.24913513333E+02  0.56174326342E+02  0.00000000000E+00 0.  1.
         11    1    1    2    0    0  0.13751505853E+03  0.92778485095E+02  0.39162692181E+02  0.17044634076E+03  0.00000000000E+00 0. -1.
</event>
<event>
 6    1  0.6447971E-006  0.1817766E+03  0.7561462E-02  0.1166095E+00
          1   -1    0    0  501    0  0.00000000000E+00  0.00000000000E+00  0.84999681050E+03  0.84999681050E+03  0.00000000000E+00 0. -1.
         -1   -1    0    0    0  501 -0.00000000000E+00 -0.00000000000E+00 -0.44611828574E+02  0.44611828574E+02  0.00000000000E+00 0.  1.
          5    1    1    2  502    0  0.10722787336E+03  0.97258518281E+02  0.38550321353E+03  0.41180970878E+03  0.41800000000E+01 0.  1.
         -5    1    1    2    0  502 -0.11032095651E+02  0.31659044454E+02  0.13834775621E+02  0.36508569497E+02  0.41800000000E+01 0.  1.
        -11    1    1    2    0    0 -0.36140569592E+02 -0.11862838331E+03  0.28326106532E+03  0.30921782811E+03  0.00000000000E+00 0. -1.
         11    1    1    2    0    0 -0.60055208119E+02 -0.10289179430E+02  0.12278592746E+03  0.13707253269E+03  0.00000000000E+00 0.  1.
</event>
<event>
 6    1  0.6447971E-006  0.8169027E+02  0.7561462E-02  0.1324322E+00
          2   -1    0    0  501    0  0.00000000000E+00  0.00000000000E+00  0.47191133982E+03  0.47191133982E+03  0.00000000000E+00 0. -1.
         -2   -1    0    0    0  501 -0.00000000000E+00 -0.00000000000E+00 -0.29013444917E+02  0.29013444917E+02  0.00000000000E+00 0.  1.
          5    1    1    2  502    0  0.52968961718E+02  0.12728207192E+02  0.18350664485E+03  0.19146769771E+03  0.41800000000E+01 0.  1.
         -5    1    1    2    0  502 -0.23382172921E+02 -0.25826174494E+02  0.27230530910E+01  0.35193816468E+02  0.41800000000E+01 0.  1.
        -11    1    1    2    0    0  0.21442698844E+02  0.33403111095E+01  0.13391023481E+02  0.25500323956E+02  0.00000000000E+00 0.  1.
         11    1    1    2    0    0 -0.51029487641E+02  0.97576561928E+01  0.24327717348E+03  0.24876294660E+03  0.00000000000E+00 0. -1.
</event>
<event>
 6    1  0.6447971E-006  0.1097802E+03  0.7561462E-02  0.1260977E+00
         -1   -1    0    0    0  501 -0.00000000000E+00  0.00000000000E+00  0.22650203069E+03  0.22650203069E+03  0.00000000000E+00 0.  1.
          1   -1    0    0  501    0  0.00000000000E+00 -0.00000000000E+00 -0.56326624483E+02  0.56326624483E+02  0.00000000000E+00 0. -1.
          5    1    1    2  502    0  0.45468388283E+02 -0.38546832237E+01  0.20736623625E+02  0.50296251105E+02  0.41800000000E+01 0. -1.
         -5    1    1    2    0  502 -0.71042535930E+02  0.15941931870E+02  0.54763655127E+02  0.91201520962E+02  0.41800000000E+01 0.  1.
        -11    1    1    2    0    0  0.59922835247E+02  0.88636458660E+01  0.75398738056E+02  0.96717527380E+02  0.00000000000E+00 0. -1.
         11    1    1    2    0    0 -0.34348687600E+02 -0.20950894512E+02  0.19276389399E+02  0.44613355724E+02  0.00000000000E+00 0.  1.
</event>
<event>
 6    1  0.6447971E-006  0.1596580E+03  0.7561462E-02  0.1189083E+00
          2   -1    0    0  501    0  0.00000000000E+00  0.00000000000E+00  0.70924167454E+03  0.70924167454E+03  0.00000000000E+00 0.  1.
         -2   -1    0    0    0  501 -0.00000000000E+00 -0.00000000000E+00 -0.49535614025E+02  0.49535614025E+02  0.00000000000E+00 0. -1.
          5    1    1    2  502    0 -0.21615903636E+02 -0.84049812853E+00 -0.93741251528E+01  0.23943691225E+02  0.41800000000E+01 0. -1.
         -5    1    1    2    0  502 -0.38459572121E+02  0.12925306765E+03  0.22961287188E+03  0.26631755015E+03  0.41800000000E+01 0. -1.
        -11    1    1    2    0    0  0.78925947221E+02 -0.11391114564E+03  0.37129963123E+03  0.39631864755E+03  0.00000000000E+00 0.  1.
         11    1    1    2    0    0 -0.18850471464E+02 -0.14501423882E+02  0.68167682551E+02  0.72197399630E+02  0.00000000000E+00 0. -1.
</event>
<event>
 6    1  0.6447971E-006  0.1193537E+03  0.7561462E-02  0.1244167E+00
          1   -1    0    0  501    0  0.00000000000E+00  0.00000000000E+00  0.81488809210E+03  0.81488809210E+03  0.00000000000E+00 0. -1.
         -1   -1    0    0    0  501 -0.00000000000E+00 -0.00000000000E+00 -0.18954573493E+02  0.18954573493E+02  0.00000000000E+00 0.  1.
          5    1    1    2  502    0  0.24841246222E+02 -0.46855529648E+02  0.22274590150E+03  0.22901034301E+03  0.41800000000E+01 0. -1.
         -5    1    1    2    0  502  0.25345787697E+02  0.72606101719E+02  0.15958407195E+03  0.17719651063E+03  0.41800000000E+01 0. -1.
        -11    1    1    2    0    0 -0.22901208543E+01 -0.53226058067E+02  0.21453547958E+03  0.22105141916E+03  0.00000000000E+00 0.  1.
         11    1    1    2    0    0 -0.47896913065E+02  0.27475485996E+02  0.19906806558E+03  0.20658439279E+03  0.00000000000E+00 0. -1.
</event>
<event>
 6    1  0.6447971E-006  0.1066729E+03  0.7561462E-02  0.1266858E+00
         -1   -1    0    0    0  501 -0.00000000000E+00  0.00000000000E+00  0.40203704054E+02  0.40203704054E+02  0.00000000000E+00 0.  1.
          1   -1    0    0  501    0  0.00000000000E+00 -0.00000000000E+00 -0.44222176646E+03  0.44222176646E+03  0.00000000000E+00 0. -1.
          5    1    1    2  502    0  0.32126250785E+02 -0.44966562105E+02 -0.78963267425E+02  0.96471538287E+02  0.41800000000E+01 0. -1.
         -5    1    1    2    0  502 -0.13330231971E+02  0.66080029250E+02 -0.23175757219E+02  0.71406256538E+02  0.41800000000E+01 0.  1.
        -11    1    1    2    0    0 -0.41249590733E+02  0.18218541016E+02 -0.10152774247E+03  0.11109152291E+03  0.00000000000E+00 0.  1.
         11    1    1    2    0    0  0.22453571919E+02 -0.39332008161E+02 -0.19835129529E+03  0.20345615277E+03  0.00000000000E+00 0. -1.
</event>
<event>
 6    1  0.6447971E-006  0.3030935E+03  0.7561462E-02  0.1083704E+00
          1   -1    0    0  501    0  0.00000000000E+00  0.00000000000E+00  0.68585809901E+03  0.68585809901E+03  0.00000000000E+00 0. -1.
         -1   -1    0    0    0  501 -0.00000000000E+00 -0.00000000000E+00 -0.14061952331E+03  0.14061952331E+03  0.00000000000E+00 0.  1.
          5    1    1    2  502    0  0.12276488000E+03  0.12653637467E+03  0.17590486562E+03  0.24908364865E+03  0.41800000000E+01 0. -1.
         -5    1    1    2    0  502  0.12950930776E+03  0.13866283738E+02  0.56222506179E+02  0.14192736601E+03  0.41800000000E+01 0. -1.
        -11    1    1    2    0    0 -0.46920803257E+02 -0.66258308003E+02  0.11416505626E+03  0.14009063220E+03  0.00000000000E+00 0. -1.
         11    1    1    2    0    0 -0.20535338450E+03 -0.74144350403E+02  0.19894614764E+03  0.29537597547E+03  0.00000000000E+00 0.  1.
</event>
<event>
 6    1  0.6447971E-006  0.1044888E+03  0.7561462E-02  0.1271130E+00
         -1   -1    0    0    0  501 -0.00000000000E+00  0.00000000000E+00  0.36584949283E+02  0.36584949283E+02  0.00000000000E+00 0.  1.
          1   -1    0    0  501    0  0.00000000000E+00 -0.00000000000E+00 -0.58605537221E+03  0.58605537221E+03  0.00000000000E+00 0. -1.
          5    1    1    2  502    0  0.19817798576E+02 -0.16601442653E+02 -0.18442400146E+03  0.18627409308E+03  0.41800000000E+01 0. -1.
         -5    1    1    2    0  502  0.68515112308E+01 -0.70089910018E+02 -0.26876396831E+02  0.75494051415E+02  0.41800000000E+01 0. -1.
        -11    1    1    2    0    0 -0.48965804337E+02  0.58014260175E+02 -0.29420599452E+03  0.30384284028E+03  0.00000000000E+00 0. -1.
         11    1    1    2    0    0  0.22296494531E+02  0.28677092496E+02 -0.43964030113E+02  0.57029336715E+02  0.00000000000E+00 0.  1.
</event>
<event>
 6    1  0.6447971E-006  0.9765950E+02  0.7561462E-02  0.1285296E+00
          1   -1    0    0  501    0  0.00000000000E+00  0.00000000000E+00  0.65085958691E+03  0.65085958691E+03  0.00000000000E+00 0. -1.
         -1   -1    0    0    0  501 -0.00000000000E+00 -0.00000000000E+00 -0.20822921296E+02  0.20822921296E+02  0.00000000000E+00 0.  1.
          5    1    1    2  502    0 -0.54388854799E+02 -0.39961909777E+02  0.85075734651E+02  0.10867591631E+03  0.41800000000E+01 0.  1.
         -5    1    1    2    0  502  0.33990315960E+02  0.13596695408E+02  0.21498338009E+03  0.21811817398E+03  0.41800000000E+01 0.  1.
        -11    1    1    2    0    0  0.53037406258E+02  0.23737041522E+02  0.13203137827E+03  0.14425220432E+03  0.00000000000E+00 0. -1.
         11    1    1    2    0    0 -0.32638867419E+02  0.26281728466E+01  0.19794617260E+03  0.20063621359E+03  0.00000000000E+00 0.  1.
</event>
<event>
 6    1  0.6447971E-006  0.1485170E+03  0.7561462E-02  0.1202307E+00
          4   -1    0    0  501    0  0.00000000000E+00  0.00000000000E+00  0.10246461791E+03  0.10246461791E+03  0.00000000000E+00 0.  1.
         -4   -1    0    0    0  501 -0.00000000000E+00 -0.00000000000E+00 -0.22064251034E+03  0.22064251034E+03  0.00000000000E+00 0. -1.
          5    1    1    2  502    0 -0.33212267559E+02 -0.63148296982E+02 -0.32991859476E+02  0.78719103906E+02  0.41800000000E+01 0. -1.
         -5    1    1    2    0  502  0.85387150854E+02 -0.25188114818E+02 -0.18142840927E+02  0.90950765450E+02  0.41800000000E+01 0. -1.
        -11    1    1    2    0    0  0.25878447441E+02  0.23859434826E+02 -0.75132576280E+01  0.35991883979E+02  0.00000000000E+00 0.  1.
         11    1    1    2    0    0 -0.78053330736E+02  0.64476976973E+02 -0.59529934407E+02  0.11744537492E+03  0.00000000000E+00 0. -1.
</event>
<event>
 6    1  0.6447971E-006  0.1596706E+03  0.7561462E-02  0.1189069E+00
         -2   -1    0    0    0  501 -0.00000000000E+00  0.00000000000E+00  0.96973478941E+02  0.96973478941E+02  0.00000000000E+00 0.  1.
          2   -1    0    0  501    0  0.00000000000E+00 -0.00000000000E+00 -0.31570506606E+03  0.31570506606E+03  0.00000000000E+00 0. -1.
          5    1    1    2  502    0  0.76568350541E+02  0.78970154261E+02 -0.36224809225E+02  0.11588229706E+03  0.41800000000E+01 0.  1.
         -5    1    1    2    0  502  0.50265078009E+02 -0.48873183943E+02 -0.33677064678E+02  0.77889558102E+02  0.41800000000E+01 0.  1.
        -11    1    1    2    0    0 -0.87882454024E+02  0.29802201984E+01 -0.14245685385E+03  0.16741016291E+03  0.00000000000E+00 0. -1.
         11    1    1    2    0    0 -0.38950974526E+02 -0.33077190517E+02 -0.63728593684E+01  0.51496526927E+02  0.00000000000E+00 0.  1.
</event>
<event>
 6    1  0.6447971E-006  0.7861585E+02  0.7561462E-02  0.1333026E+00
          2   -1    0    0  501    0  0.00000000000E+00  0.00000000000E+00  0.16774086631E+03  0.16774086631E+03  0.00000000000E+00 0. -1.
         -2   -1    0    0    0  501 -0.00000000000E+00 -0.00000000000E+00 -0.62971235634E+02  0.62971235634E+02  0.00000000000E+00 0.  1.
          5    1    1    2  502    0 -0.11496869765E+02  0.32204109589E+02  0.75568657372E+02  0.83050448920E+02  0.41800000000E+01 0.  1.
         -5    1    1    2    0  502 -0.38744595464E+02 -0.39877245777E+02 -0.25026878189E+02  0.61115918060E+02  0.41800000000E+01 0.  1.
        -11    1    1    2    0    0  0.73349199479E+00 -0.13255523611E+02  0.70694351849E+01  0.15040739029E+02  0.00000000000E+00 0.  1.
         11    1    1    2    0    0  0.49507973234E+02  0.20928659799E+02  0.47158416306E+02  0.71504995932E+02  0.00000000000E+00 0. -1.
</event>
<event>
 6    1  0.6447971E-006  0.1026640E+03  0.7561462E-02  0.1274792E+00
         -2   -1    0    0    0  501 -0.00000000000E+00  0.00000000000E+00  0.32792236990E+02  0.32792236990E+02  0.00000000000E+00 0.  1.
          2   -1    0    0  501    0  0.00000000000E+00 -0.00000000000E+00 -0.51128156346E+03  0.51128156346E+03  0.00000000000E+00 0. -1.
          5    1    1    2  502    0 -0.35681809783E+02 -0.57203394633E+02 -0.75712105764E+02  0.10146534022E+03  0.41800000000E+01 0. -1.
         -5    1    1    2    0  502  0.70641719773E+02  0.40595706651E+01 -0.11981466962E+03  0.13921120696E+03  0.41800000000E+01 0. -1.
        -11    1    1    2    0    0 -0.11013751964E+02  0.31357340312E+01  0.32180367720E+01  0.11895012439E+02  0.00000000000E+00 0.  1.
         11    1    1    2    0    0 -0.23946158025E+02  0.50008089937E+02 -0.28618058786E+03  0.29150224083E+03  0.00000000000E+00 0. -1.
</event>
<event>
 6    1  0.6447971E-006  0.9962394E+02  0.7561462E-02  0.1281089E+00
         -2   -1    0    0    0  501 -0.00000000000E+00  0.00000000000E+00  0.30379135157E+03  0.30379135157E+03  0.00000000000E+00 0.  1.
          2   -1    0    0  501    0  0.00000000000E+00 -0.00000000000E+00 -0.47280183744E+02  0.47280183744E+02  0.00000000000E+00 0. -1.
          5    1    1    2  502    0 -0.49379004460E+02  0.10757777180E+02  0.56994745921E+02  0.76288199047E+02  0.41800000000E+01 0. -1.
         -5    1    1    2    0  502  0.71656453480E+02 -0.54033169983E+01  0.15560501244E+03  0.17144747142E+03  0.41800000000E+01 0. -1.
        -11    1    1    2    0    0 -0.45332589551E+02  0.12919551875E+02  0.54511260108E+02  0.72065497809E+02  0.00000000000E+00 0.  1.
         11    1    1    2    0    0  0.23055140530E+02 -0.18274012057E+02 -0.10599850636E+02  0.31270367043E+02  0.00000000000E+00 0. -1.
</event>
<event>
 6    1  0.6447971E-006  0.1278023E+03  0.7561462E-02  0.1230754E+00
          1   -1    0    0  501    0  0.00000000000E+00  0.00000000000E+00  0.55326074808E+03  0.55326074808E+03  0.00000000000E+00 0. -1.
         -1   -1    0    0    0  501 -0.00000000000E+00 -0.00000000000E+00 -0.45652544413E+02  0.45652544413E+02  0.00000000000E+00 0.  1.
          5    1    1    2  502    0  0.93491996555E+02  0.22193034247E+02  0.78426940822E+02  0.12410294773E+03  0.41800000000E+01 0. -1.
         -5    1    1    2    0  502 -0.14314110609E+02 -0.36486796417E+02  0.12990717547E+02  0.41501942337E+02  0.41800000000E+01 0.  1.
        -11    1    1    2    0    0  0.18819784513E+02 -0.63438896498E+01  0.54363358067E+02  0.57877490662E+02  0.00000000000E+00 0.  1.
         11    1    1    2    0    0 -0.97997670459E+02  0.20637651820E+02  0.36182718723E+03  0.37543091176E+03  0.00000000000E+00 0. -1.
</event>
<event>
 6    1  0.6447971E-006  0.7641145E+03  0.7561462E-02  0.9613464E-01
          2   -1    0    0  501    0  0.00000000000E+00  0.00000000000E+00  0.12580576225E+04  0.12580576225E+04  0.00000000000E+00 0. -1.
         -2   -1    0    0    0  501 -0.00000000000E+00 -0.00000000000E+00 -0.47189501205E+03  0.47189501205E+03  0.00000000000E+00 0.  1.
          5    1    1    2  502    0  0.65735226640E+03 -0.25343614727E+03  0.28683642464E+03  0.76068028092E+03  0.41800000000E+01 0. -1.
         -5    1    1    2    0  502 -0.66648846646E+03  0.28398753811E+03  0.39709059907E+03  0.82616839325E+03  0.41800000000E+01 0.  1.
        -11    1    1    2    0    0 -0.22323185012E+02  0.26146031669E+02  0.44893670332E+02  0.56545390590E+02  0.00000000000E+00 0.  1.
         11    1    1    2    0    0  0.31459385076E+02 -0.56697422507E+02  0.57341916410E+02  0.86558569800E+02  0.00000000000E+00 0. -1.
</event>
<event>
 6    1  0.6447971E-006  0.1180112E+03  0.7561462E-02  0.1246414E+00
         -2   -1    0    0    0  501 -0.00000000000E+00  0.00000000000E+00  0.24882324257E+03  0.24882324257E+03  0.00000000000E+00 0.  1.
          2   -1    0    0  501    0  0.00000000000E+00 -0.00000000000E+00 -0.67725261326E+02  0.67725261326E+02  0.00000000000E+00 0. -1.
          5    1    1    2  502    0 -0.35749153379E+01 -0.51468048357E+02  0.64742956023E+02  0.82890667605E+02  0.41800000000E+01 0.  1.
         -5    1    1    2    0  502  0.63425753550E+02  0.59037740138E+02  0.88755508736E+02  0.12411000647E+03  0.41800000000E+01 0.  1.
        -11    1    1    2    0    0 -0.11083405192E+02 -0.38297715347E+02  0.32862416691E+02  0.51667158836E+02  0.00000000000E+00 0.  1.
         11    1    1    2    0    0 -0.48767433020E+02  0.30728023567E+02 -0.52629002056E+01  0.57880670990E+02  0.00000000000E+00 0. -1.
</event>
<event>
 6    1  0.6447971E-006  0.1208346E+03  0.7561462E-02  0.1241726E+00
         -1   -1    0    0    0  501 -0.00000000000E+00  0.00000000000E+00  0.25525766597E+03  0.25525766597E+03  0.00000000000E+00 0.  1.
          1   -1    0    0  501    0  0.00000000000E+00 -0.00000000000E+00 -0.66418088548E+02  0.66418088548E+02  0.00000000000E+00 0. -1.
          5    1    1    2  502    0  0.33759687836E+02  0.71090308764E+02  0.45163447859E+02  0.90833682879E+02  0.41800000000E+01 0. -1.
         -5    1    1    2    0  502 -0.53714952180E+02 -0.20257462980E+02  0.38761861608E+02  0.69394633866E+02  0.41800000000E+01 0. -1.
        -11    1    1    2    0    0  0.55038469067E+02 -0.41686791125E+02  0.10442754242E+03  0.12518839102E+03  0.00000000000E+00 0.  1.
         11    1    1    2    0    0 -0.35083204724E+02 -0.91460546591E+01  0.48672553827E+00  0.36259046751E+02  0.00000000000E+00 0. -1.
</event>
<event>
 6    1  0.6447971E-006  0.1249790E+03  0.7561462E-02  0.1235102E+00
          2   -1    0    0  501    0  0.00000000000E+00  0.00000000000E+00  0.63037725607E+02  0.63037725607E+02  0.00000000000E+00 0. -1.
         -2   -1    0    0    0  501 -0.00000000000E+00 -0.00000000000E+00 -0.28897639027E+03  0.28897639027E+03  0.00000000000E+00 0.  1.
          5    1    1    2  502    0 -0.10985605553E+03  0.11842785591E+02 -0.10397831187E+03  0.15178131060E+03  0.41800000000E+01 0.  1.
         -5    1    1    2    0  502  0.34349668500E+02  0.29406560897E+01 -0.51238636147E+02  0.61898444395E+02  0.41800000000E+01 0.  1.
        -11    1    1    2    0    0 -0.14019680741E+02 -0.75476755975E+00  0.97899298941E+01  0.17116186768E+02  0.00000000000E+00 0. -1.
         11    1    1    2    0    0  0.89526067769E+02 -0.14028674120E+02 -0.80511646536E+02  0.12121817411E+03  0.00000000000E+00 0.  1.
</event>
<event>
 6    1  0.6447971E-006  0.1027600E+03  0.7561462E-02  0.1274597E+00
          4   -1    0    0  501    0  0.00000000000E+00  0.00000000000E+00  0.47002076281E+03  0.47002076281E+03  0.00000000000E+00 0. -1.
         -4   -1    0    0    0  501 -0.00000000000E+00 -0.00000000000E+00 -0.36474346452E+02  0.36474346452E+02  0.00000000000E+00 0.  1.
          5    1    1    2  502    0  0.16112322590E+02  0.68324801844E+02  0.31578720271E+02  0.77088088965E+02  0.41800000000E+01 0. -1.
         -5    1    1    2    0  502 -0.18678008964E+02 -0.23421208958E+01  0.15943115210E+03  0.16059302042E+03  0.41800000000E+01 0. -1.
        -11    1    1    2    0    0 -0.44044996224E+02 -0.50014499465E+02  0.14055581709E+03  0.15555497281E+03  0.00000000000E+00 0.  1.
         11    1    1    2    0    0  0.46610682598E+02 -0.15968181484E+02  0.10198072690E+03  0.11325902706E+03  0.00000000000E+00 0. -1.
</event>
<event>
 6    1  0.6447971E-006  0.8296574E+02  0.7561462E-02  0.1320840E+00
          1   -1    0    0  501    0  0.00000000000E+00  0.00000000000E+00  0.54805888820E+03  0.54805888820E+03  0.00000000000E+00 0. -1.
         -1   -1    0    0    0  501 -0.00000000000E+00 -0.00000000000E+00 -0.24371095413E+02  0.24371095413E+02  0.00000000000E+00 0.  1.
          5    1    1    2  502    0 -0.77536885368E+01 -0.48883510438E+02  0.21706857032E+03  0.22267903786E+03  0.41800000000E+01 0. -1.
         -5    1    1    2    0  502 -0.26194695048E+02  0.44671253219E+02  0.41149801957E+02  0.66275647970E+02  0.41800000000E+01 0. -1.
        -11    1    1    2    0    0 -0.13078691276E+02 -0.84927490973E+01  0.22136775633E+01  0.15750533993E+02  0.00000000000E+00 0.  1.
         11    1    1    2    0    0  0.47027074860E+02  0.12705006316E+02  0.26325574295E+03  0.26772476380E+03  0.00000000000E+00 0. -1.
</event>
<event>
 6    1  0.6447971E-006  0.8075102E+02  0.7561462E-02  0.1326934E+00
         -1   -1    0    0    0  501 -0.00000000000E+00  0.00000000000E+00  0.82002014929E+03  0.82002014929E+03  0.00000000000E+00 0.  1.
          1   -1    0    0  501    0  0.00000000000E+00 -0.00000000000E+00 -0.20199461445E+02  0.20199461445E+02  0.00000000000E+00 0. -1.
          5    1    1    2  502    0  0.52882678727E+01 -0.31797954224E+02  0.41521996323E+03  0.41649029512E+03  0.41800000000E+01 0.  1.
         -5    1    1    2    0  502  0.56707400432E+02  0.19425073407E+02  0.93189552368E+02  0.11088204458E+03  0.41800000000E+01 0.  1.
        -11    1    1    2    0    0 -0.43440375357E+02  0.21228069912E+02  0.28797069886E+03  0.29200140508E+03  0.00000000000E+00 0.  1.
         11    1    1    2    0    0 -0.18555292947E+02 -0.88551890947E+01  0.34404733909E+01  0.20845865955E+02  0.00000000000E+00 0. -1.
</event>
<event>
 6    1  0.6447971E-006  0.1152800E+03  0.7561462E-02  0.1251093E+00
          1   -1    0    0  501    0  0.00000000000E+00  0.00000000000E+00  0.12453331576E+03  0.12453331576E+03  0.00000000000E+00 0. -1.
         -1   -1    0    0    0  501 -0.00000000000E+00 -0.00000000000E+00 -0.11293300631E+03  0.11293300631E+03  0.00000000000E+00 0.  1.
          5    1    1    2  502    0 -0.29009270827E+02  0.51333395523E+02  0.16804974427E+02  0.61453517843E+02  0.41800000000E+01 0.  1.
         -5    1    1    2    0  502 -0.13837017540E+02 -0.69706212575E+02 -0.11661578597E+02  0.72137950771E+02  0.41800000000E+01 0.  1.
        -11    1    1    2    0    0  0.17748385394E+02 -0.36131055485E+02 -0.10343364325E+02  0.41562525671E+02  0.00000000000E+00 0.  1.
         11    1    1    2    0    0  0.25097902972E+02  0.54503872538E+02  0.16800277948E+02  0.62312327788E+02  0.00000000000E+00 0. -1.
</event>
<event>
 6    1  0.6447971E-006  0.1039603E+03  0.7561462E-02  0.1272182E+00
         -2   -1    0    0    0  501 -0.00000000000E+00  0.00000000000E+00  0.64574686406E+03  0.64574686406E+03  0.00000000000E+00 0.  1.
          2   -1    0    0  501    0  0.00000000000E+00 -0.00000000000E+00 -0.20770277552E+02  0.20770277552E+02  0.00000000000E+00 0. -1.
          5    1    1    2  502    0 -0.56617842257E+02 -0.67321670676E+01  0.15050835868E+03  0.16100043654E+03  0.41800000000E+01 0.  1.
         -5    1    1    2    0  502  0.56790077991E+02  0.47715978593E+02  0.21826250068E+03  0.23056001209E+03  0.41800000000E+01 0.  1.
        -11    1    1    2    0    0 -0.12409494434E+02 -0.55845006317E+02  0.24714562815E+03  0.25368015649E+03  0.00000000000E+00 0.  1.
         11    1    1    2    0    0  0.12237258700E+02  0.14861194792E+02  0.90600990005E+01  0.21276536491E+02  0.00000000000E+00 0. -1.
</event>
<event>
 6    1  0.6447971E-006  0.1088289E+03  0.7561462E-02  0.1262754E+00
         -2   -1    0    0    0  501 -0.00000000000E+00  0.00000000000E+00  0.30557344269E+03  0.30557344269E+03  0.00000000000E+00 0. -1.
          2   -1    0    0  501    0  0.00000000000E+00 -0.00000000000E+00 -0.62997207954E+02  0.62997207954E+02  0.00000000000E+00 0.  1.
          5    1    1    2  502    0 -0.69081472620E+02 -0.27143620124E+02  0.19160856366E+03  0.20552454851E+03  0.41800000000E+01 0. -1.
         -5    1    1    2    0  502  0.46300895279E+02 -0.21857376176E+01  0.45319984731E+02  0.64960940330E+02  0.41800000000E+01 0. -1.
        -11    1    1    2    0    0 -0.30415073235E+02  0.31168372430E+02 -0.48953936278E+01  0.43823612341E+02  0.00000000000E+00 0.  1.
         11    1    1    2    0    0  0.53195650576E+02 -0.18390146888E+01  0.10543079978E+02  0.54261549468E+02  0.00000000000E+00 0. -1.
</event>
<event>
 6    1  0.6447971E-006  0.9257433E+02  0.7561462E-02  0.1296735E+00
         -2   -1    0    0    0  501 -0.00000000000E+00  0.00000000000E+00  0.11609888221E+03  0.11609888221E+03  0.00000000000E+00 0.  1.
          2   -1    0    0  501    0  0.00000000000E+00 -0.00000000000E+00 -0.16966056437E+03  0.16966056437E+03  0.00000000000E+00 0. -1.
          5    1    1    2  502    0  0.31146055242E+02  0.60325853055E+01 -0.38079163908E+02  0.49738958237E+02  0.41800000000E+01 0. -1.
         -5    1    1    2    0  502 -0.11920554435E+02 -0.55881809535E+02  0.76665383341E+02  0.95707521427E+02  0.41800000000E+01 0.  1.
        -11    1    1    2    0    0  0.13164104606E+02 -0.17043857496E+02  0.49608967363E+00  0.21541421341E+02  0.00000000000E+00 0.  1.
         11    1    1    2    0    0 -0.32389605413E+02  0.66893081726E+02 -0.92643991267E+02  0.11877154558E+03  0.00000000000E+00 0. -1.
</event>
<event>
 6    1  0.1141341E-005  0.2893200E+03  0.7561462E-02  0.1090705E+00
          2   -1    0    0  501    0  0.00000000000E+00  0.00000000000E+00  0.11492683344E+04  0.11492683344E+04  0.00000000000E+00 0. -1.
         -2   -1    0    0    0  501 -0.00000000000E+00 -0.00000000000E+00 -0.79624075746E+02  0.79624075746E+02  0.00000000000E+00 0.  1.
          5    1    1    2  502    0  0.25173653953E+03  0.73576272002E+02  0.35302527051E+03  0.43980571523E+03  0.41800000000E+01 0.  1.
         -5    1    1    2    0  502  0.22394148011E+02 -0.31245861049E+02  0.86707668439E+02  0.94939422076E+02  0.41800000000E+01 0.  1.
        -11    1    1    2    0    0 -0.10748536799E+03 -0.22872403737E+02  0.15142349812E+03  0.18709710571E+03  0.00000000000E+00 0.  1.
         11    1    1    2    0    0 -0.16664531955E+03 -0.19458007215E+02  0.47848782161E+03  0.50705016715E+03  0.00000000000E+00 0. -1.
</event>
<event>
 6    1  0.6447971E-006  0.3105805E+03  0.7561462E-02  0.1080068E+00
         -1   -1    0    0    0  501 -0.00000000000E+00  0.00000000000E+00  0.12663417452E+03  0.12663417452E+03  0.00000000000E+00 0.  1.
          1   -1    0    0  501    0  0.00000000000E+00 -0.00000000000E+00 -0.81516260881E+03  0.81516260881E+03  0.00000000000E+00 0. -1.
          5    1    1    2  502    0  0.20248156999E+02  0.10675742229E+03 -0.50336243279E+02  0.11982631123E+03  0.41800000000E+01 0. -1.
         -5    1    1    2    0  502 -0.73258350224E+02  0.18941545249E+03 -0.26216301062E+03  0.33165029181E+03  0.41800000000E+01 0. -1.
        -11    1    1    2    0    0  0.50715585307E+01 -0.21468826176E+03 -0.21689589729E+03  0.30522221529E+03  0.00000000000E+00 0.  1.
         11    1    1    2    0    0  0.47938634694E+02 -0.81484613022E+02 -0.15913328310E+03  0.18509796499E+03  0.00000000000E+00 0. -1.
</event>
<event>
 6    1  0.6447971E-006  0.9239553E+02  0.7561462E-02  0.1297152E+00
          3   -1    0    0  501    0  0.00000000000E+00  0.00000000000E+00  0.21515105459E+03  0.21515105459E+03  0.00000000000E+00 0. -1.
         -3   -1    0    0    0  501 -0.00000000000E+00 -0.00000000000E+00 -0.63556145615E+02  0.63556145615E+02  0.00000000000E+00 0.  1.
          5    1    1    2  502    0 -0.61955101907E+02 -0.14694151841E+02  0.11424270570E+03  0.13085572573E+03  0.41800000000E+01 0.  1.
         -5    1    1    2    0  502  0.25071089674E+02 -0.12831556129E+02 -0.17877314805E+02  0.33619624548E+02  0.41800000000E+01 0.  1.
        -11    1    1    2    0    0  0.40646639792E+02 -0.19674435707E+02  0.48731997850E+02  0.66438244718E+02  0.00000000000E+00 0. -1.
         11    1    1    2    0    0 -0.37626275591E+01  0.47200143677E+02  0.64975202254E+01  0.47793605204E+02  0.00000000000E+00 0.  1.
</event>
<event>
 6    1  0.6447971E-006  0.8765560E+02  0.7561462E-02  0.1308630E+00
          1   -1    0    0  501    0  0.00000000000E+00  0.00000000000E+00  0.16414136823E+03  0.16414136823E+03  0.00000000000E+00 0. -1.
         -1   -1    0    0    0  501 -0.00000000000E+00 -0.00000000000E+00 -0.10851548635E+03  0.10851548635E+03  0.00000000000E+00 0.  1.
          5    1    1    2  502    0  0.59985618307E+01  0.63087450068E+02 -0.67834652486E+01  0.63870939408E+02  0.41800000000E+01 0.  1.
         -5    1    1    2    0  502 -0.11119494270E+02 -0.55596358272E+02 -0.42078199563E+02  0.70729382044E+02  0.41800000000E+01 0.  1.
        -11    1    1    2    0    0  0.70909280854E+01  0.23167506923E+02 -0.46559048347E+01  0.24671685957E+02  0.00000000000E+00 0.  1.
         11    1    1    2    0    0 -0.19699956461E+01 -0.30658598718E+02  0.10914345152E+03  0.11338484717E+03  0.00000000000E+00 0. -1.
</event>
<event>
 6    1  0.6447971E-006  0.2247241E+03  0.7561462E-02  0.1130409E+00
         -1   -1    0    0    0  501 -0.00000000000E+00  0.00000000000E+00  0.43602137706E+03  0.43602137706E+03  0.00000000000E+00 0.  1.
          1   -1    0    0  501    0  0.00000000000E+00 -0.00000000000E+00 -0.14479341164E+03  0.14479341164E+03  0.00000000000E+00 0. -1.
          5    1    1    2  502    0  0.18554878846E+03 -0.28342735831E+02  0.17814789208E+03  0.25881616531E+03  0.41800000000E+01 0.  1.
         -5    1    1    2    0  502  0.42515053387E+01 -0.46355321749E+02  0.83881782200E+02  0.96023522832E+02  0.41800000000E+01 0.  1.
        -11    1    1    2    0    0 -0.11485515908E+03  0.79782432310E+02 -0.11896907633E+02  0.14035127532E+03  0.00000000000E+00 0. -1.
         11    1    1    2    0    0 -0.74945134721E+02 -0.50843747295E+01  0.41095198776E+02  0.85623825231E+02  0.00000000000E+00 0.  1.
</event>
<event>
 6    1  0.6447971E-006  0.2109984E+03  0.7561462E-02  0.1140778E+00
         -2   -1    0    0    0  501 -0.00000000000E+00  0.00000000000E+00  0.54999409485E+02  0.54999409485E+02  0.00000000000E+00 0.  1.
          2   -1    0    0  501    0  0.00000000000E+00 -0.00000000000E+00 -0.96560993194E+03  0.96560993194E+03  0.00000000000E+00 0. -1.
          5    1    1    2  502    0  0.72121776495E+02  0.35437835381E+02 -0.59989583256E+02  0.10036739172E+03  0.41800000000E+01 0. -1.
         -5    1    1    2    0  502  0.12726389631E+03 -0.36930652548E+02 -0.32325052964E+03  0.34938281256E+03  0.41800000000E+01 0. -1.
        -11    1    1    2    0    0 -0.10805617631E+03 -0.30335683386E+02 -0.19816446600E+03  0.22774008543E+03  0.00000000000E+00 0.  1.
         11    1    1    2    0    0 -0.91329496489E+02  0.31828500552E+02 -0.32920594356E+03  0.34311905172E+03  0.00000000000E+00 0. -1.
</event>
<event>
 6    1  0.6447971E-006  0.9535451E+02  0.7561462E-02  0.1290380E+00
         -2   -1    0    0    0  501 -0.00000000000E+00  0.00000000000E+00  0.32048069820E+02  0.32048069820E+02  0.00000000000E+00 0.  1.
          2   -1    0    0  501    0  0.00000000000E+00 -0.00000000000E+00 -0.64336797219E+03  0.64336797219E+03  0.00000000000E+00 0. -1.
          5    1    1    2  502    0  0.16844756214E+02 -0.45045242820E+01 -0.27744877959E+03  0.27802757822E+03  0.41800000000E+01 0. -1.
         -5    1    1    2    0  502  0.53292922759E+02 -0.19020548551E+02 -0.16856645720E+02  0.59190673153E+02  0.41800000000E+01 0.  1.
        -11    1    1    2    0    0  0.12852224408E+02  0.30159753198E+02 -0.65216453133E+02  0.72992986954E+02  0.00000000000E+00 0.  1.
         11    1    1    2    0    0 -0.82989903381E+02 -0.66346803642E+01 -0.25179802393E+03  0.26520480369E+03  0.00000000000E+00 0. -1.
</event>
<event>
 6    1  0.6447971E-006  0.6330182E+02  0.7561462E-02  0.1384476E+00
          1   -1    0    0  501    0  0.00000000000E+00  0.00000000000E+00  0.39083344054E+03  0.39083344054E+03  0.00000000000E+00 0.  1.
         -1   -1    0    0    0  501 -0.00000000000E+00 -0.00000000000E+00 -0.34478694177E+02  0.34478694177E+02  0.00000000000E+00 0. -1.
          5    1    1    2  502    0 -0.27974009828E+02 -0.15996351047E+01  0.21530896757E+03  0.21716474846E+03  0.41800000000E+01 0. -1.
         -5    1    1    2    0  502 -0.13081022699E+02  0.15159564585E+02 -0.13257727243E+02  0.24375505839E+02  0.41800000000E+01 0. -1.
        -11    1    1    2    0    0  0.54150191520E+02  0.57853518056E+01  0.41216524865E+02  0.68297258064E+02  0.00000000000E+00 0. -1.
         11    1    1    2    0    0 -0.13095158993E+02 -0.19345281286E+02  0.11308698117E+03  0.11547462235E+03  0.00000000000E+00 0.  1.
</event>
<event>
 6    1  0.6447971E-006  0.1197012E+03  0.7561462E-02  0.1243591E+00
         -1   -1    0    0    0  501 -0.00000000000E+00  0.00000000000E+00  0.28158272333E+02  0.28158272333E+02  0.00000000000E+00 0.  1.
          1   -1    0    0  501    0  0.00000000000E+00 -0.00000000000E+00 -0.71122451846E+03  0.71122451846E+03  0.00000000000E+00 0. -1.
          5    1    1    2  502    0  0.22678033476E+02  0.29709183116E+01 -0.83769614989E+01  0.24713669130E+02  0.41800000000E+01 0.  1.
         -5    1    1    2    0  502 -0.81793471503E+02 -0.70167387983E+02 -0.32578359821E+03  0.34317059836E+03  0.41800000000E+01 0.  1.
        -11    1    1    2    0    0  0.52299446510E+02  0.13280913242E+02 -0.27217494412E+03  0.27747218774E+03  0.00000000000E+00 0.  1.
         11    1    1    2    0    0  0.68159915172E+01  0.53915556429E+02 -0.76730742287E+02  0.94026335552E+02  0.00000000000E+00 0. -1.
</event>
<event>
 6    1  0.6447971E-006  0.1460323E+03  0.7561462E-02  0.1205435E+00
         -2   -1    0    0    0  501 -0.00000000000E+00  0.00000000000E+00  0.19585433042E+03  0.19585433042E+03  0.00000000000E+00 0.  1.
          2   -1    0    0  501    0  0.00000000000E+00 -0.00000000000E+00 -0.13278998019E+03  0.13278998019E+03  0.00000000000E+00 0. -1.
          5    1    1    2  502    0 -0.12626870721E+03  0.70949850822E+02  0.34347238698E+02  0.14891229956E+03  0.41800000000E+01 0.  1.
         -5    1    1    2    0  502  0.21143831306E+02 -0.16575330000E+02  0.94376146451E+01  0.28780968314E+02  0.41800000000E+01 0.  1.
        -11    1    1    2    0    0  0.43917259480E+02 -0.11979372187E+02  0.52442069591E+02  0.69443514464E+02  0.00000000000E+00 0.  1.
         11    1    1    2    0    0  0.61207616429E+02 -0.42395148635E+02 -0.33162572711E+02  0.81507528275E+02  0.00000000000E+00 0. -1.
</event>
<event>
 6    1  0.6447971E-006  0.6865467E+02  0.7561462E-02  0.1364729E+00
         -1   -1    0    0    0  501 -0.00000000000E+00  0.00000000000E+00  0.19637804107E+03  0.19637804107E+03  0.00000000000E+00 0.  1.
          1   -1    0    0  501    0  0.00000000000E+00 -0.00000000000E+00 -0.19863966756E+03  0.19863966756E+03  0.00000000000E+00 0. -1.
          5    1    1    2  502    0 -0.57259576153E+01  0.19781143943E+02 -0.20678614742E+02  0.29481481543E+02  0.41800000000E+01 0. -1.
         -5    1    1    2    0  502  0.26108269499E+01  0.46355769697E+02  0.16993020064E+03  0.17620845408E+03  0.41800000000E+01 0. -1.
        -11    1    1    2    0    0 -0.64285553682E+01 -0.53284254219E+02 -0.16168558639E+03  0.17036069652E+03  0.00000000000E+00 0. -1.
         11    1    1    2    0    0  0.95436860336E+01 -0.12852659421E+02  0.10172374005E+02  0.18967076480E+02  0.00000000000E+00 0.  1.
</event>
<event>
 6    1  0.6447971E-006  0.1374231E+03  0.7561462E-02  0.1216839E+00
          2   -1    0    0  501    0  0.00000000000E+00  0.00000000000E+00  0.87166692003E+03  0.87166692003E+03  0.00000000000E+00 0. -1.
         -2   -1    0    0    0  501 -0.00000000000E+00 -0.00000000000E+00 -0.43583634162E+02  0.43583634162E+02  0.00000000000E+00 0.  1.
          5    1    1    2  502    0  0.90288685910E+02 -0.84651590267E+02  0.76273890034E+02  0.14544111262E+03  0.41800000000E+01 0.  1.
         -5    1    1    2    0  502 -0.14237692453E+02  0.20901716949E+02  0.57149381294E+02  0.62634797358E+02  0.41800000000E+01 0.  1.
        -11    1    1    2    0    0  0.70695639401E+01 -0.11338529381E+02  0.26370639309E+02  0.29562672416E+02  0.00000000000E+00 0.  1.
         11    1    1    2    0    0 -0.83120557398E+02  0.75088402700E+02  0.66828937523E+03  0.67761197180E+03  0.00000000000E+00 0. -1.
</event>
<event>
 6    1  0.6447971E-006  0.1601722E+03  0.7561462E-02  0.1188502E+00
         -2   -1    0    0    0  501 -0.00000000000E+00  0.00000000000E+00  0.53376140947E+02  0.53376140947E+02  0.00000000000E+00 0.  1.
          2   -1    0    0  501    0  0.00000000000E+00 -0.00000000000E+00 -0.59440299475E+03  0.59440299475E+03  0.00000000000E+00 0. -1.
          5    1    1    2  502    0 -0.84347288147E+02 -0.10487811756E+03 -0.10946938815E+03  0.17353646275E+03  0.41800000000E+01 0. -1.
         -5    1    1    2    0  502  0.32424651956E+02 -0.16493789275E+02 -0.85901840719E+02  0.93380949760E+02  0.41800000000E+01 0. -1.
        -11    1    1    2    0    0  0.61949297872E+02  0.57834105747E+02 -0.12499953328E+03  0.15102113301E+03  0.00000000000E+00 0.  1.
         11    1    1    2    0    0 -0.10026661680E+02  0.63537801092E+02 -0.22065609165E+03  0.22984059018E+03  0.00000000000E+00 0. -1.
</event>
<event>
 6    1  0.6447971E-006  0.1357123E+03  0.7561462E-02  0.1219218E+00
          2   -1    0    0  501    0  0.00000000000E+00  0.00000000000E+00  0.11506418113E+04  0.11506418113E+04  0.00000000000E+00 0. -1.
         -2   -1    0    0    0  501 -0.00000000000E+00 -0.00000000000E+00 -0.17545580508E+02  0.17545580508E+02  0.00000000000E+00 0.  1.
          5    1    1    2  502    0 -0.76811713737E+02 -0.27861711110E+02  0.45463915345E+03  0.46194214633E+03  0.41800000000E+01 0. -1.
         -5    1    1    2    0  502  0.35994353755E+02 -0.53148150680E+02  0.17713578655E+03  0.18845391665E+03  0.41800000000E+01 0. -1.
        -11    1    1    2    0    0  0.62567389126E+02  0.29105133402E+02  0.34009787875E+03  0.34702788663E+03  0.00000000000E+00 0. -1.
         11    1    1    2    0    0 -0.21750029145E+02  0.51904728388E+02  0.16122341201E+03  0.17076344216E+03  0.00000000000E+00 0.  1.
</event>
<event>
 6    1  0.6447971E-006  0.1074064E+03  0.7561462E-02  0.1265450E+00
          2   -1    0    0  501    0  0.00000000000E+00  0.00000000000E+00  0.22431467560E+03  0.22431467560E+03  0.00000000000E+00 0. -1.
         -2   -1    0    0    0  501 -0.00000000000E+00 -0.00000000000E+00 -0.20008588204E+03  0.20008588204E+03  0.00000000000E+00 0.  1.
          5    1    1    2  502    0  0.56314353828E+02  0.25873264675E+02 -0.28831375728E+02  0.68479580157E+02  0.41800000000E+01 0. -1.
         -5    1    1    2    0  502 -0.49231344576E+02  0.32357753793E+02 -0.13038302825E+03  0.14313614490E+03  0.41800000000E+01 0.  1.
        -11    1    1    2    0    0 -0.29204637151E+02  0.21971161098E+01  0.11570335899E+03  0.11935244209E+03  0.00000000000E+00 0.  1.
         11    1    1    2    0    0  0.22121627898E+02 -0.60428134577E+02  0.67739838540E+02  0.93432390501E+02  0.00000000000E+00 0. -1.
</event>
<event>
 6    1  0.6447971E-006  0.1201805E+03  0.7561462E-02  0.1242800E+00
         -1   -1    0    0    0  501 -0.00000000000E+00  0.00000000000E+00  0.57950584875E+02  0.57950584875E+02  0.00000000000E+00 0.  1.
          1   -1    0    0  501    0  0.00000000000E+00 -0.00000000000E+00 -0.62879769099E+03  0.62879769099E+03  0.00000000000E+00 0. -1.
          5    1    1    2  502    0 -0.25098857884E+01 -0.84419597644E+02 -0.48337957117E+02  0.97401224281E+02  0.41800000000E+01 0.  1.
         -5    1    1    2    0  502  0.32545666640E+02  0.32378584510E+02  0.87079692630E+01  0.46913689693E+02  0.41800000000E+01 0.  1.
        -11    1    1    2    0    0 -0.15716190450E+02 -0.25987788286E+02 -0.15328986540E+03  0.15626946796E+03  0.00000000000E+00 0. -1.
         11    1    1    2    0    0 -0.14319590401E+02  0.78028801420E+02 -0.37792725286E+03  0.38616389393E+03  0.00000000000E+00 0.  1.
</event>
<event>
 6    1  0.6447971E-006  0.1089728E+03  0.7561462E-02  0.1262484E+00
         -1   -1    0    0    0  501 -0.00000000000E+00  0.00000000000E+00  0.44116542798E+02  0.44116542798E+02  0.00000000000E+00 0.  1.
          1   -1    0    0  501    0  0.00000000000E+00 -0.00000000000E+00 -0.39941056048E+03  0.39941056048E+03  0.00000000000E+00 0. -1.
          5    1    1    2  502    0  0.47273235709E+02 -0.63287201038E+02 -0.10002586897E+03  0.12752519552E+03  0.41800000000E+01 0.  1.
         -5    1    1    2    0  502 -0.27632035782E+02  0.22694791270E+02  0.43881730763E+01  0.36267222326E+02  0.41800000000E+01 0.  1.
        -11    1    1    2    0    0 -0.56977781990E+02  0.27574336136E+02 -0.17996999055E+03  0.19077738114E+03  0.00000000000E+00 0. -1.
         11    1    1    2    0    0  0.37336582064E+02  0.13018073632E+02 -0.79686331237E+02  0.88957304294E+02  0.00000000000E+00 0.  1.
</event>
<event>
 6    1  0.6447971E-006  0.1214271E+03  0.7561462E-02  0.1240761E+00
          3   -1    0    0  501    0  0.00000000000E+00  0.00000000000E+00  0.45547856748E+02  0.45547856748E+02  0.00000000000E+00 0. -1.
         -3   -1    0    0    0  501 -0.00000000000E+00 -0.00000000000E+00 -0.42484778329E+03  0.42484778329E+03  0.00000000000E+00 0.  1.
          5    1    1    2  502    0 -0.83433935239E+02 -0.56167595383E+02 -0.75350108197E+02  0.12574232194E+03  0.41800000000E+01 0.  1.
         -5    1    1    2    0  502  0.74512534160E+01  0.14414698782E+02 -0.12368549948E+03  0.12481538327E+03  0.41800000000E+01 0.  1.
        -11    1    1    2    0    0  0.88099578493E+02  0.57767939883E+02 -0.15744473160E+03  0.18944000137E+03  0.00000000000E+00 0. -1.
         11    1    1    2    0    0 -0.12116896671E+02 -0.16015043282E+02 -0.22819587261E+02  0.30397933466E+02  0.00000000000E+00 0.  1.
</event>
<event>
 6    1  0.6447971E-006  0.9209230E+02  0.7561462E-02  0.1297863E+00
          2   -1    0    0  501    0  0.00000000000E+00  0.00000000000E+00  0.21461702382E+02  0.21461702382E+02  0.00000000000E+00 0. -1.
         -2   -1    0    0    0  501 -0.00000000000E+00 -0.00000000000E+00 -0.83991232073E+03  0.83991232073E+03  0.00000000000E+00 0.  1.
          5    1    1    2  502    0 -0.16646687842E+02  0.52740083431E+02 -0.54166855649E+03  0.54450062085E+03  0.41800000000E+01 0. -1.
         -5    1    1    2    0  502  0.27198730383E+02  0.16415821824E+02 -0.26850059614E+02  0.41804882991E+02  0.41800000000E+01 0. -1.
        -11    1    1    2    0    0 -0.36094984355E+02 -0.59054114188E+02 -0.93976378526E+02  0.11671245015E+03  0.00000000000E+00 0. -1.
         11    1    1    2    0    0  0.25542941813E+02 -0.10101791067E+02 -0.15595562372E+03  0.15835606913E+03  0.00000000000E+00 0.  1.
</event>
<event>
 6    1  0.6447971E-006  0.3905008E+03  0.7561462E-02  0.1047119E+00
          1   -1    0    0  501    0  0.00000000000E+00  0.00000000000E+00  0.66183931943E+03  0.66183931943E+03  0.00000000000E+00 0. -1.
         -1   -1    0    0    0  501 -0.00000000000E+00 -0.00000000000E+00 -0.31463551900E+03  0.31463551900E+03  0.00000000000E+00 0.  1.
          5    1    1    2  502    0 -0.31554006121E+03  0.35493603790E+02 -0.37206263959E+02  0.31972973684E+03  0.41800000000E+01 0. -1.
         -5    1    1    2    0  502 -0.65395061644E+02 -0.48993235898E+02 -0.29372291544E+02  0.86931324399E+02  0.41800000000E+01 0. -1.
        -11    1    1    2    0    0  0.27415294422E+03  0.18047290828E+02  0.23509128194E+03  0.36159846844E+03  0.00000000000E+00 0.  1.
         11    1    1    2    0    0  0.10678217864E+03 -0.45476587203E+01  0.17869107399E+03  0.20821530875E+03  0.00000000000E+00 0. -1.
</event>
<event>
 6    1  0.6447971E-006  0.1275953E+03  0.7561462E-02  0.1231068E+00
          3   -1    0    0  501    0  0.00000000000E+00  0.00000000000E+00  0.73960055671E+02  0.73960055671E+02  0.00000000000E+00 0. -1.
         -3   -1    0    0    0  501 -0.00000000000E+00 -0.00000000000E+00 -0.79853719439E+03  0.79853719439E+03  0.00000000000E+00 0.  1.
          5    1    1    2  502    0  0.43801362268E+02  0.55660072100E+02 -0.16959635834E+03  0.18383960434E+03  0.41800000000E+01 0. -1.
         -5    1    1    2    0  502 -0.67856946397E+02 -0.65096688871E+02 -0.58313820175E+03  0.59068585459E+03  0.41800000000E+01 0.  1.
        -11    1    1    2    0    0  0.32138108517E+02  0.44073401995E+02  0.34316039259E+01  0.54654356532E+02  0.00000000000E+00 0. -1.
         11    1    1    2    0    0 -0.80825243881E+01 -0.34636785224E+02  0.24725817446E+02  0.43317434591E+02  0.00000000000E+00 0.  1.
</event>
<event>
 6    1  0.6447971E-006  0.1550982E+03  0.7561462E-02  0.1194345E+00
         -2   -1    0    0    0  501 -0.00000000000E+00  0.00000000000E+00  0.49059345390E+02  0.49059345390E+02  0.00000000000E+00 0.  1.
          2   -1    0    0  501    0  0.00000000000E+00 -0.00000000000E+00 -0.56595869657E+03  0.56595869657E+03  0.00000000000E+00 0. -1.
          5    1    1    2  502    0  0.18837044464E+02  0.16422563493E+02 -0.21512637004E+02  0.33238543691E+02  0.41800000000E+01 0.  1.
         -5    1    1    2    0  502 -0.84678065752E+02 -0.12303070692E+03 -0.23344628934E+03  0.27716704723E+03  0.41800000000E+01 0.  1.
        -11    1    1    2    0    0  0.72947431751E+02  0.81627425423E+02 -0.12914410214E+03  0.16930021706E+03  0.00000000000E+00 0.  1.
         11    1    1    2    0    0 -0.71064104625E+01  0.24980718002E+02 -0.13279632269E+03  0.13531223397E+03  0.00000000000E+00 0. -1.
</event>
<event>
 6    1  0.6447971E-006  0.1117433E+03  0.7561462E-02  0.1257375E+00
          1   -1    0    0  501    0  0.00000000000E+00  0.00000000000E+00  0.89135998807E+03  0.89135998807E+03  0.00000000000E+00 0. -1.
         -1   -1    0    0    0  501 -0.00000000000E+00 -0.00000000000E+00 -0.16046696694E+02  0.16046696694E+02  0.00000000000E+00 0.  1.
          5    1    1    2  502    0 -0.71303026614E+01 -0.39036585816E+02  0.64802806948E+02  0.76102381281E+02  0.41800000000E+01 0. -1.
         -5    1    1    2    0  502  0.11554115893E+01  0.82574308075E+02  0.33766144109E+03  0.34763856594E+03  0.41800000000E+01 0. -1.
        -11    1    1    2    0    0  0.48439869552E+02 -0.20669295527E+02  0.21602394246E+03  0.22235103881E+03  0.00000000000E+00 0.  1.
         11    1    1    2    0    0 -0.42464978480E+02 -0.22868426732E+02  0.25682510087E+03  0.26131469874E+03  0.00000000000E+00 0. -1.
</event>
<event>
 6    1  0.6447971E-006  0.6686553E+02  0.7561462E-02  0.1371088E+00
          1   -1    0    0  501    0  0.00000000000E+00  0.00000000000E+00  0.32136944178E+03  0.32136944178E+03  0.00000000000E+00 0. -1.
         -1   -1    0    0    0  501 -0.00000000000E+00 -0.00000000000E+00 -0.41113281188E+02  0.41113281188E+02  0.00000000000E+00 0.  1.
          5    1    1    2  502    0  0.14398341691E+02 -0.15280372263E+01  0.13700729721E+03  0.13783366435E+03  0.41800000000E+01 0. -1.
         -5    1    1    2    0  502 -0.49000493787E+02 -0.10542032389E+02 -0.13294012210E+01  0.50313244239E+02  0.41800000000E+01 0. -1.
        -11    1    1    2    0    0  0.27957291399E+01 -0.21755337885E+02 -0.57052916257E+00  0.21941657445E+02  0.00000000000E+00 0.  1.
         11    1    1    2    0    0  0.31806422955E+02  0.33825407501E+02  0.14514879377E+03  0.15239415693E+03  0.00000000000E+00 0. -1.
</event>
<event>
 6    1  0.6447971E-006  0.1052410E+03  0.7561462E-02  0.1269645E+00
         -2   -1    0    0    0  501 -0.00000000000E+00  0.00000000000E+00  0.90380398247E+02  0.90380398247E+02  0.00000000000E+00 0.  1.
          2   -1    0    0  501    0  0.00000000000E+00 -0.00000000000E+00 -0.16587848015E+03  0.16587848015E+03  0.00000000000E+00 0. -1.
          5    1    1    2  502    0 -0.65575834337E+01 -0.71118358598E+02 -0.51368400365E+02  0.88073876866E+02  0.41800000000E+01 0.  1.
         -5    1    1    2    0  502  0.24550503548E+02  0.23985691890E+02  0.33310453137E+02  0.48011449969E+02  0.41800000000E+01 0.  1.
        -11    1    1    2    0    0 -0.64464243666E+01 -0.27804559916E+02 -0.24057522733E+02  0.37328465537E+02  0.00000000000E+00 0.  1.
         11    1    1    2    0    0 -0.11546495748E+02  0.74937226624E+02 -0.33382611940E+02  0.82845086023E+02  0.00000000000E+00 0. -1.
</event>
<event>
 6    1  0.6447971E-006  0.1945320E+03  0.7561462E-02  0.1154436E+00
          2   -1    0    0  501    0  0.00000000000E+00  0.00000000000E+00  0.13266201179E+04  0.13266201179E+04  0.00000000000E+00 0. -1.
         -2   -1    0    0    0  501 -0.00000000000E+00 -0.00000000000E+00 -0.29804368988E+02  0.29804368988E+02  0.00000000000E+00 0.  1.
          5    1    1    2  502    0 -0.40006248247E+02 -0.13925390659E+02  0.15167487323E+03  0.15753461833E+03  0.41800000000E+01 0. -1.
         -5    1    1    2    0  502  0.85762403518E+02 -0.13861484259E+03  0.41313468289E+03  0.44414750145E+03  0.41800000000E+01 0.  1.
        -11    1    1    2    0    0 -0.38072191564E+02  0.82590779113E+01  0.17708811411E+03  0.18132265247E+03  0.00000000000E+00 0. -1.
         11    1    1    2    0    0 -0.76839637073E+01  0.14428115533E+03  0.55491807865E+03  0.57341971460E+03  0.00000000000E+00 0.  1.
</event>
<event>
 6    1  0.6447971E-006  0.1608724E+03  0.7561462E-02  0.1187715E+00
         -1   -1    0    0    0  501 -0.00000000000E+00  0.00000000000E+00  0.51169159285E+02  0.51169159285E+02  0.00000000000E+00 0.  1.
          1   -1    0    0  501    0  0.00000000000E+00 -0.00000000000E+00 -0.61073611696E+03  0.61073611696E+03  0.00000000000E+00 0. -1.
          5    1    1    2  502    0  0.15078060129E+02  0.54310620934E+01 -0.80596617232E+02  0.82280808467E+02  0.41800000000E+01 0.  1.
         -5    1    1    2    0  502 -0.13364295803E+03 -0.69967584417E+02 -0.15027573267E+03  0.21296988362E+03  0.41800000000E+01 0.  1.
        -11    1    1    2    0    0  0.28137192012E+02 -0.16695904571E+02 -0.30885233814E+02  0.44992804663E+02  0.00000000000E+00 0.  1.
         11    1    1    2    0    0  0.90427705884E+02  0.81232426895E+02 -0.29780937395E+03  0.32166177949E+03  0.00000000000E+00 0. -1.
</event>
<event>
 6    1  0.6447971E-006  0.1019389E+03  0.7561462E-02  0.1276271E+00
          2   -1    0    0  501    0  0.00000000000E+00  0.00000000000E+00  0.16519242158E+03  0.16519242158E+03  0.00000000000E+00 0. -1.
         -2   -1    0    0    0  501 -0.00000000000E+00 -0.00000000000E+00 -0.79137770109E+02  0.79137770109E+02  0.00000000000E+00 0.  1.
          5    1    1    2  502    0  0.41913780846E+02 -0.58073610785E+01 -0.14160590962E+02  0.44816126605E+02  0.41800000000E+01 0.  1.
         -5    1    1    2    0  502 -0.65077704285E+02  0.35195262328E+02  0.54012162294E+02  0.91698419621E+02  0.41800000000E+01 0.  1.
        -11    1    1    2    0    0 -0.13837484021E+02 -0.45010935381E+02  0.48481834513E+02  0.67586600341E+02  0.00000000000E+00 0. -1.
         11    1    1    2    0    0  0.37001407460E+02  0.15623034132E+02 -0.22787543780E+01  0.40229045117E+02  0.00000000000E+00 0.  1.
</event>
<event>
 6    1  0.6447971E-006  0.1221375E+03  0.7561462E-02  0.1239612E+00
          1   -1    0    0  501    0  0.00000000000E+00  0.00000000000E+00  0.83006825378E+03  0.83006825378E+03  0.00000000000E+00 0. -1.
         -1   -1    0    0    0  501 -0.00000000000E+00 -0.00000000000E+00 -0.21523128284E+02  0.21523128284E+02  0.00000000000E+00 0.  1.
          5    1    1    2  502    0 -0.48966451340E+02 -0.88959566372E+02  0.34492375238E+03  0.35958501799E+03  0.41800000000E+01 0. -1.
         -5    1    1    2    0  502  0.25506522002E+01  0.29781844541E+02  0.29161661135E+02  0.41968309127E+02  0.41800000000E+01 0. -1.
        -11    1    1    2    0    0  0.68689594873E+02  0.28074270862E+02  0.21958626326E+03  0.23178557363E+03  0.00000000000E+00 0. -1.
         11    1    1    2    0    0 -0.22273795733E+02  0.31103450969E+02  0.21487344872E+03  0.21825248133E+03  0.00000000000E+00 0.  1.
</event>
<event>
 6    1  0.6447971E-006  0.1335066E+03  0.7561462E-02  0.1222343E+00
         -1   -1    0    0    0  501 -0.00000000000E+00  0.00000000000E+00  0.22932895815E+03  0.22932895815E+03  0.00000000000E+00 0.  1.
          1   -1    0    0  501    0  0.00000000000E+00 -0.00000000000E+00 -0.95633630196E+02  0.95633630196E+02  0.00000000000E+00 0. -1.
          5    1    1    2  502    0 -0.42828314870E+02 -0.14105800884E+02  0.30547048970E+01  0.45387683298E+02  0.41800000000E+01 0.  1.
         -5    1    1    2    0  502  0.40290405154E+01  0.10470670618E+03  0.95883761642E+02  0.14209467138E+03  0.41800000000E+01 0.  1.
        -11    1    1    2    0    0  0.42468026454E+02 -0.21386015495E+02  0.47270410411E+02  0.67047644478E+02  0.00000000000E+00 0.  1.
         11    1    1    2    0    0 -0.36687520996E+01 -0.69214889802E+02 -0.12513548995E+02  0.70432589195E+02  0.00000000000E+00 0. -1.
</event>
<event>
 6    1  0.6447971E-006  0.1040250E+03  0.7561462E-02  0.1272053E+00
          2   -1    0    0  501    0  0.00000000000E+00  0.00000000000E+00  0.73800436215E+03  0.73800436215E+03  0.00000000000E+00 0. -1.
         -2   -1    0    0    0  501 -0.00000000000E+00 -0.00000000000E+00 -0.21158318111E+02  0.21158318111E+02  0.00000000000E+00 0.  1.
          5    1    1    2  502    0 -0.23236334163E+02 -0.16184856248E+02  0.11787944600E+02  0.30956499075E+02  0.41800000000E+01 0. -1.
         -5    1    1    2    0  502  0.66161684469E+02  0.42499538305E+02  0.27319144711E+03  0.28431429514E+03  0.41800000000E+01 0. -1.
        -11    1    1    2    0    0  0.21124666359E+02 -0.29807199957E+02  0.11753841022E+03  0.12308533046E+03  0.00000000000E+00 0.  1.
         11    1    1    2    0    0 -0.64050016665E+02  0.34925178989E+01  0.31432824211E+03  0.32080655558E+03  0.00000000000E+00 0. -1.
</event>
<event>
 6    1  0.6447971E-006  0.1641321E+03  0.7561462E-02  0.1184109E+00
         -3   -1    0    0    0  501 -0.00000000000E+00  0.00000000000E+00  0.48443269278E+03  0.48443269278E+03  0.00000000000E+00 0.  1.
          3   -1    0    0  501    0  0.00000000000E+00 -0.00000000000E+00 -0.83757726941E+02  0.83757726941E+02  0.00000000000E+00 0. -1.
          5    1    1    2  502    0 -0.29011136033E+02 -0.10426893072E+02 -0.53009237377E+01  0.31558490229E+02  0.41800000000E+01 0. -1.
         -5    1    1    2    0  502 -0.12502151519E+03 -0.30415838688E+02  0.29596943467E+03  0.32275514119E+03  0.41800000000E+01 0. -1.
        -11    1    1    2    0    0  0.71139141458E+02 -0.89801027931E+01  0.90075080954E+02  0.11513009990E+03  0.00000000000E+00 0.  1.
         11    1    1    2    0    0  0.82893509768E+02  0.49822834554E+02  0.19931373961E+02  0.98746688413E+02  0.00000000000E+00 0. -1.
</event>
<event>
 6    1  0.6447971E-006  0.1077729E+03  0.7561462E-02  0.1264751E+00
          1   -1    0    0  501    0  0.00000000000E+00  0.00000000000E+00  0.20144867615E+03  0.20144867615E+03  0.00000000000E+00 0. -1.
         -1   -1    0    0    0  501 -0.00000000000E+00 -0.00000000000E+00 -0.80757881649E+02  0.80757881649E+02  0.00000000000E+00 0.  1.
          5    1    1    2  502    0  0.44921605671E+02  0.10165052177E+02  0.10622160110E+02  0.47450833789E+02  0.41800000000E+01 0.  1.
         -5    1    1    2    0  502 -0.60056297828E+02 -0.72020438533E+02  0.34168229945E+02  0.99893156987E+02  0.41800000000E+01 0.  1.
        -11    1    1    2    0    0 -0.17870274025E+01  0.58062140169E+02  0.93550573906E+02  0.11011864268E+03  0.00000000000E+00 0. -1.
         11    1    1    2    0    0  0.16921719559E+02  0.37932461875E+01 -0.17650169464E+02  0.24743924337E+02  0.00000000000E+00 0.  1.
</event>
<event>
 6    1  0.6447971E-006  0.8139648E+02  0.7561462E-02  0.1325135E+00
         -3   -1    0    0    0  501 -0.00000000000E+00  0.00000000000E+00  0.18567183795E+03  0.18567183795E+03  0.00000000000E+00 0.  1.
          3   -1    0    0  501    0  0.00000000000E+00 -0.00000000000E+00 -0.16714056316E+03  0.16714056316E+03  0.00000000000E+00 0. -1.
          5    1    1    2  502    0  0.66579147553E+00  0.25985086473E+02 -0.19574132572E+02  0.32806814281E+02  0.41800000000E+01 0. -1.
         -5    1    1    2    0  502  0.24615479809E+02 -0.39671663673E+02  0.15915906644E+03  0.16591818337E+03  0.41800000000E+01 0.  1.
        -11    1    1    2    0    0 -0.35886653513E+01 -0.35579636629E+02 -0.23882114813E+02  0.43001679846E+02  0.00000000000E+00 0.  1.
         11    1    1    2    0    0 -0.21692605933E+02  0.49266213828E+02 -0.97171544259E+02  0.11108572361E+03  0.00000000000E+00 0. -1.
</event>
<event>
 6    1  0.6447971E-006  0.9003568E+02  0.7561462E-02  0.1302765E+00
         -1   -1    0    0    0  501 -0.00000000000E+00  0.00000000000E+00  0.14521177571E+03  0.14521177571E+03  0.00000000000E+00 0.  1.
          1   -1    0    0  501    0  0.00000000000E+00 -0.00000000000E+00 -0.97792433883E+02  0.97792433883E+02  0.00000000000E+00 0. -1.
          5    1    1    2  502    0 -0.44450919212E+02 -0.45999474015E+02  0.28253993871E+02  0.70054238974E+02  0.41800000000E+01 0. -1.
         -5    1    1    2    0  502  0.29351600231E+02  0.38537067188E+02  0.54398625451E+02  0.72960981590E+02  0.41800000000E+01 0.  1.
        -11    1    1    2    0    0  0.75623524756E+01  0.36536231239E+02  0.16003429053E+02  0.40597969278E+02  0.00000000000E+00 0.  1.
         11    1    1    2    0    0  0.75369665049E+01 -0.29073824412E+02 -0.51236706545E+02  0.59391019755E+02  0.00000000000E+00 0. -1.
</event>
<event>
 6    1  0.6447971E-006  0.1358178E+03  0.7561462E-02  0.1219070E+00
         -2   -1    0    0    0  501 -0.00000000000E+00  0.00000000000E+00  0.33069944722E+03  0.33069944722E+03  0.00000000000E+00 0. -1.
          2   -1    0    0  501    0  0.00000000000E+00 -0.00000000000E+00 -0.79202720396E+02  0.79202720396E+02  0.00000000000E+00 0.  1.
          5    1    1    2  502    0 -0.11201859330E+02 -0.31441261379E+02  0.55242529841E+02  0.64678003006E+02  0.41800000000E+01 0.  1.
         -5    1    1    2    0  502  0.11294409974E+03  0.63410850893E+02  0.14803790392E+03  0.19674856816E+03  0.41800000000E+01 0.  1.
        -11    1    1    2    0    0 -0.35942615262E+02 -0.21197031540E+02  0.67243399491E+02  0.79138236732E+02  0.00000000000E+00 0.  1.
         11    1    1    2    0    0 -0.65799625147E+02 -0.10772557974E+02 -0.19027106420E+02  0.69337359724E+02  0.00000000000E+00 0. -1.
</event>
<event>
 6    1  0.6447971E-006  0.9860674E+02  0.7561462E-02  0.1283253E+00
         -1   -1    0    0    0  501 -0.00000000000E+00  0.00000000000E+00  0.36768200268E+03  0.36768200268E+03  0.00000000000E+00 0.  1.
          1   -1    0    0  501    0  0.00000000000E+00 -0.00000000000E+00 -0.43825234038E+02  0.43825234038E+02  0.00000000000E+00 0. -1.
          5    1    1    2  502    0  0.37116838639E+02 -0.78030146363E+02  0.21219613577E+03  0.22915286576E+03  0.41800000000E+01 0. -1.
         -5    1    1    2    0  502 -0.20159927035E+02  0.34404132004E+02  0.42444791460E+02  0.58387495914E+02  0.41800000000E+01 0. -1.
        -11    1    1    2    0    0 -0.85820068509E+01  0.55455815971E+02  0.85434280386E+02  0.10221553029E+03  0.00000000000E+00 0.  1.
         11    1    1    2    0    0 -0.83749047529E+01 -0.11829801611E+02 -0.16218438976E+02  0.21751344754E+02  0.00000000000E+00 0. -1.
</event>
<event>
 6    1  0.6447971E-006  0.8086544E+02  0.7561462E-02  0.1326613E+00
         -2   -1    0    0    0  501 -0.00000000000E+00  0.00000000000E+00  0.41221089348E+02  0.41221089348E+02  0.00000000000E+00 0.  1.
          2   -1    0    0  501    0  0.00000000000E+00 -0.00000000000E+00 -0.31461858868E+03  0.31461858868E+03  0.00000000000E+00 0. -1.
          5    1    1    2  502    0 -0.41345984525E+02 -0.19600384552E+02 -0.12996511578E+03  0.13784799321E+03  0.41800000000E+01 0. -1.
         -5    1    1    2    0  502  0.25461852160E+02  0.43578863998E+02 -0.92050781508E+01  0.51474548726E+02  0.41800000000E+01 0. -1.
        -11    1    1    2    0    0  0.24157018891E+02  0.12871189956E+02 -0.12456073373E+03  0.12753276238E+03  0.00000000000E+00 0. -1.
         11    1    1    2    0    0 -0.82728865258E+01 -0.36849669402E+02 -0.96665716760E+01  0.38984373722E+02  0.00000000000E+00 0.  1.
</event>
<event>
 6    1  0.6447971E-006  0.1437242E+03  0.7561462E-02  0.1208404E+00
         -1   -1    0    0    0  501 -0.00000000000E+00  0.00000000000E+00  0.16033042013E+03  0.16033042013E+03  0.00000000000E+00 0.  1.
          1   -1    0    0  501    0  0.00000000000E+00 -0.00000000000E+00 -0.20191289871E+03  0.20191289871E+03  0.00000000000E+00 0. -1.
          5    1    1    2  502    0 -0.54702672987E+02  0.19597065737E+02 -0.81906404090E+01  0.58830148799E+02  0.41800000000E+01 0. -1.
         -5    1    1    2    0  502 -0.31184136534E+02 -0.83449435936E+02  0.82577247479E+02  0.12154313198E+03  0.41800000000E+01 0.  1.
        -11    1    1    2    0    0  0.74167225980E+02 -0.93053068812E+00 -0.64723388007E+02  0.98441659129E+02  0.00000000000E+00 0. -1.
         11    1    1    2    0    0  0.11719583541E+02  0.64782900888E+02 -0.51245697642E+02  0.83428378940E+02  0.00000000000E+00 0.  1.
</event>
<event>
 6    1  0.6447971E-006  0.2790313E+03  0.7561462E-02  0.1096219E+00
          2   -1    0    0  501    0  0.00000000000E+00  0.00000000000E+00  0.52673311980E+03  0.52673311980E+03  0.00000000000E+00 0. -1.
         -2   -1    0    0    0  501 -0.00000000000E+00 -0.00000000000E+00 -0.23293239892E+03  0.23293239892E+03  0.00000000000E+00 0.  1.
          5    1    1    2  502    0 -0.11436075712E+02 -0.14550577973E+03 -0.89260131216E+02  0.17113608383E+03  0.41800000000E+01 0.  1.
         -5    1    1    2    0  502 -0.51422445971E+02 -0.12295851967E+03  0.31700511614E+02  0.13706006109E+03  0.41800000000E+01 0.  1.
        -11    1    1    2    0    0  0.23529714739E+02  0.36479404604E+02  0.89204766830E+02  0.99206274303E+02  0.00000000000E+00 0. -1.
         11    1    1    2    0    0  0.39328806944E+02  0.23198489480E+03  0.26215557365E+03  0.35226309950E+03  0.00000000000E+00 0.  1.
</event>
<event>
 6    1  0.6447971E-006  0.1877432E+03  0.7561462E-02  0.1160513E+00
         -2   -1    0    0    0  501 -0.00000000000E+00  0.00000000000E+00  0.48947510513E+03  0.48947510513E+03  0.00000000000E+00 0.  1.
          2   -1    0    0  501    0  0.00000000000E+00 -0.00000000000E+00 -0.75959126336E+02  0.75959126336E+02  0.00000000000E+00 0. -1.
          5    1    1    2  502    0 -0.17062737388E+03  0.64816968863E+00  0.20385701043E+03  0.26587454549E+03  0.41800000000E+01 0.  1.
         -5    1    1    2    0  502  0.11483669275E+02 -0.27771764668E+02  0.65164770285E+02  0.71882301432E+02  0.41800000000E+01 0.  1.
        -11    1    1    2    0    0  0.10913334449E+03 -0.13591589861E+02  0.10502515838E+03  0.15206939892E+03  0.00000000000E+00 0.  1.
         11    1    1    2    0    0  0.50010360109E+02  0.40715184840E+02  0.39469039702E+02  0.75607985621E+02  0.00000000000E+00 0. -1.
</event>
<event>
 6    1  0.6447971E-006  0.1016830E+03  0.7561462E-02  0.1276796E+00
         -2   -1    0    0    0  501 -0.00000000000E+00  0.00000000000E+00  0.63724919180E+02  0.63724919180E+02  0.00000000000E+00 0.  1.
          2   -1    0    0  501    0  0.00000000000E+00 -0.00000000000E+00 -0.25614588972E+03  0.25614588972E+03  0.00000000000E+00 0. -1.
          5    1    1    2  502    0  0.43603180940E+02 -0.19365026780E+02  0.48048788920E+01  0.48133158129E+02  0.41800000000E+01 0.  1.
         -5    1    1    2    0  502 -0.76781096457E+02 -0.16432185695E+02 -0.51688282309E+02  0.94098376330E+02  0.41800000000E+01 0.  1.
        -11    1    1    2    0    0  0.27814570708E+02 -0.10873592109E+02 -0.60737696015E+01  0.30475826916E+02  0.00000000000E+00 0.  1.
         11    1    1    2    0    0  0.53633448086E+01  0.46670804584E+02 -0.13946379752E+03  0.14716344752E+03  0.00000000000E+00 0. -1.
</event>
<event>
 6    1  0.6447971E-006  0.1120971E+03  0.7561462E-02  0.1256735E+00
          1   -1    0    0  501    0  0.00000000000E+00  0.00000000000E+00  0.18759181459E+03  0.18759181459E+03  0.00000000000E+00 0. -1.
         -1   -1    0    0    0  501 -0.00000000000E+00 -0.00000000000E+00 -0.15316875386E+03  0.15316875386E+03  0.00000000000E+00 0.  1.
          5    1    1    2  502    0 -0.51170815165E+02 -0.51263828492E+02 -0.66563712371E+02  0.98461325610E+02  0.41800000000E+01 0.  1.
         -5    1    1    2    0  502  0.59144863570E+02  0.65150847973E+01 -0.37175279321E+02  0.70285382614E+02  0.41800000000E+01 0.  1.
        -11    1    1    2    0    0  0.31595153167E+02  0.41683255300E+02  0.11431507062E+03  0.12571269963E+03  0.00000000000E+00 0. -1.
         11    1    1    2    0    0 -0.39569201572E+02  0.30654883946E+01  0.23846981794E+02  0.46301160599E+02  0.00000000000E+00 0.  1.
</event>
<event>
 6    1  0.6447971E-006  0.2855994E+03  0.7561462E-02  0.1092669E+00
         -1   -1    0    0    0  501 -0.00000000000E+00  0.00000000000E+00  0.17500535167E+04  0.17500535167E+04  0.00000000000E+00 0.  1.
          1   -1    0    0  501    0  0.00000000000E+00 -0.00000000000E+00 -0.50832125287E+02  0.50832125287E+02  0.00000000000E+00 0. -1.
          5    1    1    2  502    0  0.18921285665E+03 -0.19100211141E+03  0.95844201345E+03  0.99544556719E+03  0.41800000000E+01 0.  1.
         -5    1    1    2    0  502  0.15653559478E+02 -0.83784731209E+00  0.69153220943E+01  0.17636042416E+02  0.41800000000E+01 0.  1.
        -11    1    1    2    0    0 -0.14627429026E+03  0.16819737011E+03  0.55378902061E+03  0.59696633293E+03  0.00000000000E+00 0. -1.
         11    1    1    2    0    0 -0.58592125869E+02  0.23642588612E+02  0.18007503524E+03  0.19083769944E+03  0.00000000000E+00 0.  1.
</event>
<event>
 6    1  0.6447971E-006  0.1040542E+03  0.7561462E-02  0.1271994E+00
          4   -1    0    0  501    0  0.00000000000E+00  0.00000000000E+00  0.28896450425E+02  0.28896450425E+02  0.00000000000E+00 0. -1.
         -4   -1    0    0    0  501 -0.00000000000E+00 -0.00000000000E+00 -0.59671779395E+03  0.59671779395E+03  0.00000000000E+00 0.  1.
          5    1    1    2  502    0  0.44809669407E+02 -0.42622860738E+02 -0.24786367159E+03  0.25549654953E+03  0.41800000000E+01 0.  1.
         -5    1    1    2    0  502  0.24525528643E+02  0.63006640841E+02 -0.96131671956E+02  0.11760148425E+03  0.41800000000E+01 0.  1.
        -11    1    1    2    0    0 -0.43957431683E+02 -0.27718053149E+02 -0.21972106060E+03  0.22578283979E+03  0.00000000000E+00 0.  1.
         11    1    1    2    0    0 -0.25377766367E+02  0.73342730463E+01 -0.41049393738E+01  0.26733370797E+02  0.00000000000E+00 0. -1.
</event>
<event>
 6    1  0.6447971E-006  0.7177457E+02  0.7561462E-02  0.1354160E+00
         -1   -1    0    0    0  501 -0.00000000000E+00  0.00000000000E+00  0.36478930307E+03  0.36478930307E+03  0.00000000000E+00 0.  1.
          1   -1    0    0  501    0  0.00000000000E+00 -0.00000000000E+00 -0.59749410622E+02  0.59749410622E+02  0.00000000000E+00 0. -1.
          5    1    1    2  502    0  0.37390807969E+00  0.98831001756E+01 -0.69878625719E+01  0.12810858662E+02  0.41800000000E+01 0. -1.
         -5    1    1    2    0  502 -0.21015243630E+02 -0.32547005765E+02  0.31469472680E+03  0.31709807872E+03  0.41800000000E+01 0.  1.
        -11    1    1    2    0    0  0.21661938908E+02  0.56232679641E+02 -0.74009318171E+01  0.60713488194E+02  0.00000000000E+00 0. -1.
         11    1    1    2    0    0 -0.10206033571E+01 -0.33568774052E+02  0.47339600403E+01  0.33916288125E+02  0.00000000000E+00 0.  1.
</event>
<event>
 6    1  0.6447971E-006  0.1090139E+03  0.7561462E-02  0.1262407E+00
          2   -1    0    0  501    0  0.00000000000E+00  0.00000000000E+00  0.85724232243E+03  0.85724232243E+03  0.00000000000E+00 0. -1.
         -2   -1    0    0    0  501 -0.00000000000E+00 -0.00000000000E+00 -0.16331219710E+02  0.16331219710E+02  0.00000000000E+00 0.  1.
          5    1    1    2  502    0 -0.38043682593E+02  0.37780238511E+02  0.30967034735E+03  0.31430536844E+03  0.41800000000E+01 0.  1.
         -5    1    1    2    0  502  0.62588109005E+02 -0.36440597483E+02  0.31611848905E+03  0.32433556705E+03  0.41800000000E+01 0.  1.
        -11    1    1    2    0    0 -0.20114166268E+02  0.42827785315E+02  0.82830616344E+02  0.95392399507E+02  0.00000000000E+00 0.  1.
         11    1    1    2    0    0 -0.44302601434E+01 -0.44167426343E+02  0.13229164998E+03  0.13954020714E+03  0.00000000000E+00 0. -1.
</event>
<event>
 6    1  0.6447971E-006  0.1190088E+03  0.7561462E-02  0.1244741E+00
          3   -1    0    0  501    0  0.00000000000E+00  0.00000000000E+00  0.27222580177E+02  0.27222580177E+02  0.00000000000E+00 0. -1.
         -3   -1    0    0    0  501 -0.00000000000E+00 -0.00000000000E+00 -0.64866514768E+03  0.64866514768E+03  0.00000000000E+00 0.  1.
          5    1    1    2  502    0  0.48121221193E+02  0.87792272796E+01 -0.27426695814E+03  0.27862620747E+03  0.41800000000E+01 0. -1.
         -5    1    1    2    0  502 -0.33638811455E+02 -0.70007138925E+02 -0.16497455588E+03  0.18239146259E+03  0.41800000000E+01 0. -1.
        -11    1    1    2    0    0 -0.46465446138E+02  0.53689772492E+01 -0.10056374031E+03  0.11090955534E+03  0.00000000000E+00 0.  1.
         11    1    1    2    0    0  0.31983036400E+02  0.55858934396E+02 -0.81637313177E+02  0.10396050246E+03  0.00000000000E+00 0. -1.
</event>
<event>
 6    1  0.6447971E-006  0.1291565E+03  0.7561462E-02  0.1228713E+00
          2   -1    0    0  501    0  0.00000000000E+00  0.00000000000E+00  0.28890570950E+03  0.28890570950E+03  0.00000000000E+00 0. -1.
         -2   -1    0    0    0  501 -0.00000000000E+00 -0.00000000000E+00 -0.76069918373E+02  0.76069918373E+02  0.00000000000E+00 0.  1.
          5    1    1    2  502    0 -0.29318448438E+02  0.13541017184E+02  0.63562727093E+01  0.33178384046E+02  0.41800000000E+01 0.  1.
         -5    1    1    2    0  502  0.12260481093E+03  0.29640712927E+01  0.70986048363E+02  0.14176465301E+03  0.41800000000E+01 0.  1.
        -11    1    1    2    0    0 -0.33440505195E+02 -0.26108934425E+02  0.91597647626E+00  0.42435631931E+02  0.00000000000E+00 0.  1.
         11    1    1    2    0    0 -0.59845857298E+02  0.96038459483E+01  0.13457749357E+03  0.14759695888E+03  0.00000000000E+00 0. -1.
</event>
<event>
 6    1  0.6447971E-006  0.5858817E+02  0.7561462E-02  0.1403854E+00
          1   -1    0    0  501    0  0.00000000000E+00  0.00000000000E+00  0.62379000091E+02  0.62379000091E+02  0.00000000000E+00 0. -1.
         -1   -1    0    0    0  501 -0.00000000000E+00 -0.00000000000E+00 -0.21092639702E+03  0.21092639702E+03  0.00000000000E+00 0.  1.
          5    1    1    2  502    0 -0.30462941726E+02  0.16918621384E+02 -0.13901916194E+03  0.14338071821E+03  0.41800000000E+01 0.  1.
         -5    1    1    2    0  502  0.37379133049E+01 -0.23440493847E+02  0.20105476389E+02  0.31386801820E+02  0.41800000000E+01 0.  1.
        -11    1    1    2    0    0  0.26060565756E+02 -0.19123829750E+02 -0.54142615115E+02  0.63057883910E+02  0.00000000000E+00 0.  1.
         11    1    1    2    0    0  0.66446266493E+00  0.25645702213E+02  0.24508903739E+02  0.35479993167E+02  0.00000000000E+00 0. -1.
</event>
<event>
 6    1  0.6447971E-006  0.7032527E+02  0.7561462E-02  0.1358990E+00
         -4   -1    0    0    0  501 -0.00000000000E+00  0.00000000000E+00  0.31706647579E+03  0.31706647579E+03  0.00000000000E+00 0. -1.
          4   -1    0    0  501    0  0.00000000000E+00 -0.00000000000E+00 -0.55367825037E+02  0.55367825037E+02  0.00000000000E+00 0.  1.
          5    1    1    2  502    0  0.18539241719E+02 -0.15178077137E+02 -0.76658695718E+01  0.25501283603E+02  0.41800000000E+01 0. -1.
         -5    1    1    2    0  502  0.17452001989E+02 -0.59708154884E+00  0.24488373168E+03  0.24554112348E+03  0.41800000000E+01 0. -1.
        -11    1    1    2    0    0 -0.66538016530E+02  0.11622077444E+02  0.17729463717E+02  0.69833474863E+02  0.00000000000E+00 0. -1.
         11    1    1    2    0    0  0.30546772822E+02  0.41530812417E+01  0.67513249267E+01  0.31558418876E+02  0.00000000000E+00 0.  1.
</event>
<event>
 6    1  0.6447971E-006  0.2006724E+03  0.7561462E-02  0.1149173E+00
          2   -1    0    0  501    0  0.00000000000E+00  0.00000000000E+00  0.58127413677E+03  0.58127413677E+03  0.00000000000E+00 0. -1.
         -2   -1    0    0    0  501 -0.00000000000E+00 -0.00000000000E+00 -0.84690173839E+02  0.84690173839E+02  0.00000000000E+00 0.  1.
          5    1    1    2  502    0  0.12321745456E+03  0.14230141766E+03  0.11267395409E+03  0.21941997836E+03  0.41800000000E+01 0.  1.
         -5    1    1    2    0  502  0.67133375412E+01 -0.25312785288E+02  0.19794157052E+02  0.33092099561E+02  0.41800000000E+01 0.  1.
        -11    1    1    2    0    0 -0.78505281272E+02 -0.10926317639E+03  0.19799073677E+03  0.23937805402E+03  0.00000000000E+00 0. -1.
         11    1    1    2    0    0 -0.51425510825E+02 -0.77254559785E+01  0.16612511503E+03  0.17407417866E+03  0.00000000000E+00 0.  1.
</event>
<event>
 6    1  0.6447971E-006  0.1086688E+03  0.7561462E-02  0.1263055E+00
          2   -1    0    0  501    0  0.00000000000E+00  0.00000000000E+00  0.12947090753E+03  0.12947090753E+03  0.00000000000E+00 0. -1.
         -2   -1    0    0    0  501 -0.00000000000E+00 -0.00000000000E+00 -0.10063104445E+03  0.10063104445E+03  0.00000000000E+00 0.  1.
          5    1    1    2  502    0  0.20414989686E+02  0.62074404654E+02 -0.41704946646E+01  0.65611500080E+02  0.41800000000E+01 0. -1.
         -5    1    1    2    0  502 -0.38181168622E+02 -0.48139216099E+02 -0.75976293091E+01  0.62051447486E+02  0.41800000000E+01 0. -1.
        -11    1    1    2    0    0 -0.35365727759E+02 -0.81326136089E-01  0.22066646068E+01  0.35434597254E+02  0.00000000000E+00 0.  1.
         11    1    1    2    0    0  0.53131906695E+02 -0.13853862418E+02  0.38401322447E+02  0.67004407158E+02  0.00000000000E+00 0. -1.
</event>
<event>
 6    1  0.6447971E-006  0.8951829E+02  0.7561462E-02  0.1304022E+00
         -3   -1    0    0    0  501 -0.00000000000E+00  0.00000000000E+00  0.79652465563E+02  0.79652465563E+02  0.00000000000E+00 0.  1.
          3   -1    0    0  501    0  0.00000000000E+00 -0.00000000000E+00 -0.15591485207E+03  0.15591485207E+03  0.00000000000E+00 0. -1.
          5    1    1    2  502    0 -0.48453331631E+02  0.25720876583E+02 -0.15762257369E+02  0.57229450423E+02  0.41800000000E+01 0.  1.
         -5    1    1    2    0  502  0.59438796866E+02 -0.38208165654E+02 -0.87661520211E+01  0.71324275789E+02  0.41800000000E+01 0.  1.
        -11    1    1    2    0    0 -0.22873156187E+01 -0.19732082961E+02 -0.67313537621E+02  0.70183326067E+02  0.00000000000E+00 0. -1.
         11    1    1    2    0    0 -0.86981496164E+01  0.32219372032E+02  0.15579560501E+02  0.36830265357E+02  0.00000000000E+00 0.  1.
</event>
<event>
 6    1  0.6447971E-006  0.1170387E+03  0.7561462E-02  0.1248064E+00
          2   -1    0    0  501    0  0.00000000000E+00  0.00000000000E+00  0.13745283134E+03  0.13745283134E+03  0.00000000000E+00 0.  1.
         -2   -1    0    0    0  501 -0.00000000000E+00 -0.00000000000E+00 -0.16221574725E+03  0.16221574725E+03  0.00000000000E+00 0. -1.
          5    1    1    2  502    0 -0.43397641716E+02  0.65526162121E+02 -0.32024667818E+01  0.78770307999E+02  0.41800000000E+01 0. -1.
         -5    1    1    2    0  502 -0.33844557872E+02 -0.39084969930E+02 -0.71262921085E+02  0.88141734119E+02  0.41800000000E+01 0. -1.
        -11    1    1    2    0    0  0.84896207258E+02 -0.10148554070E+02  0.66359705771E+02  0.10823109399E+03  0.00000000000E+00 0.  1.
         11    1    1    2    0    0 -0.76540076694E+01 -0.16292638121E+02 -0.16657233822E+02  0.24525442482E+02  0.00000000000E+00 0. -1.
</event>
<event>
 6    1  0.6447971E-006  0.1311888E+03  0.7561462E-02  0.1225702E+00
          4   -1    0    0  501    0  0.00000000000E+00  0.00000000000E+00  0.96574409679E+03  0.96574409679E+03  0.00000000000E+00 0. -1.
         -4   -1    0    0    0  501 -0.00000000000E+00 -0.00000000000E+00 -0.26074688188E+02  0.26074688188E+02  0.00000000000E+00 0.  1.
          5    1    1    2  502    0  0.12559903392E+02  0.12544251434E+02  0.24046691796E+03  0.24115745987E+03  0.41800000000E+01 0.  1.
         -5    1    1    2    0  502 -0.11330207883E+03  0.49124736886E+02  0.25568538925E+03  0.28397727289E+03  0.41800000000E+01 0.  1.
        -11    1    1    2    0    0  0.44666199362E+02 -0.13525160473E+02  0.59497942533E+02  0.75617488036E+02  0.00000000000E+00 0.  1.
         11    1    1    2    0    0  0.56075976076E+02 -0.48143827846E+02  0.38401915885E+03  0.39106656418E+03  0.00000000000E+00 0. -1.
</event>
<event>
 6    1  0.6447971E-006  0.8751536E+02  0.7561462E-02  0.1308983E+00
         -1   -1    0    0    0  501 -0.00000000000E+00  0.00000000000E+00  0.13820738589E+03  0.13820738589E+03  0.00000000000E+00 0.  1.
          1   -1    0    0  501    0  0.00000000000E+00 -0.00000000000E+00 -0.11527778483E+03  0.11527778483E+03  0.00000000000E+00 0. -1.
          5    1    1    2  502    0  0.33901925584E+02 -0.57559486512E+01 -0.28751832940E+02  0.45017905334E+02  0.41800000000E+01 0.  1.
         -5    1    1    2    0  502 -0.35821446866E+02  0.57772832778E+02  0.67528397683E+02  0.95908462381E+02  0.41800000000E+01 0.  1.
        -11    1    1    2    0    0  0.23853679224E+02 -0.12119648298E+02 -0.49278547860E+02  0.56073694069E+02  0.00000000000E+00 0. -1.
         11    1    1    2    0    0 -0.21934157942E+02 -0.39897235829E+02  0.33431584170E+02  0.56485108936E+02  0.00000000000E+00 0.  1.
</event>
<event>
 6    1  0.6447971E-006  0.3458926E+03  0.7561462E-02  0.1064314E+00
         -2   -1    0    0    0  501 -0.00000000000E+00  0.00000000000E+00  0.39363097131E+03  0.39363097131E+03  0.00000000000E+00 0.  1.
          2   -1    0    0  501    0  0.00000000000E+00 -0.00000000000E+00 -0.39668466574E+03  0.39668466574E+03  0.00000000000E+00 0. -1.
          5    1    1    2  502    0 -0.23238956417E+03 -0.24549850207E+02  0.45927910135E+02  0.23818994523E+03  0.41800000000E+01 0.  1.
         -5    1    1    2    0  502 -0.11125852224E+03  0.22055234331E+02  0.11431761507E+03  0.16109277341E+03  0.41800000000E+01 0.  1.
        -11    1    1    2    0    0  0.21251218647E+03 -0.10601484748E+02 -0.53249956639E+02  0.21933850268E+03  0.00000000000E+00 0. -1.
         11    1    1    2    0    0  0.13113589994E+03  0.13096100624E+02 -0.11004926299E+03  0.17169441572E+03  0.00000000000E+00 0.  1.
</event>
<event>
 6    1  0.6447971E-006  0.9353844E+02  0.7561462E-02  0.1294502E+00
         -1   -1    0    0    0  501 -0.00000000000E+00  0.00000000000E+00  0.64115383840E+03  0.64115383840E+03  0.00000000000E+00 0.  1.
          1   -1    0    0  501    0  0.00000000000E+00 -0.00000000000E+00 -0.18989457661E+02  0.18989457661E+02  0.00000000000E+00 0. -1.
          5    1    1    2  502    0  0.32244470099E+02 -0.37890763773E+02  0.32357481660E+03  0.32740426107E+03  0.41800000000E+01 0.  1.
         -5    1    1    2    0  502 -0.19436611454E+02  0.46818052646E+02  0.74926477797E+02  0.90560263877E+02  0.41800000000E+01 0.  1.
        -11    1    1    2    0    0 -0.46656101258E+02 -0.19869323485E+02  0.84568116711E+02  0.98607039122E+02  0.00000000000E+00 0. -1.
         11    1    1    2    0    0  0.33848242613E+02  0.10942034612E+02  0.13909496963E+03  0.14357173199E+03  0.00000000000E+00 0.  1.
</event>
<event>
 6    1  0.6447971E-006  0.1514575E+03  0.7561462E-02  0.1198693E+00
         -2   -1    0    0    0  501 -0.00000000000E+00  0.00000000000E+00  0.82609070885E+03  0.82609070885E+03  0.00000000000E+00 0.  1.
          2   -1    0    0  501    0  0.00000000000E+00 -0.00000000000E+00 -0.50100405919E+02  0.50100405919E+02  0.00000000000E+00 0. -1.
          5    1    1    2  502    0 -0.65643106269E+01  0.14927242789E+01  0.27196152602E+03  0.27207694212E+03  0.41800000000E+01 0. -1.
         -5    1    1    2    0  502 -0.40572150914E+02  0.13799471756E+03  0.32665309836E+03  0.35694307750E+03  0.41800000000E+01 0. -1.
        -11    1    1    2    0    0  0.17836382720E+02 -0.10183449637E+03  0.16989443814E+03  0.19887815694E+03  0.00000000000E+00 0.  1.
         11    1    1    2    0    0  0.29300078821E+02 -0.37652945470E+02  0.74812404069E+01  0.48292938195E+02  0.00000000000E+00 0. -1.
</event>
<event>
 6    1  0.6447971E-006  0.9874747E+02  0.7561462E-02  0.1282952E+00
         -1   -1    0    0    0  501 -0.00000000000E+00  0.00000000000E+00  0.22486559492E+02  0.22486559492E+02  0.00000000000E+00 0.  1.
          1   -1    0    0  501    0  0.00000000000E+00 -0.00000000000E+00 -0.53481530113E+03  0.53481530113E+03  0.00000000000E+00 0. -1.
          5    1    1    2  502    0 -0.25813374712E+02 -0.56083610347E+02 -0.11985131335E+03  0.13488332505E+03  0.41800000000E+01 0.  1.
         -5    1    1    2    0  502  0.27961786938E+02  0.56382288126E+02 -0.13593758198E+03  0.14985767427E+03  0.41800000000E+01 0.  1.
        -11    1    1    2    0    0 -0.23015951776E+02 -0.29020080733E+02 -0.21386851663E+03  0.21705216315E+03  0.00000000000E+00 0. -1.
         11    1    1    2    0    0  0.20867539550E+02  0.28721402954E+02 -0.42671329672E+02  0.55508698152E+02  0.00000000000E+00 0.  1.
</event>
<event>
 6    1  0.6447971E-006  0.2408403E+03  0.7561462E-02  0.1119234E+00
         -2   -1    0    0    0  501 -0.00000000000E+00  0.00000000000E+00  0.11241793789E+04  0.11241793789E+04  0.00000000000E+00 0.  1.
          2   -1    0    0  501    0  0.00000000000E+00 -0.00000000000E+00 -0.63973240214E+02  0.63973240214E+02  0.00000000000E+00 0. -1.
          5    1    1    2  502    0  0.81102120519E+02  0.14128756819E+03  0.33237558969E+03  0.37017662797E+03  0.41800000000E+01 0. -1.
         -5    1    1    2    0  502 -0.13691209386E+02  0.79218166105E+02  0.39338042843E+03  0.40153281426E+03  0.41800000000E+01 0. -1.
        -11    1    1    2    0    0 -0.64368869459E+02 -0.10841817201E+03  0.23443240677E+03  0.26618866377E+03  0.00000000000E+00 0. -1.
         11    1    1    2    0    0 -0.30420416736E+01 -0.11208756229E+03  0.10001771382E+03  0.15025451312E+03  0.00000000000E+00 0.  1.
</event>
<event>
 6    1  0.6447971E-006  0.1838621E+03  0.7561462E-02  0.1164117E+00
          2   -1    0    0  501    0  0.00000000000E+00  0.00000000000E+00  0.73576030843E+02  0.73576030843E+02  0.00000000000E+00 0. -1.
         -2   -1    0    0    0  501 -0.00000000000E+00 -0.00000000000E+00 -0.51713902815E+03  0.51713902815E+03  0.00000000000E+00 0.  1.
          5    1    1    2  502    0  0.26488189198E+02  0.12373334006E+02 -0.39734024964E+02  0.49507461066E+02  0.41800000000E+01 0. -1.
         -5    1    1    2    0  502 -0.14471080360E+03  0.97125210855E+02 -0.20654113395E+03  0.27027992097E+03  0.41800000000E+01 0. -1.
        -11    1    1    2    0    0  0.42484470215E+02 -0.21050263903E+02 -0.71262663315E+01  0.47946089430E+02  0.00000000000E+00 0. -1.
         11    1    1    2    0    0  0.75738144190E+02 -0.88448280958E+02 -0.19016157206E+03  0.22298158753E+03  0.00000000000E+00 0.  1.
</event>
<event>
 6    1  0.6447971E-006  0.8330962E+02  0.7561462E-02  0.1319913E+00
         -2   -1    0    0    0  501 -0.00000000000E+00  0.00000000000E+00  0.47375072337E+03  0.47375072337E+03  0.00000000000E+00 0.  1.
          2   -1    0    0  501    0  0.00000000000E+00 -0.00000000000E+00 -0.53379143419E+02  0.53379143419E+02  0.00000000000E+00 0. -1.
          5    1    1    2  502    0  0.31182492926E+02  0.11198374694E+02  0.51005645859E+00  0.33398862532E+02  0.41800000000E+01 0. -1.
         -5    1    1    2    0  502 -0.25173506045E+02  0.30901511674E+02  0.38582191999E+03  0.38789771226E+03  0.41800000000E+01 0.  1.
        -11    1    1    2    0    0  0.33745644248E+02 -0.41369081748E+02 -0.16018979910E+00  0.53387218425E+02  0.00000000000E+00 0. -1.
         11    1    1    2    0    0 -0.39754631129E+02 -0.73080461983E+00  0.34199793304E+02  0.52446073577E+02  0.00000000000E+00 0.  1.
</event>
<event>
 6    1  0.6447971E-006  0.1248792E+03  0.7561462E-02  0.1235258E+00
         -2   -1    0    0    0  501 -0.00000000000E+00  0.00000000000E+00  0.44801713690E+02  0.44801713690E+02  0.00000000000E+00 0.  1.
          2   -1    0    0  501    0  0.00000000000E+00 -0.00000000000E+00 -0.43963360200E+03  0.43963360200E+03  0.00000000000E+00 0. -1.
          5    1    1    2  502    0  0.17025258415E+02 -0.32078869479E+02 -0.14814178942E+03  0.15258563322E+03  0.41800000000E+01 0. -1.
         -5    1    1    2    0  502  0.78542021353E+02  0.22876961380E+02 -0.53746172097E+02  0.97971056416E+02  0.41800000000E+01 0.  1.
        -11    1    1    2    0    0 -0.76598707661E+02 -0.34227488031E+02 -0.13597125254E+03  0.15977191390E+03  0.00000000000E+00 0. -1.
         11    1    1    2    0    0 -0.18968572107E+02  0.43429396131E+02 -0.56972674247E+02  0.74106712158E+02  0.00000000000E+00 0.  1.
</event>
<event>
 6    1  0.6447971E-006  0.1250525E+03  0.7561462E-02  0.1234987E+00
          1   -1    0    0  501    0  0.00000000000E+00  0.00000000000E+00  0.17572797552E+03  0.17572797552E+03  0.00000000000E+00 0. -1.
         -1   -1    0    0    0  501 -0.00000000000E+00 -0.00000000000E+00 -0.92615371085E+02  0.92615371085E+02  0.00000000000E+00 0.  1.
          5    1    1    2  502    0 -0.96316413559E+02 -0.16816881225E+02  0.34846057554E+02  0.10388156305E+03  0.41800000000E+01 0.  1.
         -5    1    1    2    0  502  0.39202730475E+02 -0.17545976877E+02  0.62763323191E+01  0.43607110987E+02  0.41800000000E+01 0.  1.
        -11    1    1    2    0    0  0.51819400222E+02 -0.19202326419E+02  0.48847846665E+01  0.55478290353E+02  0.00000000000E+00 0.  1.
         11    1    1    2    0    0  0.52942828626E+01  0.53565184521E+02  0.37105429900E+02  0.65376382218E+02  0.00000000000E+00 0. -1.
</event>
<event>
 6    1  0.6447971E-006  0.1532293E+03  0.7561462E-02  0.1196560E+00
          1   -1    0    0  501    0  0.00000000000E+00  0.00000000000E+00  0.59180759640E+03  0.59180759640E+03  0.00000000000E+00 0. -1.
         -1   -1    0    0    0  501 -0.00000000000E+00 -0.00000000000E+00 -0.47737037643E+02  0.47737037643E+02  0.00000000000E+00 0.  1.
          5    1    1    2  502    0 -0.80429469974E+02  0.96400342630E+01  0.20418077424E+03  0.21970227780E+03  0.41800000000E+01 0.  1.
         -5    1    1    2    0  502 -0.95722458903E+01  0.82267775069E+02  0.72973862922E+02  0.11046389354E+03  0.41800000000E+01 0.  1.
        -11    1    1    2    0    0  0.15889054958E+01 -0.39718578100E+02  0.25999032353E+02  0.47497786793E+02  0.00000000000E+00 0.  1.
         11    1    1    2    0    0  0.88412810369E+02 -0.52189231232E+02  0.24091688924E+03  0.26188067591E+03  0.00000000000E+00 0. -1.
</event>
<event>
 6    1  0.6447971E-006  0.1575706E+03  0.7561462E-02  0.1191467E+00
         -1   -1    0    0    0  501 -0.00000000000E+00  0.00000000000E+00  0.23518745142E+03  0.23518745142E+03  0.00000000000E+00 0.  1.
          1   -1    0    0  501    0  0.00000000000E+00 -0.00000000000E+00 -0.27465618431E+03  0.27465618431E+03  0.00000000000E+00 0. -1.
          5    1    1    2  502    0 -0.31876457409E+02  0.17260927920E+02  0.11784118808E+03  0.12336152633E+03  0.41800000000E+01 0.  1.
         -5    1    1    2    0  502 -0.24734797059E+02  0.11527359810E+03  0.40876552098E+02  0.12485262319E+03  0.41800000000E+01 0.  1.
        -11    1    1    2    0    0 -0.66711691555E+01 -0.74553895666E+02 -0.48836809604E+02  0.89374615127E+02  0.00000000000E+00 0.  1.
         11    1    1    2    0    0  0.63282423623E+02 -0.57980630357E+02 -0.14934966346E+03  0.17225487109E+03  0.00000000000E+00 0. -1.
</event>
<event>
 6    1  0.6447971E-006  0.1612513E+03  0.7561462E-02  0.1187291E+00
          1   -1    0    0  501    0  0.00000000000E+00  0.00000000000E+00  0.92046690771E+03  0.92046690771E+03  0.00000000000E+00 0. -1.
         -1   -1    0    0    0  501 -0.00000000000E+00 -0.00000000000E+00 -0.35606387085E+02  0.35606387085E+02  0.00000000000E+00 0.  1.
          5    1    1    2  502    0  0.40278965994E+02  0.46055899863E+01  0.74649558822E+02  0.85050782436E+02  0.41800000000E+01 0. -1.
         -5    1    1    2    0  502 -0.49368930155E+02  0.12003605743E+03  0.18011176743E+03  0.22204429179E+03  0.41800000000E+01 0.  1.
        -11    1    1    2    0    0 -0.16150991743E+02 -0.12559397537E+03  0.56789140141E+03  0.58183790267E+03  0.00000000000E+00 0. -1.
         11    1    1    2    0    0  0.25240955903E+02  0.95232796040E+00  0.62207792955E+02  0.67140317901E+02  0.00000000000E+00 0.  1.
</event>
<event>
 6    1  0.6447971E-006  0.1227971E+03  0.7561462E-02  0.1238553E+00
         -1   -1    0    0    0  501 -0.00000000000E+00  0.00000000000E+00  0.35624399665E+02  0.35624399665E+02  0.00000000000E+00 0.  1.
          1   -1    0    0  501    0  0.00000000000E+00 -0.00000000000E+00 -0.66353941653E+03  0.66353941653E+03  0.00000000000E+00 0. -1.
          5    1    1    2  502    0  0.42347610507E+02 -0.97252041242E+02 -0.11391008912E+03  0.15570568533E+03  0.41800000000E+01 0.  1.
         -5    1    1    2    0  502 -0.92884835193E+01  0.35608010089E+02 -0.34680212513E+02  0.50738504595E+02  0.41800000000E+01 0.  1.
        -11    1    1    2    0    0  0.17833664366E+02 -0.50265756077E+01 -0.27395407905E+02  0.33072865333E+02  0.00000000000E+00 0.  1.
         11    1    1    2    0    0 -0.50892791353E+02  0.66670606760E+02 -0.45192930732E+03  0.45964676093E+03  0.00000000000E+00 0. -1.
</event>
<event>
 6    1  0.6447971E-006  0.1504507E+03  0.7561462E-02  0.1199920E+00
         -2   -1    0    0    0  501 -0.00000000000E+00  0.00000000000E+00  0.53751065674E+03  0.53751065674E+03  0.00000000000E+00 0.  1.
          2   -1    0    0  501    0  0.00000000000E+00 -0.00000000000E+00 -0.55142036873E+02  0.55142036873E+02  0.00000000000E+00 0. -1.
          5    1    1    2  502    0 -0.59086329956E+01  0.19737693339E+02  0.10555056238E+03  0.10762379895E+03  0.41800000000E+01 0.  1.
         -5    1    1    2    0  502 -0.54776760975E+02 -0.13484390277E+03  0.20253030797E+03  0.24943810796E+03  0.41800000000E+01 0.  1.
        -11    1    1    2    0    0  0.24032350542E+01  0.35664225751E+02  0.42152426308E+00  0.35747590406E+02  0.00000000000E+00 0. -1.
         11    1    1    2    0    0  0.58282158916E+02  0.79441983684E+02  0.17386622526E+03  0.19984319630E+03  0.00000000000E+00 0.  1.
</event>
<event>
 6    1  0.6447971E-006  0.1435782E+03  0.7561462E-02  0.1208594E+00
          1   -1    0    0  501    0  0.00000000000E+00  0.00000000000E+00  0.18445629895E+03  0.18445629895E+03  0.00000000000E+00 0. -1.
         -1   -1    0    0    0  501 -0.00000000000E+00 -0.00000000000E+00 -0.13718675264E+03  0.13718675264E+03  0.00000000000E+00 0.  1.
          5    1    1    2  502    0  0.65029930450E+02  0.10334647891E+03 -0.19032451901E+02  0.12364907272E+03  0.41800000000E+01 0.  1.
         -5    1    1    2    0  502 -0.33205868928E+02 -0.10282334682E+02 -0.19510459522E+02  0.40081000094E+02  0.41800000000E+01 0.  1.
        -11    1    1    2    0    0 -0.61222795017E+02 -0.65740709004E+02  0.73084528229E+02  0.11580768419E+03  0.00000000000E+00 0. -1.
         11    1    1    2    0    0  0.29398733495E+02 -0.27323435228E+02  0.12727929506E+02  0.42105294600E+02  0.00000000000E+00 0.  1.
</event>
<event>
 6    1  0.6447971E-006  0.1572126E+03  0.7561462E-02  0.1191880E+00
          1   -1    0    0  501    0  0.00000000000E+00  0.00000000000E+00  0.29373265298E+03  0.29373265298E+03  0.00000000000E+00 0. -1.
         -1   -1    0    0    0  501 -0.00000000000E+00 -0.00000000000E+00 -0.10626249238E+03  0.10626249238E+03  0.00000000000E+00 0.  1.
          5    1    1    2  502    0  0.66857518594E+02 -0.16511111618E+02  0.25824964905E+02  0.73667807160E+02  0.41800000000E+01 0.  1.
         -5    1    1    2    0  502 -0.27353922071E+02 -0.10154373914E+03  0.40793142807E+01  0.10532559620E+03  0.41800000000E+01 0.  1.
        -11    1    1    2    0    0 -0.45752449042E+02  0.36866858238E+02  0.21765223545E+02  0.62659211499E+02  0.00000000000E+00 0.  1.
         11    1    1    2    0    0  0.62488525197E+01  0.81187992517E+02  0.13580065787E+03  0.15834253050E+03  0.00000000000E+00 0. -1.
</event>
<event>
 6    1  0.6447971E-006  0.1108781E+03  0.7561462E-02  0.1258952E+00
         -3   -1    0    0    0  501 -0.00000000000E+00  0.00000000000E+00  0.11716055516E+03  0.11716055516E+03  0.00000000000E+00 0.  1.
          3   -1    0    0  501    0  0.00000000000E+00 -0.00000000000E+00 -0.15785626372E+03  0.15785626372E+03  0.00000000000E+00 0. -1.
          5    1    1    2  502    0  0.18152222110E+02  0.60464721800E+02  0.19487528456E+02  0.66202129235E+02  0.41800000000E+01 0. -1.
         -5    1    1    2    0  502  0.47000885135E+02 -0.60855589969E+02  0.74607451403E+01  0.77366796185E+02  0.41800000000E+01 0. -1.
        -11    1    1    2    0    0 -0.78619899608E+01 -0.19348410930E+02  0.17290239992E+02  0.27113175592E+02  0.00000000000E+00 0.  1.
         11    1    1    2    0    0 -0.57291117284E+02  0.19739279100E+02 -0.84934222158E+02  0.10433471787E+03  0.00000000000E+00 0. -1.
</event>
<event>
 6    1  0.6447971E-006  0.1278855E+03  0.7561462E-02  0.1230627E+00
         -1   -1    0    0    0  501 -0.00000000000E+00  0.00000000000E+00  0.49354696923E+02  0.49354696923E+02  0.00000000000E+00 0.  1.
          1   -1    0    0  501    0  0.00000000000E+00 -0.00000000000E+00 -0.43441026548E+03  0.43441026548E+03  0.00000000000E+00 0. -1.
          5    1    1    2  502    0 -0.35259257687E+02  0.49269263003E+02 -0.33352582764E+02  0.69285948839E+02  0.41800000000E+01 0. -1.
         -5    1    1    2    0  502 -0.57847637610E+02 -0.27483673447E+02 -0.21850741101E+03  0.22773814469E+03  0.41800000000E+01 0. -1.
        -11    1    1    2    0    0  0.15849039949E+02 -0.46993169757E+02 -0.52281363386E+02  0.72061716803E+02  0.00000000000E+00 0. -1.
         11    1    1    2    0    0  0.77257855348E+02  0.25207580201E+02 -0.80914211405E+02  0.11467915207E+03  0.00000000000E+00 0.  1.
</event>
<event>
 6    1  0.6447971E-006  0.5325290E+02  0.7561462E-02  0.1428546E+00
         -3   -1    0    0    0  501 -0.00000000000E+00  0.00000000000E+00  0.10258166364E+03  0.10258166364E+03  0.00000000000E+00 0.  1.
          3   -1    0    0  501    0  0.00000000000E+00 -0.00000000000E+00 -0.11739632611E+03  0.11739632611E+03  0.00000000000E+00 0. -1.
          5    1    1    2  502    0  0.26849388797E+02 -0.18480382924E+01  0.63243918294E+02  0.68859062770E+02  0.41800000000E+01 0.  1.
         -5    1    1    2    0  502 -0.37311346790E+02  0.30362461227E+02 -0.39076959592E+02  0.62116799837E+02  0.41800000000E+01 0.  1.
        -11    1    1    2    0    0  0.65854766336E+01 -0.93759902138E+01 -0.59549161259E+02  0.60641407484E+02  0.00000000000E+00 0. -1.
         11    1    1    2    0    0  0.38764813590E+01 -0.19138432721E+02  0.20567540085E+02  0.28360719665E+02  0.00000000000E+00 0.  1.
</event>
<event>
 6    1  0.6447971E-006  0.1506018E+03  0.7561462E-02  0.1199736E+00
         -2   -1    0    0    0  501 -0.00000000000E+00  0.00000000000E+00  0.44661671868E+03  0.44661671868E+03  0.00000000000E+00 0.  1.
          2   -1    0    0  501    0  0.00000000000E+00 -0.00000000000E+00 -0.54227650145E+02  0.54227650145E+02  0.00000000000E+00 0. -1.
          5    1    1    2  502    0 -0.15552408379E+02 -0.13431801502E+03  0.20813894382E+03  0.24823879410E+03  0.41800000000E+01 0.  1.
         -5    1    1    2    0  502  0.28214190692E+01  0.28565220003E+02  0.48155802574E+02  0.56217309798E+02  0.41800000000E+01 0.  1.
        -11    1    1    2    0    0 -0.36275586394E+02  0.58533599493E+02  0.43412909302E+02  0.81405043651E+02  0.00000000000E+00 0.  1.
         11    1    1    2    0    0  0.49006575703E+02  0.47219195521E+02  0.92681412846E+02  0.11498322128E+03  0.00000000000E+00 0. -1.
</event>
<event>
 6    1  0.6447971E-006  0.1168165E+03  0.7561462E-02  0.1248443E+00
         -2   -1    0    0    0  501 -0.00000000000E+00  0.00000000000E+00  0.57427606258E+02  0.57427606258E+02  0.00000000000E+00 0.  1.
          2   -1    0    0  501    0  0.00000000000E+00 -0.00000000000E+00 -0.37277688231E+03  0.37277688231E+03  0.00000000000E+00 0. -1.
          5    1    1    2  502    0  0.29374406393E+02  0.85610985087E+02 -0.12386963443E+03  0.15347069835E+03  0.41800000000E+01 0. -1.
         -5    1    1    2    0  502  0.24715563266E+02 -0.17259588464E+02  0.14944575578E+02  0.33905238544E+02  0.41800000000E+01 0. -1.
        -11    1    1    2    0    0 -0.29047613881E+02  0.96981521664E+01 -0.11946002133E+03  0.12332280699E+03  0.00000000000E+00 0. -1.
         11    1    1    2    0    0 -0.25042355778E+02 -0.78049548789E+02 -0.86964195866E+02  0.11950574468E+03  0.00000000000E+00 0.  1.
</event>
<event>
 6    1  0.6447971E-006  0.5873845E+02  0.7561462E-02  0.1403203E+00
         -1   -1    0    0    0  501 -0.00000000000E+00  0.00000000000E+00  0.70638917329E+02  0.70638917329E+02  0.00000000000E+00 0.  1.
          1   -1    0    0  501    0  0.00000000000E+00 -0.00000000000E+00 -0.29260885033E+03  0.29260885033E+03  0.00000000000E+00 0. -1.
          5    1    1    2  502    0  0.43975239537E+01  0.29609698184E+00 -0.64704987808E+02  0.64989489439E+02  0.41800000000E+01 0. -1.
         -5    1    1    2    0  502 -0.46794970549E+01 -0.31663432638E+02  0.55598329003E+02  0.64289324518E+02  0.41800000000E+01 0. -1.
        -11    1    1    2    0    0  0.35680920212E+02  0.23898923802E+02 -0.18013582175E+03  0.18518423503E+03  0.00000000000E+00 0. -1.
         11    1    1    2    0    0 -0.35398947111E+02  0.74684118541E+01 -0.32727452446E+02  0.48784718671E+02  0.00000000000E+00 0.  1.
</event>
<event>
 6    1  0.6447971E-006  0.1057075E+03  0.7561462E-02  0.1268732E+00
         -4   -1    0    0    0  501 -0.00000000000E+00  0.00000000000E+00  0.44460739595E+02  0.44460739595E+02  0.00000000000E+00 0.  1.
          4   -1    0    0  501    0  0.00000000000E+00 -0.00000000000E+00 -0.44603435098E+03  0.44603435098E+03  0.00000000000E+00 0. -1.
          5    1    1    2  502    0 -0.17585733430E+02  0.24606102688E+02 -0.64024908136E+02  0.70932218150E+02  0.41800000000E+01 0.  1.
         -5    1    1    2    0  502  0.48904747224E+02 -0.92619783731E+02 -0.62060248824E+02  0.12181562102E+03  0.41800000000E+01 0.  1.
        -11    1    1    2    0    0 -0.71382197543E+00  0.13699377262E+02  0.15273752657E+01  0.13802729961E+02  0.00000000000E+00 0.  1.
         11    1    1    2    0    0 -0.30605191819E+02  0.54314303781E+02 -0.27701582969E+03  0.28394452145E+03  0.00000000000E+00 0. -1.
</event>
<event>
 6    1  0.6447971E-006  0.1530513E+03  0.7561462E-02  0.1196773E+00
          3   -1    0    0  501    0  0.00000000000E+00  0.00000000000E+00  0.29528273984E+03  0.29528273984E+03  0.00000000000E+00 0. -1.
         -3   -1    0    0    0  501 -0.00000000000E+00 -0.00000000000E+00 -0.10481603192E+03  0.10481603192E+03  0.00000000000E+00 0.  1.
          5    1    1    2  502    0  0.55394139557E+02  0.25799165608E+02  0.69446094229E+02  0.92597732408E+02  0.41800000000E+01 0. -1.
         -5    1    1    2    0  502 -0.18870377552E+02  0.91385752000E+02 -0.24371191303E+02  0.96534316091E+02  0.41800000000E+01 0.  1.
        -11    1    1    2    0    0 -0.28940201850E+02  0.47044890535E+01  0.17568963006E+02  0.34180929792E+02  0.00000000000E+00 0.  1.
         11    1    1    2    0    0 -0.75835601552E+01 -0.12188940666E+03  0.12782284199E+03  0.17678579347E+03  0.00000000000E+00 0. -1.
</event>
<event>
 6    1  0.6447971E-006  0.1366555E+03  0.7561462E-02  0.1217901E+00
         -2   -1    0    0    0  501 -0.00000000000E+00  0.00000000000E+00  0.38610311328E+02  0.38610311328E+02  0.00000000000E+00 0.  1.
          2   -1    0    0  501    0  0.00000000000E+00 -0.00000000000E+00 -0.89479465064E+03  0.89479465064E+03  0.00000000000E+00 0. -1.
          5    1    1    2  502    0  0.65352000513E+01 -0.81069933947E+02 -0.33815265712E+03  0.34782141243E+03  0.41800000000E+01 0. -1.
         -5    1    1    2    0  502  0.36214666470E+02 -0.32573639887E+02 -0.34333928817E+01  0.49008210228E+02  0.41800000000E+01 0.  1.
        -11    1    1    2    0    0 -0.23838051993E+01 -0.11368303232E+02 -0.10556821609E+02  0.15696092766E+02  0.00000000000E+00 0.  1.
         11    1    1    2    0    0 -0.40366061322E+02  0.12501187707E+03 -0.50404146770E+03  0.52087924654E+03  0.00000000000E+00 0. -1.
</event>
<event>
 6    1  0.6447971E-006  0.2090977E+03  0.7561462E-02  0.1142283E+00
          2   -1    0    0  501    0  0.00000000000E+00  0.00000000000E+00  0.13466987595E+03  0.13466987595E+03  0.00000000000E+00 0.  1.
         -2   -1    0    0    0  501 -0.00000000000E+00 -0.00000000000E+00 -0.62706438233E+03  0.62706438233E+03  0.00000000000E+00 0. -1.
          5    1    1    2  502    0 -0.56872535157E+02  0.76070722564E+01 -0.22731971798E+03  0.23448684267E+03  0.41800000000E+01 0.  1.
         -5    1    1    2    0  502 -0.85367020157E+02 -0.13123760047E+03 -0.27639012496E+03  0.31767878350E+03  0.41800000000E+01 0.  1.
        -11    1    1    2    0    0  0.11391737318E+03  0.48600350109E+02  0.29541700379E+02  0.12732585757E+03  0.00000000000E+00 0.  1.
         11    1    1    2    0    0  0.28322182132E+02  0.75030178104E+02 -0.18226363813E+02  0.82242774545E+02  0.00000000000E+00 0. -1.
</event>
<event>
 6    1  0.7674287E-006  0.1234464E+03  0.7561462E-02  0.1237518E+00
          2   -1    0    0  501    0  0.00000000000E+00  0.00000000000E+00  0.13331240891E+04  0.13331240891E+04  0.00000000000E+00 0. -1.
         -2   -1    0    0    0  501 -0.00000000000E+00 -0.00000000000E+00 -0.16907561480E+02  0.16907561480E+02  0.00000000000E+00 0.  1.
          5    1    1    2  502    0  0.38006100097E+02  0.90601616509E+02  0.26690480067E+03  0.28444465468E+03  0.41800000000E+01 0. -1.
         -5    1    1    2    0  502 -0.62827327642E+01  0.65795610513E+01  0.46368494070E+03  0.46379301416E+03  0.41800000000E+01 0. -1.
        -11    1    1    2    0    0 -0.38780210266E+02  0.22642953387E+01  0.16784427844E+03  0.17228097267E+03  0.00000000000E+00 0.  1.
         11    1    1    2    0    0  0.70568429329E+01 -0.99445472899E+02  0.41778250778E+03  0.42951300902E+03  0.00000000000E+00 0. -1.
</event>
<event>
 6    1  0.6447971E-006  0.1121923E+03  0.7561462E-02  0.1256563E+00
          2   -1    0    0  501    0  0.00000000000E+00  0.00000000000E+00  0.92720827936E+03  0.92720827936E+03  0.00000000000E+00 0. -1.
         -2   -1    0    0    0  501 -0.00000000000E+00 -0.00000000000E+00 -0.17890377214E+02  0.17890377214E+02  0.00000000000E+00 0.  1.
          5    1    1    2  502    0  0.15825380634E+02  0.23456404092E+02  0.27058628150E+03  0.27209383253E+03  0.41800000000E+01 0.  1.
         -5    1    1    2    0  502 -0.20758143643E+02 -0.93103753778E+02  0.24265060641E+03  0.26076042393E+03  0.41800000000E+01 0.  1.
        -11    1    1    2    0    0  0.38538453445E+02  0.35704316077E+02  0.30406165814E+03  0.30856685261E+03  0.00000000000E+00 0. -1.
         11    1    1    2    0    0 -0.33605690436E+02  0.33943033609E+02  0.92019356094E+02  0.10367754750E+03  0.00000000000E+00 0.  1.
</event>
<event>
 6    1  0.6447971E-006  0.9727892E+02  0.7561462E-02  0.1286124E+00
         -1   -1    0    0    0  501 -0.00000000000E+00  0.00000000000E+00  0.58144524579E+03  0.58144524579E+03  0.00000000000E+00 0.  1.
          1   -1    0    0  501    0  0.00000000000E+00 -0.00000000000E+00 -0.24276569233E+02  0.24276569233E+02  0.00000000000E+00 0. -1.
          5    1    1    2  502    0 -0.47426606090E+02  0.21612487444E+02  0.48877455609E+02  0.71574161858E+02  0.41800000000E+01 0. -1.
         -5    1    1    2    0  502  0.49892419824E+02 -0.74424061677E+01  0.32416073047E+03  0.32808885160E+03  0.41800000000E+01 0.  1.
        -11    1    1    2    0    0  0.40474933227E+02 -0.24732770459E+02  0.10912344725E+03  0.11898679294E+03  0.00000000000E+00 0.  1.
         11    1    1    2    0    0 -0.42940746960E+02  0.10562689183E+02  0.75007043230E+02  0.87072008628E+02  0.00000000000E+00 0. -1.
</event>
<event>
 6    1  0.6447971E-006  0.1140082E+03  0.7561462E-02  0.1253322E+00
          2   -1    0    0  501    0  0.00000000000E+00  0.00000000000E+00  0.51508866041E+03  0.51508866041E+03  0.00000000000E+00 0. -1.
         -2   -1    0    0    0  501 -0.00000000000E+00 -0.00000000000E+00 -0.29364362343E+02  0.29364362343E+02  0.00000000000E+00 0.  1.
          5    1    1    2  502    0  0.34669971950E+02 -0.30848977325E+01  0.20416251970E+02  0.40568698445E+02  0.41800000000E+01 0.  1.
         -5    1    1    2    0  502 -0.84870396955E+02 -0.26859304145E+02  0.20925399225E+03  0.22744034860E+03  0.41800000000E+01 0.  1.
        -11    1    1    2    0    0  0.72658543553E+02  0.35261980951E+02  0.20818661718E+03  0.22330324410E+03  0.00000000000E+00 0.  1.
         11    1    1    2    0    0 -0.22458118548E+02 -0.53177790735E+01  0.47867436656E+02  0.53140731601E+02  0.00000000000E+00 0. -1.
</event>
<event>
 6    1  0.6447971E-006  0.3463183E+03  0.7561462E-02  0.1064136E+00
          1   -1    0    0  501    0  0.00000000000E+00  0.00000000000E+00  0.69785608813E+03  0.69785608813E+03  0.00000000000E+00 0. -1.
         -1   -1    0    0    0  501 -0.00000000000E+00 -0.00000000000E+00 -0.50066542928E+03  0.50066542928E+03  0.00000000000E+00 0.  1.
          5    1    1    2  502    0  0.20109748188E+03  0.30105440464E+02 -0.17005170506E+03  0.26510675125E+03  0.41800000000E+01 0.  1.
         -5    1    1    2    0  502  0.10613390566E+03  0.99018089501E+02 -0.21319578678E+03  0.25795135952E+03  0.41800000000E+01 0.  1.
        -11    1    1    2    0    0 -0.25352536434E+03 -0.13946062836E+03  0.50896760639E+03  0.58546767766E+03  0.00000000000E+00 0.  1.
         11    1    1    2    0    0 -0.53706023202E+02  0.10337098393E+02  0.71470544300E+02  0.89995728976E+02  0.00000000000E+00 0. -1.
</event>
<event>
 6    1  0.6447971E-006  0.1259378E+03  0.7561462E-02  0.1233611E+00
         -2   -1    0    0    0  501 -0.00000000000E+00  0.00000000000E+00  0.30711779307E+03  0.30711779307E+03  0.00000000000E+00 0.  1.
          2   -1    0    0  501    0  0.00000000000E+00 -0.00000000000E+00 -0.59478940340E+02  0.59478940340E+02  0.00000000000E+00 0. -1.
          5    1    1    2  502    0 -0.83352430335E+02 -0.29452665636E+02  0.84765509610E+02  0.12254693458E+03  0.41800000000E+01 0.  1.
         -5    1    1    2    0  502  0.12919156529E+02  0.51233361159E+02  0.92348999646E+02  0.10647803547E+03  0.41800000000E+01 0.  1.
        -11    1    1    2    0    0 -0.17983485809E+02 -0.11531010331E+02 -0.36939746993E+01  0.21679838795E+02  0.00000000000E+00 0.  1.
         11    1    1    2    0    0  0.88416759615E+02 -0.10249685192E+02  0.74218318169E+02  0.11589192456E+03  0.00000000000E+00 0. -1.
</event>
<event>
 6    1  0.6447971E-006  0.1082423E+03  0.7561462E-02  0.1263860E+00
          2   -1    0    0  501    0  0.00000000000E+00  0.00000000000E+00  0.27313855984E+02  0.27313855984E+02  0.00000000000E+00 0. -1.
         -2   -1    0    0    0  501 -0.00000000000E+00 -0.00000000000E+00 -0.70460277076E+03  0.70460277076E+03  0.00000000000E+00 0.  1.
          5    1    1    2  502    0  0.47953480519E+02  0.24162340697E+02 -0.35893749148E+03  0.36295585157E+03  0.41800000000E+01 0. -1.
         -5    1    1    2    0  502 -0.67316558966E+02 -0.36429392678E+01 -0.22734733721E+03  0.23716887286E+03  0.41800000000E+01 0. -1.
        -11    1    1    2    0    0 -0.26220671999E+02  0.20868062594E+02 -0.27613390931E+02  0.43422333369E+02  0.00000000000E+00 0. -1.
         11    1    1    2    0    0  0.45583750446E+02 -0.41387464024E+02 -0.63390695168E+02  0.88369568953E+02  0.00000000000E+00 0.  1.
</event>
<event>
 6    1  0.6447971E-006  0.7002928E+02  0.7561462E-02  0.1359993E+00
         -2   -1    0    0    0  501 -0.00000000000E+00  0.00000000000E+00  0.97190925975E+02  0.97190925975E+02  0.00000000000E+00 0.  1.
          2   -1    0    0  501    0  0.00000000000E+00 -0.00000000000E+00 -0.15048733243E+03  0.15048733243E+03  0.00000000000E+00 0. -1.
          5    1    1    2  502    0 -0.32124358115E+02 -0.24276246129E+01 -0.38895015338E+02  0.50677039808E+02  0.41800000000E+01 0. -1.
         -5    1    1    2    0  502  0.38831789229E+00 -0.11040018803E+02  0.67887893307E+02  0.68907701047E+02  0.41800000000E+01 0.  1.
        -11    1    1    2    0    0  0.60471305192E+02  0.24135293428E+02 -0.42043045374E+02  0.77504250237E+02  0.00000000000E+00 0. -1.
         11    1    1    2    0    0 -0.28735264970E+02 -0.10667650011E+02 -0.40246239053E+02  0.50589267316E+02  0.00000000000E+00 0.  1.
</event>
<event>
 6    1  0.6447971E-006  0.8268996E+02  0.7561462E-02  0.1321586E+00
          2   -1    0    0  501    0  0.00000000000E+00  0.00000000000E+00  0.11989816353E+03  0.11989816353E+03  0.00000000000E+00 0. -1.
         -2   -1    0    0    0  501 -0.00000000000E+00 -0.00000000000E+00 -0.87811132414E+02  0.87811132414E+02  0.00000000000E+00 0.  1.
          5    1    1    2  502    0  0.44642270958E+02  0.12594861668E+02 -0.54602881692E+01  0.46891897420E+02  0.41800000000E+01 0. -1.
         -5    1    1    2    0  502 -0.59420722297E+02 -0.28677246291E+02 -0.25737380023E+02  0.70944286758E+02  0.41800000000E+01 0.  1.
        -11    1    1    2    0    0  0.20229352005E+02  0.30885707336E+02  0.64213170732E+02  0.74070810011E+02  0.00000000000E+00 0. -1.
         11    1    1    2    0    0 -0.54509006661E+01 -0.14803322713E+02 -0.92847142806E+00  0.15802301750E+02  0.00000000000E+00 0.  1.
</event>
<event>
 6    1  0.6447971E-006  0.8568330E+02  0.7561462E-02  0.1313655E+00
         -2   -1    0    0    0  501 -0.00000000000E+00  0.00000000000E+00  0.54465401398E+02  0.54465401398E+02  0.00000000000E+00 0.  1.
          2   -1    0    0  501    0  0.00000000000E+00 -0.00000000000E+00 -0.25073539467E+03  0.25073539467E+03  0.00000000000E+00 0. -1.
          5    1    1    2  502    0  0.47246503388E+01 -0.18755781095E+02  0.27207264890E+02  0.33642373699E+02  0.41800000000E+01 0.  1.
         -5    1    1    2    0  502  0.28890866836E+01  0.54556841566E+02 -0.10422440663E+03  0.11774971389E+03  0.41800000000E+01 0.  1.
        -11    1    1    2    0    0 -0.61001060218E+01 -0.66133994848E+02 -0.75587962411E+02  0.10062035892E+03  0.00000000000E+00 0.  1.
         11    1    1    2    0    0 -0.15136310005E+01  0.30332934376E+02 -0.43664889113E+02  0.53188349551E+02  0.00000000000E+00 0. -1.
</event>
<event>
 6    1  0.6447971E-006  0.1049673E+03  0.7561462E-02  0.1270184E+00
          1   -1    0    0  501    0  0.00000000000E+00  0.00000000000E+00  0.15824426829E+03  0.15824426829E+03  0.00000000000E+00 0. -1.
         -1   -1    0    0    0  501 -0.00000000000E+00 -0.00000000000E+00 -0.11142568336E+03  0.11142568336E+03  0.00000000000E+00 0.  1.
          5    1    1    2  502    0 -0.95026072933E+01  0.69247736543E+02 -0.17331206467E+02  0.72134538740E+02  0.41800000000E+01 0.  1.
         -5    1    1    2    0  502  0.41223521827E+02 -0.44846247295E+02 -0.23129793994E+02  0.65291840366E+02  0.41800000000E+01 0.  1.
        -11    1    1    2    0    0 -0.39670832217E+02 -0.43075190361E+02  0.94099326891E+02  0.11083289347E+03  0.00000000000E+00 0. -1.
         11    1    1    2    0    0  0.79499176835E+01  0.18673701113E+02 -0.68197414995E+01  0.21410679078E+02  0.00000000000E+00 0.  1.
</event>
<event>
 6    1  0.6447971E-006  0.1630613E+03  0.7561462E-02  0.1185283E+00
          2   -1    0    0  501    0  0.00000000000E+00  0.00000000000E+00  0.19813813829E+02  0.19813813829E+02  0.00000000000E+00 0.  1.
         -2   -1    0    0    0  501 -0.00000000000E+00 -0.00000000000E+00 -0.17989270889E+04  0.17989270889E+04  0.00000000000E+00 0. -1.
          5    1    1    2  502    0  0.29855933573E+02  0.78049465691E+02 -0.95306833149E+03  0.95673392997E+03  0.41800000000E+01 0.  1.
         -5    1    1    2    0  502  0.63390758240E+02  0.35662759826E+02 -0.21072013997E+03  0.22295889858E+03  0.41800000000E+01 0.  1.
        -11    1    1    2    0    0 -0.28041745271E+02  0.99865465342E+01 -0.69702002250E+02  0.75792082088E+02  0.00000000000E+00 0. -1.
         11    1    1    2    0    0 -0.65204946543E+02 -0.12369877205E+03 -0.54562280138E+03  0.56325599211E+03  0.00000000000E+00 0.  1.
</event>
<event>
 6    1  0.6447971E-006  0.1065826E+03  0.7561462E-02  0.1267033E+00
          2   -1    0    0  501    0  0.00000000000E+00  0.00000000000E+00  0.90108322177E+03  0.90108322177E+03  0.00000000000E+00 0. -1.
         -2   -1    0    0    0  501 -0.00000000000E+00 -0.00000000000E+00 -0.13867936697E+02  0.13867936697E+02  0.00000000000E+00 0.  1.
          5    1    1    2  502    0  0.62433721819E+02  0.22707123688E+02  0.36477198684E+03  0.37079597877E+03  0.41800000000E+01 0.  1.
         -5    1    1    2    0  502 -0.34013341398E+02 -0.41821366944E+02  0.13242665257E+03  0.14303924230E+03  0.41800000000E+01 0.  1.
        -11    1    1    2    0    0  0.18984432604E+02 -0.22508693190E+02  0.15545341002E+03  0.15821761166E+03  0.00000000000E+00 0.  1.
         11    1    1    2    0    0 -0.47404813025E+02  0.41622936446E+02  0.23456323564E+03  0.24289832574E+03  0.00000000000E+00 0. -1.
</event>
<event>
 6    1  0.6447971E-006  0.1863403E+03  0.7561462E-02  0.1161804E+00
          1   -1    0    0  501    0  0.00000000000E+00  0.00000000000E+00  0.28583345820E+03  0.28583345820E+03  0.00000000000E+00 0. -1.
         -1   -1    0    0    0  501 -0.00000000000E+00 -0.00000000000E+00 -0.25703566453E+03  0.25703566453E+03  0.00000000000E+00 0.  1.
          5    1    1    2  502    0  0.11318789659E+03  0.11313705238E+03 -0.13847173863E+03  0.21166810660E+03  0.41800000000E+01 0. -1.
         -5    1    1    2    0  502 -0.34025677324E+02  0.31340133929E+02 -0.32533568087E+02  0.56708519329E+02  0.41800000000E+01 0. -1.
        -11    1    1    2    0    0 -0.22523767093E+02 -0.63061675649E+02  0.21268594896E+02  0.70259861575E+02  0.00000000000E+00 0.  1.
         11    1    1    2    0    0 -0.56638452170E+02 -0.81415510662E+02  0.17853450548E+03  0.20423263522E+03  0.00000000000E+00 0. -1.
</event>
<event>
 6    1  0.6447971E-006  0.1856379E+03  0.7561462E-02  0.1162456E+00
          1   -1    0    0  501    0  0.00000000000E+00  0.00000000000E+00  0.39629256998E+03  0.39629256998E+03  0.00000000000E+00 0. -1.
         -1   -1    0    0    0  501 -0.00000000000E+00 -0.00000000000E+00 -0.98404564337E+02  0.98404564337E+02  0.00000000000E+00 0.  1.
          5    1    1    2  502    0  0.10764446925E+03 -0.22529713490E+02  0.76446207818E+02  0.13400154790E+03  0.41800000000E+01 0. -1.
         -5    1    1    2    0  502  0.43128452209E+02  0.74367238307E+02  0.12477546492E+03  0.15158145852E+03  0.41800000000E+01 0. -1.
        -11    1    1    2    0    0 -0.43246279922E+02  0.18098005607E+02 -0.25520399616E+01  0.46949882236E+02  0.00000000000E+00 0. -1.
         11    1    1    2    0    0 -0.10752664153E+03 -0.69935530424E+02  0.99218372874E+02  0.16216424566E+03  0.00000000000E+00 0.  1.
</event>
<event>
 6    1  0.6447971E-006  0.8674264E+02  0.7561462E-02  0.1310937E+00
          2   -1    0    0  501    0  0.00000000000E+00  0.00000000000E+00  0.41492731204E+03  0.41492731204E+03  0.00000000000E+00 0. -1.
         -2   -1    0    0    0  501 -0.00000000000E+00 -0.00000000000E+00 -0.72143662976E+02  0.72143662976E+02  0.00000000000E+00 0.  1.
          5    1    1    2  502    0 -0.31377172179E+02 -0.10742219541E+02  0.10480591647E+03  0.11000761220E+03  0.41800000000E+01 0. -1.
         -5    1    1    2    0  502  0.45493106535E+02 -0.39951085581E+01 -0.53118242431E+02  0.70175520757E+02  0.41800000000E+01 0.  1.
        -11    1    1    2    0    0 -0.48896563664E+02 -0.11977819682E+02  0.19257508439E+03  0.19904649012E+03  0.00000000000E+00 0.  1.
         11    1    1    2    0    0  0.34780629309E+02  0.26715147781E+02  0.98520890635E+02  0.10784135194E+03  0.00000000000E+00 0. -1.
</event>
<event>
 6    1  0.6447971E-006  0.1519857E+03  0.7561462E-02  0.1198054E+00
         -3   -1    0    0    0  501 -0.00000000000E+00  0.00000000000E+00  0.14385212416E+03  0.14385212416E+03  0.00000000000E+00 0.  1.
          3   -1    0    0  501    0  0.00000000000E+00 -0.00000000000E+00 -0.19847133152E+03  0.19847133152E+03  0.00000000000E+00 0. -1.
          5    1    1    2  502    0  0.81794477078E+02  0.24264086957E+02 -0.18755685240E+02  0.87454734150E+02  0.41800000000E+01 0.  1.
         -5    1    1    2    0  502  0.22907966968E+02 -0.78951925970E+02 -0.59427137467E+02  0.10152457157E+03  0.41800000000E+01 0.  1.
        -11    1    1    2    0    0 -0.61043001720E+02  0.67233712179E+02 -0.17064134229E+02  0.92400242366E+02  0.00000000000E+00 0. -1.
         11    1    1    2    0    0 -0.43659442327E+02 -0.12545873165E+02  0.40627749567E+02  0.60943907593E+02  0.00000000000E+00 0.  1.
</event>
<event>
 6    1  0.6447971E-006  0.9439461E+02  0.7561462E-02  0.1292545E+00
         -1   -1    0    0    0  501 -0.00000000000E+00  0.00000000000E+00  0.56488885101E+02  0.56488885101E+02  0.00000000000E+00 0.  1.
          1   -1    0    0  501    0  0.00000000000E+00 -0.00000000000E+00 -0.42901785505E+03  0.42901785505E+03  0.00000000000E+00 0. -1.
          5    1    1    2  502    0 -0.50151288697E+02  0.89401755496E+01 -0.56616173058E+02  0.76275434765E+02  0.41800000000E+01 0.  1.
         -5    1    1    2    0  502  0.37947157138E+02 -0.28316886864E+02  0.26489363573E+02  0.54414994248E+02  0.41800000000E+01 0.  1.
        -11    1    1    2    0    0  0.35391045878E+02 -0.22739572490E+02 -0.11669875648E+03  0.12404924042E+03  0.00000000000E+00 0. -1.
         11    1    1    2    0    0 -0.23186914319E+02  0.42116283804E+02 -0.22570340398E+03  0.23076707071E+03  0.00000000000E+00 0.  1.
</event>
<event>
 6    1  0.6447971E-006  0.1075294E+03  0.7561462E-02  0.1265215E+00
         -2   -1    0    0    0  501 -0.00000000000E+00  0.00000000000E+00  0.71985088326E+02  0.71985088326E+02  0.00000000000E+00 0.  1.
          2   -1    0    0  501    0  0.00000000000E+00 -0.00000000000E+00 -0.31448562289E+03  0.31448562289E+03  0.00000000000E+00 0. -1.
          5    1    1    2  502    0 -0.33332061328E+02  0.56603139252E+02 -0.95147037120E+02  0.11569517172E+03  0.41800000000E+01 0. -1.
         -5    1    1    2    0  502 -0.44853062320E+02 -0.93966820156E+01  0.27181292254E+02  0.53445204471E+02  0.41800000000E+01 0. -1.
        -11    1    1    2    0    0  0.78580883419E+02 -0.27118255245E+02 -0.17844821746E+03  0.19686066474E+03  0.00000000000E+00 0. -1.
         11    1    1    2    0    0 -0.39575977121E+00 -0.20088201991E+02  0.39134277604E+01  0.20469670292E+02  0.00000000000E+00 0.  1.
</event>
<event>
 6    1  0.6447971E-006  0.1113047E+03  0.7561462E-02  0.1258173E+00
          2   -1    0    0  501    0  0.00000000000E+00  0.00000000000E+00  0.40144290798E+03  0.40144290798E+03  0.00000000000E+00 0. -1.
         -2   -1    0    0    0  501 -0.00000000000E+00 -0.00000000000E+00 -0.38654221956E+02  0.38654221956E+02  0.00000000000E+00 0.  1.
          5    1    1    2  502    0  0.24915357930E+02 -0.25156116651E+02  0.91868567582E+02  0.98543956564E+02  0.41800000000E+01 0.  1.
         -5    1    1    2    0  502 -0.34985090534E+02  0.77620306093E+02  0.54034495947E+02  0.10092605030E+03  0.41800000000E+01 0.  1.
        -11    1    1    2    0    0  0.48522681790E+02 -0.32356608388E+02  0.14956058477E+03  0.16052965231E+03  0.00000000000E+00 0.  1.
         11    1    1    2    0    0 -0.38452949186E+02 -0.20107581054E+02  0.67325037726E+02  0.80097470758E+02  0.00000000000E+00 0. -1.
</event>
<event>
 6    1  0.6447971E-006  0.2007934E+03  0.7561462E-02  0.1149071E+00
         -1   -1    0    0    0  501 -0.00000000000E+00  0.00000000000E+00  0.83473424621E+03  0.83473424621E+03  0.00000000000E+00 0.  1.
          1   -1    0    0  501    0  0.00000000000E+00 -0.00000000000E+00 -0.61995741174E+02  0.61995741174E+02  0.00000000000E+00 0. -1.
          5    1    1    2  502    0 -0.17662404903E+03  0.65773983514E+01  0.54192926031E+03  0.57003869381E+03  0.41800000000E+01 0.  1.
         -5    1    1    2    0  502  0.77590956110E+01 -0.30896429903E+02  0.61287297154E+02  0.69198252420E+02  0.41800000000E+01 0.  1.
        -11    1    1    2    0    0  0.86778059788E+02 -0.32678509468E+02  0.95651741207E+02  0.13322001440E+03  0.00000000000E+00 0.  1.
         11    1    1    2    0    0  0.82086893632E+02  0.56997541020E+02  0.73870206360E+02  0.12427302674E+03  0.00000000000E+00 0. -1.
</event>
<event>
 6    1  0.6447971E-006  0.3631949E+03  0.7561462E-02  0.1057326E+00
          1   -1    0    0  501    0  0.00000000000E+00  0.00000000000E+00  0.11638274862E+04  0.11638274862E+04  0.00000000000E+00 0. -1.
         -1   -1    0    0    0  501 -0.00000000000E+00 -0.00000000000E+00 -0.12116067163E+03  0.12116067163E+03  0.00000000000E+00 0.  1.
          5    1    1    2  502    0  0.69979473189E+01  0.43944265726E+01 -0.32256358813E+01  0.98060888441E+01  0.41800000000E+01 0.  1.
         -5    1    1    2    0  502  0.12543884483E+03 -0.33532040946E+03  0.46097350816E+03  0.58368547046E+03  0.41800000000E+01 0.  1.
        -11    1    1    2    0    0 -0.34681447738E+02  0.14432896681E+03  0.32224045039E+03  0.35478523270E+03  0.00000000000E+00 0.  1.
         11    1    1    2    0    0 -0.97755344410E+02  0.18659701608E+03  0.26267849185E+03  0.33671136579E+03  0.00000000000E+00 0. -1.
</event>
<event>
 6    1  0.6447971E-006  0.1072679E+03  0.7561462E-02  0.1265715E+00
         -2   -1    0    0    0  501 -0.00000000000E+00  0.00000000000E+00  0.60376764315E+02  0.60376764315E+02  0.00000000000E+00 0.  1.
          2   -1    0    0  501    0  0.00000000000E+00 -0.00000000000E+00 -0.22756835555E+03  0.22756835555E+03  0.00000000000E+00 0. -1.
          5    1    1    2  502    0  0.57604230129E+02 -0.19487703234E+02 -0.37549073764E+02  0.71592061338E+02  0.41800000000E+01 0. -1.
         -5    1    1    2    0  502 -0.64372575914E+02 -0.67259584273E+01 -0.13836025410E+02  0.66317230383E+02  0.41800000000E+01 0. -1.
        -11    1    1    2    0    0  0.26638381517E+02  0.50649950559E+02 -0.98965877863E+02  0.11432088979E+03  0.00000000000E+00 0. -1.
         11    1    1    2    0    0 -0.19870035732E+02 -0.24436288898E+02 -0.16840614202E+02  0.35714938356E+02  0.00000000000E+00 0.  1.
</event>
<event>
 6    1  0.6447971E-006  0.1484345E+03  0.7561462E-02  0.1202410E+00
          2   -1    0    0  501    0  0.00000000000E+00  0.00000000000E+00  0.34544254730E+03  0.34544254730E+03  0.00000000000E+00 0. -1.
         -2   -1    0    0    0  501 -0.00000000000E+00 -0.00000000000E+00 -0.92215908987E+02  0.92215908987E+02  0.00000000000E+00 0.  1.
          5    1    1    2  502    0 -0.43795039911E+01  0.27218449561E+02 -0.17119413538E+02  0.32719577802E+02  0.41800000000E+01 0.  1.
         -5    1    1    2    0  502 -0.89533837091E+02  0.75366868986E+02  0.18356995302E+03  0.21774267606E+03  0.41800000000E+01 0.  1.
        -11    1    1    2    0    0  0.42384782435E+02 -0.89019002240E+02  0.90432059738E+02  0.13378643418E+03  0.00000000000E+00 0. -1.
         11    1    1    2    0    0  0.51528558646E+02 -0.13566316307E+02 -0.36559609064E+01  0.53409768249E+02  0.00000000000E+00 0.  1.
</event>
<event>
 6    1  0.6447971E-006  0.1010276E+03  0.7561462E-02  0.1278150E+00
          2   -1    0    0  501    0  0.00000000000E+00  0.00000000000E+00  0.30675349205E+02  0.30675349205E+02  0.00000000000E+00 0. -1.
         -2   -1    0    0    0  501 -0.00000000000E+00 -0.00000000000E+00 -0.53660098887E+03  0.53660098887E+03  0.00000000000E+00 0.  1.
          5    1    1    2  502    0 -0.20807798687E+02  0.39765463618E+02 -0.27156647085E+03  0.27528181391E+03  0.41800000000E+01 0.  1.
         -5    1    1    2    0  502  0.60304221686E+02 -0.36191954263E+02 -0.14050899588E+03  0.15718367291E+03  0.41800000000E+01 0.  1.
        -11    1    1    2    0    0 -0.42140079879E+02 -0.35127393319E+02 -0.27666042575E+02  0.61442086597E+02  0.00000000000E+00 0. -1.
         11    1    1    2    0    0  0.26436568800E+01  0.31553883965E+02 -0.66184130368E+02  0.73368764659E+02  0.00000000000E+00 0.  1.
</event>
<event>
 6    1  0.6447971E-006  0.1785275E+03  0.7561462E-02  0.1169236E+00
         -2   -1    0    0    0  501 -0.00000000000E+00  0.00000000000E+00  0.12769376982E+03  0.12769376982E+03  0.00000000000E+00 0.  1.
          2   -1    0    0  501    0  0.00000000000E+00 -0.00000000000E+00 -0.29014929864E+03  0.29014929864E+03  0.00000000000E+00 0. -1.
          5    1    1    2  502    0  0.36099578520E+02  0.14267553612E+03 -0.56017305028E+02  0.15752745487E+03  0.41800000000E+01 0. -1.
         -5    1    1    2    0  502  0.40525096868E+02 -0.97863430679E+01  0.15202879233E+02  0.44571918557E+02  0.41800000000E+01 0. -1.
        -11    1    1    2    0    0 -0.32428766343E+02 -0.52502505874E+01  0.16080880385E+01  0.32890362796E+02  0.00000000000E+00 0.  1.
         11    1    1    2    0    0 -0.44195909045E+02 -0.12763894246E+03 -0.12324919107E+03  0.18285333223E+03  0.00000000000E+00 0. -1.
</event>
<event>
 6    1  0.6447971E-006  0.2271399E+03  0.7561462E-02  0.1128669E+00
          2   -1    0    0  501    0  0.00000000000E+00  0.00000000000E+00  0.51448020573E+03  0.51448020573E+03  0.00000000000E+00 0. -1.
         -2   -1    0    0    0  501 -0.00000000000E+00 -0.00000000000E+00 -0.11189373325E+03  0.11189373325E+03  0.00000000000E+00 0.  1.
          5    1    1    2  502    0  0.58592849753E+02 -0.21060497654E+03  0.96938328096E+02  0.23916958427E+03  0.41800000000E+01 0. -1.
         -5    1    1    2    0  502  0.57280450942E+01  0.17786656763E+02  0.15618983312E+02  0.24710335876E+02  0.41800000000E+01 0. -1.
        -11    1    1    2    0    0 -0.46813848676E+02  0.36948872632E+02  0.95714985292E+02  0.11277461605E+03  0.00000000000E+00 0.  1.
         11    1    1    2    0    0 -0.17507046171E+02  0.15586944714E+03  0.19431417577E+03  0.24971940278E+03  0.00000000000E+00 0. -1.
</event>
<event>
 6    1  0.6447971E-006  0.1525967E+03  0.7561462E-02  0.1197318E+00
         -2   -1    0    0    0  501 -0.00000000000E+00  0.00000000000E+00  0.24573369457E+03  0.24573369457E+03  0.00000000000E+00 0.  1.
          2   -1    0    0  501    0  0.00000000000E+00 -0.00000000000E+00 -0.13787471429E+03  0.13787471429E+03  0.00000000000E+00 0. -1.
          5    1    1    2  502    0  0.27223491918E+02 -0.10802068445E+03  0.13010038390E+03  0.17132766581E+03  0.41800000000E+01 0. -1.
         -5    1    1    2    0  502 -0.50682074410E+02  0.22562468647E+01  0.30865808662E+02  0.59530948765E+02  0.41800000000E+01 0. -1.
        -11    1    1    2    0    0 -0.24639295696E+02  0.88249937222E+02 -0.28503240672E+02  0.95956141236E+02  0.00000000000E+00 0.  1.
         11    1    1    2    0    0  0.48097878189E+02  0.17514500363E+02 -0.24603971606E+02  0.56793653061E+02  0.00000000000E+00 0. -1.
</event>
<event>
 6    1  0.6447971E-006  0.1496854E+03  0.7561462E-02  0.1200860E+00
         -1   -1    0    0    0  501 -0.00000000000E+00  0.00000000000E+00  0.59885994220E+02  0.59885994220E+02  0.00000000000E+00 0.  1.
          1   -1    0    0  501    0  0.00000000000E+00 -0.00000000000E+00 -0.51572481648E+03  0.51572481648E+03  0.00000000000E+00 0. -1.
          5    1    1    2  502    0  0.12395030445E+02 -0.55393351538E+00 -0.10883352250E+03  0.10961820853E+03  0.41800000000E+01 0. -1.
         -5    1    1    2    0  502  0.83262089158E+02  0.10024254777E+03 -0.86298322736E+02  0.15635222027E+03  0.41800000000E+01 0.  1.
        -11    1    1    2    0    0 -0.97189525157E+02 -0.55969190410E+02 -0.23092379003E+03  0.25671803770E+03  0.00000000000E+00 0. -1.
         11    1    1    2    0    0  0.15324055544E+01 -0.43719423849E+02 -0.29783186985E+02  0.52922344198E+02  0.00000000000E+00 0.  1.
</event>
<event>
 6    1  0.6447971E-006  0.2644874E+03  0.7561462E-02  0.1104477E+00
          2   -1    0    0  501    0  0.00000000000E+00  0.00000000000E+00  0.87685622173E+03  0.87685622173E+03  0.00000000000E+00 0. -1.
         -2   -1    0    0    0  501 -0.00000000000E+00 -0.00000000000E+00 -0.93227253863E+02  0.93227253863E+02  0.00000000000E+00 0.  1.
          5    1    1    2  502    0  0.11054752201E+03 -0.75670791971E+02  0.26302409651E+03  0.29520496460E+03  0.41800000000E+01 0. -1.
         -5    1    1    2    0  502  0.12988313975E+03  0.57628815994E+01  0.60436058652E+02  0.14343231987E+03  0.41800000000E+01 0.  1.
        -11    1    1    2    0    0 -0.18877756416E+03  0.90387414929E+02  0.34393919734E+03  0.40261771568E+03  0.00000000000E+00 0.  1.
         11    1    1    2    0    0 -0.51653097604E+02 -0.20479504557E+02  0.11622961536E+03  0.12882847545E+03  0.00000000000E+00 0. -1.
</event>
<event>
 6    1  0.6447971E-006  0.1046522E+03  0.7561462E-02  0.1270806E+00
         -3   -1    0    0    0  501 -0.00000000000E+00  0.00000000000E+00  0.55646221517E+03  0.55646221517E+03  0.00000000000E+00 0.  1.
          3   -1    0    0  501    0  0.00000000000E+00 -0.00000000000E+00 -0.31741091444E+02  0.31741091444E+02  0.00000000000E+00 0. -1.
          5    1    1    2  502    0 -0.53578429110E+02 -0.59201935232E+02  0.10310231086E+03  0.13047251092E+03  0.41800000000E+01 0. -1.
         -5    1    1    2    0  502  0.32623565951E+01  0.14166158480E+02  0.24596785403E+03  0.24643250725E+03  0.41800000000E+01 0. -1.
        -11    1    1    2    0    0 -0.19339115251E+02  0.39946251892E+02  0.45308671624E+02  0.63423813692E+02  0.00000000000E+00 0.  1.
         11    1    1    2    0    0  0.69655187766E+02  0.50895248600E+01  0.13034228722E+03  0.14787447475E+03  0.00000000000E+00 0. -1.
</event>
<event>
 6    1  0.6447971E-006  0.1076144E+03  0.7561462E-02  0.1265052E+00
         -2   -1    0    0    0  501 -0.00000000000E+00  0.00000000000E+00  0.16397085301E+02  0.16397085301E+02  0.00000000000E+00 0.  1.
          2   -1    0    0  501    0  0.00000000000E+00 -0.00000000000E+00 -0.85741747773E+03  0.85741747773E+03  0.00000000000E+00 0. -1.
          5    1    1    2  502    0  0.10458271607E+02  0.69616012267E+02 -0.36253423587E+03  0.36932954009E+03  0.41800000000E+01 0. -1.
         -5    1    1    2    0  502 -0.16187975642E+02 -0.43860879282E+02 -0.69124554541E+02  0.83555393167E+02  0.41800000000E+01 0.  1.
        -11    1    1    2    0    0 -0.14754614536E+02 -0.57845391776E+02 -0.23550495803E+03  0.24295343846E+03  0.00000000000E+00 0.  1.
         11    1    1    2    0    0  0.20484318571E+02  0.32090258792E+02 -0.17385664399E+03  0.17797619131E+03  0.00000000000E+00 0. -1.
</event>
<event>
 6    1  0.6447971E-006  0.1086758E+03  0.7561462E-02  0.1263042E+00
         -1   -1    0    0    0  501 -0.00000000000E+00  0.00000000000E+00  0.68052606751E+02  0.68052606751E+02  0.00000000000E+00 0.  1.
          1   -1    0    0  501    0  0.00000000000E+00 -0.00000000000E+00 -0.18786587155E+03  0.18786587155E+03  0.00000000000E+00 0. -1.
          5    1    1    2  502    0 -0.27853615814E+01 -0.70413342179E+02 -0.36031944595E+02  0.79256358907E+02  0.41800000000E+01 0. -1.
         -5    1    1    2    0  502 -0.52359388221E+01  0.52930411142E+02 -0.40529340946E+01  0.53506468335E+02  0.41800000000E+01 0. -1.
        -11    1    1    2    0    0 -0.38933984384E+02  0.24394957304E+02 -0.33143791004E+02  0.56652272364E+02  0.00000000000E+00 0.  1.
         11    1    1    2    0    0  0.46955284787E+02 -0.69120262663E+01 -0.46584595102E+02  0.66503378691E+02  0.00000000000E+00 0. -1.
</event>
<event>
 6    1  0.6447971E-006  0.1039888E+03  0.7561462E-02  0.1272125E+00
         -2   -1    0    0    0  501 -0.00000000000E+00  0.00000000000E+00  0.35628259080E+02  0.35628259080E+02  0.00000000000E+00 0.  1.
          2   -1    0    0  501    0  0.00000000000E+00 -0.00000000000E+00 -0.31567679936E+03  0.31567679936E+03  0.00000000000E+00 0. -1.
          5    1    1    2  502    0  0.43646162104E+02  0.39505979471E+02 -0.54823668573E+02  0.80553193085E+02  0.41800000000E+01 0. -1.
         -5    1    1    2    0  502 -0.36704500435E+02 -0.45024319043E+02 -0.73595600402E+02  0.93851981631E+02  0.41800000000E+01 0.  1.
        -11    1    1    2    0    0  0.40826377978E+02 -0.67989924254E+01 -0.61020274535E+02  0.73732579916E+02  0.00000000000E+00 0. -1.
         11    1    1    2    0    0 -0.47768039647E+02  0.12317331997E+02 -0.90608996765E+02  0.10316730380E+03  0.00000000000E+00 0.  1.
</event>
<event>
 6    1  0.6447971E-006  0.7613604E+02  0.7561462E-02  0.1340389E+00
         -3   -1    0    0    0  501 -0.00000000000E+00  0.00000000000E+00  0.18019111013E+04  0.18019111013E+04  0.00000000000E+00 0.  1.
          3   -1    0    0  501    0  0.00000000000E+00 -0.00000000000E+00 -0.90614987720E+01  0.90614987720E+01  0.00000000000E+00 0. -1.
          5    1    1    2  502    0  0.19399376449E+02 -0.84578250776E+01  0.13035504786E+04  0.13037289570E+04  0.41800000000E+01 0.  1.
         -5    1    1    2    0  502 -0.30285348392E+02  0.23723048599E+02  0.13689882456E+03  0.14226294643E+03  0.41800000000E+01 0.  1.
        -11    1    1    2    0    0 -0.10319971631E+01 -0.52703598540E+02  0.24532872620E+03  0.25092811364E+03  0.00000000000E+00 0.  1.
         11    1    1    2    0    0  0.11917969106E+02  0.37438375019E+02  0.10707157316E+03  0.11405258301E+03  0.00000000000E+00 0. -1.
</event>
<event>
 6    1  0.6447971E-006  0.8616413E+02  0.7561462E-02  0.1312416E+00
         -2   -1    0    0    0  501 -0.00000000000E+00  0.00000000000E+00  0.19456477948E+03  0.19456477948E+03  0.00000000000E+00 0.  1.
          2   -1    0    0  501    0  0.00000000000E+00 -0.00000000000E+00 -0.77386118355E+02  0.77386118355E+02  0.00000000000E+00 0. -1.
          5    1    1    2  502    0 -0.47362708440E+02  0.18922054778E+02  0.10102959155E+03  0.11325070011E+03  0.41800000000E+01 0.  1.
         -5    1    1    2    0  502  0.86862561682E+01  0.22283881802E+02 -0.32175293591E+02  0.40308117694E+02  0.41800000000E+01 0.  1.
        -11    1    1    2    0    0  0.44519223788E+01 -0.58403325578E+02  0.54005964840E+02  0.79670648860E+02  0.00000000000E+00 0.  1.
         11    1    1    2    0    0  0.34224529893E+02  0.17197388997E+02 -0.56816016661E+01  0.38721431174E+02  0.00000000000E+00 0. -1.
</event>
<event>
 6    1  0.6447971E-006  0.1174090E+03  0.7561462E-02  0.1247434E+00
         -2   -1    0    0    0  501 -0.00000000000E+00  0.00000000000E+00  0.11692186379E+03  0.11692186379E+03  0.00000000000E+00 0.  1.
          2   -1    0    0  501    0  0.00000000000E+00 -0.00000000000E+00 -0.17107210356E+03  0.17107210356E+03  0.00000000000E+00 0. -1.
          5    1    1    2  502    0 -0.78824309676E+02  0.46299093717E+02  0.39977039828E+02  0.99862475376E+02  0.41800000000E+01 0. -1.
         -5    1    1    2    0  502  0.34470304969E+02 -0.24365624817E+02  0.95340557627E+01  0.43477076910E+02  0.41800000000E+01 0. -1.
        -11    1    1    2    0    0 -0.26577319762E+02  0.21736967725E+00 -0.27904536261E+02  0.38536532269E+02  0.00000000000E+00 0. -1.
         11    1    1    2    0    0  0.70931324469E+02 -0.22150838576E+02 -0.75756799091E+02  0.10611788280E+03  0.00000000000E+00 0.  1.
</event>
<event>
 6    1  0.6447971E-006  0.7924507E+02  0.7561462E-02  0.1331208E+00
          3   -1    0    0  501    0  0.00000000000E+00  0.00000000000E+00  0.52293012030E+02  0.52293012030E+02  0.00000000000E+00 0. -1.
         -3   -1    0    0    0  501 -0.00000000000E+00 -0.00000000000E+00 -0.30039581876E+03  0.30039581876E+03  0.00000000000E+00 0.  1.
          5    1    1    2  502    0 -0.53411070536E+02 -0.29156516574E+02 -0.40679109342E+02  0.73315122938E+02  0.41800000000E+01 0.  1.
         -5    1    1    2    0  502  0.37975466743E+02 -0.90406443259E+01 -0.17543370202E+03  0.17977298331E+03  0.41800000000E+01 0.  1.
        -11    1    1    2    0    0  0.29449242866E+02  0.29813328278E+02 -0.56380343820E+02  0.70248385161E+02  0.00000000000E+00 0.  1.
         11    1    1    2    0    0 -0.14013639074E+02  0.83838326218E+01  0.24390348452E+02  0.29352339380E+02  0.00000000000E+00 0. -1.
</event>
<event>
 6    1  0.6447971E-006  0.1012100E+03  0.7561462E-02  0.1277772E+00
          1   -1    0    0  501    0  0.00000000000E+00  0.00000000000E+00  0.39741245783E+03  0.39741245783E+03  0.00000000000E+00 0. -1.
         -1   -1    0    0    0  501 -0.00000000000E+00 -0.00000000000E+00 -0.52939092413E+02  0.52939092413E+02  0.00000000000E+00 0.  1.
          5    1    1    2  502    0 -0.54877983838E+02 -0.57200231202E+02  0.55653138198E+01  0.79573266099E+02  0.41800000000E+01 0. -1.
         -5    1    1    2    0  502 -0.16497654427E+01  0.39437962395E+02  0.64072562333E+02  0.75371348985E+02  0.41800000000E+01 0. -1.
        -11    1    1    2    0    0 -0.11876874159E+02 -0.22251927776E+01  0.63865121104E+00  0.12100392475E+02  0.00000000000E+00 0.  1.
         11    1    1    2    0    0  0.68404623440E+02  0.19987461585E+02  0.27419683806E+03  0.28330654269E+03  0.00000000000E+00 0. -1.
</event>
<event>
 6    1  0.6447971E-006  0.9802864E+02  0.7561462E-02  0.1284497E+00
          1   -1    0    0  501    0  0.00000000000E+00  0.00000000000E+00  0.40010686982E+02  0.40010686982E+02  0.00000000000E+00 0. -1.
         -1   -1    0    0    0  501 -0.00000000000E+00 -0.00000000000E+00 -0.36830501176E+03  0.36830501176E+03  0.00000000000E+00 0.  1.
          5    1    1    2  502    0  0.73291977538E+02 -0.49571038117E+02 -0.11644698945E+03  0.14630917792E+03  0.41800000000E+01 0.  1.
         -5    1    1    2    0  502 -0.24786920331E+02  0.36128216020E+02 -0.91371325054E+02  0.10141908526E+03  0.41800000000E+01 0.  1.
        -11    1    1    2    0    0 -0.10588291356E+02  0.22158869372E+02 -0.11915481103E+03  0.12165934571E+03  0.00000000000E+00 0.  1.
         11    1    1    2    0    0 -0.37916765850E+02 -0.87160472745E+01 -0.13211992417E+01  0.38928089859E+02  0.00000000000E+00 0. -1.
</event>
<event>
 6    1  0.6447971E-006  0.1096616E+03  0.7561462E-02  0.1261198E+00
          1   -1    0    0  501    0  0.00000000000E+00  0.00000000000E+00  0.11092561411E+03  0.11092561411E+03  0.00000000000E+00 0. -1.
         -1   -1    0    0    0  501 -0.00000000000E+00 -0.00000000000E+00 -0.17110365532E+03  0.17110365532E+03  0.00000000000E+00 0.  1.
          5    1    1    2  502    0 -0.36801804642E+02  0.12798679253E+02  0.91044795159E+01  0.40231119333E+02  0.41800000000E+01 0.  1.
         -5    1    1    2    0  502  0.62773937582E+02  0.42423718865E+02 -0.10190231021E+03  0.12705074730E+03  0.41800000000E+01 0.  1.
        -11    1    1    2    0    0 -0.39169272996E+02 -0.72565607936E+02  0.40114205730E+02  0.91701411677E+02  0.00000000000E+00 0. -1.
         11    1    1    2    0    0  0.13197140055E+02  0.17343209817E+02 -0.74944162434E+01  0.23045991132E+02  0.00000000000E+00 0.  1.
</event>
<event>
 6    1  0.6447971E-006  0.1144302E+03  0.7561462E-02  0.1252579E+00
          4   -1    0    0  501    0  0.00000000000E+00  0.00000000000E+00  0.84352692187E+02  0.84352692187E+02  0.00000000000E+00 0.  1.
         -4   -1    0    0    0  501 -0.00000000000E+00 -0.00000000000E+00 -0.39909954141E+03  0.39909954141E+03  0.00000000000E+00 0. -1.
          5    1    1    2  502    0 -0.52546086725E+02  0.85914778244E+01 -0.24485778485E+03  0.25061466822E+03  0.41800000000E+01 0. -1.
         -5    1    1    2    0  502 -0.29240908707E+02 -0.67672216639E+02 -0.64704139288E+02  0.98176665699E+02  0.41800000000E+01 0. -1.
        -11    1    1    2    0    0  0.21796568338E+02  0.22624373056E+02  0.40236695824E+02  0.51048450890E+02  0.00000000000E+00 0.  1.
         11    1    1    2    0    0  0.59990427094E+02  0.36456365759E+02 -0.45421620905E+02  0.83612448792E+02  0.00000000000E+00 0. -1.
</event>
<event>
 6    1  0.6447971E-006  0.6185278E+02  0.7561462E-02  0.1390217E+00
         -2   -1    0    0    0  501 -0.00000000000E+00  0.00000000000E+00  0.16608807091E+03  0.16608807091E+03  0.00000000000E+00 0.  1.
          2   -1    0    0  501    0  0.00000000000E+00 -0.00000000000E+00 -0.89592816773E+02  0.89592816773E+02  0.00000000000E+00 0. -1.
          5    1    1    2  502    0  0.24633107209E+02 -0.11049651673E+02  0.12352114848E+03  0.12650625002E+03  0.41800000000E+01 0.  1.
         -5    1    1    2    0  502 -0.11224328578E+01 -0.89846733769E+01 -0.30709725828E+02  0.32288447959E+02  0.41800000000E+01 0.  1.
        -11    1    1    2    0    0  0.29949023740E+02  0.20883022822E+01  0.13704292523E+02  0.33001706970E+02  0.00000000000E+00 0.  1.
         11    1    1    2    0    0 -0.53459698092E+02  0.17946022768E+02 -0.30020461037E+02  0.63884482733E+02  0.00000000000E+00 0. -1.
</event>
<event>
 6    1  0.6447971E-006  0.1220529E+03  0.7561462E-02  0.1239748E+00
         -3   -1    0    0    0  501 -0.00000000000E+00  0.00000000000E+00  0.12644778937E+03  0.12644778937E+03  0.00000000000E+00 0.  1.
          3   -1    0    0  501    0  0.00000000000E+00 -0.00000000000E+00 -0.14262360955E+03  0.14262360955E+03  0.00000000000E+00 0. -1.
          5    1    1    2  502    0  0.62918961582E+02  0.86524433337E+02  0.26254421492E+02  0.11023629320E+03  0.41800000000E+01 0.  1.
         -5    1    1    2    0  502 -0.28319571643E+02 -0.20295001529E+02 -0.97115019993E+01  0.36409763748E+02  0.41800000000E+01 0.  1.
        -11    1    1    2    0    0 -0.27026980638E+02  0.73294480634E+01 -0.39221485082E+02  0.48192358143E+02  0.00000000000E+00 0. -1.
         11    1    1    2    0    0 -0.75724093016E+01 -0.73558879871E+02  0.65027454030E+01  0.74232983830E+02  0.00000000000E+00 0.  1.
</event>
<event>
 6    1  0.6447971E-006  0.7178603E+02  0.7561462E-02  0.1354123E+00
          2   -1    0    0  501    0  0.00000000000E+00  0.00000000000E+00  0.38011103428E+03  0.38011103428E+03  0.00000000000E+00 0. -1.
         -2   -1    0    0    0  501 -0.00000000000E+00 -0.00000000000E+00 -0.34989379337E+02  0.34989379337E+02  0.00000000000E+00 0.  1.
          5    1    1    2  502    0  0.24928267632E+02  0.29794743984E+02  0.13691378966E+03  0.14237978612E+03  0.41800000000E+01 0.  1.
         -5    1    1    2    0  502 -0.98203222714E+01 -0.55219500621E+02  0.18287834964E+02  0.59140081890E+02  0.41800000000E+01 0.  1.
        -11    1    1    2    0    0  0.11423764210E+02 -0.12566366801E+00 -0.68980127192E+01  0.13345439654E+02  0.00000000000E+00 0.  1.
         11    1    1    2    0    0 -0.26531709571E+02  0.25550420304E+02  0.19681804304E+03  0.20023510595E+03  0.00000000000E+00 0. -1.
</event>
<event>
 6    1  0.6447971E-006  0.1103854E+03  0.7561462E-02  0.1259858E+00
          2   -1    0    0  501    0  0.00000000000E+00  0.00000000000E+00  0.24083475218E+03  0.24083475218E+03  0.00000000000E+00 0. -1.
         -2   -1    0    0    0  501 -0.00000000000E+00 -0.00000000000E+00 -0.53014548958E+02  0.53014548958E+02  0.00000000000E+00 0.  1.
          5    1    1    2  502    0  0.78115091264E+02 -0.19472395736E+02  0.71626466717E+02  0.10783767808E+03  0.41800000000E+01 0. -1.
         -5    1    1    2    0  502 -0.46073845694E+02  0.74737014206E+01  0.20016672865E+02  0.50958758448E+02  0.41800000000E+01 0. -1.
        -11    1    1    2    0    0  0.92217186812E+01  0.41536785404E+02  0.32008225213E+02  0.53243507758E+02  0.00000000000E+00 0. -1.
         11    1    1    2    0    0 -0.41262964251E+02 -0.29538091089E+02  0.64168838426E+02  0.81809356854E+02  0.00000000000E+00 0.  1.
</event>
<event>
 6    1  0.6447971E-006  0.9637900E+02  0.7561462E-02  0.1288100E+00
         -1   -1    0    0    0  501 -0.00000000000E+00  0.00000000000E+00  0.56568230217E+02  0.56568230217E+02  0.00000000000E+00 0.  1.
          1   -1    0    0  501    0  0.00000000000E+00 -0.00000000000E+00 -0.26091433678E+03  0.26091433678E+03  0.00000000000E+00 0. -1.
          5    1    1    2  502    0 -0.37439863755E+02  0.25116956520E+02 -0.13175396169E+03  0.13931684652E+03  0.41800000000E+01 0. -1.
         -5    1    1    2    0  502  0.19591710698E+02 -0.46774109441E+02  0.89329622925E+01  0.51661616868E+02  0.41800000000E+01 0.  1.
        -11    1    1    2    0    0  0.55962751545E+02  0.11182554365E+02 -0.51423564606E+02  0.76819672477E+02  0.00000000000E+00 0.  1.
         11    1    1    2    0    0 -0.38114598488E+02  0.10474598557E+02 -0.30101542565E+02  0.49684431139E+02  0.00000000000E+00 0. -1.
</event>
<event>
 6    1  0.6447971E-006  0.1298751E+03  0.7561462E-02  0.1227641E+00
          2   -1    0    0  501    0  0.00000000000E+00  0.00000000000E+00  0.47450425723E+03  0.47450425723E+03  0.00000000000E+00 0. -1.
         -2   -1    0    0    0  501 -0.00000000000E+00 -0.00000000000E+00 -0.54515532934E+02  0.54515532934E+02  0.00000000000E+00 0.  1.
          5    1    1    2  502    0  0.22733852719E+02  0.98877618582E+02  0.42212917149E+02  0.10996824219E+03  0.41800000000E+01 0. -1.
         -5    1    1    2    0  502 -0.33679827431E+02 -0.15910689718E+02  0.64242857451E+02  0.74378074434E+02  0.41800000000E+01 0. -1.
        -11    1    1    2    0    0  0.48229243171E+02 -0.59816062550E+02  0.27734292506E+03  0.28779006119E+03  0.00000000000E+00 0. -1.
         11    1    1    2    0    0 -0.37283268459E+02 -0.23150866313E+02  0.36190024635E+02  0.56883412355E+02  0.00000000000E+00 0.  1.
</event>
<event>
 6    1  0.6447971E-006  0.1815347E+03  0.7561462E-02  0.1166326E+00
          1   -1    0    0  501    0  0.00000000000E+00  0.00000000000E+00  0.14767779313E+03  0.14767779313E+03  0.00000000000E+00 0. -1.
         -1   -1    0    0    0  501 -0.00000000000E+00 -0.00000000000E+00 -0.23856066783E+03  0.23856066783E+03  0.00000000000E+00 0.  1.
          5    1    1    2  502    0 -0.57992275454E+02  0.56106789698E+02 -0.17032205964E+02  0.82575082819E+02  0.41800000000E+01 0.  1.
         -5    1    1    2    0  502  0.64929478436E+02  0.96802475943E+02 -0.36662190790E+02  0.12226260733E+03  0.41800000000E+01 0.  1.
        -11    1    1    2    0    0 -0.34563792752E+02 -0.10220929270E+03 -0.54829540756E+02  0.12102757464E+03  0.00000000000E+00 0.  1.
         11    1    1    2    0    0  0.27626589770E+02 -0.50699972942E+02  0.17641062809E+02  0.60373196170E+02  0.00000000000E+00 0. -1.
</event>
<event>
 6    1  0.6447971E-006  0.9181658E+02  0.7561462E-02  0.1298511E+00
          2   -1    0    0  501    0  0.00000000000E+00  0.00000000000E+00  0.61919311283E+03  0.61919311283E+03  0.00000000000E+00 0. -1.
         -2   -1    0    0    0  501 -0.00000000000E+00 -0.00000000000E+00 -0.20607191541E+02  0.20607191541E+02  0.00000000000E+00 0.  1.
          5    1    1    2  502    0 -0.11225108769E+02  0.54328267438E+02  0.23470250996E+03  0.24120593751E+03  0.41800000000E+01 0. -1.
         -5    1    1    2    0  502  0.21797795912E+02 -0.39804168310E+02  0.37940273359E+02  0.59299683507E+02  0.41800000000E+01 0. -1.
        -11    1    1    2    0    0 -0.37553167532E+02  0.16752405770E+02  0.80439318128E+02  0.90340286648E+02  0.00000000000E+00 0.  1.
         11    1    1    2    0    0  0.26980480390E+02 -0.31276504898E+02  0.24550381984E+03  0.24895439671E+03  0.00000000000E+00 0. -1.
</event>
<event>
 6    1  0.6447971E-006  0.1355527E+03  0.7561462E-02  0.1219442E+00
          1   -1    0    0  501    0  0.00000000000E+00  0.00000000000E+00  0.26081785999E+02  0.26081785999E+02  0.00000000000E+00 0. -1.
         -1   -1    0    0    0  501 -0.00000000000E+00 -0.00000000000E+00 -0.74733613998E+03  0.74733613998E+03  0.00000000000E+00 0.  1.
          5    1    1    2  502    0 -0.24854566643E+02 -0.72780399217E+02 -0.17077367492E+03  0.18733888128E+03  0.41800000000E+01 0. -1.
         -5    1    1    2    0  502  0.69289762407E+02 -0.99290021986E+00 -0.27357466933E+03  0.28224568929E+03  0.41800000000E+01 0. -1.
        -11    1    1    2    0    0 -0.72306443414E+02  0.48749263479E+02 -0.18237202164E+03  0.20214912003E+03  0.00000000000E+00 0. -1.
         11    1    1    2    0    0  0.27871247650E+02  0.25024035958E+02 -0.94533988088E+02  0.10168423538E+03  0.00000000000E+00 0.  1.
</event>
<event>
 6    1  0.6447971E-006  0.1126315E+03  0.7561462E-02  0.1255773E+00
          1   -1    0    0  501    0  0.00000000000E+00  0.00000000000E+00  0.33910820283E+03  0.33910820283E+03  0.00000000000E+00 0. -1.
         -1   -1    0    0    0  501 -0.00000000000E+00 -0.00000000000E+00 -0.45807404092E+02  0.45807404092E+02  0.00000000000E+00 0.  1.
          5    1    1    2  502    0  0.26189299662E+02  0.42285031623E+02  0.10605184835E+03  0.11721079410E+03  0.41800000000E+01 0.  1.
         -5    1    1    2    0  502 -0.83631750992E+02  0.69612746751E+00  0.61810614722E+02  0.10408063633E+03  0.41800000000E+01 0.  1.
        -11    1    1    2    0    0  0.16232138707E+02 -0.47458298051E+02  0.10716571247E+03  0.11832270412E+03  0.00000000000E+00 0. -1.
         11    1    1    2    0    0  0.41210312623E+02  0.44771389612E+01  0.18272623193E+02  0.45301472362E+02  0.00000000000E+00 0.  1.
</event>
<event>
 6    1  0.6447971E-006  0.1355366E+03  0.7561462E-02  0.1219464E+00
         -1   -1    0    0    0  501 -0.00000000000E+00  0.00000000000E+00  0.53383532068E+02  0.53383532068E+02  0.00000000000E+00 0.  1.
          1   -1    0    0  501    0  0.00000000000E+00 -0.00000000000E+00 -0.39733237167E+03  0.39733237167E+03  0.00000000000E+00 0. -1.
          5    1    1    2  502    0 -0.80362392673E+02 -0.43732470278E+02 -0.12467880593E+03  0.15470268311E+03  0.41800000000E+01 0. -1.
         -5    1    1    2    0  502  0.75044776008E+02  0.47519953953E+02 -0.47132103962E+02  0.10064180073E+03  0.41800000000E+01 0.  1.
        -11    1    1    2    0    0 -0.75360082026E+01  0.42172097822E+02 -0.10098577605E+03  0.10969687424E+03  0.00000000000E+00 0. -1.
         11    1    1    2    0    0  0.12853624867E+02 -0.45959581496E+02 -0.71152153661E+02  0.85674545660E+02  0.00000000000E+00 0.  1.
</event>
<event>
 6    1  0.6447971E-006  0.1403037E+03  0.7561462E-02  0.1212921E+00
          1   -1    0    0  501    0  0.00000000000E+00  0.00000000000E+00  0.71083823323E+03  0.71083823323E+03  0.00000000000E+00 0. -1.
         -1   -1    0    0    0  501 -0.00000000000E+00 -0.00000000000E+00 -0.29343247545E+02  0.29343247545E+02  0.00000000000E+00 0.  1.
          5    1    1    2  502    0 -0.40814249508E+02 -0.61348745602E+02  0.21834293565E+03  0.23047902615E+03  0.41800000000E+01 0.  1.
         -5    1    1    2    0  502 -0.49570500170E+02  0.56109403533E+02  0.12106450845E+03  0.14240641579E+03  0.41800000000E+01 0.  1.
        -11    1    1    2    0    0  0.18893307667E+01  0.37557925672E+02  0.71667925062E+02  0.80934904919E+02  0.00000000000E+00 0.  1.
         11    1    1    2    0    0  0.88495418911E+02 -0.32318583603E+02  0.27041961652E+03  0.28636113391E+03  0.00000000000E+00 0. -1.
</event>
<event>
 6    1  0.6447971E-006  0.9532218E+02  0.7561462E-02  0.1290452E+00
          1   -1    0    0  501    0  0.00000000000E+00  0.00000000000E+00  0.59289203313E+03  0.59289203313E+03  0.00000000000E+00 0. -1.
         -1   -1    0    0    0  501 -0.00000000000E+00 -0.00000000000E+00 -0.43329435141E+02  0.43329435141E+02  0.00000000000E+00 0.  1.
          5    1    1    2  502    0  0.45604510670E+01 -0.74471532998E+02  0.13251873558E+02  0.75893948993E+02  0.41800000000E+01 0. -1.
         -5    1    1    2    0  502  0.23646181233E+02 -0.90214445006E+01  0.13409835627E+03  0.13652973999E+03  0.41800000000E+01 0. -1.
        -11    1    1    2    0    0 -0.12981197244E+02  0.65128784636E+02  0.39243902345E+03  0.39801841314E+03  0.00000000000E+00 0. -1.
         11    1    1    2    0    0 -0.15225435056E+02  0.18364192862E+02  0.97733447064E+01  0.25779366145E+02  0.00000000000E+00 0.  1.
</event>
<event>
 6    1  0.6447971E-006  0.2215510E+03  0.7561462E-02  0.1132732E+00
          3   -1    0    0  501    0  0.00000000000E+00  0.00000000000E+00  0.63711310260E+03  0.63711310260E+03  0.00000000000E+00 0. -1.
         -3   -1    0    0    0  501 -0.00000000000E+00 -0.00000000000E+00 -0.84606523621E+02  0.84606523621E+02  0.00000000000E+00 0.  1.
          5    1    1    2  502    0  0.84186741490E+02  0.18145136279E+03  0.31924332718E+03  0.37675692276E+03  0.41800000000E+01 0.  1.
         -5    1    1    2    0  502 -0.29106652753E+00 -0.20170637960E+02  0.32502585984E+02  0.38481552088E+02  0.41800000000E+01 0.  1.
        -11    1    1    2    0    0 -0.97793555093E+02 -0.49171334593E+02  0.56284724674E+02  0.12308277619E+03  0.00000000000E+00 0.  1.
         11    1    1    2    0    0  0.13897880130E+02 -0.11210939023E+03  0.14447594114E+03  0.18339837518E+03  0.00000000000E+00 0. -1.
</event>
<event>
 6    1  0.6447971E-006  0.1173076E+03  0.7561462E-02  0.1247606E+00
          2   -1    0    0  501    0  0.00000000000E+00  0.00000000000E+00  0.41750664616E+03  0.41750664616E+03  0.00000000000E+00 0. -1.
         -2   -1    0    0    0  501 -0.00000000000E+00 -0.00000000000E+00 -0.36046606777E+02  0.36046606777E+02  0.00000000000E+00 0.  1.
          5    1    1    2  502    0  0.16867674475E+01 -0.30145489264E+02  0.86692861604E+02  0.91895159614E+02  0.41800000000E+01 0. -1.
         -5    1    1    2    0  502 -0.37904154907E+02  0.81147152012E+02  0.95241118922E+02  0.13080492488E+03  0.41800000000E+01 0.  1.
        -11    1    1    2    0    0  0.51654473969E+02  0.90749513654E+01  0.11091437996E+03  0.12268878965E+03  0.00000000000E+00 0.  1.
         11    1    1    2    0    0 -0.15437086510E+02 -0.60076614114E+02  0.88611678897E+02  0.10816437880E+03  0.00000000000E+00 0. -1.
</event>
<event>
 6    1  0.6447971E-006  0.1087945E+03  0.7561462E-02  0.1262819E+00
          1   -1    0    0  501    0  0.00000000000E+00  0.00000000000E+00  0.29763646209E+03  0.29763646209E+03  0.00000000000E+00 0. -1.
         -1   -1    0    0    0  501 -0.00000000000E+00 -0.00000000000E+00 -0.40911323299E+02  0.40911323299E+02  0.00000000000E+00 0.  1.
          5    1    1    2  502    0  0.36284915997E+02 -0.53031485647E+02  0.61093248919E+02  0.88762554393E+02  0.41800000000E+01 0. -1.
         -5    1    1    2    0  502 -0.14953807878E+02  0.60276536361E+02  0.75079844363E+02  0.97526061314E+02  0.41800000000E+01 0. -1.
        -11    1    1    2    0    0 -0.47368430370E+02 -0.30253590474E+02  0.58395852656E+02  0.81050129795E+02  0.00000000000E+00 0. -1.
         11    1    1    2    0    0  0.26037322251E+02  0.23008539761E+02  0.62156192849E+02  0.71209039885E+02  0.00000000000E+00 0.  1.
</event>
<event>
 6    1  0.6447971E-006  0.1080670E+03  0.7561462E-02  0.1264192E+00
          1   -1    0    0  501    0  0.00000000000E+00  0.00000000000E+00  0.38809649271E+03  0.38809649271E+03  0.00000000000E+00 0. -1.
         -1   -1    0    0    0  501 -0.00000000000E+00 -0.00000000000E+00 -0.41079173587E+02  0.41079173587E+02  0.00000000000E+00 0.  1.
          5    1    1    2  502    0 -0.53702351391E+02  0.38229826139E+02  0.15738280692E+03  0.17068181644E+03  0.41800000000E+01 0. -1.
         -5    1    1    2    0  502  0.37580007707E+02  0.22367844521E+02  0.58547178989E+01  0.44320735209E+02  0.41800000000E+01 0. -1.
        -11    1    1    2    0    0  0.51192366601E+02 -0.43282635874E+02  0.14150190727E+03  0.15657852575E+03  0.00000000000E+00 0.  1.
         11    1    1    2    0    0 -0.35070022918E+02 -0.17315034786E+02  0.42277887041E+02  0.57594588893E+02  0.00000000000E+00 0. -1.
</event>
<event>
 6    1  0.6447971E-006  0.9942947E+02  0.7561462E-02  0.1281500E+00
          2   -1    0    0  501    0  0.00000000000E+00  0.00000000000E+00  0.13550820215E+03  0.13550820215E+03  0.00000000000E+00 0. -1.
         -2   -1    0    0    0  501 -0.00000000000E+00 -0.00000000000E+00 -0.15184438233E+03  0.15184438233E+03  0.00000000000E+00 0.  1.
          5    1    1    2  502    0  0.79909057884E+02 -0.31610264679E+02 -0.11890988224E+00  0.86035765264E+02  0.41800000000E+01 0. -1.
         -5    1    1    2    0  502 -0.21205789357E+02 -0.22045596439E+01 -0.68586385420E+02  0.71945189210E+02  0.41800000000E+01 0. -1.
        -11    1    1    2    0    0  0.92729625143E+01  0.19553899460E+02 -0.19711699142E+02  0.29272750143E+02  0.00000000000E+00 0.  1.
         11    1    1    2    0    0 -0.67976231041E+02  0.14260924863E+02  0.72080814265E+02  0.10009887986E+03  0.00000000000E+00 0. -1.
</event>
<event>
 6    1  0.6447971E-006  0.1364027E+03  0.7561462E-02  0.1218253E+00
          1   -1    0    0  501    0  0.00000000000E+00  0.00000000000E+00  0.14471559652E+03  0.14471559652E+03  0.00000000000E+00 0. -1.
         -1   -1    0    0    0  501 -0.00000000000E+00 -0.00000000000E+00 -0.16245317911E+03  0.16245317911E+03  0.00000000000E+00 0.  1.
          5    1    1    2  502    0  0.10247051201E+03 -0.60455109300E+02 -0.41289841360E+02  0.12600535493E+03  0.41800000000E+01 0. -1.
         -5    1    1    2    0  502 -0.26748097900E+02 -0.14136389865E+02  0.24290440934E+02  0.39023021160E+02  0.41800000000E+01 0. -1.
        -11    1    1    2    0    0 -0.95258943434E+01  0.52609388283E+02  0.34864985041E+02  0.63828344647E+02  0.00000000000E+00 0. -1.
         11    1    1    2    0    0 -0.66196519764E+02  0.21982110882E+02 -0.35603167201E+02  0.78312054899E+02  0.00000000000E+00 0.  1.
</event>
<event>
 6    1  0.6447971E-006  0.1304650E+03  0.7561462E-02  0.1226767E+00
         -2   -1    0    0    0  501 -0.00000000000E+00  0.00000000000E+00  0.14095087241E+03  0.14095087241E+03  0.00000000000E+00 0.  1.
          2   -1    0    0  501    0  0.00000000000E+00 -0.00000000000E+00 -0.16002083124E+03  0.16002083124E+03  0.00000000000E+00 0. -1.
          5    1    1    2  502    0  0.34503567558E+02 -0.64549128712E+02  0.52505143460E+02  0.90173991158E+02  0.41800000000E+01 0. -1.
         -5    1    1    2    0  502  0.44253086571E+02  0.51894289921E+02  0.35589489868E+01  0.68421425850E+02  0.41800000000E+01 0. -1.
        -11    1    1    2    0    0 -0.91420881093E+02 -0.11376289895E+02 -0.47593529032E+02  0.10369349776E+03  0.00000000000E+00 0.  1.
         11    1    1    2    0    0  0.12664226964E+02  0.24031128686E+02 -0.27540522241E+02  0.38682788884E+02  0.00000000000E+00 0. -1.
</event>
<event>
 6    1  0.6447971E-006  0.1667200E+03  0.7561462E-02  0.1181312E+00
          3   -1    0    0  501    0  0.00000000000E+00  0.00000000000E+00  0.37666031647E+03  0.37666031647E+03  0.00000000000E+00 0. -1.
         -3   -1    0    0    0  501 -0.00000000000E+00 -0.00000000000E+00 -0.96851862794E+02  0.96851862794E+02  0.00000000000E+00 0.  1.
          5    1    1    2  502    0 -0.12478362087E+02  0.17952250094E+02 -0.65858053369E+01  0.23212885123E+02  0.41800000000E+01 0.  1.
         -5    1    1    2    0  502  0.27150200655E+02 -0.15862266033E+03  0.75250997903E+02  0.17770331131E+03  0.41800000000E+01 0.  1.
        -11    1    1    2    0    0 -0.19852578161E+02  0.16211962332E+02  0.10761203563E+03  0.11062234310E+03  0.00000000000E+00 0. -1.
         11    1    1    2    0    0  0.51807395930E+01  0.12445844790E+03  0.10353122549E+03  0.16197363973E+03  0.00000000000E+00 0.  1.
</event>
<event>
 6    1  0.6447971E-006  0.1018550E+03  0.7561462E-02  0.1276443E+00
          1   -1    0    0  501    0  0.00000000000E+00  0.00000000000E+00  0.11497080352E+03  0.11497080352E+03  0.00000000000E+00 0. -1.
         -1   -1    0    0    0  501 -0.00000000000E+00 -0.00000000000E+00 -0.15351475470E+03  0.15351475470E+03  0.00000000000E+00 0.  1.
          5    1    1    2  502    0  0.28204181106E+02 -0.27056523195E+02 -0.78387851235E+02  0.87690700194E+02  0.41800000000E+01 0. -1.
         -5    1    1    2    0  502 -0.44609348518E+02  0.46284166597E+02 -0.97723464923E+01  0.65155116520E+02  0.41800000000E+01 0.  1.
        -11    1    1    2    0    0 -0.40706500054E+02 -0.41537156846E+01  0.42043186523E+01  0.41133305191E+02  0.00000000000E+00 0.  1.
         11    1    1    2    0    0  0.57111667465E+02 -0.15073927717E+02  0.45411927891E+02  0.74506436314E+02  0.00000000000E+00 0. -1.
</event>
<event>
 6    1  0.6447971E-006  0.1033514E+03  0.7561462E-02  0.1273402E+00
          2   -1    0    0  501    0  0.00000000000E+00  0.00000000000E+00  0.42681822560E+03  0.42681822560E+03  0.00000000000E+00 0. -1.
         -2   -1    0    0    0  501 -0.00000000000E+00 -0.00000000000E+00 -0.47074802478E+02  0.47074802478E+02  0.00000000000E+00 0.  1.
          5    1    1    2  502    0  0.55934973791E+02 -0.19873013353E+02  0.31029727463E+01  0.59588243744E+02  0.41800000000E+01 0.  1.
         -5    1    1    2    0  502  0.32755298757E+02  0.28865888858E+02  0.15402775139E+03  0.16015045967E+03  0.41800000000E+01 0.  1.
        -11    1    1    2    0    0 -0.52848843239E+02 -0.31007533623E+02  0.58422815758E+02  0.84662227552E+02  0.00000000000E+00 0.  1.
         11    1    1    2    0    0 -0.35841429309E+02  0.22014658118E+02  0.16418988323E+03  0.16949209711E+03  0.00000000000E+00 0. -1.
</event>
<event>
 6    1  0.6447971E-006  0.2561914E+03  0.7561462E-02  0.1109453E+00
         -1   -1    0    0    0  501 -0.00000000000E+00  0.00000000000E+00  0.19282138391E+03  0.19282138391E+03  0.00000000000E+00 0.  1.
          1   -1    0    0  501    0  0.00000000000E+00 -0.00000000000E+00 -0.49786452665E+03  0.49786452665E+03  0.00000000000E+00 0. -1.
          5    1    1    2  502    0 -0.18879027053E+03 -0.26745306595E+02  0.11191636277E+02  0.19104921563E+03  0.41800000000E+01 0.  1.
         -5    1    1    2    0  502 -0.42092063856E+02  0.58097866359E+02  0.23834024423E+02  0.75714179882E+02  0.41800000000E+01 0.  1.
        -11    1    1    2    0    0  0.73559203439E+02  0.31972207576E+02 -0.14274510923E+03  0.16373559380E+03  0.00000000000E+00 0.  1.
         11    1    1    2    0    0  0.15732313094E+03 -0.63324767340E+02 -0.19732369422E+03  0.26018692124E+03  0.00000000000E+00 0. -1.
</event>
<event>
 6    1  0.6447971E-006  0.8492556E+02  0.7561462E-02  0.1315627E+00
         -2   -1    0    0    0  501 -0.00000000000E+00  0.00000000000E+00  0.24583830026E+02  0.24583830026E+02  0.00000000000E+00 0.  1.
          2   -1    0    0  501    0  0.00000000000E+00 -0.00000000000E+00 -0.56206059625E+03  0.56206059625E+03  0.00000000000E+00 0. -1.
          5    1    1    2  502    0  0.45361290275E+02  0.14150443869E+02 -0.19780474188E+02  0.51639338456E+02  0.41800000000E+01 0. -1.
         -5    1    1    2    0  502 -0.11395027592E+02 -0.19218308293E+02 -0.21831320693E+03  0.21949332279E+03  0.41800000000E+01 0. -1.
        -11    1    1    2    0    0  0.25614762904E+02  0.25780017114E+02 -0.10079624976E+03  0.10714760532E+03  0.00000000000E+00 0.  1.
         11    1    1    2    0    0 -0.59581025587E+02 -0.20712152691E+02 -0.19858683535E+03  0.20836415971E+03  0.00000000000E+00 0. -1.
</event>
<event>
 6    1  0.6447971E-006  0.1657790E+03  0.7561462E-02  0.1182323E+00
          2   -1    0    0  501    0  0.00000000000E+00  0.00000000000E+00  0.72811110878E+03  0.72811110878E+03  0.00000000000E+00 0.  1.
         -2   -1    0    0    0  501 -0.00000000000E+00 -0.00000000000E+00 -0.55677180804E+02  0.55677180804E+02  0.00000000000E+00 0. -1.
          5    1    1    2  502    0 -0.49141798190E+02  0.15494132490E+02  0.14127030027E+03  0.15043189359E+03  0.41800000000E+01 0.  1.
         -5    1    1    2    0  502 -0.91014081584E+02 -0.59327281169E+02  0.44811409108E+02  0.11759602087E+03  0.41800000000E+01 0.  1.
        -11    1    1    2    0    0  0.10757428918E+03 -0.10185071419E+02  0.28713819340E+03  0.30679684725E+03  0.00000000000E+00 0. -1.
         11    1    1    2    0    0  0.32581590596E+02  0.54018220099E+02  0.19921402520E+03  0.20896352788E+03  0.00000000000E+00 0.  1.
</event>
<event>
 6    1  0.6447971E-006  0.1368038E+03  0.7561462E-02  0.1217696E+00
         -1   -1    0    0    0  501 -0.00000000000E+00  0.00000000000E+00  0.19089796236E+03  0.19089796236E+03  0.00000000000E+00 0.  1.
          1   -1    0    0  501    0  0.00000000000E+00 -0.00000000000E+00 -0.11156721458E+03  0.11156721458E+03  0.00000000000E+00 0. -1.
          5    1    1    2  502    0 -0.59284368601E+02 -0.41170409380E+02  0.62347358941E+02  0.95468866841E+02  0.41800000000E+01 0. -1.
         -5    1    1    2    0  502  0.56677138456E+02 -0.50400927008E+02  0.13558803485E+02  0.77161292231E+02  0.41800000000E+01 0. -1.
        -11    1    1    2    0    0  0.47745310142E+01  0.10833743345E+03  0.14815438914E+02  0.10944995598E+03  0.00000000000E+00 0.  1.
         11    1    1    2    0    0 -0.21673008698E+01 -0.16766097062E+02 -0.11390853560E+02  0.20385061898E+02  0.00000000000E+00 0. -1.
</event>
<event>
 6    1  0.6447971E-006  0.1535089E+03  0.7561462E-02  0.1196226E+00
         -1   -1    0    0    0  501 -0.00000000000E+00  0.00000000000E+00  0.45993618445E+03  0.45993618445E+03  0.00000000000E+00 0. -1.
          1   -1    0    0  501    0  0.00000000000E+00 -0.00000000000E+00 -0.12341728264E+03  0.12341728264E+03  0.00000000000E+00 0.  1.
          5    1    1    2  502    0 -0.82334204998E+02 -0.19259438380E+02  0.31751445442E+03  0.32860728605E+03  0.41800000000E+01 0.  1.
         -5    1    1    2    0  502 -0.66558195889E+02 -0.11345304315E+02  0.37532322077E+02  0.77361857336E+02  0.41800000000E+01 0.  1.
        -11    1    1    2    0    0  0.68178894493E+02  0.28702602890E+02 -0.51541439966E+02  0.90159420477E+02  0.00000000000E+00 0.  1.
         11    1    1    2    0    0  0.80713506393E+02  0.19021398048E+01  0.33013565289E+02  0.87224903229E+02  0.00000000000E+00 0. -1.
</event>
<event>
 6    1  0.6447971E-006  0.9351451E+02  0.7561462E-02  0.1294557E+00
         -2   -1    0    0    0  501 -0.00000000000E+00  0.00000000000E+00  0.19303737739E+02  0.19303737739E+02  0.00000000000E+00 0.  1.
          2   -1    0    0  501    0  0.00000000000E+00 -0.00000000000E+00 -0.79310290499E+03  0.79310290499E+03  0.00000000000E+00 0. -1.
          5    1    1    2  502    0  0.32485042565E+02  0.23967223684E+02 -0.28031914577E+02  0.49325109594E+02  0.41800000000E+01 0. -1.
         -5    1    1    2    0  502 -0.22437284720E+02  0.29861683397E+02 -0.36148126382E+03  0.36342994975E+03  0.41800000000E+01 0. -1.
        -11    1    1    2    0    0  0.30774432254E+02 -0.60135189733E+02 -0.26243274286E+03  0.27098754814E+03  0.00000000000E+00 0. -1.
         11    1    1    2    0    0 -0.40822190100E+02  0.63062826518E+01 -0.12185324600E+03  0.12866403525E+03  0.00000000000E+00 0.  1.
</event>
<event>
 6    1  0.6447971E-006  0.1451657E+03  0.7561462E-02  0.1206542E+00
          1   -1    0    0  501    0  0.00000000000E+00  0.00000000000E+00  0.34555314814E+02  0.34555314814E+02  0.00000000000E+00 0. -1.
         -1   -1    0    0    0  501 -0.00000000000E+00 -0.00000000000E+00 -0.69121826059E+03  0.69121826059E+03  0.00000000000E+00 0.  1.
          5    1    1    2  502    0 -0.21533031031E+02  0.47460636324E+02 -0.15835355226E+03  0.16676181619E+03  0.41800000000E+01 0.  1.
         -5    1    1    2    0  502  0.10120173957E+03  0.25643978261E+02 -0.14494968400E+03  0.17868208921E+03  0.41800000000E+01 0.  1.
        -11    1    1    2    0    0 -0.31706369923E+02 -0.79109175669E+02 -0.27825759228E+03  0.29101691227E+03  0.00000000000E+00 0. -1.
         11    1    1    2    0    0 -0.47962338617E+02  0.60045610835E+01 -0.75102117240E+02  0.89312757730E+02  0.00000000000E+00 0.  1.
</event>
<event>
 6    1  0.6447971E-006  0.1114324E+03  0.7561462E-02  0.1257940E+00
          1   -1    0    0  501    0  0.00000000000E+00  0.00000000000E+00  0.55163087843E+03  0.55163087843E+03  0.00000000000E+00 0. -1.
         -1   -1    0    0    0  501 -0.00000000000E+00 -0.00000000000E+00 -0.39209117873E+02  0.39209117873E+02  0.00000000000E+00 0.  1.
          5    1    1    2  502    0  0.23864120014E+02 -0.35030639885E+02  0.12346817831E+01  0.42610313234E+02  0.41800000000E+01 0.  1.
         -5    1    1    2    0  502  0.58025774536E+01 -0.57295762565E+02  0.23327758535E+03  0.24031724561E+03  0.41800000000E+01 0.  1.
        -11    1    1    2    0    0 -0.55070789511E+02  0.65763442513E+02  0.24105836333E+03  0.25586472356E+03  0.00000000000E+00 0. -1.
         11    1    1    2    0    0  0.25404092044E+02  0.26562959936E+02  0.36851130095E+02  0.52047713902E+02  0.00000000000E+00 0.  1.
</event>
<event>
 6    1  0.6447971E-006  0.1839336E+03  0.7561462E-02  0.1164050E+00
         -2   -1    0    0    0  501 -0.00000000000E+00  0.00000000000E+00  0.65362918792E+02  0.65362918792E+02  0.00000000000E+00 0.  1.
          2   -1    0    0  501    0  0.00000000000E+00 -0.00000000000E+00 -0.58508239604E+03  0.58508239604E+03  0.00000000000E+00 0. -1.
          5    1    1    2  502    0 -0.62057107102E+02 -0.56226963294E+02 -0.15229043338E+03  0.17384592155E+03  0.41800000000E+01 0. -1.
         -5    1    1    2    0  502 -0.98336738214E+02  0.47037421467E+02 -0.81432918119E+02  0.13613017907E+03  0.41800000000E+01 0. -1.
        -11    1    1    2    0    0  0.14350709881E+03 -0.16224543767E+02 -0.26956127752E+03  0.30581171588E+03  0.00000000000E+00 0. -1.
         11    1    1    2    0    0  0.16886746501E+02  0.25414085594E+02 -0.16434848236E+02  0.34657498331E+02  0.00000000000E+00 0.  1.
</event>
<event>
 6    1  0.6447971E-006  0.9807974E+02  0.7561462E-02  0.1284387E+00
          2   -1    0    0  501    0  0.00000000000E+00  0.00000000000E+00  0.20399044663E+03  0.20399044663E+03  0.00000000000E+00 0. -1.
         -2   -1    0    0    0  501 -0.00000000000E+00 -0.00000000000E+00 -0.72655637628E+02  0.72655637628E+02  0.00000000000E+00 0.  1.
          5    1    1    2  502    0  0.29263629467E+02 -0.35777013489E+02 -0.59273434889E+01  0.46786328180E+02  0.41800000000E+01 0. -1.
         -5    1    1    2    0  502  0.95770669250E+01  0.75869766681E+02  0.72720322060E+02  0.10561088650E+03  0.41800000000E+01 0. -1.
        -11    1    1    2    0    0 -0.37603299478E+02 -0.50344656599E+02  0.82396422794E+02  0.10362317824E+03  0.00000000000E+00 0. -1.
         11    1    1    2    0    0 -0.12373969140E+01  0.10251903407E+02 -0.17854592363E+02  0.20625691335E+02  0.00000000000E+00 0.  1.
</event>
<event>
 6    1  0.6447971E-006  0.1024370E+03  0.7561462E-02  0.1275253E+00
          2   -1    0    0  501    0  0.00000000000E+00  0.00000000000E+00  0.17122682295E+03  0.17122682295E+03  0.00000000000E+00 0. -1.
         -2   -1    0    0    0  501 -0.00000000000E+00 -0.00000000000E+00 -0.83753707553E+02  0.83753707553E+02  0.00000000000E+00 0.  1.
          5    1    1    2  502    0 -0.25389557168E+02 -0.44029137410E+02  0.65560797797E+02  0.83059527822E+02  0.41800000000E+01 0. -1.
         -5    1    1    2    0  502 -0.32528349756E+02  0.42546201870E+02 -0.26950418897E+02  0.60100501746E+02  0.41800000000E+01 0. -1.
        -11    1    1    2    0    0  0.60605127454E+02 -0.30648841604E+02  0.37840420926E+02  0.77744648827E+02  0.00000000000E+00 0.  1.
         11    1    1    2    0    0 -0.26872205296E+01  0.32131777143E+02  0.11022315575E+02  0.34075852113E+02  0.00000000000E+00 0. -1.
</event>
<event>
 6    1  0.6447971E-006  0.8730743E+02  0.7561462E-02  0.1309506E+00
         -1   -1    0    0    0  501 -0.00000000000E+00  0.00000000000E+00  0.31943772111E+03  0.31943772111E+03  0.00000000000E+00 0.  1.
          1   -1    0    0  501    0  0.00000000000E+00 -0.00000000000E+00 -0.61900903464E+02  0.61900903464E+02  0.00000000000E+00 0. -1.
          5    1    1    2  502    0  0.10899302029E+01  0.15351104420E+02  0.15709336508E+03  0.15790073498E+03  0.41800000000E+01 0.  1.
         -5    1    1    2    0  502 -0.56479795233E+01  0.70824444824E+02  0.16969315512E+02  0.73167149228E+02  0.41800000000E+01 0.  1.
        -11    1    1    2    0    0  0.96628937393E+01 -0.46546312691E+02  0.97052473007E+02  0.10806994613E+03  0.00000000000E+00 0.  1.
         11    1    1    2    0    0 -0.51048444189E+01 -0.39629236553E+02 -0.13578335956E+02  0.42200794230E+02  0.00000000000E+00 0. -1.
</event>
<event>
 6    1  0.6447971E-006  0.1350588E+03  0.7561462E-02  0.1220137E+00
          1   -1    0    0  501    0  0.00000000000E+00  0.00000000000E+00  0.26070339759E+03  0.26070339759E+03  0.00000000000E+00 0. -1.
         -1   -1    0    0    0  501 -0.00000000000E+00 -0.00000000000E+00 -0.85947607148E+02  0.85947607148E+02  0.00000000000E+00 0.  1.
          5    1    1    2  502    0 -0.53293949732E+02  0.17150682084E+02  0.91004314184E+02  0.10692824030E+03  0.41800000000E+01 0. -1.
         -5    1    1    2    0  502 -0.48465698961E+02 -0.57171454302E+02 -0.42926913125E+01  0.75189086718E+02  0.41800000000E+01 0.  1.
        -11    1    1    2    0    0  0.73287069287E+02 -0.16948684324E+02  0.44804296487E+02  0.87553854333E+02  0.00000000000E+00 0. -1.
         11    1    1    2    0    0  0.28472579406E+02  0.56969456542E+02  0.43239871081E+02  0.76979823381E+02  0.00000000000E+00 0.  1.
</event>
<event>
 6    1  0.6447971E-006  0.2073795E+03  0.7561462E-02  0.1143658E+00
         -1   -1    0    0    0  501 -0.00000000000E+00  0.00000000000E+00  0.84132327664E+02  0.84132327664E+02  0.00000000000E+00 0.  1.
          1   -1    0    0  501    0  0.00000000000E+00 -0.00000000000E+00 -0.57278667266E+03  0.57278667266E+03  0.00000000000E+00 0. -1.
          5    1    1    2  502    0  0.53568891009E+01  0.86216988040E+02 -0.11178072357E+03  0.14133105763E+03  0.41800000000E+01 0.  1.
         -5    1    1    2    0  502 -0.12491296884E+03  0.55261783911E+02 -0.20439357045E+03  0.24586849856E+03  0.41800000000E+01 0.  1.
        -11    1    1    2    0    0  0.99855067322E+02 -0.82788515511E+02 -0.16100743255E+03  0.20675678008E+03  0.00000000000E+00 0. -1.
         11    1    1    2    0    0  0.19701012419E+02 -0.58690256441E+02 -0.11472618422E+02  0.62962664055E+02  0.00000000000E+00 0.  1.
</event>
<event>
 6    1  0.6447971E-006  0.1082341E+03  0.7561462E-02  0.1263875E+00
          1   -1    0    0  501    0  0.00000000000E+00  0.00000000000E+00  0.87069905513E+02  0.87069905513E+02  0.00000000000E+00 0. -1.
         -1   -1    0    0    0  501 -0.00000000000E+00 -0.00000000000E+00 -0.28305407966E+03  0.28305407966E+03  0.00000000000E+00 0.  1.
          5    1    1    2  502    0 -0.22516495190E+02  0.64649216936E+02 -0.14165145564E+03  0.15738208631E+03  0.41800000000E+01 0.  1.
         -5    1    1    2    0  502  0.94485647411E+01 -0.56060361876E+02 -0.96669703687E+02  0.11222541406E+03  0.41800000000E+01 0.  1.
        -11    1    1    2    0    0 -0.27603797865E+02 -0.33326654398E+02  0.24149529158E+02  0.49556385144E+02  0.00000000000E+00 0. -1.
         11    1    1    2    0    0  0.40671728314E+02  0.24737799339E+02  0.18187456029E+02  0.50960099657E+02  0.00000000000E+00 0.  1.
</event>
<event>
 6    1  0.6447971E-006  0.1100968E+03  0.7561462E-02  0.1260391E+00
         -1   -1    0    0    0  501 -0.00000000000E+00  0.00000000000E+00  0.23518885629E+02  0.23518885629E+02  0.00000000000E+00 0.  1.
          1   -1    0    0  501    0  0.00000000000E+00 -0.00000000000E+00 -0.72734089234E+03  0.72734089234E+03  0.00000000000E+00 0. -1.
          5    1    1    2  502    0 -0.94119328592E+02 -0.21422252948E+02 -0.31062289640E+03  0.32530203981E+03  0.41800000000E+01 0. -1.
         -5    1    1    2    0  502  0.40172112468E+02 -0.22097112334E+02 -0.12623223104E+03  0.13436565613E+03  0.41800000000E+01 0. -1.
        -11    1    1    2    0    0  0.83617427724E+01  0.28252750309E+02 -0.12134972993E+02  0.31865250851E+02  0.00000000000E+00 0.  1.
         11    1    1    2    0    0  0.45585473351E+02  0.15266614973E+02 -0.25483190627E+03  0.25932683118E+03  0.00000000000E+00 0. -1.
</event>
<event>
 6    1  0.6447971E-006  0.1043808E+03  0.7561462E-02  0.1271344E+00
          4   -1    0    0  501    0  0.00000000000E+00  0.00000000000E+00  0.49727712177E+03  0.49727712177E+03  0.00000000000E+00 0. -1.
         -4   -1    0    0    0  501 -0.00000000000E+00 -0.00000000000E+00 -0.23961549403E+02  0.23961549403E+02  0.00000000000E+00 0.  1.
          5    1    1    2  502    0  0.31627270799E+02 -0.26260293713E+02  0.10218597568E+03  0.11022401421E+03  0.41800000000E+01 0. -1.
         -5    1    1    2    0  502 -0.55678841147E+02  0.42661830226E+02  0.94591677195E+02  0.11783557572E+03  0.41800000000E+01 0.  1.
        -11    1    1    2    0    0  0.10319294885E+02  0.38872419539E+02  0.10539118155E+03  0.11280449458E+03  0.00000000000E+00 0.  1.
         11    1    1    2    0    0  0.13732275464E+02 -0.55273956053E+02  0.17114673794E+03  0.18037458667E+03  0.00000000000E+00 0. -1.
</event>
<event>
 6    1  0.6447971E-006  0.1815088E+03  0.7561462E-02  0.1166351E+00
         -1   -1    0    0    0  501 -0.00000000000E+00  0.00000000000E+00  0.40587118925E+03  0.40587118925E+03  0.00000000000E+00 0.  1.
          1   -1    0    0  501    0  0.00000000000E+00 -0.00000000000E+00 -0.83364572199E+02  0.83364572199E+02  0.00000000000E+00 0. -1.
          5    1    1    2  502    0 -0.78340899091E+02  0.10467412867E+02  0.74071855117E+02  0.10840191568E+03  0.41800000000E+01 0. -1.
         -5    1    1    2    0  502  0.49651572513E+00  0.11127081220E+03  0.13076161544E+03  0.17174839926E+03  0.41800000000E+01 0. -1.
        -11    1    1    2    0    0 -0.18701052326E+02 -0.21503134166E+01  0.90969123673E+01  0.20907104546E+02  0.00000000000E+00 0. -1.
         11    1    1    2    0    0  0.96545435692E+02 -0.11958791165E+03  0.10857623412E+03  0.18817834196E+03  0.00000000000E+00 0.  1.
</event>
<event>
 6    1  0.6447971E-006  0.6583801E+02  0.7561462E-02  0.1374847E+00
         -1   -1    0    0    0  501 -0.00000000000E+00  0.00000000000E+00  0.11834877044E+03  0.11834877044E+03  0.00000000000E+00 0.  1.
          1   -1    0    0  501    0  0.00000000000E+00 -0.00000000000E+00 -0.11856773984E+03  0.11856773984E+03  0.00000000000E+00 0. -1.
          5    1    1    2  502    0  0.18552312059E+02  0.79388554351E+01 -0.37006582738E+02  0.42357682589E+02  0.41800000000E+01 0. -1.
         -5    1    1    2    0  502 -0.25328407189E+02 -0.94420688046E+01  0.89309166912E+02  0.93403857354E+02  0.41800000000E+01 0. -1.
        -11    1    1    2    0    0 -0.34654319112E+02 -0.16693269173E+02 -0.36848464484E+02  0.53267216969E+02  0.00000000000E+00 0.  1.
         11    1    1    2    0    0  0.41430414242E+02  0.18196482543E+02 -0.15673089088E+02  0.47887753369E+02  0.00000000000E+00 0. -1.
</event>
<event>
 6    1  0.6447971E-006  0.1178254E+03  0.7561462E-02  0.1246728E+00
         -2   -1    0    0    0  501 -0.00000000000E+00  0.00000000000E+00  0.40914937674E+02  0.40914937674E+02  0.00000000000E+00 0. -1.
          2   -1    0    0  501    0  0.00000000000E+00 -0.00000000000E+00 -0.48469942863E+03  0.48469942863E+03  0.00000000000E+00 0.  1.
          5    1    1    2  502    0  0.76890779179E+02 -0.11652337821E+02 -0.43611487369E+02  0.89260311057E+02  0.41800000000E+01 0. -1.
         -5    1    1    2    0  502 -0.11560423962E+02 -0.45710073713E+02 -0.14887889155E+03  0.15622244074E+03  0.41800000000E+01 0. -1.
        -11    1    1    2    0    0 -0.55199356973E+02  0.31546622165E+01 -0.18906588467E+03  0.19698433859E+03  0.00000000000E+00 0.  1.
         11    1    1    2    0    0 -0.10130998244E+02  0.54207749318E+02 -0.62228227372E+02  0.83147275923E+02  0.00000000000E+00 0. -1.
</event>
<event>
 6    1  0.6447971E-006  0.1165899E+03  0.7561462E-02  0.1248831E+00
         -4   -1    0    0    0  501 -0.00000000000E+00  0.00000000000E+00  0.38699543280E+03  0.38699543280E+03  0.00000000000E+00 0.  1.
          4   -1    0    0  501    0  0.00000000000E+00 -0.00000000000E+00 -0.36994544603E+02  0.36994544603E+02  0.00000000000E+00 0. -1.
          5    1    1    2  502    0  0.18044939940E+02  0.41220928752E+02  0.93724928714E+02  0.10405104270E+03  0.41800000000E+01 0. -1.
         -5    1    1    2    0  502  0.44858462137E+01 -0.87517043145E+02  0.11427097508E+03  0.14406485971E+03  0.41800000000E+01 0. -1.
        -11    1    1    2    0    0 -0.66697715749E+01  0.70775004921E+02  0.77992002562E+02  0.10552885690E+03  0.00000000000E+00 0. -1.
         11    1    1    2    0    0 -0.15861014578E+02 -0.24478890528E+02  0.64012981847E+02  0.70345218102E+02  0.00000000000E+00 0.  1.
</event>
<event>
 6    1  0.6447971E-006  0.1654777E+03  0.7561462E-02  0.1182648E+00
          1   -1    0    0  501    0  0.00000000000E+00  0.00000000000E+00  0.13042190867E+03  0.13042190867E+03  0.00000000000E+00 0. -1.
         -1   -1    0    0    0  501 -0.00000000000E+00 -0.00000000000E+00 -0.21679188919E+03  0.21679188919E+03  0.00000000000E+00 0.  1.
          5    1    1    2  502    0  0.11571269023E+03  0.27163002665E+02 -0.30687570985E+02  0.12282693030E+03  0.41800000000E+01 0. -1.
         -5    1    1    2    0  502 -0.18629166979E+02  0.54664359895E+02 -0.31700733517E+02  0.66012476174E+02  0.41800000000E+01 0. -1.
        -11    1    1    2    0    0  0.11172068873E+02 -0.33968315391E+02  0.60366690205E+01  0.36264348144E+02  0.00000000000E+00 0. -1.
         11    1    1    2    0    0 -0.10825559212E+03 -0.47859047169E+02 -0.30018345042E+02  0.12211004324E+03  0.00000000000E+00 0.  1.
</event>
<event>
 6    1  0.7674094E-006  0.1616547E+03  0.7561462E-02  0.1186841E+00
         -1   -1    0    0    0  501 -0.00000000000E+00  0.00000000000E+00  0.52012748242E+02  0.52012748242E+02  0.00000000000E+00 0.  1.
          1   -1    0    0  501    0  0.00000000000E+00 -0.00000000000E+00 -0.52899988391E+03  0.52899988391E+03  0.00000000000E+00 0. -1.
          5    1    1    2  502    0  0.11651953376E+03 -0.88000338460E+02 -0.15869380467E+03  0.21568972473E+03  0.41800000000E+01 0. -1.
         -5    1    1    2    0  502 -0.18020155523E+02  0.19712981697E+02 -0.33846848049E+02  0.43317538888E+02  0.41800000000E+01 0. -1.
        -11    1    1    2    0    0 -0.74712258404E+02 -0.32784351649E+01 -0.15737244720E+03  0.17423764470E+03  0.00000000000E+00 0. -1.
         11    1    1    2    0    0 -0.23787119829E+02  0.71565791927E+02 -0.12707403575E+03  0.14776772383E+03  0.00000000000E+00 0.  1.
</event>
<event>
 6    1  0.6447971E-006  0.1267154E+03  0.7561462E-02  0.1232412E+00
         -1   -1    0    0    0  501 -0.00000000000E+00  0.00000000000E+00  0.52911853872E+02  0.52911853872E+02  0.00000000000E+00 0.  1.
          1   -1    0    0  501    0  0.00000000000E+00 -0.00000000000E+00 -0.49283571268E+03  0.49283571268E+03  0.00000000000E+00 0. -1.
          5    1    1    2  502    0 -0.67417131952E+02 -0.77960178620E+01 -0.35276525045E+01  0.68086447310E+02  0.41800000000E+01 0. -1.
         -5    1    1    2    0  502 -0.32331037723E+02 -0.29913040877E+02 -0.15162231025E+03  0.15794582420E+03  0.41800000000E+01 0. -1.
        -11    1    1    2    0    0 -0.19339568553E+01 -0.22790418272E+02 -0.80113220012E+02  0.83314292740E+02  0.00000000000E+00 0.  1.
         11    1    1    2    0    0  0.10168212653E+03  0.60499477011E+02 -0.20466067604E+03  0.23640100231E+03  0.00000000000E+00 0. -1.
</event>
<event>
 6    1  0.6447971E-006  0.2444316E+03  0.7561462E-02  0.1116875E+00
          2   -1    0    0  501    0  0.00000000000E+00  0.00000000000E+00  0.94134359961E+03  0.94134359961E+03  0.00000000000E+00 0. -1.
         -2   -1    0    0    0  501 -0.00000000000E+00 -0.00000000000E+00 -0.66030970886E+02  0.66030970886E+02  0.00000000000E+00 0.  1.
          5    1    1    2  502    0 -0.21327419349E+03  0.78827659611E+02  0.40279665009E+03  0.46256058549E+03  0.41800000000E+01 0. -1.
         -5    1    1    2    0  502  0.14640457900E+02  0.24220348855E+02  0.41812947226E+02  0.50663233828E+02  0.41800000000E+01 0. -1.
        -11    1    1    2    0    0  0.88104140203E+02 -0.81930436376E+02  0.29012224847E+03  0.31407937688E+03  0.00000000000E+00 0. -1.
         11    1    1    2    0    0  0.11052959539E+03 -0.21117572089E+02  0.14058078294E+03  0.18007137429E+03  0.00000000000E+00 0.  1.
</event>
<event>
 6    1  0.6447971E-006  0.2485995E+03  0.7561462E-02  0.1114193E+00
          2   -1    0    0  501    0  0.00000000000E+00  0.00000000000E+00  0.67202079954E+03  0.67202079954E+03  0.00000000000E+00 0. -1.
         -2   -1    0    0    0  501 -0.00000000000E+00 -0.00000000000E+00 -0.10083220290E+03  0.10083220290E+03  0.00000000000E+00 0.  1.
          5    1    1    2  502    0  0.11930394408E+03 -0.16333222048E+03  0.13331823417E+03  0.24228509917E+03  0.41800000000E+01 0. -1.
         -5    1    1    2    0  502 -0.18071399343E+02 -0.45618367334E+02  0.93041370456E+02  0.10527003338E+03  0.41800000000E+01 0. -1.
        -11    1    1    2    0    0 -0.68138238008E+02  0.20010871233E+03  0.26925007336E+03  0.34231844565E+03  0.00000000000E+00 0.  1.
         11    1    1    2    0    0 -0.33094306728E+02  0.88418754841E+01  0.75578918655E+02  0.82979424226E+02  0.00000000000E+00 0. -1.
</event>
<event>
 6    1  0.6447971E-006  0.8595935E+02  0.7561462E-02  0.1312943E+00
          1   -1    0    0  501    0  0.00000000000E+00  0.00000000000E+00  0.76546091379E+02  0.76546091379E+02  0.00000000000E+00 0. -1.
         -1   -1    0    0    0  501 -0.00000000000E+00 -0.00000000000E+00 -0.20178360909E+03  0.20178360909E+03  0.00000000000E+00 0.  1.
          5    1    1    2  502    0  0.30301278089E+01 -0.63852538729E+02 -0.10844905067E+03  0.12595633120E+03  0.41800000000E+01 0. -1.
         -5    1    1    2    0  502 -0.12590174962E+02  0.51117484188E+02 -0.27761253845E+02  0.59662964311E+02  0.41800000000E+01 0. -1.
        -11    1    1    2    0    0 -0.11268223642E+02  0.27364891159E+02  0.42751440778E+02  0.51995151897E+02  0.00000000000E+00 0. -1.
         11    1    1    2    0    0  0.20828270795E+02 -0.14629836619E+02 -0.31778653972E+02  0.40715253064E+02  0.00000000000E+00 0.  1.
</event>
<event>
 6    1  0.6447971E-006  0.2585282E+03  0.7561462E-02  0.1108031E+00
         -1   -1    0    0    0  501 -0.00000000000E+00  0.00000000000E+00  0.12254825528E+03  0.12254825528E+03  0.00000000000E+00 0.  1.
          1   -1    0    0  501    0  0.00000000000E+00 -0.00000000000E+00 -0.63236573322E+03  0.63236573322E+03  0.00000000000E+00 0. -1.
          5    1    1    2  502    0  0.46580705224E+02  0.10663218162E+03 -0.86378112095E+02  0.14497873949E+03  0.41800000000E+01 0. -1.
         -5    1    1    2    0  502  0.15146692995E+03  0.35904604588E+02 -0.70641704220E+02  0.17099442761E+03  0.41800000000E+01 0. -1.
        -11    1    1    2    0    0 -0.16327655691E+03 -0.12680909421E+03 -0.22495363566E+03  0.30552237007E+03  0.00000000000E+00 0.  1.
         11    1    1    2    0    0 -0.34771078265E+02 -0.15727691992E+02 -0.12784402596E+03  0.13341845132E+03  0.00000000000E+00 0. -1.
</event>
<event>
 6    1  0.6447971E-006  0.8342649E+02  0.7561462E-02  0.1319599E+00
         -1   -1    0    0    0  501 -0.00000000000E+00  0.00000000000E+00  0.26427274534E+03  0.26427274534E+03  0.00000000000E+00 0.  1.
          1   -1    0    0  501    0  0.00000000000E+00 -0.00000000000E+00 -0.48848722612E+02  0.48848722612E+02  0.00000000000E+00 0. -1.
          5    1    1    2  502    0 -0.26087175124E+01  0.18641148964E+02 -0.18624810888E+02  0.26807719455E+02  0.41800000000E+01 0. -1.
         -5    1    1    2    0  502  0.22724626860E+02 -0.44063524176E+02  0.14762256647E+03  0.15578156939E+03  0.41800000000E+01 0. -1.
        -11    1    1    2    0    0 -0.26909640538E+02 -0.30964094718E+02  0.35625034979E+02  0.54332743653E+02  0.00000000000E+00 0.  1.
         11    1    1    2    0    0  0.67937311907E+01  0.56386469930E+02  0.50801232163E+02  0.76199435457E+02  0.00000000000E+00 0. -1.
</event>
<event>
 6    1  0.6447971E-006  0.6878545E+02  0.7561462E-02  0.1364273E+00
          1   -1    0    0  501    0  0.00000000000E+00  0.00000000000E+00  0.43794058683E+02  0.43794058683E+02  0.00000000000E+00 0. -1.
         -1   -1    0    0    0  501 -0.00000000000E+00 -0.00000000000E+00 -0.34429852561E+03  0.34429852561E+03  0.00000000000E+00 0.  1.
          5    1    1    2  502    0  0.32771171958E+02  0.26440420269E+02 -0.24612046540E+03  0.24973145862E+03  0.41800000000E+01 0.  1.
         -5    1    1    2    0  502 -0.32393807837E+02 -0.58923867089E+01 -0.78297931043E+01  0.34100690130E+02  0.41800000000E+01 0.  1.
        -11    1    1    2    0    0  0.19798824197E+02 -0.32908619337E+02  0.12704767446E+02  0.40452216035E+02  0.00000000000E+00 0. -1.
         11    1    1    2    0    0 -0.20176188318E+02  0.12360585777E+02 -0.59258975868E+02  0.63808219507E+02  0.00000000000E+00 0.  1.
</event>
<event>
 6    1  0.6447971E-006  0.1378033E+03  0.7561462E-02  0.1216316E+00
         -1   -1    0    0    0  501 -0.00000000000E+00  0.00000000000E+00  0.12702279757E+03  0.12702279757E+03  0.00000000000E+00 0.  1.
          1   -1    0    0  501    0  0.00000000000E+00 -0.00000000000E+00 -0.16755616870E+03  0.16755616870E+03  0.00000000000E+00 0. -1.
          5    1    1    2  502    0  0.34223981483E+02  0.25877819727E+02 -0.18903050350E+02  0.47071649376E+02  0.41800000000E+01 0.  1.
         -5    1    1    2    0  502 -0.10581011435E+03  0.38591913201E+02 -0.69749084399E+01  0.11292137889E+03  0.41800000000E+01 0.  1.
        -11    1    1    2    0    0  0.52366444002E+02  0.15772644104E+00 -0.36362021677E+02  0.63753164278E+02  0.00000000000E+00 0. -1.
         11    1    1    2    0    0  0.19219688866E+02 -0.64627459369E+02  0.21706609328E+02  0.70832773722E+02  0.00000000000E+00 0.  1.
</event>
<event>
 6    1  0.6447971E-006  0.1053448E+03  0.7561462E-02  0.1269442E+00
          1   -1    0    0  501    0  0.00000000000E+00  0.00000000000E+00  0.40799308914E+02  0.40799308914E+02  0.00000000000E+00 0. -1.
         -1   -1    0    0    0  501 -0.00000000000E+00 -0.00000000000E+00 -0.37390965025E+03  0.37390965025E+03  0.00000000000E+00 0.  1.
          5    1    1    2  502    0 -0.49139779373E+02 -0.56351227969E+02 -0.14472781281E+03  0.16295333999E+03  0.41800000000E+01 0. -1.
         -5    1    1    2    0  502  0.13831815787E+02  0.52258951792E+02 -0.13690082543E+03  0.14724681856E+03  0.41800000000E+01 0. -1.
        -11    1    1    2    0    0  0.12779282847E+02  0.38440054887E+02 -0.48689215565E+02  0.63337094993E+02  0.00000000000E+00 0.  1.
         11    1    1    2    0    0  0.22528680739E+02 -0.34347778710E+02 -0.27924875266E+01  0.41171705633E+02  0.00000000000E+00 0. -1.
</event>
<event>
 6    1  0.6447971E-006  0.1072650E+03  0.7561462E-02  0.1265720E+00
          1   -1    0    0  501    0  0.00000000000E+00  0.00000000000E+00  0.31625074133E+03  0.31625074133E+03  0.00000000000E+00 0. -1.
         -1   -1    0    0    0  501 -0.00000000000E+00 -0.00000000000E+00 -0.65326413910E+02  0.65326413910E+02  0.00000000000E+00 0.  1.
          5    1    1    2  502    0  0.29375254707E+02  0.36544326846E+02  0.42322086392E+02  0.63301064843E+02  0.41800000000E+01 0. -1.
         -5    1    1    2    0  502 -0.84771091298E+02 -0.26818616619E+01  0.38614670073E+01  0.85004197715E+02  0.41800000000E+01 0. -1.
        -11    1    1    2    0    0  0.31400787179E+02  0.96503133581E+01  0.13220920165E+02  0.35410884109E+02  0.00000000000E+00 0.  1.
         11    1    1    2    0    0  0.23995049412E+02 -0.43512778542E+02  0.19151985385E+03  0.19786100857E+03  0.00000000000E+00 0. -1.
</event>
<event>
 6    1  0.6447971E-006  0.1070651E+03  0.7561462E-02  0.1266103E+00
         -2   -1    0    0    0  501 -0.00000000000E+00  0.00000000000E+00  0.32309916125E+02  0.32309916125E+02  0.00000000000E+00 0.  1.
          2   -1    0    0  501    0  0.00000000000E+00 -0.00000000000E+00 -0.56324727994E+03  0.56324727994E+03  0.00000000000E+00 0. -1.
          5    1    1    2  502    0  0.49575770802E+02 -0.63871895518E+02 -0.90001938809E+02  0.12105865305E+03  0.41800000000E+01 0.  1.
         -5    1    1    2    0  502 -0.49324473821E+02  0.16055593872E+02 -0.40888308113E+02  0.66181658733E+02  0.41800000000E+01 0.  1.
        -11    1    1    2    0    0  0.10592799515E+02 -0.14454458657E+02 -0.68971362763E+02  0.71261403705E+02  0.00000000000E+00 0. -1.
         11    1    1    2    0    0 -0.10844096496E+02  0.62270760303E+02 -0.33107575413E+03  0.33705548058E+03  0.00000000000E+00 0.  1.
</event>
<event>
 6    1  0.6447971E-006  0.1163079E+03  0.7561462E-02  0.1249315E+00
          3   -1    0    0  501    0  0.00000000000E+00  0.00000000000E+00  0.33472398726E+03  0.33472398726E+03  0.00000000000E+00 0. -1.
         -3   -1    0    0    0  501 -0.00000000000E+00 -0.00000000000E+00 -0.61605441611E+02  0.61605441611E+02  0.00000000000E+00 0.  1.
          5    1    1    2  502    0 -0.20271412063E+02 -0.14152564378E+01 -0.19245060111E+02  0.28298018243E+02  0.41800000000E+01 0.  1.
         -5    1    1    2    0  502  0.52868844625E+02  0.81763586328E+02  0.11835217303E+03  0.15331375686E+03  0.41800000000E+01 0.  1.
        -11    1    1    2    0    0 -0.41048842971E+02 -0.83118169056E+01  0.11100144131E+03  0.11863984905E+03  0.00000000000E+00 0.  1.
         11    1    1    2    0    0  0.84514104096E+01 -0.72036512985E+02  0.63009991423E+02  0.96077804721E+02  0.00000000000E+00 0. -1.
</event>
<event>
 6    1  0.6447971E-006  0.7990286E+02  0.7561462E-02  0.1329327E+00
          3   -1    0    0  501    0  0.00000000000E+00  0.00000000000E+00  0.18552781085E+03  0.18552781085E+03  0.00000000000E+00 0. -1.
         -3   -1    0    0    0  501 -0.00000000000E+00 -0.00000000000E+00 -0.65465094614E+02  0.65465094614E+02  0.00000000000E+00 0.  1.
          5    1    1    2  502    0  0.30540917499E+02  0.29667221851E+02 -0.19357913919E+02  0.46958416981E+02  0.41800000000E+01 0. -1.
         -5    1    1    2    0  502 -0.50766890902E+02 -0.69977196712E+01  0.80905351335E+02  0.95861324668E+02  0.41800000000E+01 0. -1.
        -11    1    1    2    0    0  0.40891583939E+02 -0.14571273141E+02 -0.22627250207E+01  0.43469110441E+02  0.00000000000E+00 0.  1.
         11    1    1    2    0    0 -0.20665610537E+02 -0.80982290392E+01  0.60778003843E+02  0.64704053378E+02  0.00000000000E+00 0. -1.
</event>
<event>
 6    1  0.6447971E-006  0.1393598E+03  0.7561462E-02  0.1214193E+00
          2   -1    0    0  501    0  0.00000000000E+00  0.00000000000E+00  0.74424274835E+03  0.74424274835E+03  0.00000000000E+00 0. -1.
         -2   -1    0    0    0  501 -0.00000000000E+00 -0.00000000000E+00 -0.30763374845E+02  0.30763374845E+02  0.00000000000E+00 0.  1.
          5    1    1    2  502    0  0.72357356917E+02 -0.13183744798E+02  0.34201709020E+03  0.34986077319E+03  0.41800000000E+01 0. -1.
         -5    1    1    2    0  502 -0.93411256495E+01 -0.66809923543E+02  0.10029418511E+03  0.12094303816E+03  0.41800000000E+01 0. -1.
        -11    1    1    2    0    0 -0.25253757415E+02  0.93888499532E+02  0.20203864374E+03  0.22421511139E+03  0.00000000000E+00 0. -1.
         11    1    1    2    0    0 -0.37762473852E+02 -0.13894831192E+02  0.69129454449E+02  0.79987200462E+02  0.00000000000E+00 0.  1.
</event>
<event>
 6    1  0.6447971E-006  0.9892174E+02  0.7561462E-02  0.1282580E+00
         -1   -1    0    0    0  501 -0.00000000000E+00  0.00000000000E+00  0.34313548107E+02  0.34313548107E+02  0.00000000000E+00 0. -1.
          1   -1    0    0  501    0  0.00000000000E+00 -0.00000000000E+00 -0.41633784281E+03  0.41633784281E+03  0.00000000000E+00 0.  1.
          5    1    1    2  502    0 -0.57963868043E+02 -0.24246079254E+02 -0.19072640902E+03  0.20085247784E+03  0.41800000000E+01 0.  1.
         -5    1    1    2    0  502  0.31670895446E+02 -0.17952226519E+02 -0.54251971999E+01  0.37043666395E+02  0.41800000000E+01 0.  1.
        -11    1    1    2    0    0  0.38209154708E+02  0.63333556558E+02 -0.16472455024E+03  0.18056925636E+03  0.00000000000E+00 0.  1.
         11    1    1    2    0    0 -0.11916182111E+02 -0.21135250786E+02 -0.21148138241E+02  0.32185990321E+02  0.00000000000E+00 0. -1.
</event>
<event>
 6    1  0.6447971E-006  0.1275644E+03  0.7561462E-02  0.1231115E+00
         -1   -1    0    0    0  501 -0.00000000000E+00  0.00000000000E+00  0.14984143516E+02  0.14984143516E+02  0.00000000000E+00 0.  1.
          1   -1    0    0  501    0  0.00000000000E+00 -0.00000000000E+00 -0.12326192426E+04  0.12326192426E+04  0.00000000000E+00 0. -1.
          5    1    1    2  502    0 -0.17036827580E+02  0.89704818064E+02 -0.37868186391E+03  0.38955697187E+03  0.41800000000E+01 0. -1.
         -5    1    1    2    0  502 -0.40583300613E+02 -0.33268609216E+02 -0.37535208814E+03  0.37902568134E+03  0.41800000000E+01 0. -1.
        -11    1    1    2    0    0  0.68551661283E+02 -0.17653835754E+02 -0.37588529289E+03  0.38249279940E+03  0.00000000000E+00 0. -1.
         11    1    1    2    0    0 -0.10931533090E+02 -0.38782373095E+02 -0.87715854173E+02  0.96527933531E+02  0.00000000000E+00 0.  1.
</event>
<event>
 6    1  0.6447971E-006  0.1083654E+03  0.7561462E-02  0.1263627E+00
         -2   -1    0    0    0  501 -0.00000000000E+00  0.00000000000E+00  0.21543262053E+03  0.21543262053E+03  0.00000000000E+00 0.  1.
          2   -1    0    0  501    0  0.00000000000E+00 -0.00000000000E+00 -0.72769992745E+02  0.72769992745E+02  0.00000000000E+00 0. -1.
          5    1    1    2  502    0 -0.97764712044E+02 -0.44221124989E+01  0.55216640497E+02  0.11244484776E+03  0.41800000000E+01 0.  1.
         -5    1    1    2    0  502  0.37579464827E+02 -0.19480710267E+02  0.16525779484E+02  0.45632094372E+02  0.41800000000E+01 0.  1.
        -11    1    1    2    0    0  0.23783941899E+02 -0.10644195408E+02 -0.15406857759E+02  0.30271208337E+02  0.00000000000E+00 0. -1.
         11    1    1    2    0    0  0.36401305317E+02  0.34547018175E+02  0.86327065565E+02  0.99854462808E+02  0.00000000000E+00 0.  1.
</event>
<event>
 6    1  0.6447971E-006  0.9665195E+02  0.7561462E-02  0.1287498E+00
         -4   -1    0    0    0  501 -0.00000000000E+00  0.00000000000E+00  0.20248436486E+03  0.20248436486E+03  0.00000000000E+00 0.  1.
          4   -1    0    0  501    0  0.00000000000E+00 -0.00000000000E+00 -0.77085736531E+02  0.77085736531E+02  0.00000000000E+00 0. -1.
          5    1    1    2  502    0 -0.41465794464E+02  0.53177249031E+02  0.39489829425E+02  0.78256954663E+02  0.41800000000E+01 0.  1.
         -5    1    1    2    0  502  0.26990408108E+02 -0.35572934636E+02  0.10520210620E+03  0.11436289327E+03  0.41800000000E+01 0.  1.
        -11    1    1    2    0    0  0.86901694759E+01  0.30872366628E+02 -0.20589598805E+02  0.38112381790E+02  0.00000000000E+00 0. -1.
         11    1    1    2    0    0  0.57852168799E+01 -0.48476681023E+02  0.12962915093E+01  0.48837871667E+02  0.00000000000E+00 0.  1.
</event>
<event>
 6    1  0.6447971E-006  0.7692077E+02  0.7561462E-02  0.1338024E+00
         -2   -1    0    0    0  501 -0.00000000000E+00  0.00000000000E+00  0.16491741627E+02  0.16491741627E+02  0.00000000000E+00 0.  1.
          2   -1    0    0  501    0  0.00000000000E+00 -0.00000000000E+00 -0.86043687401E+03  0.86043687401E+03  0.00000000000E+00 0. -1.
          5    1    1    2  502    0 -0.81805728024E+00  0.56350924533E+01  0.69609356086E+01  0.99171825242E+01  0.41800000000E+01 0. -1.
         -5    1    1    2    0  502 -0.43964918144E+02  0.10769233003E+02 -0.46744129639E+03  0.46964638653E+03  0.41800000000E+01 0. -1.
        -11    1    1    2    0    0  0.61191977358E+02 -0.39614654969E+02 -0.31314351538E+03  0.32151615854E+03  0.00000000000E+00 0. -1.
         11    1    1    2    0    0 -0.16409001934E+02  0.23210329512E+02 -0.70321256225E+02  0.75848888044E+02  0.00000000000E+00 0.  1.
</event>
<event>
 6    1  0.6447971E-006  0.1106396E+03  0.7561462E-02  0.1259390E+00
          2   -1    0    0  501    0  0.00000000000E+00  0.00000000000E+00  0.36776423109E+03  0.36776423109E+03  0.00000000000E+00 0. -1.
         -2   -1    0    0    0  501 -0.00000000000E+00 -0.00000000000E+00 -0.48603549410E+02  0.48603549410E+02  0.00000000000E+00 0.  1.
          5    1    1    2  502    0  0.23899351889E+02  0.50736429526E+02  0.52520115372E+02  0.76949328915E+02  0.41800000000E+01 0.  1.
         -5    1    1    2    0  502  0.76571795524E+01 -0.67552363503E+02  0.15467754400E+02  0.69847534242E+02  0.41800000000E+01 0.  1.
        -11    1    1    2    0    0 -0.44822497385E+02 -0.26195612834E+02  0.15308737371E+03  0.16165089048E+03  0.00000000000E+00 0.  1.
         11    1    1    2    0    0  0.13265965944E+02  0.43011546810E+02  0.98085438197E+02  0.10792002686E+03  0.00000000000E+00 0. -1.
</event>
<event>
 6    1  0.6447971E-006  0.1033358E+03  0.7561462E-02  0.1273434E+00
         -3   -1    0    0    0  501 -0.00000000000E+00  0.00000000000E+00  0.85850061324E+02  0.85850061324E+02  0.00000000000E+00 0.  1.
          3   -1    0    0  501    0  0.00000000000E+00 -0.00000000000E+00 -0.14634066812E+03  0.14634066812E+03  0.00000000000E+00 0. -1.
          5    1    1    2  502    0  0.52322636339E+02  0.50634170824E+02  0.30600829933E+01  0.72995301468E+02  0.41800000000E+01 0. -1.
         -5    1    1    2    0  502 -0.14990408157E+02 -0.51200898040E+02 -0.26229862456E+02  0.59596328589E+02  0.41800000000E+01 0. -1.
        -11    1    1    2    0    0 -0.30047649737E+01 -0.32455513108E+02 -0.40350430461E+02  0.51870475051E+02  0.00000000000E+00 0.  1.
         11    1    1    2    0    0 -0.34327463209E+02  0.33022240324E+02  0.30296031218E+01  0.47728624340E+02  0.00000000000E+00 0. -1.
</event>
<event>
 6    1  0.6447971E-006  0.1237348E+03  0.7561462E-02  0.1237060E+00
          2   -1    0    0  501    0  0.00000000000E+00  0.00000000000E+00  0.42845196157E+03  0.42845196157E+03  0.00000000000E+00 0. -1.
         -2   -1    0    0    0  501 -0.00000000000E+00 -0.00000000000E+00 -0.38680200853E+02  0.38680200853E+02  0.00000000000E+00 0.  1.
          5    1    1    2  502    0  0.34246889366E+02 -0.29331210698E+02  0.94075278767E+02  0.10440689550E+03  0.41800000000E+01 0. -1.
         -5    1    1    2    0  502 -0.93787200714E+02  0.82782077987E+01  0.97361020005E+02  0.13550353633E+03  0.41800000000E+01 0.  1.
        -11    1    1    2    0    0 -0.19653838663E+02  0.20978645817E+02  0.32127889533E+02  0.43111231024E+02  0.00000000000E+00 0.  1.
         11    1    1    2    0    0  0.79194150011E+02  0.74357082347E-01  0.16620757241E+03  0.18411049957E+03  0.00000000000E+00 0. -1.
</event>
<event>
 6    1  0.6447971E-006  0.1104400E+03  0.7561462E-02  0.1259757E+00
         -2   -1    0    0    0  501 -0.00000000000E+00  0.00000000000E+00  0.10652563371E+03  0.10652563371E+03  0.00000000000E+00 0. -1.
          2   -1    0    0  501    0  0.00000000000E+00 -0.00000000000E+00 -0.14073038474E+03  0.14073038474E+03  0.00000000000E+00 0.  1.
          5    1    1    2  502    0  0.45772811879E+02 -0.38551345310E+00  0.41823730547E+01  0.46154778434E+02  0.41800000000E+01 0. -1.
         -5    1    1    2    0  502 -0.78938884836E+02 -0.42833928126E+02 -0.92209342215E+01  0.90380257611E+02  0.41800000000E+01 0. -1.
        -11    1    1    2    0    0  0.13786191952E+02 -0.16917753144E+02 -0.40993575766E+02  0.46440744116E+02  0.00000000000E+00 0.  1.
         11    1    1    2    0    0  0.19379881006E+02  0.60137194723E+02  0.11827385900E+02  0.64280238287E+02  0.00000000000E+00 0. -1.
</event>
<event>
 6    1  0.6447971E-006  0.1036119E+03  0.7561462E-02  0.1272879E+00
         -1   -1    0    0    0  501 -0.00000000000E+00  0.00000000000E+00  0.15220052711E+03  0.15220052711E+03  0.00000000000E+00 0.  1.
          1   -1    0    0  501    0  0.00000000000E+00 -0.00000000000E+00 -0.11003544258E+03  0.11003544258E+03  0.00000000000E+00 0. -1.
          5    1    1    2  502    0 -0.43762180856E+02  0.27736981810E+02  0.84185801986E+02  0.98940337017E+02  0.41800000000E+01 0. -1.
         -5    1    1    2    0  502 -0.63205327343E+01 -0.50381621386E+02 -0.16483830828E+02  0.53548538601E+02  0.41800000000E+01 0. -1.
        -11    1    1    2    0    0  0.64131744832E+00 -0.31193205491E+02  0.28571449525E+01  0.31330346856E+02  0.00000000000E+00 0.  1.
         11    1    1    2    0    0  0.49441396142E+02  0.53837845067E+02 -0.28394031581E+02  0.78416747212E+02  0.00000000000E+00 0. -1.
</event>
<event>
 6    1  0.6447971E-006  0.1317917E+03  0.7561462E-02  0.1224821E+00
          1   -1    0    0  501    0  0.00000000000E+00  0.00000000000E+00  0.10372354467E+04  0.10372354467E+04  0.00000000000E+00 0. -1.
         -1   -1    0    0    0  501 -0.00000000000E+00 -0.00000000000E+00 -0.20268696626E+02  0.20268696626E+02  0.00000000000E+00 0.  1.
          5    1    1    2  502    0  0.66356057053E+02  0.28419176460E+02  0.26468620003E+03  0.27438482609E+03  0.41800000000E+01 0. -1.
         -5    1    1    2    0  502 -0.50047828888E+02  0.63022925308E+02  0.19541706837E+03  0.21138111860E+03  0.41800000000E+01 0. -1.
        -11    1    1    2    0    0 -0.17523509452E+02  0.16402848783E+01  0.19082558486E+02  0.25959737217E+02  0.00000000000E+00 0.  1.
         11    1    1    2    0    0  0.12152812872E+01 -0.93082386646E+02  0.53778092321E+03  0.54577846145E+03  0.00000000000E+00 0. -1.
</event>
<event>
 6    1  0.6447971E-006  0.1233754E+03  0.7561462E-02  0.1237630E+00
         -2   -1    0    0    0  501 -0.00000000000E+00  0.00000000000E+00  0.12390916858E+03  0.12390916858E+03  0.00000000000E+00 0.  1.
          2   -1    0    0  501    0  0.00000000000E+00 -0.00000000000E+00 -0.13946399613E+03  0.13946399613E+03  0.00000000000E+00 0. -1.
          5    1    1    2  502    0  0.83556299159E+02  0.51106531376E+02 -0.23408970051E+02  0.10079179013E+03  0.41800000000E+01 0.  1.
         -5    1    1    2    0  502 -0.32153749171E+02  0.68154841876E+00  0.29991646199E+02  0.44173513962E+02  0.41800000000E+01 0.  1.
        -11    1    1    2    0    0 -0.54134547695E+01 -0.67475607221E+02 -0.14349194173E+02  0.69196549305E+02  0.00000000000E+00 0.  1.
         11    1    1    2    0    0 -0.45989095219E+02  0.15687527426E+02 -0.77883095203E+01  0.49211311311E+02  0.00000000000E+00 0. -1.
</event>
<event>
 6    1  0.6447971E-006  0.1071669E+03  0.7561462E-02  0.1265908E+00
         -1   -1    0    0    0  501 -0.00000000000E+00  0.00000000000E+00  0.99960673221E+02  0.99960673221E+02  0.00000000000E+00 0.  1.
          1   -1    0    0  501    0  0.00000000000E+00 -0.00000000000E+00 -0.12424064084E+03  0.12424064084E+03  0.00000000000E+00 0. -1.
          5    1    1    2  502    0  0.27009693023E+01  0.49280699576E+02  0.14349337295E+02  0.51567998475E+02  0.41800000000E+01 0. -1.
         -5    1    1    2    0  502 -0.62152490837E+01 -0.74167713231E+02 -0.14914439024E+02  0.76022311847E+02  0.41800000000E+01 0. -1.
        -11    1    1    2    0    0 -0.91469141720E+01 -0.31327071891E+02 -0.21234646450E+02  0.38935352599E+02  0.00000000000E+00 0.  1.
         11    1    1    2    0    0  0.12661193953E+02  0.56214085546E+02 -0.24802194388E+01  0.57675651141E+02  0.00000000000E+00 0. -1.
</event>
<event>
 6    1  0.6447971E-006  0.1432449E+03  0.7561462E-02  0.1209028E+00
         -2   -1    0    0    0  501 -0.00000000000E+00  0.00000000000E+00  0.43930108933E+03  0.43930108933E+03  0.00000000000E+00 0.  1.
          2   -1    0    0  501    0  0.00000000000E+00 -0.00000000000E+00 -0.10737305074E+03  0.10737305074E+03  0.00000000000E+00 0. -1.
          5    1    1    2  502    0  0.89505506110E+00  0.58837299090E+02 -0.53407507908E+02  0.79576775435E+02  0.41800000000E+01 0. -1.
         -5    1    1    2    0  502 -0.42055349663E+02 -0.10200426245E+03  0.30152188300E+03  0.32110191578E+03  0.41800000000E+01 0.  1.
        -11    1    1    2    0    0 -0.60708114177E+01 -0.29664318279E+02  0.35469107607E+02  0.46635652935E+02  0.00000000000E+00 0.  1.
         11    1    1    2    0    0  0.47231106019E+02  0.72831281640E+02  0.48344555895E+02  0.99359795923E+02  0.00000000000E+00 0. -1.
</event>
<event>
 6    1  0.6447971E-006  0.1097000E+03  0.7561462E-02  0.1261126E+00
          1   -1    0    0  501    0  0.00000000000E+00  0.00000000000E+00  0.70874712504E+03  0.70874712504E+03  0.00000000000E+00 0. -1.
         -1   -1    0    0    0  501 -0.00000000000E+00 -0.00000000000E+00 -0.32412417034E+02  0.32412417034E+02  0.00000000000E+00 0.  1.
          5    1    1    2  502    0  0.81877589690E+02  0.19366528604E+02  0.26086292117E+03  0.27412759468E+03  0.41800000000E+01 0.  1.
         -5    1    1    2    0  502  0.13826295724E+02 -0.19408679815E+02 -0.64984099943E+01  0.25051248233E+02  0.41800000000E+01 0.  1.
        -11    1    1    2    0    0 -0.85895470714E+02  0.20473794493E+02  0.40259109552E+03  0.41216113153E+03  0.00000000000E+00 0. -1.
         11    1    1    2    0    0 -0.98084146999E+01 -0.20431643282E+02  0.19379101304E+02  0.29819567628E+02  0.00000000000E+00 0.  1.
</event>
<event>
 6    1  0.6447971E-006  0.1874256E+03  0.7561462E-02  0.1160804E+00
         -1   -1    0    0    0  501 -0.00000000000E+00  0.00000000000E+00  0.13851566160E+03  0.13851566160E+03  0.00000000000E+00 0.  1.
          1   -1    0    0  501    0  0.00000000000E+00 -0.00000000000E+00 -0.27182414643E+03  0.27182414643E+03  0.00000000000E+00 0. -1.
          5    1    1    2  502    0 -0.11598699565E+03 -0.13309994079E+03 -0.37418845652E+02  0.18051653611E+03  0.41800000000E+01 0.  1.
         -5    1    1    2    0  502 -0.76289178569E+00  0.23922909846E+02 -0.16905945163E+02  0.29600185832E+02  0.41800000000E+01 0.  1.
        -11    1    1    2    0    0  0.32326224895E+02 -0.42038128255E+01  0.88747502988E+01  0.33784879030E+02  0.00000000000E+00 0.  1.
         11    1    1    2    0    0  0.84423662544E+02  0.11338084377E+03 -0.87858444306E+02  0.16643820706E+03  0.00000000000E+00 0. -1.
</event>
<event>
 6    1  0.1848862E-005  0.2737215E+03  0.7561462E-02  0.1099168E+00
         -2   -1    0    0    0  501 -0.00000000000E+00  0.00000000000E+00  0.13061603926E+03  0.13061603926E+03  0.00000000000E+00 0.  1.
          2   -1    0    0  501    0  0.00000000000E+00 -0.00000000000E+00 -0.58520812407E+03  0.58520812407E+03  0.00000000000E+00 0. -1.
          5    1    1    2  502    0 -0.89390077769E+02 -0.13931171450E+03 -0.14262025871E+03  0.21853226396E+03  0.41800000000E+01 0.  1.
         -5    1    1    2    0  502  0.38797791289E+02 -0.10914066522E+03 -0.72256953979E+02  0.13658511344E+03  0.41800000000E+01 0.  1.
        -11    1    1    2    0    0  0.61837244872E+02  0.10346297312E+03 -0.13807024037E+03  0.18328072167E+03  0.00000000000E+00 0. -1.
         11    1    1    2    0    0 -0.11244958393E+02  0.14498940660E+03 -0.10164463174E+03  0.17742606426E+03  0.00000000000E+00 0.  1.
</event>
<event>
 6    1  0.6447971E-006  0.1221080E+03  0.7561462E-02  0.1239659E+00
         -3   -1    0    0    0  501 -0.00000000000E+00  0.00000000000E+00  0.49867735637E+02  0.49867735637E+02  0.00000000000E+00 0.  1.
          3   -1    0    0  501    0  0.00000000000E+00 -0.00000000000E+00 -0.36436395537E+03  0.36436395537E+03  0.00000000000E+00 0. -1.
          5    1    1    2  502    0  0.80252052557E+02  0.56509785169E+02 -0.19477950364E+03  0.21815195438E+03  0.41800000000E+01 0. -1.
         -5    1    1    2    0  502 -0.75760049814E+01 -0.33220182363E+02 -0.14353081780E+02  0.37208328695E+02  0.41800000000E+01 0. -1.
        -11    1    1    2    0    0 -0.58633276286E+02 -0.52839788706E+02 -0.46725188640E+02  0.91723211958E+02  0.00000000000E+00 0.  1.
         11    1    1    2    0    0 -0.14042771289E+02  0.29550185900E+02 -0.58638445678E+02  0.67148195982E+02  0.00000000000E+00 0. -1.
</event>
<event>
 6    1  0.6447971E-006  0.1004774E+03  0.7561462E-02  0.1279295E+00
         -1   -1    0    0    0  501 -0.00000000000E+00  0.00000000000E+00  0.28765922460E+02  0.28765922460E+02  0.00000000000E+00 0.  1.
          1   -1    0    0  501    0  0.00000000000E+00 -0.00000000000E+00 -0.57896205557E+03  0.57896205557E+03  0.00000000000E+00 0. -1.
          5    1    1    2  502    0 -0.44001487165E+02  0.72070971274E+02 -0.67765932367E+02  0.10835151020E+03  0.41800000000E+01 0.  1.
         -5    1    1    2    0  502  0.26166002147E+02 -0.16633796400E+02 -0.12411909722E+03  0.12800142790E+03  0.41800000000E+01 0.  1.
        -11    1    1    2    0    0  0.56130953997E+01 -0.67628425050E+02 -0.33787964992E+03  0.34462699916E+03  0.00000000000E+00 0. -1.
         11    1    1    2    0    0  0.12222389618E+02  0.12191250176E+02 -0.20431453605E+02  0.26748040774E+02  0.00000000000E+00 0.  1.
</event>
<event>
 6    1  0.6447971E-006  0.6802022E+02  0.7561462E-02  0.1366958E+00
          1   -1    0    0  501    0  0.00000000000E+00  0.00000000000E+00  0.29996832355E+03  0.29996832355E+03  0.00000000000E+00 0. -1.
         -1   -1    0    0    0  501 -0.00000000000E+00 -0.00000000000E+00 -0.69339643727E+02  0.69339643727E+02  0.00000000000E+00 0.  1.
          5    1    1    2  502    0 -0.12599885453E+02  0.71853594115E+01 -0.56028463611E+02  0.58026266793E+02  0.41800000000E+01 0. -1.
         -5    1    1    2    0  502  0.27604481958E+02  0.26607044447E+01  0.62494447890E+02  0.68499015974E+02  0.41800000000E+01 0. -1.
        -11    1    1    2    0    0  0.33177196852E+02 -0.25925958366E+02  0.91294465314E+02  0.10053636708E+03  0.00000000000E+00 0.  1.
         11    1    1    2    0    0 -0.48181793357E+02  0.16079894510E+02  0.13286823023E+03  0.14224631743E+03  0.00000000000E+00 0. -1.
</event>
<event>
 6    1  0.6447971E-006  0.1077875E+03  0.7561462E-02  0.1264723E+00
          2   -1    0    0  501    0  0.00000000000E+00  0.00000000000E+00  0.26121793102E+03  0.26121793102E+03  0.00000000000E+00 0. -1.
         -2   -1    0    0    0  501 -0.00000000000E+00 -0.00000000000E+00 -0.81211340038E+02  0.81211340038E+02  0.00000000000E+00 0.  1.
          5    1    1    2  502    0  0.53865654468E+01  0.48483317410E+02  0.10759373549E+03  0.11820969280E+03  0.41800000000E+01 0.  1.
         -5    1    1    2    0  502  0.45108867049E+02  0.16200136125E+02 -0.23355085468E+02  0.53480713478E+02  0.41800000000E+01 0.  1.
        -11    1    1    2    0    0 -0.56364314493E+02 -0.28971868770E+01  0.92786101602E+02  0.10860290185E+03  0.00000000000E+00 0. -1.
         11    1    1    2    0    0  0.58688819966E+01 -0.61786266658E+02  0.29818393577E+01  0.62135962931E+02  0.00000000000E+00 0.  1.
</event>
<event>
 6    1  0.6447971E-006  0.1322098E+03  0.7561462E-02  0.1224213E+00
         -1   -1    0    0    0  501 -0.00000000000E+00  0.00000000000E+00  0.24501626020E+02  0.24501626020E+02  0.00000000000E+00 0.  1.
          1   -1    0    0  501    0  0.00000000000E+00 -0.00000000000E+00 -0.81458336383E+03  0.81458336383E+03  0.00000000000E+00 0. -1.
          5    1    1    2  502    0  0.46534071528E+02 -0.35160151214E+02 -0.12236303494E+03  0.13561652100E+03  0.41800000000E+01 0.  1.
         -5    1    1    2    0  502 -0.65924913065E+02 -0.47873787928E+02 -0.40033287434E+03  0.40856073773E+03  0.41800000000E+01 0.  1.
        -11    1    1    2    0    0 -0.36563644680E+02  0.30510342060E+02 -0.99005721284E+02  0.10986316003E+03  0.00000000000E+00 0.  1.
         11    1    1    2    0    0  0.55954486216E+02  0.52523597082E+02 -0.16838010724E+03  0.18504457110E+03  0.00000000000E+00 0. -1.
</event>
<event>
 6    1  0.6447971E-006  0.1826338E+03  0.7561462E-02  0.1165278E+00
         -1   -1    0    0    0  501 -0.00000000000E+00  0.00000000000E+00  0.55507626717E+03  0.55507626717E+03  0.00000000000E+00 0. -1.
          1   -1    0    0  501    0  0.00000000000E+00 -0.00000000000E+00 -0.63580725254E+02  0.63580725254E+02  0.00000000000E+00 0.  1.
          5    1    1    2  502    0  0.14017000161E+03 -0.47921715055E+02  0.23855172721E+03  0.28083539499E+03  0.41800000000E+01 0.  1.
         -5    1    1    2    0  502  0.90780067946E+01  0.44953291750E+02  0.60227173158E+02  0.75815522376E+02  0.41800000000E+01 0.  1.
        -11    1    1    2    0    0 -0.66082076157E+02 -0.40170468198E+02  0.52876642712E+02  0.93682691299E+02  0.00000000000E+00 0.  1.
         11    1    1    2    0    0 -0.83165932244E+02  0.43138891503E+02  0.13983999884E+03  0.16832338376E+03  0.00000000000E+00 0. -1.
</event>
<event>
 6    1  0.6447971E-006  0.9272017E+02  0.7561462E-02  0.1296395E+00
          2   -1    0    0  501    0  0.00000000000E+00  0.00000000000E+00  0.22137097638E+03  0.22137097638E+03  0.00000000000E+00 0. -1.
         -2   -1    0    0    0  501 -0.00000000000E+00 -0.00000000000E+00 -0.67378082230E+02  0.67378082230E+02  0.00000000000E+00 0.  1.
          5    1    1    2  502    0  0.59242670798E+02  0.77948497956E+01  0.26949621739E+00  0.59899906134E+02  0.41800000000E+01 0.  1.
         -5    1    1    2    0  502 -0.62744679124E+02  0.17477545574E+02  0.27084789050E+02  0.70664117878E+02  0.41800000000E+01 0.  1.
        -11    1    1    2    0    0  0.20115197361E+02  0.91145648549E+01  0.11663429447E+03  0.11870659251E+03  0.00000000000E+00 0. -1.
         11    1    1    2    0    0 -0.16613189036E+02 -0.34386960224E+02  0.10004314413E+02  0.39478442095E+02  0.00000000000E+00 0.  1.
</event>
<event>
 6    1  0.6447971E-006  0.9577468E+02  0.7561462E-02  0.1289441E+00
          1   -1    0    0  501    0  0.00000000000E+00  0.00000000000E+00  0.25972550823E+02  0.25972550823E+02  0.00000000000E+00 0. -1.
         -1   -1    0    0    0  501 -0.00000000000E+00 -0.00000000000E+00 -0.87709727479E+03  0.87709727479E+03  0.00000000000E+00 0.  1.
          5    1    1    2  502    0 -0.53835017086E+01 -0.61721603934E+01 -0.42203040042E+03  0.42213055911E+03  0.41800000000E+01 0.  1.
         -5    1    1    2    0  502 -0.14492132031E+02  0.88521463091E+02 -0.22397542208E+03  0.24130589179E+03  0.41800000000E+01 0.  1.
        -11    1    1    2    0    0 -0.60099842749E+01 -0.53340522912E+02 -0.32631053665E+02  0.62818126037E+02  0.00000000000E+00 0. -1.
         11    1    1    2    0    0  0.25885618014E+02 -0.29008779786E+02 -0.17248784780E+03  0.17681524868E+03  0.00000000000E+00 0.  1.
</event>
<event>
 6    1  0.6447971E-006  0.1333523E+03  0.7561462E-02  0.1222565E+00
          1   -1    0    0  501    0  0.00000000000E+00  0.00000000000E+00  0.63144434111E+02  0.63144434111E+02  0.00000000000E+00 0. -1.
         -1   -1    0    0    0  501 -0.00000000000E+00 -0.00000000000E+00 -0.10649790636E+04  0.10649790636E+04  0.00000000000E+00 0.  1.
          5    1    1    2  502    0  0.40672736242E+02  0.22416364294E+02 -0.52214510918E+03  0.52422299864E+03  0.41800000000E+01 0.  1.
         -5    1    1    2    0  502 -0.69810641700E+02  0.69598192350E+02 -0.45054663959E+03  0.46122356935E+03  0.41800000000E+01 0.  1.
        -11    1    1    2    0    0 -0.17137067146E+02  0.13672866828E+01  0.20903415106E+02  0.27064761339E+02  0.00000000000E+00 0. -1.
         11    1    1    2    0    0  0.46274972604E+02 -0.93381843327E+02 -0.50046295817E+02  0.11561216838E+03  0.00000000000E+00 0.  1.
</event>
<event>
 6    1  0.6447971E-006  0.1394439E+03  0.7561462E-02  0.1214079E+00
         -1   -1    0    0    0  501 -0.00000000000E+00  0.00000000000E+00  0.49911709310E+02  0.49911709310E+02  0.00000000000E+00 0.  1.
          1   -1    0    0  501    0  0.00000000000E+00 -0.00000000000E+00 -0.60019836987E+03  0.60019836987E+03  0.00000000000E+00 0. -1.
          5    1    1    2  502    0 -0.45332979339E+02  0.93478695862E+02 -0.43577160779E+02  0.11273769085E+03  0.41800000000E+01 0. -1.
         -5    1    1    2    0  502  0.12595303042E+02  0.21720034877E+02 -0.11866111344E+03  0.12136034697E+03  0.41800000000E+01 0.  1.
        -11    1    1    2    0    0 -0.25277224484E+02 -0.62679144007E+01 -0.55676064513E+02  0.61465835944E+02  0.00000000000E+00 0. -1.
         11    1    1    2    0    0  0.58014900781E+02 -0.10893081634E+03 -0.33237232182E+03  0.35454620541E+03  0.00000000000E+00 0.  1.
</event>
<event>
 6    1  0.6447971E-006  0.1080398E+03  0.7561462E-02  0.1264243E+00
         -1   -1    0    0    0  501 -0.00000000000E+00  0.00000000000E+00  0.13111532209E+03  0.13111532209E+03  0.00000000000E+00 0.  1.
          1   -1    0    0  501    0  0.00000000000E+00 -0.00000000000E+00 -0.13279312774E+03  0.13279312774E+03  0.00000000000E+00 0. -1.
          5    1    1    2  502    0  0.95737161886E+00  0.43967162437E+02 -0.26240417924E+02  0.51381512882E+02  0.41800000000E+01 0.  1.
         -5    1    1    2    0  502  0.74839966832E+02 -0.12892049601E+02  0.72697763039E+02  0.10521246470E+03  0.41800000000E+01 0.  1.
        -11    1    1    2    0    0 -0.28253919569E+02 -0.38470866983E+02 -0.25974352295E+02  0.54341131333E+02  0.00000000000E+00 0. -1.
         11    1    1    2    0    0 -0.47543418882E+02  0.73957541457E+01 -0.22160798466E+02  0.52973340908E+02  0.00000000000E+00 0.  1.
</event>
<event>
 6    1  0.6447971E-006  0.1335102E+03  0.7561462E-02  0.1222338E+00
          2   -1    0    0  501    0  0.00000000000E+00  0.00000000000E+00  0.59380121327E+03  0.59380121327E+03  0.00000000000E+00 0. -1.
         -2   -1    0    0    0  501 -0.00000000000E+00 -0.00000000000E+00 -0.50502241844E+02  0.50502241844E+02  0.00000000000E+00 0.  1.
          5    1    1    2  502    0  0.62974873354E+02  0.47302640498E+02  0.15395245503E+02  0.80360814183E+02  0.41800000000E+01 0.  1.
         -5    1    1    2    0  502  0.20227544589E+02 -0.50490424345E+02  0.82766706744E+02  0.99127375915E+02  0.41800000000E+01 0.  1.
        -11    1    1    2    0    0 -0.52437432445E+02  0.53315097621E+02  0.26225082271E+03  0.27270437834E+03  0.00000000000E+00 0.  1.
         11    1    1    2    0    0 -0.30764985498E+02 -0.50127313774E+02  0.18288619647E+03  0.19211088667E+03  0.00000000000E+00 0. -1.
</event>
<event>
 6    1  0.6447971E-006  0.9868100E+02  0.7561462E-02  0.1283094E+00
          2   -1    0    0  501    0  0.00000000000E+00  0.00000000000E+00  0.45846976297E+03  0.45846976297E+03  0.00000000000E+00 0. -1.
         -2   -1    0    0    0  501 -0.00000000000E+00 -0.00000000000E+00 -0.38926552407E+02  0.38926552407E+02  0.00000000000E+00 0.  1.
          5    1    1    2  502    0 -0.65862113721E+02 -0.30291386883E+02  0.60634118772E+02  0.94601030133E+02  0.41800000000E+01 0. -1.
         -5    1    1    2    0  502 -0.71811971502E+01  0.18123870131E+02  0.22516507804E+03  0.22604607723E+03  0.41800000000E+01 0. -1.
        -11    1    1    2    0    0  0.63756081917E+02 -0.23502858970E+02  0.11903318833E+03  0.13706247585E+03  0.00000000000E+00 0. -1.
         11    1    1    2    0    0  0.92872289543E+01  0.35670375722E+02  0.14710825421E+02  0.39686732171E+02  0.00000000000E+00 0.  1.
</event>
<event>
 6    1  0.6447971E-006  0.9425313E+02  0.7561462E-02  0.1292867E+00
          2   -1    0    0  501    0  0.00000000000E+00  0.00000000000E+00  0.90820940848E+02  0.90820940848E+02  0.00000000000E+00 0. -1.
         -2   -1    0    0    0  501 -0.00000000000E+00 -0.00000000000E+00 -0.14589419277E+03  0.14589419277E+03  0.00000000000E+00 0.  1.
          5    1    1    2  502    0 -0.15757650009E+02 -0.26236946217E+02  0.29287378081E+02  0.42566463271E+02  0.41800000000E+01 0. -1.
         -5    1    1    2    0  502  0.28404451927E+01  0.59905494074E+02 -0.73438107881E+02  0.94907135866E+02  0.41800000000E+01 0. -1.
        -11    1    1    2    0    0  0.49539219364E+02 -0.35317266799E+02  0.50829989028E+00  0.60841613704E+02  0.00000000000E+00 0.  1.
         11    1    1    2    0    0 -0.36622014548E+02  0.16487189420E+01 -0.11430822011E+02  0.38399920775E+02  0.00000000000E+00 0. -1.
</event>
<event>
 6    1  0.6447971E-006  0.8967606E+02  0.7561462E-02  0.1303638E+00
          1   -1    0    0  501    0  0.00000000000E+00  0.00000000000E+00  0.31003736360E+03  0.31003736360E+03  0.00000000000E+00 0. -1.
         -1   -1    0    0    0  501 -0.00000000000E+00 -0.00000000000E+00 -0.41828577392E+02  0.41828577392E+02  0.00000000000E+00 0.  1.
          5    1    1    2  502    0  0.12363041345E+02  0.57273034414E+02  0.11719724547E+03  0.13109428671E+03  0.41800000000E+01 0. -1.
         -5    1    1    2    0  502 -0.15159053122E+02 -0.33400891705E+02 -0.61901725640E+01  0.37432700873E+02  0.41800000000E+01 0.  1.
        -11    1    1    2    0    0  0.41494972348E+02 -0.13353056174E+02  0.12345990684E+03  0.13092931466E+03  0.00000000000E+00 0. -1.
         11    1    1    2    0    0 -0.38698960570E+02 -0.10519086535E+02  0.33741806458E+02  0.52409638748E+02  0.00000000000E+00 0.  1.
</event>
<event>
 6    1  0.6447971E-006  0.1778560E+03  0.7561462E-02  0.1169894E+00
          2   -1    0    0  501    0  0.00000000000E+00  0.00000000000E+00  0.13405284195E+03  0.13405284195E+03  0.00000000000E+00 0. -1.
         -2   -1    0    0    0  501 -0.00000000000E+00 -0.00000000000E+00 -0.24993880334E+03  0.24993880334E+03  0.00000000000E+00 0.  1.
          5    1    1    2  502    0  0.11108043229E+03  0.66637945812E+02 -0.80564186137E+02  0.15260255158E+03  0.41800000000E+01 0. -1.
         -5    1    1    2    0  502  0.30265798024E+02 -0.49884525473E+02 -0.19342465403E+02  0.61612399560E+02  0.41800000000E+01 0. -1.
        -11    1    1    2    0    0 -0.12095587720E+03 -0.48139587508E+02 -0.21489490570E+02  0.13194522470E+03  0.00000000000E+00 0.  1.
         11    1    1    2    0    0 -0.20390353111E+02  0.31386167168E+02  0.55101807255E+01  0.37831469455E+02  0.00000000000E+00 0. -1.
</event>
<event>
 6    1  0.6447971E-006  0.1344128E+03  0.7561462E-02  0.1221051E+00
         -2   -1    0    0    0  501 -0.00000000000E+00  0.00000000000E+00  0.81086613248E+02  0.81086613248E+02  0.00000000000E+00 0. -1.
          2   -1    0    0  501    0  0.00000000000E+00 -0.00000000000E+00 -0.45773661862E+03  0.45773661862E+03  0.00000000000E+00 0.  1.
          5    1    1    2  502    0 -0.58384569179E+02 -0.46099939901E+02 -0.88812646179E+02  0.11592722242E+03  0.41800000000E+01 0.  1.
         -5    1    1    2    0  502 -0.35308754649E-01 -0.62840972154E+02  0.29669696049E+02  0.69618620294E+02  0.41800000000E+01 0.  1.
        -11    1    1    2    0    0  0.61786136498E+02  0.74742295115E+02 -0.12750049961E+03  0.16018837269E+03  0.00000000000E+00 0. -1.
         11    1    1    2    0    0 -0.33662585644E+01  0.34198616940E+02 -0.19000655563E+03  0.19308901647E+03  0.00000000000E+00 0.  1.
</event>
<event>
 6    1  0.6447971E-006  0.8461022E+02  0.7561462E-02  0.1316455E+00
         -2   -1    0    0    0  501 -0.00000000000E+00  0.00000000000E+00  0.36906843868E+02  0.36906843868E+02  0.00000000000E+00 0.  1.
          2   -1    0    0  501    0  0.00000000000E+00 -0.00000000000E+00 -0.36116842007E+03  0.36116842007E+03  0.00000000000E+00 0. -1.
          5    1    1    2  502    0 -0.20006241674E+02 -0.46297494464E+02 -0.14478084311E+03  0.15337102931E+03  0.41800000000E+01 0.  1.
         -5    1    1    2    0  502 -0.46962640746E+01  0.31055955015E+02  0.95727495716E+01  0.33100410458E+02  0.41800000000E+01 0.  1.
        -11    1    1    2    0    0  0.19484601878E+02  0.49018345476E+02 -0.15339520956E+03  0.16221139978E+03  0.00000000000E+00 0. -1.
         11    1    1    2    0    0  0.52179038710E+01 -0.33776806027E+02 -0.35658273104E+02  0.49392424388E+02  0.00000000000E+00 0.  1.
</event>
<event>
 6    1  0.6447971E-006  0.1541052E+03  0.7561462E-02  0.1195517E+00
         -4   -1    0    0    0  501 -0.00000000000E+00  0.00000000000E+00  0.27243862344E+03  0.27243862344E+03  0.00000000000E+00 0.  1.
          4   -1    0    0  501    0  0.00000000000E+00 -0.00000000000E+00 -0.99610695710E+02  0.99610695710E+02  0.00000000000E+00 0. -1.
          5    1    1    2  502    0 -0.28045500944E+02 -0.40789002038E+02  0.28591028115E+02  0.57316769789E+02  0.41800000000E+01 0. -1.
         -5    1    1    2    0  502  0.11072553099E+03 -0.35370613307E+02  0.11974507660E+03  0.16693585375E+03  0.41800000000E+01 0. -1.
        -11    1    1    2    0    0 -0.16876771374E+02  0.74509504105E+02 -0.30153307514E+01  0.76456417870E+02  0.00000000000E+00 0. -1.
         11    1    1    2    0    0 -0.65803258676E+02  0.16501112397E+01  0.27507153774E+02  0.71340277741E+02  0.00000000000E+00 0.  1.
</event>
<event>
 6    1  0.6447971E-006  0.9650676E+02  0.7561462E-02  0.1287818E+00
         -1   -1    0    0    0  501 -0.00000000000E+00  0.00000000000E+00  0.93521788002E+02  0.93521788002E+02  0.00000000000E+00 0.  1.
          1   -1    0    0  501    0  0.00000000000E+00 -0.00000000000E+00 -0.26410828277E+03  0.26410828277E+03  0.00000000000E+00 0. -1.
          5    1    1    2  502    0 -0.16398239796E+01  0.63317897342E+02 -0.16697487124E+02  0.65636298058E+02  0.41800000000E+01 0. -1.
         -5    1    1    2    0  502 -0.55211322765E+02 -0.38226038442E+02  0.33325843573E+02  0.75083982488E+02  0.41800000000E+01 0. -1.
        -11    1    1    2    0    0  0.15922918712E+02 -0.88793308723E+01  0.56482798517E+01  0.19086249562E+02  0.00000000000E+00 0.  1.
         11    1    1    2    0    0  0.40928228033E+02 -0.16212528028E+02 -0.19286313107E+03  0.19782354066E+03  0.00000000000E+00 0. -1.
</event>
<event>
 6    1  0.6447971E-006  0.9293019E+02  0.7561462E-02  0.1295907E+00
         -2   -1    0    0    0  501 -0.00000000000E+00  0.00000000000E+00  0.68979838604E+02  0.68979838604E+02  0.00000000000E+00 0.  1.
          2   -1    0    0  501    0  0.00000000000E+00 -0.00000000000E+00 -0.22895207214E+03  0.22895207214E+03  0.00000000000E+00 0. -1.
          5    1    1    2  502    0 -0.10253819844E+02  0.54461501211E+01 -0.85053570678E+02  0.85944072847E+02  0.41800000000E+01 0. -1.
         -5    1    1    2    0  502  0.62219892450E+02  0.20260090647E+02  0.19670606431E+02  0.68455762700E+02  0.41800000000E+01 0.  1.
        -11    1    1    2    0    0  0.77721672298E+01 -0.44619216559E+02 -0.39116669186E+02  0.59844756479E+02  0.00000000000E+00 0.  1.
         11    1    1    2    0    0 -0.59738239835E+02  0.18912975791E+02 -0.55472600100E+02  0.83687318715E+02  0.00000000000E+00 0. -1.
</event>
<event>
 6    1  0.6447971E-006  0.9539366E+02  0.7561462E-02  0.1290292E+00
          1   -1    0    0  501    0  0.00000000000E+00  0.00000000000E+00  0.40880868891E+03  0.40880868891E+03  0.00000000000E+00 0. -1.
         -1   -1    0    0    0  501 -0.00000000000E+00 -0.00000000000E+00 -0.38108006135E+02  0.38108006135E+02  0.00000000000E+00 0.  1.
          5    1    1    2  502    0 -0.23921957149E+02 -0.11827223191E+01  0.12873199094E+03  0.13100784999E+03  0.41800000000E+01 0.  1.
         -5    1    1    2    0  502  0.74773374556E+02 -0.33421341579E+02  0.51494541116E+02  0.96835963258E+02  0.41800000000E+01 0.  1.
        -11    1    1    2    0    0  0.48736229964E+01  0.27917965953E+02  0.14234198433E+03  0.14513581752E+03  0.00000000000E+00 0.  1.
         11    1    1    2    0    0 -0.55725040403E+02  0.66860979459E+01  0.48132166391E+02  0.73937064285E+02  0.00000000000E+00 0. -1.
</event>
<event>
 6    1  0.6447971E-006  0.8916557E+02  0.7561462E-02  0.1304885E+00
         -2   -1    0    0    0  501 -0.00000000000E+00  0.00000000000E+00  0.22598355728E+02  0.22598355728E+02  0.00000000000E+00 0.  1.
          2   -1    0    0  501    0  0.00000000000E+00 -0.00000000000E+00 -0.41701694240E+03  0.41701694240E+03  0.00000000000E+00 0. -1.
          5    1    1    2  502    0 -0.11489775734E+02 -0.52731039775E+02 -0.81916792634E+02  0.98185593738E+02  0.41800000000E+01 0. -1.
         -5    1    1    2    0  502  0.62176473215E+01  0.70451439862E+02 -0.15266851153E+03  0.16830689626E+03  0.41800000000E+01 0. -1.
        -11    1    1    2    0    0 -0.20947339096E+02 -0.17238653924E+02 -0.13248192538E+03  0.13523099777E+03  0.00000000000E+00 0.  1.
         11    1    1    2    0    0  0.26219467509E+02 -0.48174616293E+00 -0.27351357127E+02  0.37891810362E+02  0.00000000000E+00 0. -1.
</event>
<event>
 6    1  0.6447971E-006  0.5738558E+02  0.7561462E-02  0.1409143E+00
         -2   -1    0    0    0  501 -0.00000000000E+00  0.00000000000E+00  0.91251001507E+03  0.91251001507E+03  0.00000000000E+00 0.  1.
          2   -1    0    0  501    0  0.00000000000E+00 -0.00000000000E+00 -0.16619502853E+02  0.16619502853E+02  0.00000000000E+00 0. -1.
          5    1    1    2  502    0  0.28723907698E+02 -0.24531169222E+02  0.67912815087E+03  0.68019067830E+03  0.41800000000E+01 0.  1.
         -5    1    1    2    0  502 -0.89452607906E+01 -0.15949402411E+01 -0.10902360799E+01  0.10060941293E+02  0.41800000000E+01 0.  1.
        -11    1    1    2    0    0  0.73725386247E+00  0.41263072970E+02  0.20716001911E+03  0.21123081748E+03  0.00000000000E+00 0.  1.
         11    1    1    2    0    0 -0.20515900770E+02 -0.15136963506E+02  0.10692578307E+02  0.27647080849E+02  0.00000000000E+00 0. -1.
</event>
<event>
 6    1  0.6447971E-006  0.1003742E+03  0.7561462E-02  0.1279511E+00
          2   -1    0    0  501    0  0.00000000000E+00  0.00000000000E+00  0.19025182183E+03  0.19025182183E+03  0.00000000000E+00 0. -1.
         -2   -1    0    0    0  501 -0.00000000000E+00 -0.00000000000E+00 -0.71726168655E+02  0.71726168655E+02  0.00000000000E+00 0.  1.
          5    1    1    2  502    0 -0.50203353337E+02 -0.36022038639E+02  0.13534210109E+01  0.61945686713E+02  0.41800000000E+01 0. -1.
         -5    1    1    2    0  502  0.63357586863E+02  0.88507652972E+01  0.28450894602E+02  0.70138760063E+02  0.41800000000E+01 0. -1.
        -11    1    1    2    0    0 -0.11295415231E+01  0.49412102734E+02  0.91963044353E+02  0.10440322451E+03  0.00000000000E+00 0. -1.
         11    1    1    2    0    0 -0.12024692003E+02 -0.22240829393E+02 -0.32417067961E+01  0.25490319198E+02  0.00000000000E+00 0.  1.
</event>
<event>
 6    1  0.6447971E-006  0.7689848E+02  0.7561462E-02  0.1338091E+00
          2   -1    0    0  501    0  0.00000000000E+00  0.00000000000E+00  0.18429303104E+02  0.18429303104E+02  0.00000000000E+00 0. -1.
         -2   -1    0    0    0  501 -0.00000000000E+00 -0.00000000000E+00 -0.82656269946E+03  0.82656269946E+03  0.00000000000E+00 0.  1.
          5    1    1    2  502    0  0.31106743591E+02 -0.14775714590E+01 -0.44063611000E+03  0.44175498475E+03  0.41800000000E+01 0. -1.
         -5    1    1    2    0  502  0.25877870356E+02  0.38892746339E+01 -0.83205363009E+01  0.27775787219E+02  0.41800000000E+01 0. -1.
        -11    1    1    2    0    0 -0.21748753389E+02  0.37056393745E+02 -0.25525787789E+03  0.25884893050E+03  0.00000000000E+00 0.  1.
         11    1    1    2    0    0 -0.35235860558E+02 -0.39468096920E+02 -0.10391887215E+03  0.11661230010E+03  0.00000000000E+00 0. -1.
</event>
<event>
 6    1  0.6447971E-006  0.1437850E+03  0.7561462E-02  0.1208325E+00
         -1   -1    0    0    0  501 -0.00000000000E+00  0.00000000000E+00  0.11465053919E+03  0.11465053919E+03  0.00000000000E+00 0.  1.
          1   -1    0    0  501    0  0.00000000000E+00 -0.00000000000E+00 -0.25642442000E+03  0.25642442000E+03  0.00000000000E+00 0. -1.
          5    1    1    2  502    0  0.51201340546E+02 -0.65047240853E+02  0.22391415790E+02  0.85857840163E+02  0.41800000000E+01 0.  1.
         -5    1    1    2    0  502 -0.43570489159E+02 -0.62280915693E+02 -0.59409517472E+02  0.96562224246E+02  0.41800000000E+01 0.  1.
        -11    1    1    2    0    0  0.49750315961E+01  0.44644355310E+02  0.10613211976E+02  0.46157444349E+02  0.00000000000E+00 0.  1.
         11    1    1    2    0    0 -0.12605882984E+02  0.82683801236E+02 -0.11536899110E+03  0.14249745043E+03  0.00000000000E+00 0. -1.
</event>
<event>
 6    1  0.6447971E-006  0.2392843E+03  0.7561462E-02  0.1120270E+00
         -1   -1    0    0    0  501 -0.00000000000E+00  0.00000000000E+00  0.11462107243E+03  0.11462107243E+03  0.00000000000E+00 0.  1.
          1   -1    0    0  501    0  0.00000000000E+00 -0.00000000000E+00 -0.53329266784E+03  0.53329266784E+03  0.00000000000E+00 0. -1.
          5    1    1    2  502    0 -0.45114940748E+02 -0.10255097819E+03 -0.81245242884E+02  0.13845693517E+03  0.41800000000E+01 0. -1.
         -5    1    1    2    0  502 -0.12966653833E+03 -0.28198984430E+02 -0.18662022323E+03  0.22902657925E+03  0.41800000000E+01 0. -1.
        -11    1    1    2    0    0  0.17432956309E+03  0.96146720297E+02 -0.11196960815E+03  0.22841230602E+03  0.00000000000E+00 0.  1.
         11    1    1    2    0    0  0.45191598647E+00  0.34603242323E+02 -0.38836521149E+02  0.52017919819E+02  0.00000000000E+00 0. -1.
</event>
<event>
 6    1  0.6447971E-006  0.7630665E+02  0.7561462E-02  0.1339872E+00
         -1   -1    0    0    0  501 -0.00000000000E+00  0.00000000000E+00  0.17669826827E+03  0.17669826827E+03  0.00000000000E+00 0.  1.
          1   -1    0    0  501    0  0.00000000000E+00 -0.00000000000E+00 -0.85061113168E+02  0.85061113168E+02  0.00000000000E+00 0. -1.
          5    1    1    2  502    0 -0.33374035910E+02  0.51035916642E+01  0.86985079286E+02  0.93401013588E+02  0.41800000000E+01 0.  1.
         -5    1    1    2    0  502  0.32482119726E+02  0.48759596957E+02 -0.14964507148E+02  0.60613490838E+02  0.41800000000E+01 0.  1.
        -11    1    1    2    0    0  0.10499217626E+02 -0.46718045964E+02  0.53505648161E+02  0.71802951016E+02  0.00000000000E+00 0.  1.
         11    1    1    2    0    0 -0.96073014426E+01 -0.71451426574E+01 -0.33889065195E+02  0.35941925998E+02  0.00000000000E+00 0. -1.
</event>
<event>
 6    1  0.6447971E-006  0.1153344E+03  0.7561462E-02  0.1250998E+00
         -1   -1    0    0    0  501 -0.00000000000E+00  0.00000000000E+00  0.58594239161E+03  0.58594239161E+03  0.00000000000E+00 0.  1.
          1   -1    0    0  501    0  0.00000000000E+00 -0.00000000000E+00 -0.35513786775E+02  0.35513786775E+02  0.00000000000E+00 0. -1.
          5    1    1    2  502    0  0.40457109916E+02  0.25937314984E+02  0.76038805282E+02  0.90049399554E+02  0.41800000000E+01 0. -1.
         -5    1    1    2    0  502 -0.74203701223E+02  0.38632083223E+02  0.35109240221E+03  0.36094594390E+03  0.41800000000E+01 0. -1.
        -11    1    1    2    0    0 -0.90879775214E+01  0.94732481537E+01  0.66495515489E+02  0.67778959465E+02  0.00000000000E+00 0.  1.
         11    1    1    2    0    0  0.42834568829E+02 -0.74042646361E+02  0.56801881855E+02  0.10268187547E+03  0.00000000000E+00 0. -1.
</event>
<event>
 6    1  0.6447971E-006  0.1316291E+03  0.7561462E-02  0.1225058E+00
          2   -1    0    0  501    0  0.00000000000E+00  0.00000000000E+00  0.88707166357E+03  0.88707166357E+03  0.00000000000E+00 0. -1.
         -2   -1    0    0    0  501 -0.00000000000E+00 -0.00000000000E+00 -0.31303954651E+02  0.31303954651E+02  0.00000000000E+00 0.  1.
          5    1    1    2  502    0  0.22393336856E+02 -0.49812198617E+02  0.35955872321E+03  0.36370683868E+03  0.41800000000E+01 0. -1.
         -5    1    1    2    0  502  0.32931634493E+02 -0.62814322286E+02  0.64815854163E+02  0.96170156418E+02  0.41800000000E+01 0. -1.
        -11    1    1    2    0    0 -0.65570910069E+02  0.81120582281E+02  0.39806883691E+03  0.41150807044E+03  0.00000000000E+00 0. -1.
         11    1    1    2    0    0  0.10245938720E+02  0.31505938622E+02  0.33324294639E+02  0.46990552688E+02  0.00000000000E+00 0.  1.
</event>
<event>
 6    1  0.6447971E-006  0.8752806E+02  0.7561462E-02  0.1308951E+00
         -2   -1    0    0    0  501 -0.00000000000E+00  0.00000000000E+00  0.25311686196E+03  0.25311686196E+03  0.00000000000E+00 0.  1.
          2   -1    0    0  501    0  0.00000000000E+00 -0.00000000000E+00 -0.49258077458E+02  0.49258077458E+02  0.00000000000E+00 0. -1.
          5    1    1    2  502    0 -0.24068589038E+02 -0.44436078860E+02  0.13904642094E+02  0.52580163127E+02  0.41800000000E+01 0. -1.
         -5    1    1    2    0  502  0.18643666838E+02  0.31461431621E+02  0.14791125356E+03  0.15242250268E+03  0.41800000000E+01 0. -1.
        -11    1    1    2    0    0  0.16601059960E+02 -0.34756135282E+02  0.14598178573E+02  0.41190908574E+02  0.00000000000E+00 0.  1.
         11    1    1    2    0    0 -0.11176137760E+02  0.47730782521E+02  0.27444710269E+02  0.56181365033E+02  0.00000000000E+00 0. -1.
</event>
<event>
 6    1  0.6447971E-006  0.7901266E+02  0.7561462E-02  0.1331877E+00
          2   -1    0    0  501    0  0.00000000000E+00  0.00000000000E+00  0.32835357714E+03  0.32835357714E+03  0.00000000000E+00 0. -1.
         -2   -1    0    0    0  501 -0.00000000000E+00 -0.00000000000E+00 -0.44897207397E+02  0.44897207397E+02  0.00000000000E+00 0.  1.
          5    1    1    2  502    0  0.22576141087E+01 -0.36269391090E+02  0.16152408363E+03  0.16561421298E+03  0.41800000000E+01 0. -1.
         -5    1    1    2    0  502 -0.22631158458E+02 -0.14680753052E+02 -0.18129759857E+02  0.32769718274E+02  0.41800000000E+01 0.  1.
        -11    1    1    2    0    0  0.91551853132E+01  0.70777600814E+02  0.65380242060E+02  0.96787717438E+02  0.00000000000E+00 0. -1.
         11    1    1    2    0    0  0.11218359036E+02 -0.19827456672E+02  0.74681803915E+02  0.78079135840E+02  0.00000000000E+00 0.  1.
</event>
<event>
 6    1  0.6447971E-006  0.1518378E+03  0.7561462E-02  0.1198233E+00
          2   -1    0    0  501    0  0.00000000000E+00  0.00000000000E+00  0.27913439747E+02  0.27913439747E+02  0.00000000000E+00 0. -1.
         -2   -1    0    0    0  501 -0.00000000000E+00 -0.00000000000E+00 -0.95389339921E+03  0.95389339921E+03  0.00000000000E+00 0.  1.
          5    1    1    2  502    0 -0.30054128414E+02 -0.10888657173E+03 -0.42377481573E+03  0.43859104298E+03  0.41800000000E+01 0.  1.
         -5    1    1    2    0  502 -0.53542765625E+02  0.23541274770E+02 -0.16765684211E+03  0.17761562002E+03  0.41800000000E+01 0.  1.
        -11    1    1    2    0    0  0.28200620942E+02  0.68536090381E+02 -0.10279035744E+03  0.12672145946E+03  0.00000000000E+00 0.  1.
         11    1    1    2    0    0  0.55396273098E+02  0.16809206582E+02 -0.23175794418E+03  0.23887871649E+03  0.00000000000E+00 0. -1.
</event>
<event>
 6    1  0.6447971E-006  0.7282791E+02  0.7561462E-02  0.1350732E+00
         -1   -1    0    0    0  501 -0.00000000000E+00  0.00000000000E+00  0.48328920661E+03  0.48328920661E+03  0.00000000000E+00 0.  1.
          1   -1    0    0  501    0  0.00000000000E+00 -0.00000000000E+00 -0.39631306954E+02  0.39631306954E+02  0.00000000000E+00 0. -1.
          5    1    1    2  502    0  0.95292726277E+01  0.24597780731E+02  0.71528159130E+01  0.27649467068E+02  0.41800000000E+01 0. -1.
         -5    1    1    2    0  502  0.25689105234E+01 -0.43591535274E+02  0.38755668616E+03  0.39003138160E+03  0.41800000000E+01 0.  1.
        -11    1    1    2    0    0 -0.37599741159E+02 -0.74644046068E+01 -0.63388771236E+01  0.38854076164E+02  0.00000000000E+00 0.  1.
         11    1    1    2    0    0  0.25501558008E+02  0.26458159150E+02  0.55287274713E+02  0.66385588735E+02  0.00000000000E+00 0. -1.
</event>
<event>
 6    1  0.6447971E-006  0.1110660E+03  0.7561462E-02  0.1258608E+00
          2   -1    0    0  501    0  0.00000000000E+00  0.00000000000E+00  0.26669803029E+03  0.26669803029E+03  0.00000000000E+00 0.  1.
         -2   -1    0    0    0  501 -0.00000000000E+00 -0.00000000000E+00 -0.55025941087E+02  0.55025941087E+02  0.00000000000E+00 0. -1.
          5    1    1    2  502    0 -0.23921279380E+02  0.40791059889E+02  0.83559968313E+01  0.48202004700E+02  0.41800000000E+01 0. -1.
         -5    1    1    2    0  502  0.57157685052E+02 -0.54584284683E+02  0.56373406053E+02  0.97169328519E+02  0.41800000000E+01 0. -1.
        -11    1    1    2    0    0 -0.25440744396E+02  0.51270485419E+02  0.70057140258E+02  0.90464894029E+02  0.00000000000E+00 0.  1.
         11    1    1    2    0    0 -0.77956612767E+01 -0.37477260625E+02  0.76885546064E+02  0.85887744133E+02  0.00000000000E+00 0. -1.
</event>
<event>
 6    1  0.6447971E-006  0.1147885E+03  0.7561462E-02  0.1251951E+00
         -1   -1    0    0    0  501 -0.00000000000E+00  0.00000000000E+00  0.17666406159E+04  0.17666406159E+04  0.00000000000E+00 0.  1.
          1   -1    0    0  501    0  0.00000000000E+00 -0.00000000000E+00 -0.10894462891E+02  0.10894462891E+02  0.00000000000E+00 0. -1.
          5    1    1    2  502    0  0.16661717534E+02 -0.35783056820E+02  0.92740198980E+02  0.10087743501E+03  0.41800000000E+01 0. -1.
         -5    1    1    2    0  502  0.69012892212E+02  0.95047968109E+01  0.10295561124E+04  0.10319187863E+04  0.41800000000E+01 0. -1.
        -11    1    1    2    0    0 -0.51272512560E+02  0.55063247778E+02  0.39006741200E+03  0.39725736960E+03  0.00000000000E+00 0.  1.
         11    1    1    2    0    0 -0.34402097187E+02 -0.28784987769E+02  0.24338242956E+03  0.24748148785E+03  0.00000000000E+00 0. -1.
</event>
<event>
 6    1  0.6447971E-006  0.1007879E+03  0.7561462E-02  0.1278648E+00
         -3   -1    0    0    0  501 -0.00000000000E+00  0.00000000000E+00  0.60463524886E+03  0.60463524886E+03  0.00000000000E+00 0.  1.
          3   -1    0    0  501    0  0.00000000000E+00 -0.00000000000E+00 -0.32120382157E+02  0.32120382157E+02  0.00000000000E+00 0. -1.
          5    1    1    2  502    0  0.19340414354E+02 -0.95843717809E+02  0.38207597505E+03  0.39441043722E+03  0.41800000000E+01 0. -1.
         -5    1    1    2    0  502 -0.98302703939E+01  0.34254155490E+02  0.68313278114E+02  0.77163189093E+02  0.41800000000E+01 0. -1.
        -11    1    1    2    0    0 -0.15945612971E+02  0.19215705341E+02  0.11967499624E+03  0.12225224182E+03  0.00000000000E+00 0.  1.
         11    1    1    2    0    0  0.64354690108E+01  0.42373856978E+02  0.24506172938E+01  0.42929762889E+02  0.00000000000E+00 0. -1.
</event>
<event>
 6    1  0.6447971E-006  0.1355550E+03  0.7561462E-02  0.1219438E+00
          3   -1    0    0  501    0  0.00000000000E+00  0.00000000000E+00  0.34760928836E+02  0.34760928836E+02  0.00000000000E+00 0. -1.
         -3   -1    0    0    0  501 -0.00000000000E+00 -0.00000000000E+00 -0.61104353041E+03  0.61104353041E+03  0.00000000000E+00 0.  1.
          5    1    1    2  502    0 -0.46085213030E+02 -0.45507506472E+02 -0.23618978181E+03  0.24494461708E+03  0.41800000000E+01 0.  1.
         -5    1    1    2    0  502  0.68765991431E+02 -0.44515803488E+02 -0.14062108670E+03  0.16279490398E+03  0.41800000000E+01 0.  1.
        -11    1    1    2    0    0 -0.22444996266E+02  0.10592703123E+03 -0.19214324249E+03  0.22055235078E+03  0.00000000000E+00 0.  1.
         11    1    1    2    0    0 -0.23578213515E+00 -0.15903721271E+02 -0.73284905834E+01  0.17512587407E+02  0.00000000000E+00 0. -1.
</event>
<event>
 6    1  0.6447971E-006  0.5135134E+02  0.7561462E-02  0.1438186E+00
          1   -1    0    0  501    0  0.00000000000E+00  0.00000000000E+00  0.62293184643E+02  0.62293184643E+02  0.00000000000E+00 0. -1.
         -1   -1    0    0    0  501 -0.00000000000E+00 -0.00000000000E+00 -0.11869381267E+03  0.11869381267E+03  0.00000000000E+00 0.  1.
          5    1    1    2  502    0  0.14754172760E+02 -0.27851764003E+02  0.24358720995E+02  0.40052790920E+02  0.41800000000E+01 0.  1.
         -5    1    1    2    0  502 -0.22313453887E+02  0.36632324035E+02 -0.94415964218E+02  0.10378662769E+03  0.41800000000E+01 0.  1.
        -11    1    1    2    0    0 -0.26602741562E+00 -0.16686290866E+02 -0.31599232053E+01  0.16984940039E+02  0.00000000000E+00 0.  1.
         11    1    1    2    0    0  0.78253085422E+01  0.79057308345E+01  0.16816538404E+02  0.20162638659E+02  0.00000000000E+00 0. -1.
</event>
<event>
 6    1  0.6447971E-006  0.1140629E+03  0.7561462E-02  0.1253226E+00
          2   -1    0    0  501    0  0.00000000000E+00  0.00000000000E+00  0.52861643853E+03  0.52861643853E+03  0.00000000000E+00 0. -1.
         -2   -1    0    0    0  501 -0.00000000000E+00 -0.00000000000E+00 -0.27359899614E+02  0.27359899614E+02  0.00000000000E+00 0.  1.
          5    1    1    2  502    0 -0.33277738385E+02  0.76802474120E+02  0.18037085768E+03  0.19888978507E+03  0.41800000000E+01 0. -1.
         -5    1    1    2    0  502 -0.89207552265E+01 -0.45320537626E+02  0.47864432982E+02  0.66648385946E+02  0.41800000000E+01 0. -1.
        -11    1    1    2    0    0  0.30833835122E+02  0.25391262540E+02  0.90467947864E+02  0.98893332397E+02  0.00000000000E+00 0.  1.
         11    1    1    2    0    0  0.11364658489E+02 -0.56873199034E+02  0.18255330039E+03  0.19154483474E+03  0.00000000000E+00 0. -1.
</event>
<event>
 6    1  0.6447971E-006  0.3716145E+03  0.7561462E-02  0.1054077E+00
          1   -1    0    0  501    0  0.00000000000E+00  0.00000000000E+00  0.81836123050E+03  0.81836123050E+03  0.00000000000E+00 0. -1.
         -1   -1    0    0    0  501 -0.00000000000E+00 -0.00000000000E+00 -0.20484521261E+03  0.20484521261E+03  0.00000000000E+00 0.  1.
          5    1    1    2  502    0 -0.45158513455E+01 -0.54535823134E+02 -0.33121517310E+01  0.54981739400E+02  0.41800000000E+01 0. -1.
         -5    1    1    2    0  502 -0.20152777117E+03  0.30397458482E+03  0.15189996976E+03  0.39510133381E+03  0.41800000000E+01 0.  1.
        -11    1    1    2    0    0  0.19098420534E+02 -0.26507160419E+02  0.12007778756E+02  0.34807556234E+02  0.00000000000E+00 0.  1.
         11    1    1    2    0    0  0.18694520198E+03 -0.22293160126E+03  0.45292042111E+03  0.53831581366E+03  0.00000000000E+00 0. -1.
</event>
<event>
 6    1  0.6447971E-006  0.1169912E+03  0.7561462E-02  0.1248145E+00
          2   -1    0    0  501    0  0.00000000000E+00  0.00000000000E+00  0.29708256941E+03  0.29708256941E+03  0.00000000000E+00 0. -1.
         -2   -1    0    0    0  501 -0.00000000000E+00 -0.00000000000E+00 -0.80486679886E+02  0.80486679886E+02  0.00000000000E+00 0.  1.
          5    1    1    2  502    0  0.48236609860E+02 -0.97236158489E+02  0.81285736685E+01  0.10892743988E+03  0.41800000000E+01 0. -1.
         -5    1    1    2    0  502 -0.27655382859E+02  0.24066591161E+02  0.12124251691E+02  0.38839295697E+02  0.41800000000E+01 0. -1.
        -11    1    1    2    0    0  0.30639377081E+01  0.62404805963E+02  0.46915660065E+02  0.78133390307E+02  0.00000000000E+00 0.  1.
         11    1    1    2    0    0 -0.23645164709E+02  0.10764761365E+02  0.14942740410E+03  0.15166912342E+03  0.00000000000E+00 0. -1.
</event>
<event>
 6    1  0.6447971E-006  0.4144902E+03  0.7561462E-02  0.1038875E+00
         -1   -1    0    0    0  501 -0.00000000000E+00  0.00000000000E+00  0.36530568607E+03  0.36530568607E+03  0.00000000000E+00 0.  1.
          1   -1    0    0  501    0  0.00000000000E+00 -0.00000000000E+00 -0.14474901743E+04  0.14474901743E+04  0.00000000000E+00 0. -1.
          5    1    1    2  502    0 -0.17256065705E+02  0.11968722805E+03  0.12190046091E+03  0.17175563785E+03  0.41800000000E+01 0. -1.
         -5    1    1    2    0  502 -0.43773934661E+02  0.28838115577E+03  0.68970556923E+02  0.29975699906E+03  0.41800000000E+01 0. -1.
        -11    1    1    2    0    0  0.49145638372E+02 -0.14834839641E+03 -0.59228743032E+03  0.61255770390E+03  0.00000000000E+00 0.  1.
         11    1    1    2    0    0  0.11884361994E+02 -0.25971998741E+03 -0.68076807577E+03  0.72872551960E+03  0.00000000000E+00 0. -1.
</event>
<event>
 6    1  0.6447971E-006  0.1352101E+03  0.7561462E-02  0.1219923E+00
          3   -1    0    0  501    0  0.00000000000E+00  0.00000000000E+00  0.70110377940E+03  0.70110377940E+03  0.00000000000E+00 0. -1.
         -3   -1    0    0    0  501 -0.00000000000E+00 -0.00000000000E+00 -0.38424826408E+02  0.38424826408E+02  0.00000000000E+00 0.  1.
          5    1    1    2  502    0 -0.10886170515E+03 -0.29430610729E+02  0.18337580564E+03  0.21531648844E+03  0.41800000000E+01 0. -1.
         -5    1    1    2    0  502  0.85327825049E+01 -0.36281661293E+02  0.22812710275E+03  0.23118956449E+03  0.41800000000E+01 0. -1.
        -11    1    1    2    0    0  0.90460754446E+02  0.61191700913E+02  0.25802606694E+03  0.28018747933E+03  0.00000000000E+00 0. -1.
         11    1    1    2    0    0  0.98681682038E+01  0.45205711083E+01 -0.68500223368E+01  0.12835073543E+02  0.00000000000E+00 0.  1.
</event>
<event>
 6    1  0.6447971E-006  0.1441303E+03  0.7561462E-02  0.1207877E+00
         -2   -1    0    0    0  501 -0.00000000000E+00  0.00000000000E+00  0.13319681591E+03  0.13319681591E+03  0.00000000000E+00 0. -1.
          2   -1    0    0  501    0  0.00000000000E+00 -0.00000000000E+00 -0.16391563994E+03  0.16391563994E+03  0.00000000000E+00 0.  1.
          5    1    1    2  502    0 -0.44067689354E+02 -0.11423299555E+03  0.16357570165E+02  0.12359684875E+03  0.41800000000E+01 0. -1.
         -5    1    1    2    0  502 -0.20046242290E+02  0.32139645451E+02 -0.96868822960E+01  0.39320690842E+02  0.41800000000E+01 0. -1.
        -11    1    1    2    0    0  0.75700884320E+02  0.43417495535E+02 -0.34075820464E+02  0.93684920589E+02  0.00000000000E+00 0.  1.
         11    1    1    2    0    0 -0.11586952677E+02  0.38675854568E+02 -0.33136914381E+01  0.40509995678E+02  0.00000000000E+00 0. -1.
</event>
<event>
 6    1  0.6447971E-006  0.9083998E+02  0.7561462E-02  0.1300830E+00
          1   -1    0    0  501    0  0.00000000000E+00  0.00000000000E+00  0.30033330177E+03  0.30033330177E+03  0.00000000000E+00 0. -1.
         -1   -1    0    0    0  501 -0.00000000000E+00 -0.00000000000E+00 -0.39088119251E+02  0.39088119251E+02  0.00000000000E+00 0.  1.
          5    1    1    2  502    0  0.59380092354E+02 -0.14566135969E+02  0.45195642363E+02  0.76146478406E+02  0.41800000000E+01 0.  1.
         -5    1    1    2    0  502 -0.56873233617E+02  0.13507134289E+02  0.96328946619E+02  0.11275524704E+03  0.41800000000E+01 0.  1.
        -11    1    1    2    0    0  0.25720262440E+02  0.15557446970E+02  0.11447549587E+03  0.11835626393E+03  0.00000000000E+00 0. -1.
         11    1    1    2    0    0 -0.28227121176E+02 -0.14498445289E+02  0.52450976663E+01  0.32163431646E+02  0.00000000000E+00 0.  1.
</event>
<event>
 6    1  0.6447971E-006  0.9205878E+02  0.7561462E-02  0.1297941E+00
         -1   -1    0    0    0  501 -0.00000000000E+00  0.00000000000E+00  0.32815152183E+03  0.32815152183E+03  0.00000000000E+00 0.  1.
          1   -1    0    0  501    0  0.00000000000E+00 -0.00000000000E+00 -0.78776582927E+02  0.78776582927E+02  0.00000000000E+00 0. -1.
          5    1    1    2  502    0 -0.38417058351E+02  0.31136451927E+02  0.33236612773E+02  0.59728501066E+02  0.41800000000E+01 0.  1.
         -5    1    1    2    0  502  0.40918256111E+02  0.71391203038E+01  0.23542968041E+03  0.23910223240E+03  0.41800000000E+01 0.  1.
        -11    1    1    2    0    0 -0.29478937389E+02 -0.53997287436E+02  0.13322601579E+02  0.62946060344E+02  0.00000000000E+00 0.  1.
         11    1    1    2    0    0  0.26977739629E+02  0.15721715205E+02 -0.32613955851E+02  0.45151310952E+02  0.00000000000E+00 0. -1.
</event>
<event>
 6    1  0.6447971E-006  0.1781357E+03  0.7561462E-02  0.1169620E+00
         -1   -1    0    0    0  501 -0.00000000000E+00  0.00000000000E+00  0.62600430738E+02  0.62600430738E+02  0.00000000000E+00 0.  1.
          1   -1    0    0  501    0  0.00000000000E+00 -0.00000000000E+00 -0.70549621267E+03  0.70549621267E+03  0.00000000000E+00 0. -1.
          5    1    1    2  502    0  0.20517978458E+02  0.26062156046E+02 -0.17161425255E+03  0.17484034859E+03  0.41800000000E+01 0. -1.
         -5    1    1    2    0  502  0.91906031042E+02  0.11153581535E+03 -0.11448924729E+03  0.18442401360E+03  0.41800000000E+01 0. -1.
        -11    1    1    2    0    0 -0.35194619789E+02 -0.33080991180E+02 -0.29288531660E+02  0.56487443971E+02  0.00000000000E+00 0.  1.
         11    1    1    2    0    0 -0.77229389711E+02 -0.10451698021E+03 -0.32750375044E+03  0.35234483726E+03  0.00000000000E+00 0. -1.
</event>
<event>
 6    1  0.6447971E-006  0.1106672E+03  0.7561462E-02  0.1259339E+00
          2   -1    0    0  501    0  0.00000000000E+00  0.00000000000E+00  0.74043106137E+03  0.74043106137E+03  0.00000000000E+00 0. -1.
         -2   -1    0    0    0  501 -0.00000000000E+00 -0.00000000000E+00 -0.25304448980E+02  0.25304448980E+02  0.00000000000E+00 0.  1.
          5    1    1    2  502    0 -0.11963541796E+02 -0.38010755751E+01 -0.48316956797E+01  0.14085176285E+02  0.41800000000E+01 0. -1.
         -5    1    1    2    0  502  0.80848652610E+02  0.48951490323E+02  0.34213774091E+03  0.35497670232E+03  0.41800000000E+01 0. -1.
        -11    1    1    2    0    0 -0.74111026826E+01 -0.51194120312E+02  0.24199529775E+03  0.24746209110E+03  0.00000000000E+00 0. -1.
         11    1    1    2    0    0 -0.61474008131E+02  0.60437055646E+01  0.13582526941E+03  0.14921154065E+03  0.00000000000E+00 0.  1.
</event>
<event>
 6    1  0.6447971E-006  0.1256485E+03  0.7561462E-02  0.1234059E+00
         -4   -1    0    0    0  501 -0.00000000000E+00  0.00000000000E+00  0.11718423375E+04  0.11718423375E+04  0.00000000000E+00 0. -1.
          4   -1    0    0  501    0  0.00000000000E+00 -0.00000000000E+00 -0.15430227585E+02  0.15430227585E+02  0.00000000000E+00 0.  1.
          5    1    1    2  502    0  0.27732947617E+02  0.12434045934E+02  0.61933187036E+02  0.69115222189E+02  0.41800000000E+01 0.  1.
         -5    1    1    2    0  502 -0.56114331657E+02 -0.83897790306E+02  0.64987984852E+03  0.65768453483E+03  0.41800000000E+01 0.  1.
        -11    1    1    2    0    0 -0.18139175970E+02 -0.13581518078E+02  0.96838168901E+02  0.99454101445E+02  0.00000000000E+00 0.  1.
         11    1    1    2    0    0  0.46520560010E+02  0.85045262450E+02  0.34776090543E+03  0.36101870660E+03  0.00000000000E+00 0. -1.
</event>
<event>
 6    1  0.6447971E-006  0.8610693E+02  0.7561462E-02  0.1312563E+00
         -1   -1    0    0    0  501 -0.00000000000E+00  0.00000000000E+00  0.16614010507E+03  0.16614010507E+03  0.00000000000E+00 0.  1.
          1   -1    0    0  501    0  0.00000000000E+00 -0.00000000000E+00 -0.54390681563E+02  0.54390681563E+02  0.00000000000E+00 0. -1.
          5    1    1    2  502    0 -0.30747416095E+02  0.41099598340E+02  0.60607819464E+02  0.79532136652E+02  0.41800000000E+01 0.  1.
         -5    1    1    2    0  502  0.47407444884E+02 -0.51029597468E+02  0.29019061520E+02  0.75571581826E+02  0.41800000000E+01 0.  1.
        -11    1    1    2    0    0  0.95287076503E+01 -0.13007580202E+02  0.25795397562E+02  0.30420321293E+02  0.00000000000E+00 0.  1.
         11    1    1    2    0    0 -0.26188736439E+02  0.22937579331E+02 -0.36728550372E+01  0.35006746864E+02  0.00000000000E+00 0. -1.
</event>
<event>
 6    1  0.6447971E-006  0.1330114E+03  0.7561462E-02  0.1223055E+00
          3   -1    0    0  501    0  0.00000000000E+00  0.00000000000E+00  0.34783559376E+03  0.34783559376E+03  0.00000000000E+00 0. -1.
         -3   -1    0    0    0  501 -0.00000000000E+00 -0.00000000000E+00 -0.84431312365E+02  0.84431312365E+02  0.00000000000E+00 0.  1.
          5    1    1    2  502    0  0.99388735716E+02  0.61367360804E+02  0.54742871449E+00  0.11688389897E+03  0.41800000000E+01 0. -1.
         -5    1    1    2    0  502 -0.19220134238E+01  0.81388332109E+01  0.69126799282E+02  0.69756157582E+02  0.41800000000E+01 0. -1.
        -11    1    1    2    0    0 -0.16185630652E+02 -0.54863808939E+02  0.36012899757E+02  0.67593942922E+02  0.00000000000E+00 0.  1.
         11    1    1    2    0    0 -0.81281091640E+02 -0.14642385076E+02  0.15771715364E+03  0.17803290665E+03  0.00000000000E+00 0. -1.
</event>
<event>
 6    1  0.6447971E-006  0.7408530E+02  0.7561462E-02  0.1346727E+00
         -1   -1    0    0    0  501 -0.00000000000E+00  0.00000000000E+00  0.79975377809E+02  0.79975377809E+02  0.00000000000E+00 0.  1.
          1   -1    0    0  501    0  0.00000000000E+00 -0.00000000000E+00 -0.17348385286E+03  0.17348385286E+03  0.00000000000E+00 0. -1.
          5    1    1    2  502    0  0.91882823521E+01  0.21981915693E+02  0.51300118318E+02  0.56716873059E+02  0.41800000000E+01 0.  1.
         -5    1    1    2    0  502  0.14843930045E+02 -0.30709982011E+02 -0.62656840798E+02  0.71461859429E+02  0.41800000000E+01 0.  1.
        -11    1    1    2    0    0 -0.41871780670E+02 -0.26903073575E+02 -0.65081267445E+02  0.81930414112E+02  0.00000000000E+00 0.  1.
         11    1    1    2    0    0  0.17839568273E+02  0.35631139893E+02 -0.17070485125E+02  0.43350084067E+02  0.00000000000E+00 0. -1.
</event>
<event>
 6    1  0.6447971E-006  0.9880401E+02  0.7561462E-02  0.1282831E+00
         -2   -1    0    0    0  501 -0.00000000000E+00  0.00000000000E+00  0.21252785516E+02  0.21252785516E+02  0.00000000000E+00 0.  1.
          2   -1    0    0  501    0  0.00000000000E+00 -0.00000000000E+00 -0.72688926297E+03  0.72688926297E+03  0.00000000000E+00 0. -1.
          5    1    1    2  502    0  0.32388915636E+02 -0.18591081610E+02 -0.28601756879E+02  0.47225025866E+02  0.41800000000E+01 0. -1.
         -5    1    1    2    0  502  0.17981010717E+02  0.50689923529E+02 -0.39009773825E+03  0.39381023715E+03  0.41800000000E+01 0. -1.
        -11    1    1    2    0    0  0.23108637142E+02  0.51895337319E+01 -0.36939475396E+02  0.43880123216E+02  0.00000000000E+00 0.  1.
         11    1    1    2    0    0 -0.73478563495E+02 -0.37288375651E+02 -0.24999750692E+03  0.26322666225E+03  0.00000000000E+00 0. -1.
</event>
<event>
 6    1  0.6447971E-006  0.1158255E+03  0.7561462E-02  0.1250147E+00
         -1   -1    0    0    0  501 -0.00000000000E+00  0.00000000000E+00  0.32337036394E+02  0.32337036394E+02  0.00000000000E+00 0.  1.
          1   -1    0    0  501    0  0.00000000000E+00 -0.00000000000E+00 -0.72662655757E+03  0.72662655757E+03  0.00000000000E+00 0. -1.
          5    1    1    2  502    0  0.14989620558E+02  0.67327536659E+02 -0.27611983402E+03  0.28463541778E+03  0.41800000000E+01 0.  1.
         -5    1    1    2    0  502  0.48573299022E+02  0.13985731548E+02 -0.23157207839E+02  0.55755670023E+02  0.41800000000E+01 0.  1.
        -11    1    1    2    0    0 -0.48169341711E+02 -0.26671470569E+02 -0.72161727905E+02  0.90768760030E+02  0.00000000000E+00 0.  1.
         11    1    1    2    0    0 -0.15393577868E+02 -0.54641797638E+02 -0.32285075141E+03  0.32780374613E+03  0.00000000000E+00 0. -1.
</event>
<event>
 6    1  0.6447971E-006  0.1180594E+03  0.7561462E-02  0.1246333E+00
         -2   -1    0    0    0  501 -0.00000000000E+00  0.00000000000E+00  0.59865294902E+03  0.59865294902E+03  0.00000000000E+00 0.  1.
          2   -1    0    0  501    0  0.00000000000E+00 -0.00000000000E+00 -0.26149595006E+02  0.26149595006E+02  0.00000000000E+00 0. -1.
          5    1    1    2  502    0 -0.72093960645E+02  0.56534815360E+02  0.18901944533E+03  0.21009413991E+03  0.41800000000E+01 0.  1.
         -5    1    1    2    0  502  0.21434299300E+02 -0.33285712432E+02  0.15881124767E+03  0.16372492976E+03  0.41800000000E+01 0.  1.
        -11    1    1    2    0    0  0.23574413011E+02  0.33936097389E+02  0.13537063107E+03  0.14153663628E+03  0.00000000000E+00 0. -1.
         11    1    1    2    0    0  0.27085248333E+02 -0.57185200317E+02  0.89302029945E+02  0.10944683808E+03  0.00000000000E+00 0.  1.
</event>
<event>
 6    1  0.6447971E-006  0.1349213E+03  0.7561462E-02  0.1220331E+00
          1   -1    0    0  501    0  0.00000000000E+00  0.00000000000E+00  0.29218374757E+02  0.29218374757E+02  0.00000000000E+00 0. -1.
         -1   -1    0    0    0  501 -0.00000000000E+00 -0.00000000000E+00 -0.70262097811E+03  0.70262097811E+03  0.00000000000E+00 0.  1.
          5    1    1    2  502    0  0.11015846218E+03  0.29734896174E+02 -0.35211147069E+03  0.37016079078E+03  0.41800000000E+01 0. -1.
         -5    1    1    2    0  502 -0.35218357820E+02  0.67793892613E+01 -0.11766135416E+03  0.12307704705E+03  0.41800000000E+01 0. -1.
        -11    1    1    2    0    0 -0.74490816506E+02 -0.60256423196E+02 -0.13177399030E+03  0.16292361032E+03  0.00000000000E+00 0. -1.
         11    1    1    2    0    0 -0.44928785364E+00  0.23742137760E+02 -0.71855788201E+02  0.75677904721E+02  0.00000000000E+00 0.  1.
</event>
<event>
 6    1  0.6447971E-006  0.7712702E+02  0.7561462E-02  0.1337408E+00
         -2   -1    0    0    0  501 -0.00000000000E+00  0.00000000000E+00  0.30521903104E+02  0.30521903104E+02  0.00000000000E+00 0.  1.
          2   -1    0    0  501    0  0.00000000000E+00 -0.00000000000E+00 -0.49152849983E+03  0.49152849983E+03  0.00000000000E+00 0. -1.
          5    1    1    2  502    0  0.56587174620E+01 -0.14286355823E+01 -0.20218405029E+03  0.20231145463E+03  0.41800000000E+01 0. -1.
         -5    1    1    2    0  502  0.49654689271E+02 -0.10856500321E+02 -0.13098608842E+02  0.52654512812E+02  0.41800000000E+01 0.  1.
        -11    1    1    2    0    0 -0.39069343562E+02  0.44973659262E+02 -0.96060159381E+02  0.11303361382E+03  0.00000000000E+00 0. -1.
         11    1    1    2    0    0 -0.16244063171E+02 -0.32688523358E+02 -0.14966377821E+03  0.15405082167E+03  0.00000000000E+00 0.  1.
</event>
<event>
 6    1  0.6447971E-006  0.2044894E+03  0.7561462E-02  0.1146006E+00
          2   -1    0    0  501    0  0.00000000000E+00  0.00000000000E+00  0.81426692028E+03  0.81426692028E+03  0.00000000000E+00 0.  1.
         -2   -1    0    0    0  501 -0.00000000000E+00 -0.00000000000E+00 -0.64668847036E+02  0.64668847036E+02  0.00000000000E+00 0. -1.
          5    1    1    2  502    0 -0.15519321764E+03 -0.10570159850E+03  0.27368674515E+03  0.33193323063E+03  0.41800000000E+01 0. -1.
         -5    1    1    2    0  502  0.42007280180E+01 -0.11077931436E+02 -0.10535010361E+02  0.16395899612E+02  0.41800000000E+01 0. -1.
        -11    1    1    2    0    0  0.90878051774E+02  0.17515485046E+02  0.26323225411E+03  0.27902837153E+03  0.00000000000E+00 0.  1.
         11    1    1    2    0    0  0.60114437853E+02  0.99264044889E+02  0.22321408434E+03  0.25157826554E+03  0.00000000000E+00 0. -1.
</event>
<event>
 6    1  0.6447971E-006  0.1476675E+03  0.7561462E-02  0.1203369E+00
         -2   -1    0    0    0  501 -0.00000000000E+00  0.00000000000E+00  0.17066038906E+03  0.17066038906E+03  0.00000000000E+00 0. -1.
          2   -1    0    0  501    0  0.00000000000E+00 -0.00000000000E+00 -0.15979389705E+03  0.15979389705E+03  0.00000000000E+00 0.  1.
          5    1    1    2  502    0 -0.18054054596E+02 -0.18559397678E+02 -0.18184745793E+02  0.31914847784E+02  0.41800000000E+01 0. -1.
         -5    1    1    2    0  502 -0.25413919016E+02  0.12393134426E+03  0.72234395757E+02  0.14573992486E+03  0.41800000000E+01 0. -1.
        -11    1    1    2    0    0  0.37851192585E+02 -0.12054556613E+03 -0.49125803159E+02  0.13556286671E+03  0.00000000000E+00 0.  1.
         11    1    1    2    0    0  0.56167810268E+01  0.15173619554E+02  0.59426452035E+01  0.17236646759E+02  0.00000000000E+00 0. -1.
</event>
<event>
 6    1  0.6447971E-006  0.7082312E+02  0.7561462E-02  0.1357316E+00
         -2   -1    0    0    0  501 -0.00000000000E+00  0.00000000000E+00  0.14856017551E+03  0.14856017551E+03  0.00000000000E+00 0.  1.
          2   -1    0    0  501    0  0.00000000000E+00 -0.00000000000E+00 -0.84976240158E+02  0.84976240158E+02  0.00000000000E+00 0. -1.
          5    1    1    2  502    0 -0.20963513075E+02  0.52031917195E+02  0.54601129526E+02  0.78393526729E+02  0.41800000000E+01 0. -1.
         -5    1    1    2    0  502 -0.22848072679E+01 -0.59074393132E+02 -0.23897335359E+01  0.59314311043E+02  0.41800000000E+01 0. -1.
        -11    1    1    2    0    0  0.10474550728E+02 -0.17517268548E+01 -0.40405538751E+02  0.41777892739E+02  0.00000000000E+00 0. -1.
         11    1    1    2    0    0  0.12773769615E+02  0.87942027910E+01  0.51778078111E+02  0.54050685155E+02  0.00000000000E+00 0.  1.
</event>
<event>
 6    1  0.6447971E-006  0.9394005E+02  0.7561462E-02  0.1293581E+00
         -2   -1    0    0    0  501 -0.00000000000E+00  0.00000000000E+00  0.58343807908E+02  0.58343807908E+02  0.00000000000E+00 0.  1.
          2   -1    0    0  501    0  0.00000000000E+00 -0.00000000000E+00 -0.28608246688E+03  0.28608246688E+03  0.00000000000E+00 0. -1.
          5    1    1    2  502    0  0.14945105742E+02 -0.17004829055E+02 -0.90495935715E+02  0.93378301429E+02  0.41800000000E+01 0.  1.
         -5    1    1    2    0  502 -0.20533282284E+02  0.85925557284E+02 -0.29462705166E+02  0.93221995643E+02  0.41800000000E+01 0.  1.
        -11    1    1    2    0    0  0.16728663853E+02 -0.19218676921E+02 -0.10363621637E+03  0.10672240196E+03  0.00000000000E+00 0. -1.
         11    1    1    2    0    0 -0.11140487312E+02 -0.49702051308E+02 -0.41438017170E+01  0.51103575750E+02  0.00000000000E+00 0.  1.
</event>
<event>
 6    1  0.6447971E-006  0.4030607E+03  0.7561462E-02  0.1042725E+00
         -2   -1    0    0    0  501 -0.00000000000E+00  0.00000000000E+00  0.74036096761E+03  0.74036096761E+03  0.00000000000E+00 0.  1.
          2   -1    0    0  501    0  0.00000000000E+00 -0.00000000000E+00 -0.88162233982E+03  0.88162233982E+03  0.00000000000E+00 0. -1.
          5    1    1    2  502    0 -0.16747301925E+03 -0.14135147640E+03  0.44513271703E+03  0.49617341749E+03  0.41800000000E+01 0.  1.
         -5    1    1    2    0  502 -0.10780576999E+03 -0.14541946330E+03  0.18149001471E+03  0.25636887914E+03  0.41800000000E+01 0.  1.
        -11    1    1    2    0    0  0.93063811643E+02  0.45720203459E+02 -0.23471438620E+03  0.25659706377E+03  0.00000000000E+00 0.  1.
         11    1    1    2    0    0  0.18221497760E+03  0.24105073624E+03 -0.53316971774E+03  0.61284394704E+03  0.00000000000E+00 0. -1.
</event>
<event>
 6    1  0.6718062E-006  0.3573529E+03  0.7561462E-02  0.1059637E+00
          2   -1    0    0  501    0  0.00000000000E+00  0.00000000000E+00  0.29387853383E+04  0.29387853383E+04  0.00000000000E+00 0. -1.
         -2   -1    0    0    0  501 -0.00000000000E+00 -0.00000000000E+00 -0.47124714367E+02  0.47124714367E+02  0.00000000000E+00 0.  1.
          5    1    1    2  502    0  0.15022829786E+02 -0.12264865695E+02  0.86120973443E+02  0.88376505996E+02  0.41800000000E+01 0.  1.
         -5    1    1    2    0  502 -0.23531743038E+03 -0.25062384039E+03  0.99518398766E+03  0.10528984966E+04  0.41800000000E+01 0.  1.
        -11    1    1    2    0    0  0.18447954741E+03  0.16753255850E+03  0.13861010451E+04  0.14083238153E+04  0.00000000000E+00 0.  1.
         11    1    1    2    0    0  0.35815053190E+02  0.95356147586E+02  0.42425461772E+03  0.43631123475E+03  0.00000000000E+00 0. -1.
</event>
<event>
 6    1  0.6447971E-006  0.1084970E+03  0.7561462E-02  0.1263379E+00
          2   -1    0    0  501    0  0.00000000000E+00  0.00000000000E+00  0.38919046923E+03  0.38919046923E+03  0.00000000000E+00 0. -1.
         -2   -1    0    0    0  501 -0.00000000000E+00 -0.00000000000E+00 -0.61905668057E+02  0.61905668057E+02  0.00000000000E+00 0.  1.
          5    1    1    2  502    0  0.80936409075E+01 -0.39910046127E+02  0.70342244003E+02  0.81386869312E+02  0.41800000000E+01 0. -1.
         -5    1    1    2    0  502 -0.88337599757E+02  0.62722710740E+01  0.55252627981E+01  0.88830590701E+02  0.41800000000E+01 0. -1.
        -11    1    1    2    0    0  0.11841982607E+02  0.19033024515E+01 -0.54486567221E+01  0.13173570979E+02  0.00000000000E+00 0.  1.
         11    1    1    2    0    0  0.68401976243E+02  0.31734472601E+02  0.25686595109E+03  0.26770510629E+03  0.00000000000E+00 0. -1.
</event>
<event>
 6    1  0.6447971E-006  0.1188101E+03  0.7561462E-02  0.1245073E+00
          1   -1    0    0  501    0  0.00000000000E+00  0.00000000000E+00  0.49499080828E+02  0.49499080828E+02  0.00000000000E+00 0.  1.
         -1   -1    0    0    0  501 -0.00000000000E+00 -0.00000000000E+00 -0.39934855727E+03  0.39934855727E+03  0.00000000000E+00 0. -1.
          5    1    1    2  502    0 -0.70941717234E+02 -0.41961863166E+02 -0.24992094192E+03  0.26319474694E+03  0.41800000000E+01 0. -1.
         -5    1    1    2    0  502  0.36794315267E+02 -0.12721763053E+02 -0.27407918077E+02  0.47794678203E+02  0.41800000000E+01 0. -1.
        -11    1    1    2    0    0  0.67445530960E+01  0.79007648826E+02 -0.58860743292E+02  0.98753656492E+02  0.00000000000E+00 0.  1.
         11    1    1    2    0    0  0.27402848871E+02 -0.24324022607E+02 -0.13659873152E+02  0.39104556468E+02  0.00000000000E+00 0. -1.
</event>
<event>
 6    1  0.6447971E-006  0.7582713E+02  0.7561462E-02  0.1341329E+00
         -2   -1    0    0    0  501 -0.00000000000E+00  0.00000000000E+00  0.81525453469E+02  0.81525453469E+02  0.00000000000E+00 0.  1.
          2   -1    0    0  501    0  0.00000000000E+00 -0.00000000000E+00 -0.16177062282E+03  0.16177062282E+03  0.00000000000E+00 0. -1.
          5    1    1    2  502    0  0.50582377638E+01  0.35297402739E+02 -0.63728198827E+02  0.73145390389E+02  0.41800000000E+01 0.  1.
         -5    1    1    2    0  502 -0.16483694741E+02 -0.15132751768E+02  0.49874155045E+02  0.54823499613E+02  0.41800000000E+01 0.  1.
        -11    1    1    2    0    0 -0.52712643868E+01  0.34978215670E+02 -0.16159735404E+02  0.38889572485E+02  0.00000000000E+00 0.  1.
         11    1    1    2    0    0  0.16696721364E+02 -0.55142866641E+02 -0.50231390160E+02  0.76437613798E+02  0.00000000000E+00 0. -1.
</event>
<event>
 6    1  0.6447971E-006  0.2089367E+03  0.7561462E-02  0.1142411E+00
         -2   -1    0    0    0  501 -0.00000000000E+00  0.00000000000E+00  0.31645800245E+02  0.31645800245E+02  0.00000000000E+00 0.  1.
          2   -1    0    0  501    0  0.00000000000E+00 -0.00000000000E+00 -0.16778551633E+04  0.16778551633E+04  0.00000000000E+00 0. -1.
          5    1    1    2  502    0  0.87104847296E+02 -0.36987892697E+02 -0.20699512217E+03  0.22763965302E+03  0.41800000000E+01 0. -1.
         -5    1    1    2    0  502  0.11139396111E+03  0.76171032459E+01 -0.74226162215E+03  0.75062402237E+03  0.41800000000E+01 0. -1.
        -11    1    1    2    0    0 -0.11984427003E+03  0.50381389450E+02 -0.52689995020E+03  0.54270110649E+03  0.00000000000E+00 0. -1.
         11    1    1    2    0    0 -0.78654538378E+02 -0.21010599999E+02 -0.17005266850E+03  0.18853618163E+03  0.00000000000E+00 0.  1.
</event>
<event>
 6    1  0.6447971E-006  0.9660374E+02  0.7561462E-02  0.1287604E+00
         -3   -1    0    0    0  501 -0.00000000000E+00  0.00000000000E+00  0.63230034701E+02  0.63230034701E+02  0.00000000000E+00 0.  1.
          3   -1    0    0  501    0  0.00000000000E+00 -0.00000000000E+00 -0.19978213239E+03  0.19978213239E+03  0.00000000000E+00 0. -1.
          5    1    1    2  502    0  0.22249356874E+02 -0.52187858526E+02  0.10561230944E+02  0.57858607466E+02  0.41800000000E+01 0. -1.
         -5    1    1    2    0  502 -0.14042111675E+01  0.47848337216E+02 -0.63497784970E+02  0.79629619360E+02  0.41800000000E+01 0. -1.
        -11    1    1    2    0    0  0.24631155478E+02 -0.24240401887E+02 -0.54214128772E+02  0.64292010875E+02  0.00000000000E+00 0. -1.
         11    1    1    2    0    0 -0.45476301184E+02  0.28579923197E+02 -0.29401414892E+02  0.61231929392E+02  0.00000000000E+00 0.  1.
</event>
<event>
 6    1  0.6447971E-006  0.7141844E+02  0.7561462E-02  0.1355335E+00
         -2   -1    0    0    0  501 -0.00000000000E+00  0.00000000000E+00  0.14973690773E+03  0.14973690773E+03  0.00000000000E+00 0.  1.
          2   -1    0    0  501    0  0.00000000000E+00 -0.00000000000E+00 -0.10096373049E+03  0.10096373049E+03  0.00000000000E+00 0. -1.
          5    1    1    2  502    0 -0.57833033572E+02  0.22808066404E+02  0.87000000855E+02  0.10701093502E+03  0.41800000000E+01 0. -1.
         -5    1    1    2    0  502  0.88081465769E+01  0.42396398647E+01 -0.37286462469E+02  0.38772550545E+02  0.41800000000E+01 0. -1.
        -11    1    1    2    0    0  0.44648558499E+02 -0.22385075822E+01 -0.38966345143E+02  0.59303294563E+02  0.00000000000E+00 0. -1.
         11    1    1    2    0    0  0.43763284963E+01 -0.24809198686E+02  0.38025983994E+02  0.45613858084E+02  0.00000000000E+00 0.  1.
</event>
<event>
 6    1  0.6447971E-006  0.7990171E+02  0.7561462E-02  0.1329331E+00
          1   -1    0    0  501    0  0.00000000000E+00  0.00000000000E+00  0.23086820850E+03  0.23086820850E+03  0.00000000000E+00 0. -1.
         -1   -1    0    0    0  501 -0.00000000000E+00 -0.00000000000E+00 -0.76125733599E+02  0.76125733599E+02  0.00000000000E+00 0.  1.
          5    1    1    2  502    0 -0.30003383665E+02 -0.23575013204E+02  0.71256784960E+02  0.80938162085E+02  0.41800000000E+01 0. -1.
         -5    1    1    2    0  502  0.23750267518E+02 -0.34374444130E+02 -0.42812758168E+02  0.59967343433E+02  0.41800000000E+01 0. -1.
        -11    1    1    2    0    0  0.19188962304E+02  0.62758888893E+02  0.13476672351E+03  0.14989651155E+03  0.00000000000E+00 0. -1.
         11    1    1    2    0    0 -0.12935846158E+02 -0.48094315594E+01 -0.84682754041E+01  0.16191925027E+02  0.00000000000E+00 0.  1.
</event>
<event>
 6    1  0.6447971E-006  0.5776626E+02  0.7561462E-02  0.1407452E+00
          1   -1    0    0  501    0  0.00000000000E+00  0.00000000000E+00  0.18244937355E+03  0.18244937355E+03  0.00000000000E+00 0. -1.
         -1   -1    0    0    0  501 -0.00000000000E+00 -0.00000000000E+00 -0.65579737346E+02  0.65579737346E+02  0.00000000000E+00 0.  1.
          5    1    1    2  502    0  0.33859556480E+02  0.18438117399E+02  0.89507872974E+02  0.97547759906E+02  0.41800000000E+01 0. -1.
         -5    1    1    2    0  502 -0.37269092418E+02 -0.55700376778E+01 -0.23408129506E+02  0.44558091256E+02  0.41800000000E+01 0. -1.
        -11    1    1    2    0    0  0.75219747944E+01  0.11710341458E+02  0.71909856175E+02  0.73244382835E+02  0.00000000000E+00 0. -1.
         11    1    1    2    0    0 -0.41124388561E+01 -0.24578421179E+02 -0.21139963441E+02  0.32678876897E+02  0.00000000000E+00 0.  1.
</event>
<event>
 6    1  0.6447971E-006  0.1073914E+03  0.7561462E-02  0.1265478E+00
         -1   -1    0    0    0  501 -0.00000000000E+00  0.00000000000E+00  0.71934414375E+03  0.71934414375E+03  0.00000000000E+00 0.  1.
          1   -1    0    0  501    0  0.00000000000E+00 -0.00000000000E+00 -0.20819445067E+02  0.20819445067E+02  0.00000000000E+00 0. -1.
          5    1    1    2  502    0  0.62033994688E+02 -0.45000851921E+02  0.29712543753E+03  0.30687830031E+03  0.41800000000E+01 0. -1.
         -5    1    1    2    0  502 -0.14558182111E+02  0.29083449852E+02  0.21890285697E+02  0.39426447083E+02  0.41800000000E+01 0. -1.
        -11    1    1    2    0    0 -0.52214567202E+02 -0.29233716396E+02  0.20701807838E+03  0.21549351726E+03  0.00000000000E+00 0.  1.
         11    1    1    2    0    0  0.47387546248E+01  0.45151118465E+02  0.17249089708E+03  0.17836532418E+03  0.00000000000E+00 0. -1.
</event>
<event>
 6    1  0.6447971E-006  0.1306962E+03  0.7561462E-02  0.1226426E+00
          2   -1    0    0  501    0  0.00000000000E+00  0.00000000000E+00  0.12697249566E+03  0.12697249566E+03  0.00000000000E+00 0. -1.
         -2   -1    0    0    0  501 -0.00000000000E+00 -0.00000000000E+00 -0.20021051303E+03  0.20021051303E+03  0.00000000000E+00 0.  1.
          5    1    1    2  502    0 -0.41485719590E+02  0.68373550149E+02 -0.93061604653E+02  0.12277598279E+03  0.41800000000E+01 0. -1.
         -5    1    1    2    0  502  0.56226619879E+02  0.30206176192E+02 -0.35019898760E+01  0.64059208520E+02  0.41800000000E+01 0. -1.
        -11    1    1    2    0    0  0.24438053362E+02 -0.39828062549E+02  0.46601436070E+02  0.65993839579E+02  0.00000000000E+00 0. -1.
         11    1    1    2    0    0 -0.39178953651E+02 -0.58751663791E+02 -0.23275858906E+02  0.74353977804E+02  0.00000000000E+00 0.  1.
</event>
<event>
 6    1  0.6447971E-006  0.7410299E+02  0.7561462E-02  0.1346671E+00
         -2   -1    0    0    0  501 -0.00000000000E+00  0.00000000000E+00  0.16186602847E+03  0.16186602847E+03  0.00000000000E+00 0.  1.
          2   -1    0    0  501    0  0.00000000000E+00 -0.00000000000E+00 -0.87812530802E+02  0.87812530802E+02  0.00000000000E+00 0. -1.
          5    1    1    2  502    0  0.20296551468E+01 -0.30041135886E+02 -0.30350903546E+02  0.42956246244E+02  0.41800000000E+01 0. -1.
         -5    1    1    2    0  502  0.22773417570E+01  0.28652044185E+02  0.11372972289E+03  0.11737993096E+03  0.41800000000E+01 0.  1.
        -11    1    1    2    0    0 -0.13781221421E+02  0.43483667376E+02 -0.68183543591E+01  0.46122026717E+02  0.00000000000E+00 0.  1.
         11    1    1    2    0    0  0.94742245173E+01 -0.42094575675E+02 -0.25069673263E+01  0.43220355350E+02  0.00000000000E+00 0. -1.
</event>
<event>
 6    1  0.6447971E-006  0.1413302E+03  0.7561462E-02  0.1211550E+00
          2   -1    0    0  501    0  0.00000000000E+00  0.00000000000E+00  0.10574639835E+04  0.10574639835E+04  0.00000000000E+00 0. -1.
         -2   -1    0    0    0  501 -0.00000000000E+00 -0.00000000000E+00 -0.19690856866E+02  0.19690856866E+02  0.00000000000E+00 0.  1.
          5    1    1    2  502    0  0.57720190387E+02  0.46846338429E+02  0.21436946419E+03  0.22693157423E+03  0.41800000000E+01 0.  1.
         -5    1    1    2    0  502  0.33107069999E+02 -0.73311075055E+02  0.31941233678E+03  0.32941205974E+03  0.41800000000E+01 0.  1.
        -11    1    1    2    0    0 -0.24940025558E+02 -0.31307800845E+02  0.10645569853E+03  0.11373213714E+03  0.00000000000E+00 0.  1.
         11    1    1    2    0    0 -0.65887234828E+02  0.57772537471E+02  0.39753562714E+03  0.40707906928E+03  0.00000000000E+00 0. -1.
</event>
<event>
 6    1  0.6447971E-006  0.6496015E+02  0.7561462E-02  0.1378121E+00
          2   -1    0    0  501    0  0.00000000000E+00  0.00000000000E+00  0.34058545207E+02  0.34058545207E+02  0.00000000000E+00 0. -1.
         -2   -1    0    0    0  501 -0.00000000000E+00 -0.00000000000E+00 -0.99112302001E+03  0.99112302001E+03  0.00000000000E+00 0.  1.
          5    1    1    2  502    0 -0.24535783914E+02  0.79376402262E+01 -0.40121171791E+02  0.47876838351E+02  0.41800000000E+01 0. -1.
         -5    1    1    2    0  502  0.79803717166E+01 -0.51189956996E+01 -0.87455246940E+03  0.87461384884E+03  0.41800000000E+01 0.  1.
        -11    1    1    2    0    0 -0.37745066160E+02 -0.89415641924E+01 -0.19931047597E+02  0.43610643746E+02  0.00000000000E+00 0.  1.
         11    1    1    2    0    0  0.54300478357E+02  0.61229196657E+01 -0.22459786020E+02  0.59080234284E+02  0.00000000000E+00 0. -1.
</event>
<event>
 6    1  0.6447971E-006  0.1936675E+03  0.7561462E-02  0.1155194E+00
         -2   -1    0    0    0  501 -0.00000000000E+00  0.00000000000E+00  0.52295047916E+02  0.52295047916E+02  0.00000000000E+00 0.  1.
          2   -1    0    0  501    0  0.00000000000E+00 -0.00000000000E+00 -0.82335272852E+03  0.82335272852E+03  0.00000000000E+00 0. -1.
          5    1    1    2  502    0 -0.26792410066E+02 -0.94146846456E+02 -0.15980075475E+03  0.18744389975E+03  0.41800000000E+01 0. -1.
         -5    1    1    2    0  502 -0.11365197737E+03 -0.43918525256E+01 -0.15625935938E+03  0.19331456262E+03  0.41800000000E+01 0. -1.
        -11    1    1    2    0    0  0.35905304795E+02  0.46566572979E+02 -0.64348723172E+02  0.87168771962E+02  0.00000000000E+00 0.  1.
         11    1    1    2    0    0  0.10453908264E+03  0.51972126003E+02 -0.39064884330E+03  0.40772054210E+03  0.00000000000E+00 0. -1.
</event>
<event>
 6    1  0.6447971E-006  0.1485513E+03  0.7561462E-02  0.1202265E+00
         -2   -1    0    0    0  501 -0.00000000000E+00  0.00000000000E+00  0.29996757315E+03  0.29996757315E+03  0.00000000000E+00 0. -1.
          2   -1    0    0  501    0  0.00000000000E+00 -0.00000000000E+00 -0.10647800366E+03  0.10647800366E+03  0.00000000000E+00 0.  1.
          5    1    1    2  502    0 -0.61945428957E+02 -0.50356970045E+02  0.98736958005E+02  0.12704141009E+03  0.41800000000E+01 0. -1.
         -5    1    1    2    0  502 -0.57746764773E+02  0.73354322975E+02  0.82453222238E+02  0.12462564663E+03  0.41800000000E+01 0. -1.
        -11    1    1    2    0    0  0.46580845333E+02  0.14993158402E+01  0.50508049341E+02  0.68724712791E+02  0.00000000000E+00 0. -1.
         11    1    1    2    0    0  0.73111348397E+02 -0.24496668770E+02 -0.38208660088E+02  0.86053807300E+02  0.00000000000E+00 0.  1.
</event>
<event>
 6    1  0.6447971E-006  0.9860479E+02  0.7561462E-02  0.1283258E+00
          4   -1    0    0  501    0  0.00000000000E+00  0.00000000000E+00  0.60201393605E+02  0.60201393605E+02  0.00000000000E+00 0. -1.
         -4   -1    0    0    0  501 -0.00000000000E+00 -0.00000000000E+00 -0.22476508943E+03  0.22476508943E+03  0.00000000000E+00 0.  1.
          5    1    1    2  502    0 -0.46613168474E+02  0.24157884001E+02 -0.29255339879E+02  0.60247308205E+02  0.41800000000E+01 0.  1.
         -5    1    1    2    0  502  0.61160609780E+02 -0.19068209916E+02 -0.11172122819E+03  0.12885387866E+03  0.41800000000E+01 0.  1.
        -11    1    1    2    0    0  0.27068874817E+02  0.18231868594E+02  0.13621614725E+02  0.35364861147E+02  0.00000000000E+00 0. -1.
         11    1    1    2    0    0 -0.41616316123E+02 -0.23321542679E+02 -0.37208742484E+02  0.60500435022E+02  0.00000000000E+00 0.  1.
</event>
<event>
 6    1  0.6447971E-006  0.9076755E+02  0.7561462E-02  0.1301004E+00
          1   -1    0    0  501    0  0.00000000000E+00  0.00000000000E+00  0.40637175474E+02  0.40637175474E+02  0.00000000000E+00 0. -1.
         -1   -1    0    0    0  501 -0.00000000000E+00 -0.00000000000E+00 -0.32670047506E+03  0.32670047506E+03  0.00000000000E+00 0.  1.
          5    1    1    2  502    0 -0.20395358974E+01 -0.39730787066E+02 -0.19784760719E+02  0.44627394101E+02  0.41800000000E+01 0.  1.
         -5    1    1    2    0  502 -0.92497033059E+01  0.76644453629E+02 -0.16069967171E+03  0.17833055310E+03  0.41800000000E+01 0.  1.
        -11    1    1    2    0    0  0.19351801828E+01  0.13148820056E+02  0.10941854769E+02  0.17215126401E+02  0.00000000000E+00 0. -1.
         11    1    1    2    0    0  0.93540590205E+01 -0.50062486620E+02 -0.11652072193E+03  0.12716457693E+03  0.00000000000E+00 0.  1.
</event>
<event>
 6    1  0.6447971E-006  0.1102363E+03  0.7561462E-02  0.1260133E+00
         -2   -1    0    0    0  501 -0.00000000000E+00  0.00000000000E+00  0.13551765320E+03  0.13551765320E+03  0.00000000000E+00 0.  1.
          2   -1    0    0  501    0  0.00000000000E+00 -0.00000000000E+00 -0.15028485914E+03  0.15028485914E+03  0.00000000000E+00 0. -1.
          5    1    1    2  502    0  0.58541493262E+02  0.17830074496E+02 -0.29764694282E+02  0.68179376762E+02  0.41800000000E+01 0. -1.
         -5    1    1    2    0  502 -0.27204157479E+02  0.64943658202E+02  0.49837500242E+02  0.86365466219E+02  0.41800000000E+01 0. -1.
        -11    1    1    2    0    0 -0.25509009900E+02 -0.62552972902E+02  0.21679375701E+02  0.70947722555E+02  0.00000000000E+00 0.  1.
         11    1    1    2    0    0 -0.58283258828E+01 -0.20220759797E+02 -0.56519387600E+02  0.60309946808E+02  0.00000000000E+00 0. -1.
</event>
<event>
 6    1  0.6447971E-006  0.1397275E+03  0.7561462E-02  0.1213696E+00
         -1   -1    0    0    0  501 -0.00000000000E+00  0.00000000000E+00  0.12657046050E+03  0.12657046050E+03  0.00000000000E+00 0.  1.
          1   -1    0    0  501    0  0.00000000000E+00 -0.00000000000E+00 -0.18426221343E+03  0.18426221343E+03  0.00000000000E+00 0. -1.
          5    1    1    2  502    0 -0.78838805441E+02 -0.97208749680E+02  0.11930005610E+02  0.12579704166E+03  0.41800000000E+01 0.  1.
         -5    1    1    2    0  502  0.21115135920E+02  0.22350974310E+02  0.95349913434E+01  0.32462339371E+02  0.41800000000E+01 0.  1.
        -11    1    1    2    0    0  0.56685890040E+02  0.90895727797E+02 -0.47729393417E+02  0.11727496944E+03  0.00000000000E+00 0. -1.
         11    1    1    2    0    0  0.10377794801E+01 -0.16037952426E+02 -0.31427356470E+02  0.35298323459E+02  0.00000000000E+00 0.  1.
</event>
<event>
 6    1  0.6447971E-006  0.1225335E+03  0.7561462E-02  0.1238975E+00
          2   -1    0    0  501    0  0.00000000000E+00  0.00000000000E+00  0.10254926561E+04  0.10254926561E+04  0.00000000000E+00 0. -1.
         -2   -1    0    0    0  501 -0.00000000000E+00 -0.00000000000E+00 -0.23757645940E+02  0.23757645940E+02  0.00000000000E+00 0.  1.
          5    1    1    2  502    0  0.42843653740E+01  0.96718314955E+01  0.28475765030E+03  0.28498472225E+03  0.41800000000E+01 0. -1.
         -5    1    1    2    0  502  0.61872608814E+02  0.74252855136E+02  0.13690077293E+03  0.16763352960E+03  0.41800000000E+01 0. -1.
        -11    1    1    2    0    0 -0.81470410495E+02 -0.40655888942E+02  0.43658211718E+03  0.44597564298E+03  0.00000000000E+00 0.  1.
         11    1    1    2    0    0  0.15313436307E+02 -0.43268797690E+02  0.14349446979E+03  0.15065640725E+03  0.00000000000E+00 0. -1.
</event>
<event>
 6    1  0.6447971E-006  0.1328899E+03  0.7561462E-02  0.1223230E+00
         -1   -1    0    0    0  501 -0.00000000000E+00  0.00000000000E+00  0.21461266339E+03  0.21461266339E+03  0.00000000000E+00 0.  1.
          1   -1    0    0  501    0  0.00000000000E+00 -0.00000000000E+00 -0.95418237948E+02  0.95418237948E+02  0.00000000000E+00 0. -1.
          5    1    1    2  502    0  0.37528740476E+02 -0.10583773353E+03  0.83785004716E+02  0.14016929626E+03  0.41800000000E+01 0. -1.
         -5    1    1    2    0  502 -0.28616532920E+02  0.34568663295E+02 -0.92873074902E+01  0.46017658771E+02  0.41800000000E+01 0.  1.
        -11    1    1    2    0    0 -0.13069983433E+02  0.89086788392E+02  0.18549978397E+02  0.91931398507E+02  0.00000000000E+00 0.  1.
         11    1    1    2    0    0  0.41577758765E+01 -0.17817718159E+02  0.26146749819E+02  0.31912547795E+02  0.00000000000E+00 0. -1.
</event>
<event>
 6    1  0.6447971E-006  0.1818193E+03  0.7561462E-02  0.1166054E+00
         -1   -1    0    0    0  501 -0.00000000000E+00  0.00000000000E+00  0.74304021962E+03  0.74304021962E+03  0.00000000000E+00 0.  1.
          1   -1    0    0  501    0  0.00000000000E+00 -0.00000000000E+00 -0.47452913666E+02  0.47452913666E+02  0.00000000000E+00 0. -1.
          5    1    1    2  502    0  0.12827429831E+03  0.42447479206E+02  0.28745775582E+03  0.31765628890E+03  0.41800000000E+01 0. -1.
         -5    1    1    2    0  502 -0.46561904675E+02 -0.88698891807E+02  0.12681994016E+03  0.16166717044E+03  0.41800000000E+01 0.  1.
        -11    1    1    2    0    0 -0.90775625535E+02  0.10580578844E+02  0.23411741310E+03  0.25132275256E+03  0.00000000000E+00 0.  1.
         11    1    1    2    0    0  0.90632319046E+01  0.35670833757E+02  0.47192196879E+02  0.59846921389E+02  0.00000000000E+00 0. -1.
</event>
<event>
 6    1  0.6447971E-006  0.9207266E+02  0.7561462E-02  0.1297909E+00
          1   -1    0    0  501    0  0.00000000000E+00  0.00000000000E+00  0.46045083150E+02  0.46045083150E+02  0.00000000000E+00 0. -1.
         -1   -1    0    0    0  501 -0.00000000000E+00 -0.00000000000E+00 -0.33078943737E+03  0.33078943737E+03  0.00000000000E+00 0.  1.
          5    1    1    2  502    0  0.52689681304E+02  0.68561659707E+02 -0.88355196688E+02  0.12369727919E+03  0.41800000000E+01 0. -1.
         -5    1    1    2    0  502 -0.39191587681E+02 -0.14810099704E+02 -0.10536546482E+03  0.11346661700E+03  0.41800000000E+01 0. -1.
        -11    1    1    2    0    0 -0.60014153668E+01 -0.19238172612E+02 -0.10098369635E+03  0.10297490569E+03  0.00000000000E+00 0.  1.
         11    1    1    2    0    0 -0.74966782563E+01 -0.34513387391E+02  0.99600036366E+01  0.36695718640E+02  0.00000000000E+00 0. -1.
</event>
<event>
 6    1  0.6447971E-006  0.1437582E+03  0.7561462E-02  0.1208360E+00
          1   -1    0    0  501    0  0.00000000000E+00  0.00000000000E+00  0.35093597897E+02  0.35093597897E+02  0.00000000000E+00 0. -1.
         -1   -1    0    0    0  501 -0.00000000000E+00 -0.00000000000E+00 -0.69068193171E+03  0.69068193171E+03  0.00000000000E+00 0.  1.
          5    1    1    2  502    0  0.59058983264E+02 -0.13744366903E+02 -0.11032828315E+03  0.12596298500E+03  0.41800000000E+01 0. -1.
         -5    1    1    2    0  502 -0.34805119771E+02 -0.83556692414E+02 -0.34775460501E+03  0.35936590672E+03  0.41800000000E+01 0. -1.
        -11    1    1    2    0    0 -0.59668845107E+02  0.64202301227E+02 -0.14073011065E+03  0.16579285450E+03  0.00000000000E+00 0.  1.
         11    1    1    2    0    0  0.35414981614E+02  0.33098758090E+02 -0.56775334999E+02  0.74653783387E+02  0.00000000000E+00 0. -1.
</event>
<event>
 6    1  0.6447971E-006  0.1023143E+03  0.7561462E-02  0.1275503E+00
          1   -1    0    0  501    0  0.00000000000E+00  0.00000000000E+00  0.74781519508E+02  0.74781519508E+02  0.00000000000E+00 0. -1.
         -1   -1    0    0    0  501 -0.00000000000E+00 -0.00000000000E+00 -0.17058666167E+03  0.17058666167E+03  0.00000000000E+00 0.  1.
          5    1    1    2  502    0 -0.51734967482E+02 -0.41965696865E+02 -0.75365280424E+02  0.10067285864E+03  0.41800000000E+01 0.  1.
         -5    1    1    2    0  502  0.15843530471E+02  0.41619595349E+02  0.86671598485E+01  0.45560950766E+02  0.41800000000E+01 0.  1.
        -11    1    1    2    0    0 -0.24665510914E+02 -0.17241273717E+02 -0.10424344737E+01  0.30112051037E+02  0.00000000000E+00 0. -1.
         11    1    1    2    0    0  0.60556947925E+02  0.17587375232E+02 -0.28064587110E+02  0.69022320732E+02  0.00000000000E+00 0.  1.
</event>
<event>
 6    1  0.6447971E-006  0.1026719E+03  0.7561462E-02  0.1274776E+00
          2   -1    0    0  501    0  0.00000000000E+00  0.00000000000E+00  0.55369684690E+02  0.55369684690E+02  0.00000000000E+00 0. -1.
         -2   -1    0    0    0  501 -0.00000000000E+00 -0.00000000000E+00 -0.29261525812E+03  0.29261525812E+03  0.00000000000E+00 0.  1.
          5    1    1    2  502    0  0.41549789850E+02 -0.36227152643E+01 -0.10097300132E+03  0.10932762001E+03  0.41800000000E+01 0.  1.
         -5    1    1    2    0  502 -0.46325713553E+02  0.68734419456E+02 -0.48069396988E+02  0.95909496302E+02  0.41800000000E+01 0.  1.
        -11    1    1    2    0    0  0.16451752805E+02 -0.23779728530E+01 -0.75979462350E+02  0.77776562178E+02  0.00000000000E+00 0.  1.
         11    1    1    2    0    0 -0.11675829101E+02 -0.62733731339E+02 -0.12223712773E+02  0.64971264316E+02  0.00000000000E+00 0. -1.
</event>
<event>
 6    1  0.6447971E-006  0.9515213E+02  0.7561462E-02  0.1290834E+00
         -1   -1    0    0    0  501 -0.00000000000E+00  0.00000000000E+00  0.87088865720E+03  0.87088865720E+03  0.00000000000E+00 0.  1.
          1   -1    0    0  501    0  0.00000000000E+00 -0.00000000000E+00 -0.17011686537E+02  0.17011686537E+02  0.00000000000E+00 0. -1.
          5    1    1    2  502    0 -0.58013408130E+02  0.87432948233E+00  0.22626345389E+03  0.23362136662E+03  0.41800000000E+01 0.  1.
         -5    1    1    2    0  502  0.60248820356E+02  0.36367514299E+02  0.38895171161E+03  0.39528903706E+03  0.41800000000E+01 0.  1.
        -11    1    1    2    0    0 -0.61285470223E+01  0.11344293200E+02 -0.23435356420E+01  0.13105122514E+02  0.00000000000E+00 0.  1.
         11    1    1    2    0    0  0.38931347962E+01 -0.48586136981E+02  0.24100534081E+03  0.24588481755E+03  0.00000000000E+00 0. -1.
</event>
<event>
 6    1  0.6447971E-006  0.3677365E+03  0.7561462E-02  0.1055562E+00
         -1   -1    0    0    0  501 -0.00000000000E+00  0.00000000000E+00  0.10269460571E+04  0.10269460571E+04  0.00000000000E+00 0.  1.
          1   -1    0    0  501    0  0.00000000000E+00 -0.00000000000E+00 -0.16132075414E+03  0.16132075414E+03  0.00000000000E+00 0. -1.
          5    1    1    2  502    0  0.21900134123E+03  0.12958542235E+03  0.52303913548E+03  0.58167119474E+03  0.41800000000E+01 0. -1.
         -5    1    1    2    0  502  0.11859174319E+03  0.17226294249E+00  0.13662911729E+03  0.18096690117E+03  0.41800000000E+01 0. -1.
        -11    1    1    2    0    0 -0.21736594460E+03 -0.94460350813E+02  0.85888366805E+02  0.25208634096E+03  0.00000000000E+00 0. -1.
         11    1    1    2    0    0 -0.12022713982E+03 -0.35297334478E+02  0.12006868340E+03  0.17354237438E+03  0.00000000000E+00 0.  1.
</event>
<event>
 6    1  0.6447971E-006  0.1751941E+03  0.7561462E-02  0.1172537E+00
         -2   -1    0    0    0  501 -0.00000000000E+00  0.00000000000E+00  0.12487118368E+03  0.12487118368E+03  0.00000000000E+00 0.  1.
          2   -1    0    0  501    0  0.00000000000E+00 -0.00000000000E+00 -0.41274327589E+03  0.41274327589E+03  0.00000000000E+00 0. -1.
          5    1    1    2  502    0 -0.49675912970E+02  0.11211226839E+03 -0.25505226668E+03  0.28303001288E+03  0.41800000000E+01 0. -1.
         -5    1    1    2    0  502 -0.33041303302E+02 -0.96609692132E+02  0.39457403921E+02  0.10954231813E+03  0.41800000000E+01 0.  1.
        -11    1    1    2    0    0  0.10359437399E+03 -0.14472358986E+02 -0.56749329277E+02  0.11900306664E+03  0.00000000000E+00 0.  1.
         11    1    1    2    0    0 -0.20877157716E+02 -0.10302172691E+01 -0.15527900164E+02  0.26039061915E+02  0.00000000000E+00 0. -1.
</event>
<event>
 6    1  0.6447971E-006  0.1098478E+03  0.7561462E-02  0.1260852E+00
          1   -1    0    0  501    0  0.00000000000E+00  0.00000000000E+00  0.12764595321E+03  0.12764595321E+03  0.00000000000E+00 0.  1.
         -1   -1    0    0    0  501 -0.00000000000E+00 -0.00000000000E+00 -0.10919915324E+03  0.10919915324E+03  0.00000000000E+00 0. -1.
          5    1    1    2  502    0  0.53051256618E+01  0.66628556493E+02 -0.12950789562E+02  0.68210734118E+02  0.41800000000E+01 0. -1.
         -5    1    1    2    0  502 -0.26255658113E+02 -0.41657651724E+02  0.40647669703E+02  0.63987693992E+02  0.41800000000E+01 0. -1.
        -11    1    1    2    0    0  0.12899695184E+02 -0.63065383074E+02 -0.12506521734E+02  0.65574825688E+02  0.00000000000E+00 0.  1.
         11    1    1    2    0    0  0.80508372669E+01  0.38094478305E+02  0.32564415679E+01  0.39071852653E+02  0.00000000000E+00 0. -1.
</event>
<event>
 6    1  0.6447971E-006  0.1219574E+03  0.7561462E-02  0.1239903E+00
          1   -1    0    0  501    0  0.00000000000E+00  0.00000000000E+00  0.39085407061E+03  0.39085407061E+03  0.00000000000E+00 0. -1.
         -1   -1    0    0    0  501 -0.00000000000E+00 -0.00000000000E+00 -0.47041197035E+02  0.47041197035E+02  0.00000000000E+00 0.  1.
          5    1    1    2  502    0  0.29640977360E+01 -0.33072665816E+02  0.22496197060E+01  0.33542812768E+02  0.41800000000E+01 0. -1.
         -5    1    1    2    0  502  0.54811916914E+02  0.57507979660E+02  0.17542671526E+03  0.19262273694E+03  0.41800000000E+01 0. -1.
        -11    1    1    2    0    0 -0.92514276002E+02 -0.26065293293E+02  0.12874099828E+03  0.16066280035E+03  0.00000000000E+00 0. -1.
         11    1    1    2    0    0  0.34738261352E+02  0.16299794490E+01  0.37395540322E+02  0.51066917576E+02  0.00000000000E+00 0.  1.
</event>
<event>
 6    1  0.6447971E-006  0.9602354E+02  0.7561462E-02  0.1288887E+00
         -1   -1    0    0    0  501 -0.00000000000E+00  0.00000000000E+00  0.83936008814E+02  0.83936008814E+02  0.00000000000E+00 0.  1.
          1   -1    0    0  501    0  0.00000000000E+00 -0.00000000000E+00 -0.19577528706E+03  0.19577528706E+03  0.00000000000E+00 0. -1.
          5    1    1    2  502    0  0.64122276790E+01 -0.16532641568E+02  0.42300600669E+02  0.46057117995E+02  0.41800000000E+01 0. -1.
         -5    1    1    2    0  502 -0.40943108581E+02  0.56691978124E+02 -0.57469212573E+02  0.90611816656E+02  0.41800000000E+01 0. -1.
        -11    1    1    2    0    0  0.62180398981E+02 -0.43552537854E+02 -0.81270119427E+02  0.11121177043E+03  0.00000000000E+00 0.  1.
         11    1    1    2    0    0 -0.27649518079E+02  0.33932012985E+01 -0.15400546919E+02  0.31830590796E+02  0.00000000000E+00 0. -1.
</event>
<event>
 6    1  0.6447971E-006  0.1115572E+03  0.7561462E-02  0.1257713E+00
         -1   -1    0    0    0  501 -0.00000000000E+00  0.00000000000E+00  0.40143802547E+03  0.40143802547E+03  0.00000000000E+00 0.  1.
          1   -1    0    0  501    0  0.00000000000E+00 -0.00000000000E+00 -0.67677666423E+02  0.67677666423E+02  0.00000000000E+00 0. -1.
          5    1    1    2  502    0 -0.90178224781E+01 -0.35669452725E+02  0.21126987633E+03  0.21449024226E+03  0.41800000000E+01 0. -1.
         -5    1    1    2    0  502  0.63010099694E+02  0.49343853094E+02  0.12376201709E+03  0.14744354098E+03  0.41800000000E+01 0. -1.
        -11    1    1    2    0    0 -0.84550350831E+01  0.36920057654E+02 -0.82240496180E+01  0.38758396091E+02  0.00000000000E+00 0. -1.
         11    1    1    2    0    0 -0.45537242133E+02 -0.50594458023E+02  0.69525152443E+01  0.68423512566E+02  0.00000000000E+00 0.  1.
</event>
<event>
 6    1  0.6447971E-006  0.1384327E+03  0.7561462E-02  0.1215453E+00
         -2   -1    0    0    0  501 -0.00000000000E+00  0.00000000000E+00  0.53576518993E+02  0.53576518993E+02  0.00000000000E+00 0. -1.
          2   -1    0    0  501    0  0.00000000000E+00 -0.00000000000E+00 -0.50048856523E+03  0.50048856523E+03  0.00000000000E+00 0.  1.
          5    1    1    2  502    0  0.51653119068E+02  0.15604435236E+02 -0.40041248899E+02  0.67322486005E+02  0.41800000000E+01 0.  1.
         -5    1    1    2    0  502  0.35309817615E+02 -0.97082158701E+02 -0.24600636621E+03  0.26684889614E+03  0.41800000000E+01 0.  1.
        -11    1    1    2    0    0 -0.72793292533E+02  0.64648794148E+02 -0.55104268203E+02  0.11186961338E+03  0.00000000000E+00 0. -1.
         11    1    1    2    0    0 -0.14169644151E+02  0.16828929317E+02 -0.10576016292E+03  0.10802408870E+03  0.00000000000E+00 0.  1.
</event>
<event>
 6    1  0.6447971E-006  0.1151704E+03  0.7561462E-02  0.1251284E+00
         -1   -1    0    0    0  501 -0.00000000000E+00  0.00000000000E+00  0.94168105873E+02  0.94168105873E+02  0.00000000000E+00 0.  1.
          1   -1    0    0  501    0  0.00000000000E+00 -0.00000000000E+00 -0.15103053911E+03  0.15103053911E+03  0.00000000000E+00 0. -1.
          5    1    1    2  502    0  0.41322775313E+02  0.26123541864E+02 -0.34028731198E+02  0.59711289938E+02  0.41800000000E+01 0. -1.
         -5    1    1    2    0  502 -0.82249326798E+02  0.41134614759E+01 -0.14102154942E+02  0.83655337534E+02  0.41800000000E+01 0. -1.
        -11    1    1    2    0    0  0.65001331294E+02 -0.35657158510E+02 -0.16515012195E+02  0.75956248267E+02  0.00000000000E+00 0.  1.
         11    1    1    2    0    0 -0.24074779809E+02  0.54201551708E+01  0.77834651000E+01  0.25875769242E+02  0.00000000000E+00 0. -1.
</event>
<event>
 6    1  0.6447971E-006  0.1260173E+03  0.7561462E-02  0.1233488E+00
          2   -1    0    0  501    0  0.00000000000E+00  0.00000000000E+00  0.46366119456E+03  0.46366119456E+03  0.00000000000E+00 0. -1.
         -2   -1    0    0    0  501 -0.00000000000E+00 -0.00000000000E+00 -0.56941307305E+02  0.56941307305E+02  0.00000000000E+00 0.  1.
          5    1    1    2  502    0 -0.16493576172E+02 -0.49543055523E+02  0.16630348278E+03  0.17435846177E+03  0.41800000000E+01 0.  1.
         -5    1    1    2    0  502 -0.11984388413E+02 -0.63120355484E+02  0.57138550931E+00  0.64386362868E+02  0.41800000000E+01 0.  1.
        -11    1    1    2    0    0 -0.93330245725E+01  0.91424339120E+02  0.20995588761E+03  0.22918767392E+03  0.00000000000E+00 0.  1.
         11    1    1    2    0    0  0.37810989157E+02  0.21239071887E+02  0.29889131345E+02  0.52670003306E+02  0.00000000000E+00 0. -1.
</event>
<event>
 6    1  0.6447971E-006  0.9211389E+02  0.7561462E-02  0.1297812E+00
         -2   -1    0    0    0  501 -0.00000000000E+00  0.00000000000E+00  0.39164382828E+02  0.39164382828E+02  0.00000000000E+00 0.  1.
          2   -1    0    0  501    0  0.00000000000E+00 -0.00000000000E+00 -0.33307879796E+03  0.33307879796E+03  0.00000000000E+00 0. -1.
          5    1    1    2  502    0  0.45474321571E+02 -0.35419507468E+02 -0.17804845625E+02  0.60472641412E+02  0.41800000000E+01 0. -1.
         -5    1    1    2    0  502 -0.40537218411E+02  0.28494588671E+00 -0.13052492819E+03  0.13673908201E+03  0.41800000000E+01 0. -1.
        -11    1    1    2    0    0 -0.41487986071E+02  0.16420353365E+02 -0.11638495066E+03  0.12464484639E+03  0.00000000000E+00 0. -1.
         11    1    1    2    0    0  0.36550882911E+02  0.18714208216E+02 -0.29199690667E+02  0.50386610977E+02  0.00000000000E+00 0.  1.
</event>
<event>
 6    1  0.6447971E-006  0.1005856E+03  0.7561462E-02  0.1279069E+00
          1   -1    0    0  501    0  0.00000000000E+00  0.00000000000E+00  0.77269673909E+03  0.77269673909E+03  0.00000000000E+00 0.  1.
         -1   -1    0    0    0  501 -0.00000000000E+00 -0.00000000000E+00 -0.20423647021E+02  0.20423647021E+02  0.00000000000E+00 0. -1.
          5    1    1    2  502    0  0.30922784275E+02  0.26935108390E+02  0.39501280224E+02  0.57092400463E+02  0.41800000000E+01 0.  1.
         -5    1    1    2    0  502 -0.47625843380E+02  0.33685953799E+02  0.39773996940E+03  0.40201681569E+03  0.41800000000E+01 0.  1.
        -11    1    1    2    0    0  0.22768454136E+02  0.13914467814E+02  0.34115521764E+02  0.43311473578E+02  0.00000000000E+00 0. -1.
         11    1    1    2    0    0 -0.60653950312E+01 -0.74535530003E+02  0.28091632069E+03  0.29069969639E+03  0.00000000000E+00 0.  1.
</event>
<event>
 6    1  0.6447971E-006  0.2231686E+03  0.7561462E-02  0.1131543E+00
         -1   -1    0    0    0  501 -0.00000000000E+00  0.00000000000E+00  0.39755767018E+03  0.39755767018E+03  0.00000000000E+00 0.  1.
          1   -1    0    0  501    0  0.00000000000E+00 -0.00000000000E+00 -0.13982041750E+03  0.13982041750E+03  0.00000000000E+00 0. -1.
          5    1    1    2  502    0 -0.10707739879E+03 -0.17920472106E+03  0.10532311785E+03  0.23385964366E+03  0.41800000000E+01 0.  1.
         -5    1    1    2    0  502  0.26251104655E+02 -0.11426040385E+02 -0.24113533119E+01  0.29033806490E+02  0.41800000000E+01 0.  1.
        -11    1    1    2    0    0  0.53888086254E+02  0.94658210748E+02  0.26694926709E+02  0.11214598439E+03  0.00000000000E+00 0. -1.
         11    1    1    2    0    0  0.26938207879E+02  0.95972550693E+02  0.12813056143E+03  0.16233865314E+03  0.00000000000E+00 0.  1.
</event>
<event>
 6    1  0.6447971E-006  0.1109623E+03  0.7561462E-02  0.1258798E+00
          3   -1    0    0  501    0  0.00000000000E+00  0.00000000000E+00  0.56349547683E+03  0.56349547683E+03  0.00000000000E+00 0. -1.
         -3   -1    0    0    0  501 -0.00000000000E+00 -0.00000000000E+00 -0.39001700015E+02  0.39001700015E+02  0.00000000000E+00 0.  1.
          5    1    1    2  502    0  0.23716177989E+02  0.29177379655E+02  0.10533228252E+01  0.37846512004E+02  0.41800000000E+01 0. -1.
         -5    1    1    2    0  502  0.29102443746E+02  0.57308173264E+02  0.26853452988E+03  0.27615112727E+03  0.41800000000E+01 0. -1.
        -11    1    1    2    0    0  0.12185436248E+02 -0.34054829945E+02  0.15058613070E+03  0.15486897384E+03  0.00000000000E+00 0. -1.
         11    1    1    2    0    0 -0.65004057982E+02 -0.52430722974E+02  0.10431979341E+03  0.13363056373E+03  0.00000000000E+00 0.  1.
</event>
<event>
 6    1  0.7988926E-006  0.3724997E+03  0.7561462E-02  0.1053741E+00
         -2   -1    0    0    0  501 -0.00000000000E+00  0.00000000000E+00  0.11070713334E+03  0.11070713334E+03  0.00000000000E+00 0.  1.
          2   -1    0    0  501    0  0.00000000000E+00 -0.00000000000E+00 -0.13262931589E+04  0.13262931589E+04  0.00000000000E+00 0. -1.
          5    1    1    2  502    0  0.23205365633E+02  0.11001327030E+03 -0.24947689794E+03  0.27367426558E+03  0.41800000000E+01 0. -1.
         -5    1    1    2    0  502 -0.46309051363E+02  0.25295429741E+03 -0.27259515524E+03  0.37477459343E+03  0.41800000000E+01 0. -1.
        -11    1    1    2    0    0 -0.30433233770E+02 -0.22920880206E+03 -0.42496192856E+03  0.48379282486E+03  0.00000000000E+00 0.  1.
         11    1    1    2    0    0  0.53536919500E+02 -0.13375876565E+03 -0.26855204379E+03  0.30475860834E+03  0.00000000000E+00 0. -1.
</event>
<event>
 6    1  0.6447971E-006  0.1148349E+03  0.7561462E-02  0.1251870E+00
          1   -1    0    0  501    0  0.00000000000E+00  0.00000000000E+00  0.54917298544E+03  0.54917298544E+03  0.00000000000E+00 0. -1.
         -1   -1    0    0    0  501 -0.00000000000E+00 -0.00000000000E+00 -0.28254751843E+02  0.28254751843E+02  0.00000000000E+00 0.  1.
          5    1    1    2  502    0 -0.54335752509E+01  0.59916328340E+02  0.71441157803E+02  0.93492254064E+02  0.41800000000E+01 0. -1.
         -5    1    1    2    0  502 -0.52441678786E+02 -0.49793574936E+02  0.16842233181E+03  0.18333871395E+03  0.41800000000E+01 0. -1.
        -11    1    1    2    0    0  0.38288656130E+02 -0.43670951610E+02  0.10199854123E+03  0.11737493606E+03  0.00000000000E+00 0.  1.
         11    1    1    2    0    0  0.19586597907E+02  0.33548198206E+02  0.17905620275E+03  0.18322183321E+03  0.00000000000E+00 0. -1.
</event>
<event>
 6    1  0.6447971E-006  0.1285288E+03  0.7561462E-02  0.1229655E+00
          2   -1    0    0  501    0  0.00000000000E+00  0.00000000000E+00  0.10041020778E+03  0.10041020778E+03  0.00000000000E+00 0. -1.
         -2   -1    0    0    0  501 -0.00000000000E+00 -0.00000000000E+00 -0.18248457459E+03  0.18248457459E+03  0.00000000000E+00 0.  1.
          5    1    1    2  502    0 -0.92919861398E+01 -0.59759850464E+02 -0.13997997625E+02  0.62217337386E+02  0.41800000000E+01 0. -1.
         -5    1    1    2    0  502 -0.60709353977E+02  0.49454949034E+02 -0.64507772516E+02  0.10153887314E+03  0.41800000000E+01 0. -1.
        -11    1    1    2    0    0  0.13155179854E+01 -0.35460198994E+02  0.62150464220E+01  0.36024756797E+02  0.00000000000E+00 0. -1.
         11    1    1    2    0    0  0.68685822132E+02  0.45765100424E+02 -0.97836430942E+01  0.83113815043E+02  0.00000000000E+00 0.  1.
</event>
<event>
 6    1  0.6447971E-006  0.9584325E+02  0.7561462E-02  0.1289288E+00
          3   -1    0    0  501    0  0.00000000000E+00  0.00000000000E+00  0.10891864302E+04  0.10891864302E+04  0.00000000000E+00 0. -1.
         -3   -1    0    0    0  501 -0.00000000000E+00 -0.00000000000E+00 -0.12199017109E+02  0.12199017109E+02  0.00000000000E+00 0.  1.
          5    1    1    2  502    0  0.27266762995E+02  0.89563241468E+01  0.40682514466E+02  0.49962300685E+02  0.41800000000E+01 0. -1.
         -5    1    1    2    0  502 -0.62679651789E+02 -0.98835054923E+01  0.63027376006E+03  0.63347368332E+03  0.41800000000E+01 0. -1.
        -11    1    1    2    0    0 -0.30976533143E+02  0.88895315454E+01  0.13425582764E+03  0.13806953549E+03  0.00000000000E+00 0. -1.
         11    1    1    2    0    0  0.66389421936E+02 -0.79623501998E+01  0.27177531089E+03  0.27987992778E+03  0.00000000000E+00 0.  1.
</event>
<event>
 6    1  0.6447971E-006  0.1265784E+03  0.7561462E-02  0.1232623E+00
         -1   -1    0    0    0  501 -0.00000000000E+00  0.00000000000E+00  0.38801170076E+03  0.38801170076E+03  0.00000000000E+00 0.  1.
          1   -1    0    0  501    0  0.00000000000E+00 -0.00000000000E+00 -0.71996900148E+02  0.71996900148E+02  0.00000000000E+00 0. -1.
          5    1    1    2  502    0  0.74005334703E+02 -0.72013953626E+02  0.17770785313E+03  0.20557322915E+03  0.41800000000E+01 0. -1.
         -5    1    1    2    0  502 -0.85519326464E+01  0.34589054671E+02  0.13297465235E+03  0.13772896871E+03  0.41800000000E+01 0. -1.
        -11    1    1    2    0    0  0.19938903767E+02  0.16838112106E+02 -0.92037666657E+01  0.27672933050E+02  0.00000000000E+00 0. -1.
         11    1    1    2    0    0 -0.85392305824E+02  0.20586786848E+02  0.14536061803E+02  0.89033469995E+02  0.00000000000E+00 0.  1.
</event>
<event>
 6    1  0.6447971E-006  0.1107083E+03  0.7561462E-02  0.1259264E+00
          3   -1    0    0  501    0  0.00000000000E+00  0.00000000000E+00  0.14645120931E+03  0.14645120931E+03  0.00000000000E+00 0. -1.
         -3   -1    0    0    0  501 -0.00000000000E+00 -0.00000000000E+00 -0.12109420980E+03  0.12109420980E+03  0.00000000000E+00 0.  1.
          5    1    1    2  502    0  0.15977840133E+02 -0.40709346798E+02 -0.43846546344E+02  0.62068786989E+02  0.41800000000E+01 0.  1.
         -5    1    1    2    0  502 -0.73194982219E+02  0.29901217735E+02  0.10533536470E+02  0.79875002565E+02  0.41800000000E+01 0.  1.
        -11    1    1    2    0    0  0.77456346870E+02  0.92855630935E+01  0.17869176047E+02  0.80031336394E+02  0.00000000000E+00 0.  1.
         11    1    1    2    0    0 -0.20239204784E+02  0.15225659696E+01  0.40800833335E+02  0.45570293156E+02  0.00000000000E+00 0. -1.
</event>
<event>
 6    1  0.6447971E-006  0.8608118E+02  0.7561462E-02  0.1312629E+00
          1   -1    0    0  501    0  0.00000000000E+00  0.00000000000E+00  0.48124705565E+03  0.48124705565E+03  0.00000000000E+00 0. -1.
         -1   -1    0    0    0  501 -0.00000000000E+00 -0.00000000000E+00 -0.30640507355E+02  0.30640507355E+02  0.00000000000E+00 0.  1.
          5    1    1    2  502    0  0.23930280401E+02 -0.55215845093E+02  0.20999446535E+03  0.21848706082E+03  0.41800000000E+01 0. -1.
         -5    1    1    2    0  502 -0.40534676347E+02  0.10811723107E+02  0.17971356565E+02  0.45830070912E+02  0.41800000000E+01 0. -1.
        -11    1    1    2    0    0 -0.15959873482E+02  0.30188093673E+02  0.20513941775E+03  0.20796206210E+03  0.00000000000E+00 0. -1.
         11    1    1    2    0    0  0.32564269428E+02  0.14216028314E+02  0.17501308641E+02  0.39608369173E+02  0.00000000000E+00 0.  1.
</event>
<event>
 6    1  0.6447971E-006  0.8649268E+02  0.7561462E-02  0.1311575E+00
         -2   -1    0    0    0  501 -0.00000000000E+00  0.00000000000E+00  0.42026325631E+02  0.42026325631E+02  0.00000000000E+00 0. -1.
          2   -1    0    0  501    0  0.00000000000E+00 -0.00000000000E+00 -0.49262869081E+03  0.49262869081E+03  0.00000000000E+00 0.  1.
          5    1    1    2  502    0 -0.44111915040E+01 -0.25511487101E+02 -0.11951264371E+03  0.12235619719E+03  0.41800000000E+01 0.  1.
         -5    1    1    2    0  502  0.39513845718E+02 -0.14637648930E+02  0.19330795063E+02  0.46548435069E+02  0.41800000000E+01 0.  1.
        -11    1    1    2    0    0 -0.47980938648E+02  0.62395241362E+02 -0.27668292759E+03  0.28766087505E+03  0.00000000000E+00 0.  1.
         11    1    1    2    0    0  0.12878284435E+02 -0.22246105331E+02 -0.73737588939E+02  0.78089509122E+02  0.00000000000E+00 0. -1.
</event>
<event>
 6    1  0.6447971E-006  0.1293439E+03  0.7561462E-02  0.1228432E+00
         -1   -1    0    0    0  501 -0.00000000000E+00  0.00000000000E+00  0.73028826819E+02  0.73028826819E+02  0.00000000000E+00 0.  1.
          1   -1    0    0  501    0  0.00000000000E+00 -0.00000000000E+00 -0.38885418325E+03  0.38885418325E+03  0.00000000000E+00 0. -1.
          5    1    1    2  502    0  0.81113516293E+02  0.47897786182E+01 -0.60898029855E+02  0.10162867186E+03  0.41800000000E+01 0. -1.
         -5    1    1    2    0  502 -0.80291558546E+02  0.24543226243E+02  0.23343965515E+01  0.84095339559E+02  0.41800000000E+01 0.  1.
        -11    1    1    2    0    0 -0.44673705602E+02 -0.15256257165E+02 -0.18112943623E+03  0.18718003639E+03  0.00000000000E+00 0.  1.
         11    1    1    2    0    0  0.43851747856E+02 -0.14076747695E+02 -0.76132286900E+02  0.88978962257E+02  0.00000000000E+00 0. -1.
</event>
<event>
 6    1  0.6447971E-006  0.1418609E+03  0.7561462E-02  0.1210847E+00
         -1   -1    0    0    0  501 -0.00000000000E+00  0.00000000000E+00  0.39207110370E+03  0.39207110370E+03  0.00000000000E+00 0.  1.
          1   -1    0    0  501    0  0.00000000000E+00 -0.00000000000E+00 -0.80741317178E+02  0.80741317178E+02  0.00000000000E+00 0. -1.
          5    1    1    2  502    0  0.11525537140E+03 -0.45893440267E+02  0.27185815046E+03  0.29885503989E+03  0.41800000000E+01 0. -1.
         -5    1    1    2    0  502 -0.11059860269E+02 -0.54864165616E+01 -0.83130270271E+01  0.15459627881E+02  0.41800000000E+01 0. -1.
        -11    1    1    2    0    0 -0.86186572287E+02 -0.60252710720E+01  0.88822279074E+01  0.86852306283E+02  0.00000000000E+00 0.  1.
         11    1    1    2    0    0 -0.18008938846E+02  0.57405127900E+02  0.38902435182E+02  0.71645446824E+02  0.00000000000E+00 0. -1.
</event>
<event>
 6    1  0.6447971E-006  0.1181233E+03  0.7561462E-02  0.1246226E+00
         -2   -1    0    0    0  501 -0.00000000000E+00  0.00000000000E+00  0.27440858905E+03  0.27440858905E+03  0.00000000000E+00 0.  1.
          2   -1    0    0  501    0  0.00000000000E+00 -0.00000000000E+00 -0.75493219605E+02  0.75493219605E+02  0.00000000000E+00 0. -1.
          5    1    1    2  502    0 -0.31738846777E+01 -0.35516255436E+02  0.31801326303E+02  0.47961179081E+02  0.41800000000E+01 0. -1.
         -5    1    1    2    0  502  0.37657276769E+02  0.10119794596E+03  0.14949331411E+03  0.18445817446E+03  0.41800000000E+01 0. -1.
        -11    1    1    2    0    0 -0.88447452268E+01 -0.66055527815E+02  0.44654800503E+02  0.80222275466E+02  0.00000000000E+00 0.  1.
         11    1    1    2    0    0 -0.25638646865E+02  0.37383729330E+00 -0.27034071472E+02  0.37260179652E+02  0.00000000000E+00 0. -1.
</event>
<event>
 6    1  0.6447971E-006  0.1036511E+03  0.7561462E-02  0.1272800E+00
          1   -1    0    0  501    0  0.00000000000E+00  0.00000000000E+00  0.71445047465E+03  0.71445047465E+03  0.00000000000E+00 0. -1.
         -1   -1    0    0    0  501 -0.00000000000E+00 -0.00000000000E+00 -0.20360017064E+02  0.20360017064E+02  0.00000000000E+00 0.  1.
          5    1    1    2  502    0 -0.12212197027E+02  0.74674694100E+02  0.30235225426E+03  0.31170467714E+03  0.41800000000E+01 0.  1.
         -5    1    1    2    0  502  0.20315772125E+02 -0.29043707029E+02  0.30726715858E+02  0.47094277598E+02  0.41800000000E+01 0.  1.
        -11    1    1    2    0    0  0.35877137137E+02 -0.35965544168E+02  0.11229019829E+03  0.12324681727E+03  0.00000000000E+00 0.  1.
         11    1    1    2    0    0 -0.43980712235E+02 -0.96654429029E+01  0.24872128917E+03  0.25276471970E+03  0.00000000000E+00 0. -1.
</event>
<event>
 6    1  0.6447971E-006  0.9338599E+02  0.7561462E-02  0.1294853E+00
          2   -1    0    0  501    0  0.00000000000E+00  0.00000000000E+00  0.64865406790E+03  0.64865406790E+03  0.00000000000E+00 0. -1.
         -2   -1    0    0    0  501 -0.00000000000E+00 -0.00000000000E+00 -0.34820246215E+02  0.34820246215E+02  0.00000000000E+00 0.  1.
          5    1    1    2  502    0  0.56699331369E+02  0.10492160225E+02  0.46105002043E+03  0.46466062168E+03  0.41800000000E+01 0. -1.
         -5    1    1    2    0  502  0.25100489523E+02 -0.33377124536E+02 -0.98602592431E+00  0.41982277972E+02  0.41800000000E+01 0.  1.
        -11    1    1    2    0    0 -0.47360054168E+02  0.22766753225E+02  0.85273279697E+02  0.10016402555E+03  0.00000000000E+00 0. -1.
         11    1    1    2    0    0 -0.34439766725E+02  0.11821108594E+00  0.68496547482E+02  0.76667388914E+02  0.00000000000E+00 0.  1.
</event>
<event>
 6    1  0.6447971E-006  0.2170843E+03  0.7561462E-02  0.1136076E+00
          2   -1    0    0  501    0  0.00000000000E+00  0.00000000000E+00  0.15027199922E+03  0.15027199922E+03  0.00000000000E+00 0. -1.
         -2   -1    0    0    0  501 -0.00000000000E+00 -0.00000000000E+00 -0.34883513810E+03  0.34883513810E+03  0.00000000000E+00 0.  1.
          5    1    1    2  502    0 -0.10598629628E+03  0.72068415274E+01 -0.78271035300E+02  0.13201841133E+03  0.41800000000E+01 0.  1.
         -5    1    1    2    0  502 -0.70825159971E+02 -0.10367355688E+03 -0.32969843905E+02  0.12988030139E+03  0.41800000000E+01 0.  1.
        -11    1    1    2    0    0  0.14008039978E+03  0.67742717233E+02 -0.10458995228E+03  0.18748507210E+03  0.00000000000E+00 0.  1.
         11    1    1    2    0    0  0.36731056465E+02  0.28723998119E+02  0.17267692601E+02  0.49723352509E+02  0.00000000000E+00 0. -1.
</event>
<event>
 6    1  0.6447971E-006  0.1128512E+03  0.7561462E-02  0.1255379E+00
          1   -1    0    0  501    0  0.00000000000E+00  0.00000000000E+00  0.73476894019E+03  0.73476894019E+03  0.00000000000E+00 0. -1.
         -1   -1    0    0    0  501 -0.00000000000E+00 -0.00000000000E+00 -0.20384241650E+02  0.20384241650E+02  0.00000000000E+00 0.  1.
          5    1    1    2  502    0 -0.68359120395E+02  0.38608906921E+02  0.18208405581E+03  0.19833227880E+03  0.41800000000E+01 0. -1.
         -5    1    1    2    0  502  0.50698041076E+02 -0.37064574319E+01  0.83854211349E+02  0.98148002306E+02  0.41800000000E+01 0. -1.
        -11    1    1    2    0    0  0.12258377333E+02  0.29241212653E+02  0.13321925964E+03  0.13694045228E+03  0.00000000000E+00 0.  1.
         11    1    1    2    0    0  0.54027019860E+01 -0.64143662141E+02  0.31522717175E+03  0.32173244846E+03  0.00000000000E+00 0. -1.
</event>
<event>
 6    1  0.6447971E-006  0.1128543E+03  0.7561462E-02  0.1255374E+00
          1   -1    0    0  501    0  0.00000000000E+00  0.00000000000E+00  0.24204503471E+03  0.24204503471E+03  0.00000000000E+00 0. -1.
         -1   -1    0    0    0  501 -0.00000000000E+00 -0.00000000000E+00 -0.40237075420E+03  0.40237075420E+03  0.00000000000E+00 0.  1.
          5    1    1    2  502    0 -0.68211511495E+02 -0.49743231325E+02 -0.13219816442E+03  0.15691088694E+03  0.41800000000E+01 0. -1.
         -5    1    1    2    0  502  0.38809657323E+02 -0.18722221501E+02 -0.24258551965E+03  0.24641817673E+03  0.41800000000E+01 0.  1.
        -11    1    1    2    0    0 -0.73353885457E+00  0.67742579682E+02  0.87839903540E+02  0.11092990505E+03  0.00000000000E+00 0. -1.
         11    1    1    2    0    0  0.30135393027E+02  0.72287314312E+00  0.12661806104E+03  0.13015682018E+03  0.00000000000E+00 0.  1.
</event>
<event>
 6    1  0.6447971E-006  0.1069292E+03  0.7561462E-02  0.1266365E+00
          3   -1    0    0  501    0  0.00000000000E+00  0.00000000000E+00  0.73467190066E+02  0.73467190066E+02  0.00000000000E+00 0. -1.
         -3   -1    0    0    0  501 -0.00000000000E+00 -0.00000000000E+00 -0.27421379769E+03  0.27421379769E+03  0.00000000000E+00 0.  1.
          5    1    1    2  502    0  0.68144207979E+02 -0.21995164935E+02  0.33678911152E+01  0.71806931783E+02  0.41800000000E+01 0. -1.
         -5    1    1    2    0  502  0.10685816398E+02 -0.27826545818E+02 -0.11806467972E+03  0.12184106172E+03  0.41800000000E+01 0. -1.
        -11    1    1    2    0    0 -0.37390651950E+02  0.58751453357E+02 -0.14906536057E+02  0.71217967832E+02  0.00000000000E+00 0. -1.
         11    1    1    2    0    0 -0.41439372426E+02 -0.89297426039E+01 -0.71143282961E+02  0.82815026417E+02  0.00000000000E+00 0.  1.
</event>
<event>
 6    1  0.6447971E-006  0.1459581E+03  0.7561462E-02  0.1205530E+00
          2   -1    0    0  501    0  0.00000000000E+00  0.00000000000E+00  0.80530189997E+03  0.80530189997E+03  0.00000000000E+00 0. -1.
         -2   -1    0    0    0  501 -0.00000000000E+00 -0.00000000000E+00 -0.31084132760E+02  0.31084132760E+02  0.00000000000E+00 0.  1.
          5    1    1    2  502    0  0.68742140115E+02 -0.91853490091E+02  0.41073927927E+03  0.42648185589E+03  0.41800000000E+01 0. -1.
         -5    1    1    2    0  502 -0.44393120340E+02 -0.54209977774E+01  0.43458788681E+02  0.62500200512E+02  0.41800000000E+01 0.  1.
        -11    1    1    2    0    0  0.12543019916E+02  0.94356804727E+02  0.19450518435E+03  0.21654745597E+03  0.00000000000E+00 0. -1.
         11    1    1    2    0    0 -0.36892039692E+02  0.29176831412E+01  0.12551451491E+03  0.13085652036E+03  0.00000000000E+00 0.  1.
</event>
<event>
 6    1  0.6447971E-006  0.8949371E+02  0.7561462E-02  0.1304082E+00
         -2   -1    0    0    0  501 -0.00000000000E+00  0.00000000000E+00  0.67558135586E+02  0.67558135586E+02  0.00000000000E+00 0. -1.
          2   -1    0    0  501    0  0.00000000000E+00 -0.00000000000E+00 -0.19110669807E+03  0.19110669807E+03  0.00000000000E+00 0.  1.
          5    1    1    2  502    0 -0.70618095678E+02 -0.44284653373E+01 -0.44547273473E+02  0.83716537890E+02  0.41800000000E+01 0.  1.
         -5    1    1    2    0  502  0.47009684233E+02  0.17580774800E+02  0.40226464145E+01  0.50523738365E+02  0.41800000000E+01 0.  1.
        -11    1    1    2    0    0  0.34842864798E+02 -0.23855659706E+02 -0.95561532901E+02  0.10447547223E+03  0.00000000000E+00 0.  1.
         11    1    1    2    0    0 -0.11234453353E+02  0.10703350243E+02  0.12537597477E+02  0.19949085169E+02  0.00000000000E+00 0. -1.
</event>
<event>
 6    1  0.6447971E-006  0.1261481E+03  0.7561462E-02  0.1233286E+00
         -4   -1    0    0    0  501 -0.00000000000E+00  0.00000000000E+00  0.31505392455E+02  0.31505392455E+02  0.00000000000E+00 0.  1.
          4   -1    0    0  501    0  0.00000000000E+00 -0.00000000000E+00 -0.69485807434E+03  0.69485807434E+03  0.00000000000E+00 0. -1.
          5    1    1    2  502    0 -0.47587085079E+02  0.39554319996E+02 -0.78901351695E+02  0.10035920783E+03  0.41800000000E+01 0.  1.
         -5    1    1    2    0  502 -0.48435722381E+01 -0.78892829929E+02 -0.93911820188E+02  0.12281873301E+03  0.41800000000E+01 0.  1.
        -11    1    1    2    0    0 -0.10249017402E+00 -0.26721708552E+02 -0.14859443658E+03  0.15097803414E+03  0.00000000000E+00 0. -1.
         11    1    1    2    0    0  0.52533147491E+02  0.66060218485E+02 -0.34194507343E+03  0.35220749182E+03  0.00000000000E+00 0.  1.
</event>
<event>
 6    1  0.6447971E-006  0.1176454E+03  0.7561462E-02  0.1247033E+00
         -2   -1    0    0    0  501 -0.00000000000E+00  0.00000000000E+00  0.38864520976E+02  0.38864520976E+02  0.00000000000E+00 0.  1.
          2   -1    0    0  501    0  0.00000000000E+00 -0.00000000000E+00 -0.49467636223E+03  0.49467636223E+03  0.00000000000E+00 0. -1.
          5    1    1    2  502    0  0.30461805964E+02 -0.32304386024E+02 -0.16343202379E+03  0.16940777367E+03  0.41800000000E+01 0. -1.
         -5    1    1    2    0  502  0.49038607786E+02  0.51828647964E+02 -0.36558180433E+02  0.80280550322E+02  0.41800000000E+01 0. -1.
        -11    1    1    2    0    0 -0.93995992905E+01 -0.43981426856E+02 -0.64515404487E+02  0.78644489898E+02  0.00000000000E+00 0.  1.
         11    1    1    2    0    0 -0.70100814459E+02  0.24457164915E+02 -0.19130623254E+03  0.20520806932E+03  0.00000000000E+00 0. -1.
</event>
<event>
 6    1  0.6447971E-006  0.1205530E+03  0.7561462E-02  0.1242188E+00
          2   -1    0    0  501    0  0.00000000000E+00  0.00000000000E+00  0.43304778678E+03  0.43304778678E+03  0.00000000000E+00 0. -1.
         -2   -1    0    0    0  501 -0.00000000000E+00 -0.00000000000E+00 -0.39839697006E+02  0.39839697006E+02  0.00000000000E+00 0.  1.
          5    1    1    2  502    0 -0.59794811323E+01 -0.34352209491E+02  0.16333584794E+02  0.38730955111E+02  0.41800000000E+01 0.  1.
         -5    1    1    2    0  502 -0.42677134965E+02  0.89451829453E+02  0.17820916974E+03  0.20395820214E+03  0.41800000000E+01 0.  1.
        -11    1    1    2    0    0  0.66194694578E+02 -0.59169055813E+02  0.19100677680E+03  0.21063310171E+03  0.00000000000E+00 0. -1.
         11    1    1    2    0    0 -0.17538078481E+02  0.40694358515E+01  0.76585584494E+01  0.19565224825E+02  0.00000000000E+00 0.  1.
</event>
<event>
 6    1  0.6447971E-006  0.1350416E+03  0.7561462E-02  0.1220161E+00
          1   -1    0    0  501    0  0.00000000000E+00  0.00000000000E+00  0.45428766533E+03  0.45428766533E+03  0.00000000000E+00 0. -1.
         -1   -1    0    0    0  501 -0.00000000000E+00 -0.00000000000E+00 -0.54650831715E+02  0.54650831715E+02  0.00000000000E+00 0.  1.
          5    1    1    2  502    0 -0.13688065354E+02 -0.91564056827E+02  0.21964635668E+03  0.23839742875E+03  0.41800000000E+01 0.  1.
         -5    1    1    2    0  502  0.31849485787E+02 -0.21172694817E+02 -0.61799812594E+00  0.38477617811E+02  0.41800000000E+01 0.  1.
        -11    1    1    2    0    0 -0.48614599163E+02  0.53233901255E+02  0.12837482812E+03  0.14723221111E+03  0.00000000000E+00 0. -1.
         11    1    1    2    0    0  0.30453178730E+02  0.59502850389E+02  0.52233646948E+02  0.84831239368E+02  0.00000000000E+00 0.  1.
</event>
<event>
 6    1  0.6447971E-006  0.1616214E+03  0.7561462E-02  0.1186878E+00
          1   -1    0    0  501    0  0.00000000000E+00  0.00000000000E+00  0.74892628890E+03  0.74892628890E+03  0.00000000000E+00 0. -1.
         -1   -1    0    0    0  501 -0.00000000000E+00 -0.00000000000E+00 -0.81993368793E+02  0.81993368793E+02  0.00000000000E+00 0.  1.
          5    1    1    2  502    0  0.20746739532E+02 -0.52951063102E+01  0.58997038958E+02  0.62901417773E+02  0.41800000000E+01 0. -1.
         -5    1    1    2    0  502 -0.23352473687E+02 -0.13777895771E+03  0.31603896797E+01  0.13984219562E+03  0.41800000000E+01 0.  1.
        -11    1    1    2    0    0 -0.26191898909E+02  0.12478880700E+03  0.54129956404E+03  0.55611462843E+03  0.00000000000E+00 0.  1.
         11    1    1    2    0    0  0.28797633063E+02  0.18285257011E+02  0.63475927434E+02  0.72061415873E+02  0.00000000000E+00 0. -1.
</event>
<event>
 6    1  0.6447971E-006  0.1385187E+03  0.7561462E-02  0.1215336E+00
         -2   -1    0    0    0  501 -0.00000000000E+00  0.00000000000E+00  0.23834357030E+02  0.23834357030E+02  0.00000000000E+00 0.  1.
          2   -1    0    0  501    0  0.00000000000E+00 -0.00000000000E+00 -0.96347142920E+03  0.96347142920E+03  0.00000000000E+00 0. -1.
          5    1    1    2  502    0 -0.35735378451E+02  0.21418929832E+01 -0.21156090970E+03  0.21460917011E+03  0.41800000000E+01 0. -1.
         -5    1    1    2    0  502  0.39388235246E+02  0.98854961352E+02 -0.18745504222E+03  0.21559360314E+03  0.41800000000E+01 0. -1.
        -11    1    1    2    0    0  0.12790860148E+02  0.13634342573E+02 -0.72933017631E+02  0.75290945415E+02  0.00000000000E+00 0. -1.
         11    1    1    2    0    0 -0.16443716943E+02 -0.11463119691E+03 -0.46768810262E+03  0.48181206758E+03  0.00000000000E+00 0.  1.
</event>
<event>
 6    1  0.6447971E-006  0.1388616E+03  0.7561462E-02  0.1214869E+00
          1   -1    0    0  501    0  0.00000000000E+00  0.00000000000E+00  0.24562455485E+02  0.24562455485E+02  0.00000000000E+00 0. -1.
         -1   -1    0    0    0  501 -0.00000000000E+00 -0.00000000000E+00 -0.11109574366E+04  0.11109574366E+04  0.00000000000E+00 0.  1.
          5    1    1    2  502    0  0.89669724358E+02 -0.19242134112E+02 -0.60896461781E+03  0.61584600131E+03  0.41800000000E+01 0. -1.
         -5    1    1    2    0  502  0.12735554517E+02  0.58154931502E+02 -0.15702417747E+03  0.16798290126E+03  0.41800000000E+01 0. -1.
        -11    1    1    2    0    0 -0.86910019250E+02 -0.28165826957E+01 -0.28777015959E+03  0.30062093961E+03  0.00000000000E+00 0.  1.
         11    1    1    2    0    0 -0.15495259625E+02 -0.36096214695E+02 -0.32636026224E+02  0.51070049871E+02  0.00000000000E+00 0. -1.
</event>
<event>
 6    1  0.6447971E-006  0.9677403E+02  0.7561462E-02  0.1287230E+00
          1   -1    0    0  501    0  0.00000000000E+00  0.00000000000E+00  0.81237878383E+02  0.81237878383E+02  0.00000000000E+00 0. -1.
         -1   -1    0    0    0  501 -0.00000000000E+00 -0.00000000000E+00 -0.16148267482E+03  0.16148267482E+03  0.00000000000E+00 0.  1.
          5    1    1    2  502    0  0.37124092380E+02 -0.16251350276E+01  0.13778658954E+02  0.39851764597E+02  0.41800000000E+01 0.  1.
         -5    1    1    2    0  502 -0.63183180465E+02  0.13624725156E+02 -0.85169558215E+02  0.10700034334E+03  0.41800000000E+01 0.  1.
        -11    1    1    2    0    0  0.58126623663E+02 -0.36200134829E+01  0.78276895631E+01  0.58762927088E+02  0.00000000000E+00 0. -1.
         11    1    1    2    0    0 -0.32067535578E+02 -0.83795766459E+01 -0.16681586740E+02  0.37105518174E+02  0.00000000000E+00 0.  1.
</event>
<event>
 6    1  0.6447971E-006  0.9927959E+02  0.7561462E-02  0.1281818E+00
         -1   -1    0    0    0  501 -0.00000000000E+00  0.00000000000E+00  0.27973011073E+02  0.27973011073E+02  0.00000000000E+00 0.  1.
          1   -1    0    0  501    0  0.00000000000E+00 -0.00000000000E+00 -0.50431952271E+03  0.50431952271E+03  0.00000000000E+00 0. -1.
          5    1    1    2  502    0 -0.57086264414E+02 -0.62241802275E+02 -0.10107623371E+03  0.13178300708E+03  0.41800000000E+01 0. -1.
         -5    1    1    2    0  502  0.25611793358E+02  0.26971745005E+02 -0.12912563522E+03  0.13444084594E+03  0.41800000000E+01 0. -1.
        -11    1    1    2    0    0 -0.21104171346E+01 -0.15529841578E+02 -0.37144485900E+01  0.16106736734E+02  0.00000000000E+00 0.  1.
         11    1    1    2    0    0  0.33584888191E+02  0.50799898847E+02 -0.24243019412E+03  0.24996194402E+03  0.00000000000E+00 0. -1.
</event>
<event>
 6    1  0.6447971E-006  0.9743229E+02  0.7561462E-02  0.1285790E+00
         -1   -1    0    0    0  501 -0.00000000000E+00  0.00000000000E+00  0.32953093077E+03  0.32953093077E+03  0.00000000000E+00 0.  1.
          1   -1    0    0  501    0  0.00000000000E+00 -0.00000000000E+00 -0.37662815896E+02  0.37662815896E+02  0.00000000000E+00 0. -1.
          5    1    1    2  502    0  0.27603440365E+02 -0.50385518141E+02  0.17660305895E+03  0.18575996121E+03  0.41800000000E+01 0. -1.
         -5    1    1    2    0  502 -0.93392818724E+01  0.44350468820E+02  0.24072198754E+02  0.51489119466E+02  0.41800000000E+01 0. -1.
        -11    1    1    2    0    0  0.17688947911E+02 -0.33760986656E+02  0.29486372135E+02  0.48188683733E+02  0.00000000000E+00 0.  1.
         11    1    1    2    0    0 -0.35953106404E+02  0.39796035976E+02  0.61706485033E+02  0.81755982256E+02  0.00000000000E+00 0. -1.
</event>
<event>
 6    1  0.6447971E-006  0.1022563E+03  0.7561462E-02  0.1275622E+00
         -1   -1    0    0    0  501 -0.00000000000E+00  0.00000000000E+00  0.48375443171E+02  0.48375443171E+02  0.00000000000E+00 0.  1.
          1   -1    0    0  501    0  0.00000000000E+00 -0.00000000000E+00 -0.34289619460E+03  0.34289619460E+03  0.00000000000E+00 0. -1.
          5    1    1    2  502    0 -0.10002734321E+02 -0.47847190831E+02  0.34502169506E+01  0.49181142335E+02  0.41800000000E+01 0.  1.
         -5    1    1    2    0  502  0.46844312999E+02  0.38840964566E+02 -0.85938123440E+02  0.10538426661E+03  0.41800000000E+01 0.  1.
        -11    1    1    2    0    0 -0.62056655024E+02  0.22312693536E+02 -0.91135041600E+02  0.11249213543E+03  0.00000000000E+00 0.  1.
         11    1    1    2    0    0  0.25215076347E+02 -0.13306467270E+02 -0.12089780334E+03  0.12421409340E+03  0.00000000000E+00 0. -1.
</event>
<event>
 6    1  0.6447971E-006  0.9885861E+02  0.7561462E-02  0.1282715E+00
         -1   -1    0    0    0  501 -0.00000000000E+00  0.00000000000E+00  0.60254060276E+02  0.60254060276E+02  0.00000000000E+00 0.  1.
          1   -1    0    0  501    0  0.00000000000E+00 -0.00000000000E+00 -0.22425889742E+03  0.22425889742E+03  0.00000000000E+00 0. -1.
          5    1    1    2  502    0  0.59941026544E+02 -0.41747313308E+02 -0.88949947497E+02  0.11517521605E+03  0.41800000000E+01 0. -1.
         -5    1    1    2    0  502 -0.25059681063E+02  0.23022225134E+02  0.12720043410E+02  0.36568871591E+02  0.41800000000E+01 0. -1.
        -11    1    1    2    0    0  0.26569082733E+02  0.23590272988E+01 -0.55226768505E+02  0.61330882324E+02  0.00000000000E+00 0. -1.
         11    1    1    2    0    0 -0.61450428213E+02  0.16366060875E+02 -0.32548164553E+02  0.71437987737E+02  0.00000000000E+00 0.  1.
</event>
<event>
 6    1  0.6447971E-006  0.6957713E+02  0.7561462E-02  0.1361537E+00
         -2   -1    0    0    0  501 -0.00000000000E+00  0.00000000000E+00  0.54676178683E+03  0.54676178683E+03  0.00000000000E+00 0.  1.
          2   -1    0    0  501    0  0.00000000000E+00 -0.00000000000E+00 -0.24278680944E+02  0.24278680944E+02  0.00000000000E+00 0. -1.
          5    1    1    2  502    0  0.45029065853E+02  0.20894641347E+02  0.45219128523E+02  0.67278858440E+02  0.41800000000E+01 0.  1.
         -5    1    1    2    0  502 -0.31817254572E+02  0.12257489896E+02  0.29445835431E+03  0.29645535679E+03  0.41800000000E+01 0.  1.
        -11    1    1    2    0    0  0.11317603105E+02  0.26148620763E+01 -0.63528619202E+01  0.13239505214E+02  0.00000000000E+00 0. -1.
         11    1    1    2    0    0 -0.24529414386E+02 -0.35766993319E+02  0.18915848497E+03  0.19406674732E+03  0.00000000000E+00 0.  1.
</event>
<event>
 6    1  0.6447971E-006  0.8520812E+02  0.7561462E-02  0.1314889E+00
         -1   -1    0    0    0  501 -0.00000000000E+00  0.00000000000E+00  0.12192716976E+03  0.12192716976E+03  0.00000000000E+00 0.  1.
          1   -1    0    0  501    0  0.00000000000E+00 -0.00000000000E+00 -0.13523679448E+03  0.13523679448E+03  0.00000000000E+00 0. -1.
          5    1    1    2  502    0  0.26583711092E+02 -0.13025829582E+02 -0.49556430218E+02  0.57876403721E+02  0.41800000000E+01 0. -1.
         -5    1    1    2    0  502  0.92470911974E+01  0.68459104296E+02  0.46869172175E+02  0.83584384647E+02  0.41800000000E+01 0. -1.
        -11    1    1    2    0    0 -0.13618744370E+02 -0.44534176942E+02  0.38681515832E+02  0.60539431623E+02  0.00000000000E+00 0.  1.
         11    1    1    2    0    0 -0.22212057919E+02 -0.10899097772E+02 -0.49303882511E+02  0.55163744252E+02  0.00000000000E+00 0. -1.
</event>
<event>
 6    1  0.6447971E-006  0.1017227E+03  0.7561462E-02  0.1276715E+00
          2   -1    0    0  501    0  0.00000000000E+00  0.00000000000E+00  0.19209850307E+02  0.19209850307E+02  0.00000000000E+00 0.  1.
         -2   -1    0    0    0  501 -0.00000000000E+00 -0.00000000000E+00 -0.67563473502E+03  0.67563473502E+03  0.00000000000E+00 0. -1.
          5    1    1    2  502    0  0.34346456797E+02  0.21241495874E+02 -0.29356608726E+03  0.29636025413E+03  0.41800000000E+01 0. -1.
         -5    1    1    2    0  502 -0.48539237258E+02 -0.48780109007E+02 -0.14167742402E+03  0.15756116738E+03  0.41800000000E+01 0. -1.
        -11    1    1    2    0    0  0.33158685499E+00  0.59272883557E+02 -0.11736583553E+03  0.13148431095E+03  0.00000000000E+00 0. -1.
         11    1    1    2    0    0  0.13861193606E+02 -0.31734270424E+02 -0.10381553791E+03  0.10943885288E+03  0.00000000000E+00 0.  1.
</event>
<event>
 6    1  0.6447971E-006  0.1028054E+03  0.7561462E-02  0.1274505E+00
         -1   -1    0    0    0  501 -0.00000000000E+00  0.00000000000E+00  0.17085459185E+03  0.17085459185E+03  0.00000000000E+00 0.  1.
          1   -1    0    0  501    0  0.00000000000E+00 -0.00000000000E+00 -0.85187930254E+02  0.85187930254E+02  0.00000000000E+00 0. -1.
          5    1    1    2  502    0  0.14056469740E+01 -0.38294671919E+02 -0.15279764294E+02  0.41465664563E+02  0.41800000000E+01 0.  1.
         -5    1    1    2    0  502  0.46019503315E+02  0.56967652203E+02  0.79258758628E+02  0.10799320026E+03  0.41800000000E+01 0.  1.
        -11    1    1    2    0    0  0.27584713284E+01  0.26227628722E+02  0.28585930340E+02  0.38892841061E+02  0.00000000000E+00 0.  1.
         11    1    1    2    0    0 -0.50183621618E+02 -0.44900609005E+02 -0.68982630735E+01  0.67690816225E+02  0.00000000000E+00 0. -1.
</event>
<event>
 6    1  0.6447971E-006  0.1481595E+03  0.7561462E-02  0.1202753E+00
          3   -1    0    0  501    0  0.00000000000E+00  0.00000000000E+00  0.17918476201E+03  0.17918476201E+03  0.00000000000E+00 0. -1.
         -3   -1    0    0    0  501 -0.00000000000E+00 -0.00000000000E+00 -0.15859900463E+03  0.15859900463E+03  0.00000000000E+00 0.  1.
          5    1    1    2  502    0 -0.80748711497E+02 -0.33475317686E+02 -0.57791503693E+02  0.10487269235E+03  0.41800000000E+01 0.  1.
         -5    1    1    2    0  502 -0.25327540709E+02  0.65254063048E+02  0.50891004730E+01  0.70306105042E+02  0.41800000000E+01 0.  1.
        -11    1    1    2    0    0  0.10961336372E+03 -0.49745554296E+02  0.78326018636E+02  0.14361293421E+03  0.00000000000E+00 0. -1.
         11    1    1    2    0    0 -0.35371115090E+01  0.17966808935E+02 -0.50378580273E+01  0.18992035031E+02  0.00000000000E+00 0.  1.
</event>
<event>
 6    1  0.6447971E-006  0.1131927E+03  0.7561462E-02  0.1254769E+00
         -2   -1    0    0    0  501 -0.00000000000E+00  0.00000000000E+00  0.28324846536E+02  0.28324846536E+02  0.00000000000E+00 0.  1.
          2   -1    0    0  501    0  0.00000000000E+00 -0.00000000000E+00 -0.83474894299E+03  0.83474894299E+03  0.00000000000E+00 0. -1.
          5    1    1    2  502    0 -0.12417782169E+01 -0.92051104755E+00  0.79718715111E+01  0.91330438036E+01  0.41800000000E+01 0. -1.
         -5    1    1    2    0  502  0.97491196303E+02 -0.53144279001E+02 -0.44483988493E+03  0.45850719010E+03  0.41800000000E+01 0. -1.
        -11    1    1    2    0    0 -0.43485287644E+02  0.29949667912E+02 -0.30113159797E+03  0.30572568120E+03  0.00000000000E+00 0. -1.
         11    1    1    2    0    0 -0.52764130443E+02  0.24115122137E+02 -0.68424485064E+02  0.89707874422E+02  0.00000000000E+00 0.  1.
</event>
<event>
 6    1  0.6447971E-006  0.1238705E+03  0.7561462E-02  0.1236845E+00
         -2   -1    0    0    0  501 -0.00000000000E+00  0.00000000000E+00  0.20853712433E+02  0.20853712433E+02  0.00000000000E+00 0.  1.
          2   -1    0    0  501    0  0.00000000000E+00 -0.00000000000E+00 -0.87273038500E+03  0.87273038500E+03  0.00000000000E+00 0. -1.
          5    1    1    2  502    0 -0.40822582849E+02  0.55000431771E+02 -0.20311085640E+03  0.21438988584E+03  0.41800000000E+01 0.  1.
         -5    1    1    2    0  502 -0.33980483958E+02 -0.69216545022E+02 -0.18828358849E+03  0.20350377267E+03  0.41800000000E+01 0.  1.
        -11    1    1    2    0    0  0.86586971113E+02  0.19854969276E+02 -0.45069714499E+03  0.45936852295E+03  0.00000000000E+00 0. -1.
         11    1    1    2    0    0 -0.11783904306E+02 -0.56388560239E+01 -0.97850826897E+01  0.16321915978E+02  0.00000000000E+00 0.  1.
</event>
<event>
 6    1  0.6447971E-006  0.1343283E+03  0.7561462E-02  0.1221171E+00
         -1   -1    0    0    0  501 -0.00000000000E+00  0.00000000000E+00  0.12992578909E+03  0.12992578909E+03  0.00000000000E+00 0.  1.
          1   -1    0    0  501    0  0.00000000000E+00 -0.00000000000E+00 -0.22042746543E+03  0.22042746543E+03  0.00000000000E+00 0. -1.
          5    1    1    2  502    0  0.10072641004E+03  0.54711650944E+02  0.55594658935E+02  0.12746534011E+03  0.41800000000E+01 0. -1.
         -5    1    1    2    0  502 -0.13139152473E+02 -0.31561508292E+02 -0.55656445898E+01  0.34888607497E+02  0.41800000000E+01 0. -1.
        -11    1    1    2    0    0 -0.58439407505E+02  0.24731057834E+02 -0.10146428859E+03  0.11967368730E+03  0.00000000000E+00 0. -1.
         11    1    1    2    0    0 -0.29147850061E+02 -0.47881200485E+02 -0.39066402091E+02  0.68325619612E+02  0.00000000000E+00 0.  1.
</event>
<event>
 6    1  0.6447971E-006  0.2047255E+03  0.7561462E-02  0.1145812E+00
          2   -1    0    0  501    0  0.00000000000E+00  0.00000000000E+00  0.38136379495E+03  0.38136379495E+03  0.00000000000E+00 0. -1.
         -2   -1    0    0    0  501 -0.00000000000E+00 -0.00000000000E+00 -0.13260302737E+03  0.13260302737E+03  0.00000000000E+00 0.  1.
          5    1    1    2  502    0 -0.13448601774E+03 -0.11423513564E+03  0.10208670590E+03  0.20390027735E+03  0.41800000000E+01 0. -1.
         -5    1    1    2    0  502  0.13298146841E+02 -0.36681007725E+02 -0.15628197495E+02  0.42238015982E+02  0.41800000000E+01 0. -1.
        -11    1    1    2    0    0  0.57542229586E+02  0.77849275087E+02  0.25365496087E+02  0.10007510284E+03  0.00000000000E+00 0.  1.
         11    1    1    2    0    0  0.63645641308E+02  0.73066868276E+02  0.13693676309E+03  0.16775342614E+03  0.00000000000E+00 0. -1.
</event>
<event>
 6    1  0.6447971E-006  0.6341440E+02  0.7561462E-02  0.1384037E+00
         -3   -1    0    0    0  501 -0.00000000000E+00  0.00000000000E+00  0.40496736603E+02  0.40496736603E+02  0.00000000000E+00 0.  1.
          3   -1    0    0  501    0  0.00000000000E+00 -0.00000000000E+00 -0.34101784635E+03  0.34101784635E+03  0.00000000000E+00 0. -1.
          5    1    1    2  502    0 -0.18395428829E+02 -0.11854065614E+02  0.24411514921E+02  0.33050039851E+02  0.41800000000E+01 0. -1.
         -5    1    1    2    0  502  0.90874645410E+01  0.24386529862E+02 -0.12636119747E+03  0.12908101904E+03  0.41800000000E+01 0. -1.
        -11    1    1    2    0    0 -0.33640258185E+02 -0.10312100936E+02 -0.32722992497E+02  0.48049980587E+02  0.00000000000E+00 0.  1.
         11    1    1    2    0    0  0.42948222472E+02 -0.22203633120E+01 -0.16584843469E+03  0.17133354347E+03  0.00000000000E+00 0. -1.
</event>
<event>
 6    1  0.6447971E-006  0.9228278E+02  0.7561462E-02  0.1297416E+00
          2   -1    0    0  501    0  0.00000000000E+00  0.00000000000E+00  0.24294224217E+03  0.24294224217E+03  0.00000000000E+00 0. -1.
         -2   -1    0    0    0  501 -0.00000000000E+00 -0.00000000000E+00 -0.60043482795E+02  0.60043482795E+02  0.00000000000E+00 0.  1.
          5    1    1    2  502    0 -0.37235805667E+02 -0.34777280998E+02 -0.22181518241E+02  0.55726624236E+02  0.41800000000E+01 0. -1.
         -5    1    1    2    0  502 -0.18030705446E+01  0.35319550667E+02  0.79871926792E+02  0.87451236768E+02  0.41800000000E+01 0. -1.
        -11    1    1    2    0    0 -0.18932694290E+02  0.27537491633E+02  0.56377999236E+02  0.65538074097E+02  0.00000000000E+00 0.  1.
         11    1    1    2    0    0  0.57971570501E+02 -0.28079761303E+02  0.68830351584E+02  0.94269789860E+02  0.00000000000E+00 0. -1.
</event>
<event>
 6    1  0.6447971E-006  0.2100492E+03  0.7561462E-02  0.1141527E+00
         -1   -1    0    0    0  501 -0.00000000000E+00  0.00000000000E+00  0.33319476476E+03  0.33319476476E+03  0.00000000000E+00 0.  1.
          1   -1    0    0  501    0  0.00000000000E+00 -0.00000000000E+00 -0.18532708326E+03  0.18532708326E+03  0.00000000000E+00 0. -1.
          5    1    1    2  502    0 -0.17983842324E+03  0.67841292848E+02  0.13649145549E+03  0.23577889921E+03  0.41800000000E+01 0. -1.
         -5    1    1    2    0  502  0.13842549656E+03 -0.36707384621E+02  0.69152454453E+02  0.15908672019E+03  0.41800000000E+01 0.  1.
        -11    1    1    2    0    0 -0.31622964348E+01 -0.39154613936E+02 -0.66781954772E+02  0.77478470522E+02  0.00000000000E+00 0. -1.
         11    1    1    2    0    0  0.44575223122E+02  0.80207057085E+01  0.90057263358E+01  0.46177758101E+02  0.00000000000E+00 0.  1.
</event>
<event>
 6    1  0.6447971E-006  0.1185033E+03  0.7561462E-02  0.1245587E+00
         -2   -1    0    0    0  501 -0.00000000000E+00  0.00000000000E+00  0.69409877878E+03  0.69409877878E+03  0.00000000000E+00 0. -1.
          2   -1    0    0  501    0  0.00000000000E+00 -0.00000000000E+00 -0.23150663835E+02  0.23150663835E+02  0.00000000000E+00 0.  1.
          5    1    1    2  502    0 -0.33561099916E+02 -0.25950834942E+02  0.16406890111E+03  0.16951657728E+03  0.41800000000E+01 0.  1.
         -5    1    1    2    0  502  0.32126866603E+02  0.89112374074E+02  0.23287532694E+03  0.25143894103E+03  0.41800000000E+01 0.  1.
        -11    1    1    2    0    0  0.14346390420E+02 -0.78333121927E+02  0.26005118588E+03  0.27197153561E+03  0.00000000000E+00 0. -1.
         11    1    1    2    0    0 -0.12912157107E+02  0.15171582796E+02  0.13952701020E+02  0.24322388686E+02  0.00000000000E+00 0.  1.
</event>
<event>
 6    1  0.6447971E-006  0.1167252E+03  0.7561462E-02  0.1248599E+00
          2   -1    0    0  501    0  0.00000000000E+00  0.00000000000E+00  0.93567861460E+02  0.93567861460E+02  0.00000000000E+00 0. -1.
         -2   -1    0    0    0  501 -0.00000000000E+00 -0.00000000000E+00 -0.17534942809E+03  0.17534942809E+03  0.00000000000E+00 0.  1.
          5    1    1    2  502    0 -0.34813086999E+02 -0.50293965964E+01 -0.40043226929E+02  0.53461932993E+02  0.41800000000E+01 0.  1.
         -5    1    1    2    0  502  0.84939363716E+02  0.49913667313E+02 -0.19345374286E+02  0.10048773855E+03  0.41800000000E+01 0.  1.
        -11    1    1    2    0    0 -0.51645113420E+00  0.18736516336E+02 -0.28443814092E+02  0.34064267587E+02  0.00000000000E+00 0.  1.
         11    1    1    2    0    0 -0.49609825583E+02 -0.63620787053E+02  0.60508486729E+01  0.80903350421E+02  0.00000000000E+00 0. -1.
</event>
<event>
 6    1  0.6447971E-006  0.1637430E+03  0.7561462E-02  0.1184535E+00
          2   -1    0    0  501    0  0.00000000000E+00  0.00000000000E+00  0.21310174475E+03  0.21310174475E+03  0.00000000000E+00 0. -1.
         -2   -1    0    0    0  501 -0.00000000000E+00 -0.00000000000E+00 -0.31327637553E+03  0.31327637553E+03  0.00000000000E+00 0.  1.
          5    1    1    2  502    0 -0.53827773876E+02  0.50749304395E+02 -0.70237803057E+02  0.10209673117E+03  0.41800000000E+01 0. -1.
         -5    1    1    2    0  502 -0.76921053604E+02 -0.68024133100E+02 -0.17870377515E+03  0.20614713878E+03  0.41800000000E+01 0. -1.
        -11    1    1    2    0    0  0.69289593382E+02 -0.27533579742E+02  0.37776691336E+02  0.83583635795E+02  0.00000000000E+00 0.  1.
         11    1    1    2    0    0  0.61459234099E+02  0.44808408447E+02  0.11099025610E+03  0.13455061454E+03  0.00000000000E+00 0. -1.
</event>
<event>
 6    1  0.6447971E-006  0.1357403E+03  0.7561462E-02  0.1219178E+00
         -2   -1    0    0    0  501 -0.00000000000E+00  0.00000000000E+00  0.24330791762E+02  0.24330791762E+02  0.00000000000E+00 0.  1.
          2   -1    0    0  501    0  0.00000000000E+00 -0.00000000000E+00 -0.10534884016E+04  0.10534884016E+04  0.00000000000E+00 0. -1.
          5    1    1    2  502    0 -0.27289790367E+02 -0.16145143721E+02 -0.31879973759E+03  0.32039997411E+03  0.41800000000E+01 0. -1.
         -5    1    1    2    0  502 -0.84806130404E+02  0.57884647346E+02 -0.17609868978E+03  0.20388951197E+03  0.41800000000E+01 0. -1.
        -11    1    1    2    0    0  0.41577038765E+02 -0.50790842521E+02 -0.34854146154E+03  0.35466816921E+03  0.00000000000E+00 0. -1.
         11    1    1    2    0    0  0.70518882005E+02  0.90513388958E+01 -0.18571772097E+03  0.19886153810E+03  0.00000000000E+00 0.  1.
</event>
<event>
 6    1  0.6447971E-006  0.1564133E+03  0.7561462E-02  0.1192807E+00
         -1   -1    0    0    0  501 -0.00000000000E+00  0.00000000000E+00  0.15552463874E+04  0.15552463874E+04  0.00000000000E+00 0.  1.
          1   -1    0    0  501    0  0.00000000000E+00 -0.00000000000E+00 -0.18482596468E+02  0.18482596468E+02  0.00000000000E+00 0. -1.
          5    1    1    2  502    0  0.57933179439E+02 -0.45416347523E+02  0.55726144474E+03  0.56211803752E+03  0.41800000000E+01 0. -1.
         -5    1    1    2    0  502 -0.46301466364E+02 -0.83168584901E+02  0.34731559038E+03  0.36014779053E+03  0.41800000000E+01 0. -1.
        -11    1    1    2    0    0  0.16830003251E+02  0.10641404223E+03  0.56522064094E+03  0.57539688071E+03  0.00000000000E+00 0.  1.
         11    1    1    2    0    0 -0.28461716326E+02  0.22170890191E+02  0.66966114872E+02  0.76066275110E+02  0.00000000000E+00 0. -1.
</event>
<event>
 6    1  0.6447971E-006  0.1935943E+03  0.7561462E-02  0.1155259E+00
          1   -1    0    0  501    0  0.00000000000E+00  0.00000000000E+00  0.82636517266E+03  0.82636517266E+03  0.00000000000E+00 0. -1.
         -1   -1    0    0    0  501 -0.00000000000E+00 -0.00000000000E+00 -0.76362314135E+02  0.76362314135E+02  0.00000000000E+00 0.  1.
          5    1    1    2  502    0  0.99997785848E+02 -0.16765346219E+02  0.54272014546E+02  0.11508065855E+03  0.41800000000E+01 0. -1.
         -5    1    1    2    0  502 -0.63863144051E+02 -0.11700798501E+03  0.93074793181E+02  0.16263381951E+03  0.41800000000E+01 0.  1.
        -11    1    1    2    0    0 -0.39040667554E+02  0.31870639927E+02  0.98400220646E+02  0.11055548306E+03  0.00000000000E+00 0.  1.
         11    1    1    2    0    0  0.29060257567E+01  0.10190269130E+03  0.50425583015E+03  0.51445752567E+03  0.00000000000E+00 0. -1.
</event>
<event>
 6    1  0.6447971E-006  0.9172159E+02  0.7561462E-02  0.1298735E+00
          1   -1    0    0  501    0  0.00000000000E+00  0.00000000000E+00  0.28194091014E+03  0.28194091014E+03  0.00000000000E+00 0. -1.
         -1   -1    0    0    0  501 -0.00000000000E+00 -0.00000000000E+00 -0.45496823520E+02  0.45496823520E+02  0.00000000000E+00 0.  1.
          5    1    1    2  502    0 -0.11036096079E+02  0.46981545776E+02  0.95434771869E+02  0.10702489964E+03  0.41800000000E+01 0.  1.
         -5    1    1    2    0  502  0.66954819328E+01 -0.43650945715E+02 -0.88234281838E+01  0.45227865582E+02  0.41800000000E+01 0.  1.
        -11    1    1    2    0    0 -0.13477860833E+02 -0.44119513859E+02  0.71554051029E+02  0.85136164198E+02  0.00000000000E+00 0.  1.
         11    1    1    2    0    0  0.17818474979E+02  0.40788913798E+02  0.78278691902E+02  0.90048804242E+02  0.00000000000E+00 0. -1.
</event>
<event>
 6    1  0.6447971E-006  0.1107086E+03  0.7561462E-02  0.1259263E+00
          3   -1    0    0  501    0  0.00000000000E+00  0.00000000000E+00  0.42149664590E+03  0.42149664590E+03  0.00000000000E+00 0. -1.
         -3   -1    0    0    0  501 -0.00000000000E+00 -0.00000000000E+00 -0.32259649013E+02  0.32259649013E+02  0.00000000000E+00 0.  1.
          5    1    1    2  502    0 -0.18874913121E+01  0.49798573935E+02  0.11475625070E+03  0.12517959125E+03  0.41800000000E+01 0.  1.
         -5    1    1    2    0  502  0.10664621307E+02 -0.76645706304E+02  0.13920124829E+03  0.15931967351E+03  0.41800000000E+01 0.  1.
        -11    1    1    2    0    0 -0.35098315138E+02  0.48472538657E+02  0.52005229649E+02  0.79284441350E+02  0.00000000000E+00 0.  1.
         11    1    1    2    0    0  0.26321185142E+02 -0.21625406287E+02  0.83274268237E+02  0.89972588797E+02  0.00000000000E+00 0. -1.
</event>
<event>
 6    1  0.6447971E-006  0.1134633E+03  0.7561462E-02  0.1254288E+00
         -1   -1    0    0    0  501 -0.00000000000E+00  0.00000000000E+00  0.33393024261E+02  0.33393024261E+02  0.00000000000E+00 0.  1.
          1   -1    0    0  501    0  0.00000000000E+00 -0.00000000000E+00 -0.38855666489E+03  0.38855666489E+03  0.00000000000E+00 0. -1.
          5    1    1    2  502    0  0.10405871698E+02  0.79041090820E+02 -0.12522309613E+03  0.14850613593E+03  0.41800000000E+01 0. -1.
         -5    1    1    2    0  502 -0.23265608736E+02 -0.44651121978E+02 -0.81702129263E+02  0.96061030444E+02  0.41800000000E+01 0. -1.
        -11    1    1    2    0    0 -0.34497573181E+01  0.29974911817E+02 -0.57612162427E+02  0.65035047655E+02  0.00000000000E+00 0.  1.
         11    1    1    2    0    0  0.16309494356E+02 -0.64364880659E+02 -0.90626252802E+02  0.11234747512E+03  0.00000000000E+00 0. -1.
</event>
<event>
 6    1  0.6447971E-006  0.9840384E+02  0.7561462E-02  0.1283689E+00
         -1   -1    0    0    0  501 -0.00000000000E+00  0.00000000000E+00  0.44196802891E+03  0.44196802891E+03  0.00000000000E+00 0.  1.
          1   -1    0    0  501    0  0.00000000000E+00 -0.00000000000E+00 -0.38713717114E+02  0.38713717114E+02  0.00000000000E+00 0. -1.
          5    1    1    2  502    0 -0.23042716094E+02  0.38700396089E+02  0.27153603688E+03  0.27527800338E+03  0.41800000000E+01 0.  1.
         -5    1    1    2    0  502  0.34874947683E+02  0.25932102376E+02  0.18647196257E+02  0.47475533044E+02  0.41800000000E+01 0.  1.
        -11    1    1    2    0    0 -0.36588661940E+02  0.21879134035E+01  0.54540197881E+02  0.65712634497E+02  0.00000000000E+00 0.  1.
         11    1    1    2    0    0  0.24756430352E+02 -0.66820411868E+02  0.58530880775E+02  0.92215575096E+02  0.00000000000E+00 0. -1.
</event>
<event>
 6    1  0.6447971E-006  0.1601763E+03  0.7561462E-02  0.1188498E+00
         -1   -1    0    0    0  501 -0.00000000000E+00  0.00000000000E+00  0.34498579114E+02  0.34498579114E+02  0.00000000000E+00 0.  1.
          1   -1    0    0  501    0  0.00000000000E+00 -0.00000000000E+00 -0.84498393779E+03  0.84498393779E+03  0.00000000000E+00 0. -1.
          5    1    1    2  502    0  0.13165103503E+03  0.36496969775E+02 -0.23704808050E+03  0.27362983882E+03  0.41800000000E+01 0.  1.
         -5    1    1    2    0  502 -0.23129817444E+01 -0.35744843574E+02 -0.13367293090E+03  0.13845204434E+03  0.41800000000E+01 0.  1.
        -11    1    1    2    0    0 -0.59472714100E+02  0.35125189160E+02 -0.29203045690E+03  0.30008760453E+03  0.00000000000E+00 0. -1.
         11    1    1    2    0    0 -0.69865339184E+02 -0.35877315361E+02 -0.14773389038E+03  0.16731302921E+03  0.00000000000E+00 0.  1.
</event>
<event>
 6    1  0.6447971E-006  0.9944012E+02  0.7561462E-02  0.1281478E+00
         -2   -1    0    0    0  501 -0.00000000000E+00  0.00000000000E+00  0.32136327145E+02  0.32136327145E+02  0.00000000000E+00 0.  1.
          2   -1    0    0  501    0  0.00000000000E+00 -0.00000000000E+00 -0.37345129696E+03  0.37345129696E+03  0.00000000000E+00 0. -1.
          5    1    1    2  502    0  0.34154085619E+02 -0.53906668105E+02 -0.75743892245E+02  0.99131428130E+02  0.41800000000E+01 0. -1.
         -5    1    1    2    0  502 -0.20267376694E+02  0.56577868145E+02 -0.10663080573E+03  0.12247213092E+03  0.41800000000E+01 0. -1.
        -11    1    1    2    0    0  0.29933872805E+02 -0.67140310076E+01 -0.16360526872E+02  0.34767539358E+02  0.00000000000E+00 0.  1.
         11    1    1    2    0    0 -0.43820581730E+02  0.40428309681E+01 -0.14257974497E+03  0.14921652570E+03  0.00000000000E+00 0. -1.
</event>
<event>
 6    1  0.6447971E-006  0.1803837E+03  0.7561462E-02  0.1167432E+00
          1   -1    0    0  501    0  0.00000000000E+00  0.00000000000E+00  0.58138071999E+03  0.58138071999E+03  0.00000000000E+00 0. -1.
         -1   -1    0    0    0  501 -0.00000000000E+00 -0.00000000000E+00 -0.62033229747E+02  0.62033229747E+02  0.00000000000E+00 0.  1.
          5    1    1    2  502    0 -0.22426654207E+02 -0.23978675937E+01  0.25311836632E+02  0.34159421271E+02  0.41800000000E+01 0.  1.
         -5    1    1    2    0  502  0.15742712602E+03  0.82412469922E+02  0.19199100757E+03  0.26163549949E+03  0.41800000000E+01 0.  1.
        -11    1    1    2    0    0 -0.12377026094E+03 -0.82287355539E+02  0.30150539679E+03  0.33614846522E+03  0.00000000000E+00 0. -1.
         11    1    1    2    0    0 -0.11230210864E+02  0.22727532104E+01  0.53924925107E+00  0.11470563759E+02  0.00000000000E+00 0.  1.
</event>
<event>
 6    1  0.6447971E-006  0.1116558E+03  0.7561462E-02  0.1257534E+00
         -3   -1    0    0    0  501 -0.00000000000E+00  0.00000000000E+00  0.15438045095E+03  0.15438045095E+03  0.00000000000E+00 0.  1.
          3   -1    0    0  501    0  0.00000000000E+00 -0.00000000000E+00 -0.11118086125E+03  0.11118086125E+03  0.00000000000E+00 0. -1.
          5    1    1    2  502    0 -0.66926538549E+01  0.94788367962E+02  0.30468875916E+02  0.99877180157E+02  0.41800000000E+01 0.  1.
         -5    1    1    2    0  502  0.14033233348E+02 -0.36643777760E+02  0.35996923494E+02  0.53413003920E+02  0.41800000000E+01 0.  1.
        -11    1    1    2    0    0 -0.35229088680E+02 -0.17224376133E+02 -0.43687395588E+02  0.58705675668E+02  0.00000000000E+00 0. -1.
         11    1    1    2    0    0  0.27888509187E+02 -0.40920214070E+02  0.20421185884E+02  0.53565452459E+02  0.00000000000E+00 0.  1.
</event>
<event>
 6    1  0.6447971E-006  0.1305878E+03  0.7561462E-02  0.1226586E+00
         -2   -1    0    0    0  501 -0.00000000000E+00  0.00000000000E+00  0.11936396384E+03  0.11936396384E+03  0.00000000000E+00 0.  1.
          2   -1    0    0  501    0  0.00000000000E+00 -0.00000000000E+00 -0.15812760612E+03  0.15812760612E+03  0.00000000000E+00 0. -1.
          5    1    1    2  502    0 -0.32538216055E+02 -0.12774324007E+00 -0.13647450896E+02  0.35531354299E+02  0.41800000000E+01 0. -1.
         -5    1    1    2    0  502  0.10799997872E+03  0.24420782911E+02  0.20770289051E+02  0.11273529770E+03  0.41800000000E+01 0. -1.
        -11    1    1    2    0    0 -0.31603629733E+02  0.32814665858E+02 -0.32556593387E+02  0.55995745201E+02  0.00000000000E+00 0.  1.
         11    1    1    2    0    0 -0.43858132930E+02 -0.57107705530E+02 -0.13329887048E+02  0.73229172764E+02  0.00000000000E+00 0. -1.
</event>
<event>
 6    1  0.6447971E-006  0.1035323E+03  0.7561462E-02  0.1273039E+00
          1   -1    0    0  501    0  0.00000000000E+00  0.00000000000E+00  0.23430348089E+02  0.23430348089E+02  0.00000000000E+00 0. -1.
         -1   -1    0    0    0  501 -0.00000000000E+00 -0.00000000000E+00 -0.55667266002E+03  0.55667266002E+03  0.00000000000E+00 0.  1.
          5    1    1    2  502    0 -0.52937766445E+02  0.46037400622E+02 -0.29094813962E+03  0.29931612339E+03  0.41800000000E+01 0.  1.
         -5    1    1    2    0  502  0.23116823002E+02 -0.38774013330E+02 -0.65243216430E+02  0.79447852744E+02  0.41800000000E+01 0.  1.
        -11    1    1    2    0    0  0.36330619151E+01  0.38527547769E+02 -0.10602781911E+03  0.11286925844E+03  0.00000000000E+00 0.  1.
         11    1    1    2    0    0  0.26187881528E+02 -0.45790935060E+02 -0.71023136778E+02  0.88469773541E+02  0.00000000000E+00 0. -1.
</event>
<event>
 6    1  0.6447971E-006  0.1312950E+03  0.7561462E-02  0.1225547E+00
         -2   -1    0    0    0  501 -0.00000000000E+00  0.00000000000E+00  0.76633639487E+02  0.76633639487E+02  0.00000000000E+00 0.  1.
          2   -1    0    0  501    0  0.00000000000E+00 -0.00000000000E+00 -0.56407142091E+03  0.56407142091E+03  0.00000000000E+00 0. -1.
          5    1    1    2  502    0 -0.10349426262E+03  0.36482007597E+02 -0.26276920386E+03  0.28479312873E+03  0.41800000000E+01 0. -1.
         -5    1    1    2    0  502  0.37597131050E+02  0.30122622788E+02  0.45007532058E+02  0.66061085434E+02  0.41800000000E+01 0.  1.
        -11    1    1    2    0    0 -0.55738353931E+01 -0.15731323904E+02 -0.26324996261E+02  0.31169658659E+02  0.00000000000E+00 0. -1.
         11    1    1    2    0    0  0.71470966968E+02 -0.50873306481E+02 -0.24335111336E+03  0.25868118758E+03  0.00000000000E+00 0.  1.
</event>
<event>
 6    1  0.6447971E-006  0.2162436E+03  0.7561462E-02  0.1136715E+00
         -1   -1    0    0    0  501 -0.00000000000E+00  0.00000000000E+00  0.10760337712E+03  0.10760337712E+03  0.00000000000E+00 0.  1.
          1   -1    0    0  501    0  0.00000000000E+00 -0.00000000000E+00 -0.48542287697E+03  0.48542287697E+03  0.00000000000E+00 0. -1.
          5    1    1    2  502    0  0.97808010497E+02 -0.94455331040E+01 -0.13920982299E+03  0.17044785780E+03  0.41800000000E+01 0. -1.
         -5    1    1    2    0  502  0.58437194770E+02 -0.11498428261E+03 -0.82791893968E+02  0.15332403949E+03  0.41800000000E+01 0. -1.
        -11    1    1    2    0    0 -0.64869469032E+02  0.81396888636E+02 -0.30821985689E+02  0.10855181387E+03  0.00000000000E+00 0.  1.
         11    1    1    2    0    0 -0.91375736236E+02  0.43032927075E+02 -0.12499579721E+03  0.16070254293E+03  0.00000000000E+00 0. -1.
</event>
<event>
 6    1  0.6447971E-006  0.1142992E+03  0.7561462E-02  0.1252809E+00
         -1   -1    0    0    0  501 -0.00000000000E+00  0.00000000000E+00  0.20094709913E+03  0.20094709913E+03  0.00000000000E+00 0.  1.
          1   -1    0    0  501    0  0.00000000000E+00 -0.00000000000E+00 -0.82320743358E+02  0.82320743358E+02  0.00000000000E+00 0. -1.
          5    1    1    2  502    0  0.43129830589E+02  0.90271683110E+02  0.24808101511E+02  0.10316042535E+03  0.41800000000E+01 0.  1.
         -5    1    1    2    0  502 -0.27307019011E+02 -0.22495993736E+02  0.41255009550E+02  0.54508634494E+02  0.41800000000E+01 0.  1.
        -11    1    1    2    0    0  0.13888368553E+01  0.11567593075E+02 -0.15682848217E+02  0.19536883210E+02  0.00000000000E+00 0. -1.
         11    1    1    2    0    0 -0.17211648433E+02 -0.79343282449E+02  0.68246092931E+02  0.10606189944E+03  0.00000000000E+00 0.  1.
</event>
<event>
 6    1  0.6447971E-006  0.2164906E+03  0.7561462E-02  0.1136527E+00
          4   -1    0    0  501    0  0.00000000000E+00  0.00000000000E+00  0.23424334383E+03  0.23424334383E+03  0.00000000000E+00 0. -1.
         -4   -1    0    0    0  501 -0.00000000000E+00 -0.00000000000E+00 -0.27179488036E+03  0.27179488036E+03  0.00000000000E+00 0.  1.
          5    1    1    2  502    0  0.14774974696E+03 -0.12948267618E+03 -0.36542502924E+02  0.19987140385E+03  0.41800000000E+01 0. -1.
         -5    1    1    2    0  502  0.40004827816E+01 -0.19490543803E+02 -0.62938246525E+02  0.66140611094E+02  0.41800000000E+01 0. -1.
        -11    1    1    2    0    0 -0.33053119122E+02  0.57382286896E+02  0.61092823778E+02  0.90097550745E+02  0.00000000000E+00 0. -1.
         11    1    1    2    0    0 -0.11869711062E+03  0.91590933084E+02  0.83638913873E+00  0.14992865850E+03  0.00000000000E+00 0.  1.
</event>
<event>
 6    1  0.6447971E-006  0.9383689E+02  0.7561462E-02  0.1293817E+00
         -3   -1    0    0    0  501 -0.00000000000E+00  0.00000000000E+00  0.84286310903E+02  0.84286310903E+02  0.00000000000E+00 0.  1.
          3   -1    0    0  501    0  0.00000000000E+00 -0.00000000000E+00 -0.16913794433E+03  0.16913794433E+03  0.00000000000E+00 0. -1.
          5    1    1    2  502    0 -0.30440162323E+02 -0.46696409257E+02 -0.13483821954E+02  0.57501686708E+02  0.41800000000E+01 0. -1.
         -5    1    1    2    0  502  0.40241306150E+02  0.52149176910E+02  0.16914724354E+02  0.68135744459E+02  0.41800000000E+01 0. -1.
        -11    1    1    2    0    0  0.10268578886E+02  0.26286106447E+02  0.36735642019E+01  0.28458710063E+02  0.00000000000E+00 0.  1.
         11    1    1    2    0    0 -0.20069722713E+02 -0.31738874100E+02 -0.91956100026E+02  0.99328114001E+02  0.00000000000E+00 0. -1.
</event>
<event>
 6    1  0.6447971E-006  0.1162878E+03  0.7561462E-02  0.1249350E+00
         -2   -1    0    0    0  501 -0.00000000000E+00  0.00000000000E+00  0.23391230121E+03  0.23391230121E+03  0.00000000000E+00 0.  1.
          2   -1    0    0  501    0  0.00000000000E+00 -0.00000000000E+00 -0.75977248664E+02  0.75977248664E+02  0.00000000000E+00 0. -1.
          5    1    1    2  502    0  0.42554435623E+02 -0.24092837861E+02  0.68008711765E+02  0.83868957925E+02  0.41800000000E+01 0. -1.
         -5    1    1    2    0  502 -0.16584585730E+02  0.87962941508E+02  0.59208900668E+02  0.10740434759E+03  0.41800000000E+01 0. -1.
        -11    1    1    2    0    0  0.68504523854E+01 -0.60507003438E+02  0.51391817298E+02  0.79681522626E+02  0.00000000000E+00 0. -1.
         11    1    1    2    0    0 -0.32820302278E+02 -0.33631002097E+01 -0.20674377184E+02  0.38934721735E+02  0.00000000000E+00 0.  1.
</event>
<event>
 6    1  0.6447971E-006  0.1369336E+03  0.7561462E-02  0.1217516E+00
          2   -1    0    0  501    0  0.00000000000E+00  0.00000000000E+00  0.36016927181E+03  0.36016927181E+03  0.00000000000E+00 0. -1.
         -2   -1    0    0    0  501 -0.00000000000E+00 -0.00000000000E+00 -0.63048002220E+02  0.63048002220E+02  0.00000000000E+00 0.  1.
          5    1    1    2  502    0  0.98821686396E+02  0.21990285012E+02  0.65372410823E+02  0.12058326100E+03  0.41800000000E+01 0.  1.
         -5    1    1    2    0  502 -0.20720188047E+02  0.44433859680E+02  0.96082903571E+02  0.10794948280E+03  0.41800000000E+01 0.  1.
        -11    1    1    2    0    0 -0.77279869821E+02 -0.24022842652E+02  0.40498494035E+02  0.90495321800E+02  0.00000000000E+00 0.  1.
         11    1    1    2    0    0 -0.82162852928E+00 -0.42401302040E+02  0.95167461157E+02  0.10418920842E+03  0.00000000000E+00 0. -1.
</event>
<event>
 6    1  0.6447971E-006  0.1485082E+03  0.7561462E-02  0.1202318E+00
          1   -1    0    0  501    0  0.00000000000E+00  0.00000000000E+00  0.25349138837E+03  0.25349138837E+03  0.00000000000E+00 0. -1.
         -1   -1    0    0    0  501 -0.00000000000E+00 -0.00000000000E+00 -0.10598968036E+03  0.10598968036E+03  0.00000000000E+00 0.  1.
          5    1    1    2  502    0 -0.14404697510E+02  0.65061071277E+02  0.70853750028E+02  0.97355865767E+02  0.41800000000E+01 0. -1.
         -5    1    1    2    0  502 -0.86141685467E+02  0.36102950485E+01 -0.11375309513E+02  0.87064885412E+02  0.41800000000E+01 0. -1.
        -11    1    1    2    0    0  0.80775029092E+02 -0.92464205317E+01  0.75992044992E+02  0.11128743199E+03  0.00000000000E+00 0. -1.
         11    1    1    2    0    0  0.19771353885E+02 -0.59424945794E+02  0.12031222501E+02  0.63772885554E+02  0.00000000000E+00 0.  1.
</event>
<event>
 6    1  0.6447971E-006  0.1021518E+03  0.7561462E-02  0.1275835E+00
          2   -1    0    0  501    0  0.00000000000E+00  0.00000000000E+00  0.19067963151E+03  0.19067963151E+03  0.00000000000E+00 0. -1.
         -2   -1    0    0    0  501 -0.00000000000E+00 -0.00000000000E+00 -0.89832687809E+02  0.89832687809E+02  0.00000000000E+00 0.  1.
          5    1    1    2  502    0  0.59869094699E+01 -0.27985647140E+02  0.43810124455E+02  0.52496084955E+02  0.41800000000E+01 0. -1.
         -5    1    1    2    0  502  0.18263344045E+02  0.73347232950E+02 -0.34255780919E+02  0.83092100969E+02  0.41800000000E+01 0. -1.
        -11    1    1    2    0    0 -0.49350266180E+02 -0.17757038101E+01  0.11663950583E+02  0.50741005502E+02  0.00000000000E+00 0.  1.
         11    1    1    2    0    0  0.25100012666E+02 -0.43585882000E+02  0.79628649586E+02  0.94183127897E+02  0.00000000000E+00 0. -1.
</event>
<event>
 6    1  0.6447971E-006  0.1035845E+03  0.7561462E-02  0.1272934E+00
         -2   -1    0    0    0  501 -0.00000000000E+00  0.00000000000E+00  0.22198506200E+02  0.22198506200E+02  0.00000000000E+00 0.  1.
          2   -1    0    0  501    0  0.00000000000E+00 -0.00000000000E+00 -0.87949330017E+03  0.87949330017E+03  0.00000000000E+00 0. -1.
          5    1    1    2  502    0  0.16705282904E+02  0.80697015388E+02 -0.39207196163E+03  0.40066066723E+03  0.41800000000E+01 0.  1.
         -5    1    1    2    0  502 -0.99007598371E+01  0.28157771753E+01  0.67721826394E+01  0.13011091582E+02  0.41800000000E+01 0.  1.
        -11    1    1    2    0    0  0.34929051781E+02 -0.42781637276E+02 -0.13245037791E+03  0.14350404090E+03  0.00000000000E+00 0.  1.
         11    1    1    2    0    0 -0.41733574848E+02 -0.40731155287E+02 -0.33954463707E+03  0.34451600666E+03  0.00000000000E+00 0. -1.
</event>
<event>
 6    1  0.6447971E-006  0.1092982E+03  0.7561462E-02  0.1261875E+00
         -1   -1    0    0    0  501 -0.00000000000E+00  0.00000000000E+00  0.25815892543E+02  0.25815892543E+02  0.00000000000E+00 0.  1.
          1   -1    0    0  501    0  0.00000000000E+00 -0.00000000000E+00 -0.70232228461E+03  0.70232228461E+03  0.00000000000E+00 0. -1.
          5    1    1    2  502    0 -0.64599625033E+02 -0.42039811159E+01 -0.50385544098E+02  0.82139883526E+02  0.41800000000E+01 0. -1.
         -5    1    1    2    0  502  0.20025932045E+02 -0.41653113633E+02 -0.19663359534E+03  0.20203530148E+03  0.41800000000E+01 0. -1.
        -11    1    1    2    0    0  0.41366103289E+02  0.70893001005E+02 -0.37551095206E+03  0.38437669962E+03  0.00000000000E+00 0. -1.
         11    1    1    2    0    0  0.32075896978E+01 -0.25035906256E+02 -0.53976300570E+02  0.59586292525E+02  0.00000000000E+00 0.  1.
</event>
<event>
 6    1  0.6447971E-006  0.9851485E+02  0.7561462E-02  0.1283450E+00
         -2   -1    0    0    0  501 -0.00000000000E+00  0.00000000000E+00  0.20595208861E+02  0.20595208861E+02  0.00000000000E+00 0. -1.
          2   -1    0    0  501    0  0.00000000000E+00 -0.00000000000E+00 -0.60733417199E+03  0.60733417199E+03  0.00000000000E+00 0.  1.
          5    1    1    2  502    0 -0.49576294187E+02 -0.33749020653E+02 -0.74640458166E+02  0.95840887598E+02  0.41800000000E+01 0. -1.
         -5    1    1    2    0  502  0.30234515238E+02  0.37057835835E+02 -0.21454083340E+03  0.21984688014E+03  0.41800000000E+01 0. -1.
        -11    1    1    2    0    0  0.11793505716E+02 -0.45006625226E+02 -0.20833900512E+03  0.21347089766E+03  0.00000000000E+00 0.  1.
         11    1    1    2    0    0  0.75482732334E+01  0.41697810044E+02 -0.89218666437E+02  0.98770715458E+02  0.00000000000E+00 0. -1.
</event>
<event>
 6    1  0.6447971E-006  0.9298643E+02  0.7561462E-02  0.1295777E+00
          2   -1    0    0  501    0  0.00000000000E+00  0.00000000000E+00  0.71070658368E+03  0.71070658368E+03  0.00000000000E+00 0. -1.
         -2   -1    0    0    0  501 -0.00000000000E+00 -0.00000000000E+00 -0.23451988442E+02  0.23451988442E+02  0.00000000000E+00 0.  1.
          5    1    1    2  502    0 -0.35937915940E+02  0.17387187156E+02  0.16481775623E+02  0.43393195400E+02  0.41800000000E+01 0. -1.
         -5    1    1    2    0  502 -0.36150716552E+02  0.21167728531E+01  0.33655597023E+03  0.33852436919E+03  0.41800000000E+01 0. -1.
        -11    1    1    2    0    0  0.63028052296E+02  0.22106934806E+02  0.23412832890E+03  0.24346935399E+03  0.00000000000E+00 0. -1.
         11    1    1    2    0    0  0.90605801959E+01 -0.41610894815E+02  0.10008852048E+03  0.10877165354E+03  0.00000000000E+00 0.  1.
</event>
<event>
 6    1  0.6447971E-006  0.1159620E+03  0.7561462E-02  0.1249911E+00
          2   -1    0    0  501    0  0.00000000000E+00  0.00000000000E+00  0.34394742499E+03  0.34394742499E+03  0.00000000000E+00 0. -1.
         -2   -1    0    0    0  501 -0.00000000000E+00 -0.00000000000E+00 -0.52826009042E+02  0.52826009042E+02  0.00000000000E+00 0.  1.
          5    1    1    2  502    0  0.33063900616E+02  0.75285806615E+02  0.11966849365E+03  0.14525561942E+03  0.41800000000E+01 0.  1.
         -5    1    1    2    0  502  0.34107669705E+02 -0.37230581280E+02  0.11954842101E+02  0.52056123221E+02  0.41800000000E+01 0.  1.
        -11    1    1    2    0    0 -0.72196330276E+02 -0.12981229190E+02  0.15758065857E+03  0.17381739376E+03  0.00000000000E+00 0. -1.
         11    1    1    2    0    0  0.50247599554E+01 -0.25073996145E+02  0.19174216245E+01  0.25644297631E+02  0.00000000000E+00 0.  1.
</event>
<event>
 6    1  0.6447971E-006  0.9589090E+02  0.7561462E-02  0.1289182E+00
          1   -1    0    0  501    0  0.00000000000E+00  0.00000000000E+00  0.35935351223E+03  0.35935351223E+03  0.00000000000E+00 0. -1.
         -1   -1    0    0    0  501 -0.00000000000E+00 -0.00000000000E+00 -0.48571121065E+02  0.48571121065E+02  0.00000000000E+00 0.  1.
          5    1    1    2  502    0  0.60159386029E+02  0.18726093987E+02  0.12117216779E+03  0.13663815342E+03  0.41800000000E+01 0. -1.
         -5    1    1    2    0  502 -0.23737178853E+02  0.28346401147E+02 -0.12680943453E+02  0.39309678767E+02  0.41800000000E+01 0. -1.
        -11    1    1    2    0    0  0.20872509095E+02 -0.15607669763E+02  0.13747347064E+03  0.13992217881E+03  0.00000000000E+00 0. -1.
         11    1    1    2    0    0 -0.57294716271E+02 -0.31464825371E+02  0.64817696187E+02  0.92054622302E+02  0.00000000000E+00 0.  1.
</event>
<event>
 6    1  0.6447971E-006  0.8905647E+02  0.7561462E-02  0.1305153E+00
          2   -1    0    0  501    0  0.00000000000E+00  0.00000000000E+00  0.35898962401E+02  0.35898962401E+02  0.00000000000E+00 0. -1.
         -2   -1    0    0    0  501 -0.00000000000E+00 -0.00000000000E+00 -0.62993774318E+03  0.62993774318E+03  0.00000000000E+00 0.  1.
          5    1    1    2  502    0 -0.73710689212E+02  0.19159242752E+02 -0.25390653484E+03  0.26511571647E+03  0.41800000000E+01 0.  1.
         -5    1    1    2    0  502  0.48089878822E+02  0.12610477014E+01 -0.28691749128E+03  0.29095248046E+03  0.41800000000E+01 0.  1.
        -11    1    1    2    0    0 -0.10671620138E+02 -0.12441931861E+02 -0.67871906126E+02  0.69823210940E+02  0.00000000000E+00 0.  1.
         11    1    1    2    0    0  0.36292430528E+02 -0.79783585921E+01  0.14657151466E+02  0.39945297702E+02  0.00000000000E+00 0. -1.
</event>
<event>
 6    1  0.6447971E-006  0.1426742E+03  0.7561462E-02  0.1209775E+00
          2   -1    0    0  501    0  0.00000000000E+00  0.00000000000E+00  0.11714235404E+04  0.11714235404E+04  0.00000000000E+00 0.  1.
         -2   -1    0    0    0  501 -0.00000000000E+00 -0.00000000000E+00 -0.22506011760E+02  0.22506011760E+02  0.00000000000E+00 0. -1.
          5    1    1    2  502    0 -0.41201719616E+02 -0.19774048829E+02  0.46228834088E+02  0.65139636225E+02  0.41800000000E+01 0.  1.
         -5    1    1    2    0  502  0.36493769163E+02 -0.89656002212E+02  0.38525732289E+03  0.39725391270E+03  0.41800000000E+01 0.  1.
        -11    1    1    2    0    0  0.47103038354E+02  0.43097145842E+02  0.34836796456E+03  0.35416987299E+03  0.00000000000E+00 0.  1.
         11    1    1    2    0    0 -0.42395087901E+02  0.66332905198E+02  0.36906340711E+03  0.37736613025E+03  0.00000000000E+00 0. -1.
</event>
<event>
 6    1  0.6447971E-006  0.6369636E+02  0.7561462E-02  0.1382943E+00
          2   -1    0    0  501    0  0.00000000000E+00  0.00000000000E+00  0.12143530554E+03  0.12143530554E+03  0.00000000000E+00 0. -1.
         -2   -1    0    0    0  501 -0.00000000000E+00 -0.00000000000E+00 -0.30520956146E+03  0.30520956146E+03  0.00000000000E+00 0.  1.
          5    1    1    2  502    0  0.19615061992E+02 -0.29301359867E+02 -0.58775206575E+01  0.35990804327E+02  0.41800000000E+01 0. -1.
         -5    1    1    2    0  502  0.19922914339E+02  0.11808248590E+02 -0.25941291051E+03  0.26047819063E+03  0.41800000000E+01 0. -1.
        -11    1    1    2    0    0 -0.25306122604E+02  0.36618467074E+02  0.93454927568E+02  0.10351393848E+03  0.00000000000E+00 0. -1.
         11    1    1    2    0    0 -0.14231853726E+02 -0.19125355797E+02 -0.11938752321E+02  0.26661933573E+02  0.00000000000E+00 0.  1.
</event>
<event>
 6    1  0.6447971E-006  0.1357724E+03  0.7561462E-02  0.1219133E+00
          2   -1    0    0  501    0  0.00000000000E+00  0.00000000000E+00  0.86021560701E+03  0.86021560701E+03  0.00000000000E+00 0.  1.
         -2   -1    0    0    0  501 -0.00000000000E+00 -0.00000000000E+00 -0.24680928565E+02  0.24680928565E+02  0.00000000000E+00 0. -1.
          5    1    1    2  502    0 -0.34662924710E+02  0.59621221933E+02  0.23161960242E+03  0.24170502907E+03  0.41800000000E+01 0.  1.
         -5    1    1    2    0  502 -0.55092007437E+02 -0.52315299440E+02  0.11830953105E+03  0.14066498277E+03  0.41800000000E+01 0.  1.
        -11    1    1    2    0    0  0.69038275335E+02  0.36363967602E+02  0.34916357980E+03  0.35777622484E+03  0.00000000000E+00 0.  1.
         11    1    1    2    0    0  0.20716656812E+02 -0.43669890095E+02  0.13644196518E+03  0.14475029890E+03  0.00000000000E+00 0. -1.
</event>
<event>
 6    1  0.6447971E-006  0.6343092E+02  0.7561462E-02  0.1383973E+00
          2   -1    0    0  501    0  0.00000000000E+00  0.00000000000E+00  0.25270169290E+03  0.25270169290E+03  0.00000000000E+00 0. -1.
         -2   -1    0    0    0  501 -0.00000000000E+00 -0.00000000000E+00 -0.49199850889E+02  0.49199850889E+02  0.00000000000E+00 0.  1.
          5    1    1    2  502    0  0.12213995138E+02  0.10576418633E+02 -0.22689129597E+02  0.28165782614E+02  0.41800000000E+01 0.  1.
         -5    1    1    2    0  502  0.15282082856E+02 -0.11506973925E+02  0.15408525202E+03  0.15532446618E+03  0.41800000000E+01 0.  1.
        -11    1    1    2    0    0  0.22798154320E+02  0.25846289893E+02  0.43244724883E+02  0.55298216715E+02  0.00000000000E+00 0. -1.
         11    1    1    2    0    0 -0.50294232314E+02 -0.24915734601E+02  0.28860994715E+02  0.63113078285E+02  0.00000000000E+00 0.  1.
</event>
<event>
 6    1  0.6447971E-006  0.9359490E+02  0.7561462E-02  0.1294372E+00
          2   -1    0    0  501    0  0.00000000000E+00  0.00000000000E+00  0.27227778328E+03  0.27227778328E+03  0.00000000000E+00 0.  1.
         -2   -1    0    0    0  501 -0.00000000000E+00 -0.00000000000E+00 -0.50411619976E+02  0.50411619976E+02  0.00000000000E+00 0. -1.
          5    1    1    2  502    0  0.24585058492E+02 -0.54472364428E+02  0.81337756233E+02  0.10101963461E+03  0.41800000000E+01 0.  1.
         -5    1    1    2    0  502 -0.57513165374E+02  0.25929775748E+02  0.21857423153E+02  0.66897958179E+02  0.41800000000E+01 0.  1.
        -11    1    1    2    0    0  0.40963850189E+02  0.76537501989E+01  0.12479409057E+03  0.13156816467E+03  0.00000000000E+00 0.  1.
         11    1    1    2    0    0 -0.80357433079E+01  0.20888838482E+02 -0.61231066431E+01  0.23203645804E+02  0.00000000000E+00 0. -1.
</event>
<event>
 6    1  0.6447971E-006  0.2000805E+03  0.7561462E-02  0.1149671E+00
         -2   -1    0    0    0  501 -0.00000000000E+00  0.00000000000E+00  0.50876536296E+03  0.50876536296E+03  0.00000000000E+00 0.  1.
          2   -1    0    0  501    0  0.00000000000E+00 -0.00000000000E+00 -0.83653198853E+02  0.83653198853E+02  0.00000000000E+00 0. -1.
          5    1    1    2  502    0  0.47484990974E+01 -0.11146980004E+03  0.10905656176E+03  0.15607328608E+03  0.41800000000E+01 0. -1.
         -5    1    1    2    0  502 -0.90397040089E+02 -0.38709390384E+02  0.15254478846E+03  0.18154180413E+03  0.41800000000E+01 0. -1.
        -11    1    1    2    0    0  0.96276898337E+02  0.10007541192E+03  0.91002132314E+02  0.16602926642E+03  0.00000000000E+00 0. -1.
         11    1    1    2    0    0 -0.10628357345E+02  0.50103778510E+02  0.72508681570E+02  0.88774205171E+02  0.00000000000E+00 0.  1.
</event>
<event>
 6    1  0.6447971E-006  0.1186296E+03  0.7561462E-02  0.1245375E+00
         -2   -1    0    0    0  501 -0.00000000000E+00  0.00000000000E+00  0.21846320311E+03  0.21846320311E+03  0.00000000000E+00 0. -1.
          2   -1    0    0  501    0  0.00000000000E+00 -0.00000000000E+00 -0.75877669287E+02  0.75877669287E+02  0.00000000000E+00 0.  1.
          5    1    1    2  502    0  0.36292753193E+02 -0.97562136617E+02  0.57873234330E+02  0.11917347896E+03  0.41800000000E+01 0.  1.
         -5    1    1    2    0  502 -0.48566049297E+01  0.36356913330E+02  0.67064495801E+01  0.37521468845E+02  0.41800000000E+01 0.  1.
        -11    1    1    2    0    0 -0.93957095618E+01  0.71303974313E+02  0.19804878442E+02  0.74597381463E+02  0.00000000000E+00 0.  1.
         11    1    1    2    0    0 -0.22040438702E+02 -0.10098751026E+02  0.58200971467E+02  0.63048543125E+02  0.00000000000E+00 0. -1.
</event>
<event>
 6    1  0.6447971E-006  0.1225902E+03  0.7561462E-02  0.1238884E+00
          2   -1    0    0  501    0  0.00000000000E+00  0.00000000000E+00  0.44049877385E+03  0.44049877385E+03  0.00000000000E+00 0. -1.
         -2   -1    0    0    0  501 -0.00000000000E+00 -0.00000000000E+00 -0.44183576466E+02  0.44183576466E+02  0.00000000000E+00 0.  1.
          5    1    1    2  502    0  0.41610588231E+02  0.42088854806E+01  0.61192937738E+02  0.74237482440E+02  0.41800000000E+01 0.  1.
         -5    1    1    2    0  502 -0.67619893444E+02 -0.68856329338E+02  0.63175375503E+02  0.11542202801E+03  0.41800000000E+01 0.  1.
        -11    1    1    2    0    0 -0.29131001355E+02  0.17358870315E+02  0.42611389331E+02  0.54458021624E+02  0.00000000000E+00 0.  1.
         11    1    1    2    0    0  0.55140306568E+02  0.47288573542E+02  0.22933549481E+03  0.24056481824E+03  0.00000000000E+00 0. -1.
</event>
<event>
 6    1  0.6447971E-006  0.1206131E+03  0.7561462E-02  0.1242089E+00
          2   -1    0    0  501    0  0.00000000000E+00  0.00000000000E+00  0.25943669697E+03  0.25943669697E+03  0.00000000000E+00 0. -1.
         -2   -1    0    0    0  501 -0.00000000000E+00 -0.00000000000E+00 -0.60728816570E+02  0.60728816570E+02  0.00000000000E+00 0.  1.
          5    1    1    2  502    0  0.64707160608E+02 -0.14340210837E+02  0.64337837945E+02  0.92463441815E+02  0.41800000000E+01 0.  1.
         -5    1    1    2    0  502 -0.27830100793E+02  0.62628046509E+02  0.26272631212E+02  0.73515374381E+02  0.41800000000E+01 0.  1.
        -11    1    1    2    0    0  0.28448799779E+02 -0.86006274689E+01  0.13708352530E+02  0.32729557449E+02  0.00000000000E+00 0.  1.
         11    1    1    2    0    0 -0.65325859594E+02 -0.39687208202E+02  0.94389058710E+02  0.12145713989E+03  0.00000000000E+00 0. -1.
</event>
<event>
 6    1  0.6447971E-006  0.1789708E+03  0.7561462E-02  0.1168803E+00
          2   -1    0    0  501    0  0.00000000000E+00  0.00000000000E+00  0.19294206949E+03  0.19294206949E+03  0.00000000000E+00 0. -1.
         -2   -1    0    0    0  501 -0.00000000000E+00 -0.00000000000E+00 -0.18606846459E+03  0.18606846459E+03  0.00000000000E+00 0.  1.
          5    1    1    2  502    0  0.41654929947E+02  0.12502898411E+03  0.25012211466E+02  0.13420306695E+03  0.41800000000E+01 0.  1.
         -5    1    1    2    0  502 -0.39757703770E+02  0.28609504865E+02 -0.42002858459E+02  0.64659812065E+02  0.41800000000E+01 0.  1.
        -11    1    1    2    0    0 -0.41372667489E+02 -0.43972400971E+02  0.19736411245E+02  0.63520040863E+02  0.00000000000E+00 0. -1.
         11    1    1    2    0    0  0.39475441311E+02 -0.10966608801E+03  0.41278406510E+01  0.11662761420E+03  0.00000000000E+00 0.  1.
</event>
<event>
 6    1  0.6447971E-006  0.2023534E+03  0.7561462E-02  0.1147768E+00
          1   -1    0    0  501    0  0.00000000000E+00  0.00000000000E+00  0.12894194905E+03  0.12894194905E+03  0.00000000000E+00 0. -1.
         -1   -1    0    0    0  501 -0.00000000000E+00 -0.00000000000E+00 -0.34675000041E+03  0.34675000041E+03  0.00000000000E+00 0.  1.
          5    1    1    2  502    0  0.24102204616E+01  0.26017001923E+02 -0.48479251148E+02  0.55230460288E+02  0.41800000000E+01 0. -1.
         -5    1    1    2    0  502  0.16468226439E+03 -0.76705375529E+02 -0.12014861634E+03  0.21784656354E+03  0.41800000000E+01 0. -1.
        -11    1    1    2    0    0 -0.98473321637E+02 -0.17242526718E+02 -0.23324830249E+02  0.10265645381E+03  0.00000000000E+00 0.  1.
         11    1    1    2    0    0 -0.68619163211E+02  0.67930900324E+02 -0.25855353630E+02  0.99958471827E+02  0.00000000000E+00 0. -1.
</event>
<event>
 6    1  0.6447971E-006  0.1109601E+03  0.7561462E-02  0.1258802E+00
         -4   -1    0    0    0  501 -0.00000000000E+00  0.00000000000E+00  0.19867769855E+03  0.19867769855E+03  0.00000000000E+00 0.  1.
          4   -1    0    0  501    0  0.00000000000E+00 -0.00000000000E+00 -0.83213998398E+02  0.83213998398E+02  0.00000000000E+00 0. -1.
          5    1    1    2  502    0  0.72027713020E+02  0.63737722514E+02  0.92713310335E+02  0.13365522447E+03  0.41800000000E+01 0.  1.
         -5    1    1    2    0  502 -0.31573791746E+02 -0.13911616117E+02 -0.15822760153E-01  0.34755000195E+02  0.41800000000E+01 0.  1.
        -11    1    1    2    0    0 -0.55395821871E+02 -0.51777606404E+02 -0.10891552871E+02  0.76604461552E+02  0.00000000000E+00 0. -1.
         11    1    1    2    0    0  0.14941900597E+02  0.19515000076E+01  0.33657765452E+02  0.36877010738E+02  0.00000000000E+00 0.  1.
</event>
<event>
 6    1  0.6447971E-006  0.1017648E+03  0.7561462E-02  0.1276628E+00
         -1   -1    0    0    0  501 -0.00000000000E+00  0.00000000000E+00  0.93702045120E+02  0.93702045120E+02  0.00000000000E+00 0.  1.
          1   -1    0    0  501    0  0.00000000000E+00 -0.00000000000E+00 -0.13763658088E+03  0.13763658088E+03  0.00000000000E+00 0. -1.
          5    1    1    2  502    0  0.74808574153E+01 -0.57284665757E+02 -0.43838365594E+00  0.57923749350E+02  0.41800000000E+01 0.  1.
         -5    1    1    2    0  502 -0.40849536142E+02  0.58589201276E+02 -0.17330790405E+01  0.71567136817E+02  0.41800000000E+01 0.  1.
        -11    1    1    2    0    0  0.29266594859E+02  0.30338195154E+02 -0.53267906800E+02  0.67929445417E+02  0.00000000000E+00 0.  1.
         11    1    1    2    0    0  0.41020838678E+01 -0.31642730673E+02  0.11504833739E+02  0.33918294413E+02  0.00000000000E+00 0. -1.
</event>
<event>
 6    1  0.6447971E-006  0.1164097E+03  0.7561462E-02  0.1249140E+00
          4   -1    0    0  501    0  0.00000000000E+00  0.00000000000E+00  0.15487790508E+03  0.15487790508E+03  0.00000000000E+00 0.  1.
         -4   -1    0    0    0  501 -0.00000000000E+00 -0.00000000000E+00 -0.10208218451E+03  0.10208218451E+03  0.00000000000E+00 0. -1.
          5    1    1    2  502    0  0.70914816845E+02 -0.44592222803E+02 -0.13827744271E+02  0.85006214445E+02  0.41800000000E+01 0.  1.
         -5    1    1    2    0  502 -0.45863224587E+02 -0.13995755596E+02  0.28997513021E+02  0.56192923982E+02  0.41800000000E+01 0.  1.
        -11    1    1    2    0    0  0.15043808489E+02  0.58823019511E+02  0.44238456076E+02  0.75123264001E+02  0.00000000000E+00 0.  1.
         11    1    1    2    0    0 -0.40095400747E+02 -0.23504111213E+00 -0.66125042493E+01  0.40637687162E+02  0.00000000000E+00 0. -1.
</event>
<event>
 6    1  0.6447971E-006  0.1427755E+03  0.7561462E-02  0.1209642E+00
         -2   -1    0    0    0  501 -0.00000000000E+00  0.00000000000E+00  0.66586784779E+03  0.66586784779E+03  0.00000000000E+00 0.  1.
          2   -1    0    0  501    0  0.00000000000E+00 -0.00000000000E+00 -0.21484699971E+03  0.21484699971E+03  0.00000000000E+00 0. -1.
          5    1    1    2  502    0 -0.27123438195E+02 -0.14614288096E+02  0.39304573802E+02  0.50115668586E+02  0.41800000000E+01 0.  1.
         -5    1    1    2    0  502 -0.34862498290E+02  0.12016195843E+03  0.58622438649E+03  0.59944206873E+03  0.41800000000E+01 0.  1.
        -11    1    1    2    0    0  0.32086048345E+02 -0.90047012877E+02 -0.17274680157E+03  0.19743210600E+03  0.00000000000E+00 0.  1.
         11    1    1    2    0    0  0.29899888140E+02 -0.15500657461E+02 -0.17613106373E+01  0.33725004191E+02  0.00000000000E+00 0. -1.
</event>
<event>
 6    1  0.7576100E-006  0.1413654E+03  0.7561462E-02  0.1211503E+00
          2   -1    0    0  501    0  0.00000000000E+00  0.00000000000E+00  0.95439577725E+03  0.95439577725E+03  0.00000000000E+00 0. -1.
         -2   -1    0    0    0  501 -0.00000000000E+00 -0.00000000000E+00 -0.27758658370E+02  0.27758658370E+02  0.00000000000E+00 0.  1.
          5    1    1    2  502    0  0.36621698147E+01 -0.15908732475E+02  0.39325784499E+01  0.17304243120E+02  0.41800000000E+01 0. -1.
         -5    1    1    2    0  502  0.81027690762E+02  0.10368782835E+03  0.45864059602E+03  0.47716383050E+03  0.41800000000E+01 0. -1.
        -11    1    1    2    0    0 -0.73434305403E+01 -0.45468109274E+02  0.27803138500E+03  0.28182037893E+03  0.00000000000E+00 0. -1.
         11    1    1    2    0    0 -0.77346430036E+02 -0.42310986606E+02  0.18603255941E+03  0.20586598308E+03  0.00000000000E+00 0.  1.
</event>
<event>
 6    1  0.6447971E-006  0.1361067E+03  0.7561462E-02  0.1218666E+00
          3   -1    0    0  501    0  0.00000000000E+00  0.00000000000E+00  0.17835026841E+03  0.17835026841E+03  0.00000000000E+00 0. -1.
         -3   -1    0    0    0  501 -0.00000000000E+00 -0.00000000000E+00 -0.11967169335E+03  0.11967169335E+03  0.00000000000E+00 0.  1.
          5    1    1    2  502    0 -0.79397767120E+02 -0.41538042440E+02  0.34052034970E+02  0.95950132251E+02  0.41800000000E+01 0.  1.
         -5    1    1    2    0  502  0.41909737575E+02 -0.48345497327E+02 -0.83238143162E+01  0.64656565793E+02  0.41800000000E+01 0.  1.
        -11    1    1    2    0    0 -0.55943824788E+01  0.71219497335E+02 -0.11971676195E+02  0.72435039497E+02  0.00000000000E+00 0.  1.
         11    1    1    2    0    0  0.43082412024E+02  0.18664042432E+02  0.44922030608E+02  0.64980224220E+02  0.00000000000E+00 0. -1.
</event>
<event>
 6    1  0.8683663E-006  0.2029051E+03  0.7561462E-02  0.1147311E+00
         -2   -1    0    0    0  501 -0.00000000000E+00  0.00000000000E+00  0.34522429831E+02  0.34522429831E+02  0.00000000000E+00 0.  1.
          2   -1    0    0  501    0  0.00000000000E+00 -0.00000000000E+00 -0.12267813972E+04  0.12267813972E+04  0.00000000000E+00 0. -1.
          5    1    1    2  502    0 -0.45562229705E+02  0.43555022247E+02 -0.23531414315E+03  0.24364559324E+03  0.41800000000E+01 0. -1.
         -5    1    1    2    0  502 -0.12465038860E+03 -0.81227650511E+02 -0.38821469149E+03  0.41576888974E+03  0.41800000000E+01 0. -1.
        -11    1    1    2    0    0  0.62470152788E+02 -0.27091608539E+02 -0.15075397684E+03  0.16541836892E+03  0.00000000000E+00 0.  1.
         11    1    1    2    0    0  0.10774246551E+03  0.64764236803E+02 -0.41797615589E+03  0.43647097514E+03  0.00000000000E+00 0. -1.
</event>
<event>
 6    1  0.6447971E-006  0.1503171E+03  0.7561462E-02  0.1200084E+00
         -1   -1    0    0    0  501 -0.00000000000E+00  0.00000000000E+00  0.54939373700E+02  0.54939373700E+02  0.00000000000E+00 0.  1.
          1   -1    0    0  501    0  0.00000000000E+00 -0.00000000000E+00 -0.56459213748E+03  0.56459213748E+03  0.00000000000E+00 0. -1.
          5    1    1    2  502    0 -0.58174142432E+02 -0.15372290112E+02 -0.71293111736E+02  0.93384786405E+02  0.41800000000E+01 0.  1.
         -5    1    1    2    0  502  0.39627626163E+02 -0.97465175669E+02 -0.61649763844E+02  0.12201628992E+03  0.41800000000E+01 0.  1.
        -11    1    1    2    0    0  0.45273440324E+02  0.54484404628E+02 -0.11846861174E+03  0.13803277406E+03  0.00000000000E+00 0.  1.
         11    1    1    2    0    0 -0.26726924055E+02  0.58353061153E+02 -0.25824127646E+03  0.26609766080E+03  0.00000000000E+00 0. -1.
</event>
<event>
 6    1  0.6447971E-006  0.9554754E+02  0.7561462E-02  0.1289948E+00
          1   -1    0    0  501    0  0.00000000000E+00  0.00000000000E+00  0.68566493830E+03  0.68566493830E+03  0.00000000000E+00 0. -1.
         -1   -1    0    0    0  501 -0.00000000000E+00 -0.00000000000E+00 -0.25008489107E+02  0.25008489107E+02  0.00000000000E+00 0.  1.
          5    1    1    2  502    0 -0.51754154906E+02  0.16607389563E+02  0.44494462732E+02  0.70367091398E+02  0.41800000000E+01 0.  1.
         -5    1    1    2    0  502 -0.14087304470E+02  0.16988805037E+02  0.33879764774E+03  0.33954144100E+03  0.41800000000E+01 0.  1.
        -11    1    1    2    0    0  0.17915144631E+02  0.29724551429E+02  0.59548858424E+02  0.68924363649E+02  0.00000000000E+00 0.  1.
         11    1    1    2    0    0  0.47926314745E+02 -0.63320746029E+02  0.21781548029E+03  0.23184053135E+03  0.00000000000E+00 0. -1.
</event>
<event>
 6    1  0.6447971E-006  0.9209685E+02  0.7561462E-02  0.1297852E+00
         -2   -1    0    0    0  501 -0.00000000000E+00  0.00000000000E+00  0.10838356045E+04  0.10838356045E+04  0.00000000000E+00 0.  1.
          2   -1    0    0  501    0  0.00000000000E+00 -0.00000000000E+00 -0.51324838648E+02  0.51324838648E+02  0.00000000000E+00 0. -1.
          5    1    1    2  502    0 -0.56906588842E+02  0.26681338390E+02  0.87526417633E+02  0.10783598590E+03  0.41800000000E+01 0. -1.
         -5    1    1    2    0  502  0.41963492976E+02 -0.22525702909E+01  0.94174544957E+03  0.94269187596E+03  0.41800000000E+01 0.  1.
        -11    1    1    2    0    0 -0.25222441600E+02 -0.29130710409E+02  0.16721396792E+02  0.42004463571E+02  0.00000000000E+00 0. -1.
         11    1    1    2    0    0  0.40165537466E+02  0.47019423104E+01 -0.13482498163E+02  0.42628117694E+02  0.00000000000E+00 0.  1.
</event>
<event>
 6    1  0.6447971E-006  0.1018020E+03  0.7561462E-02  0.1276552E+00
          2   -1    0    0  501    0  0.00000000000E+00  0.00000000000E+00  0.38013676492E+03  0.38013676492E+03  0.00000000000E+00 0. -1.
         -2   -1    0    0    0  501 -0.00000000000E+00 -0.00000000000E+00 -0.35048402828E+02  0.35048402828E+02  0.00000000000E+00 0.  1.
          5    1    1    2  502    0 -0.35617739417E+02 -0.24251168158E+02  0.28288578458E+02  0.51715167885E+02  0.41800000000E+01 0. -1.
         -5    1    1    2    0  502  0.55238845093E+02  0.63104764173E+02  0.12883311578E+03  0.15378226618E+03  0.41800000000E+01 0. -1.
        -11    1    1    2    0    0 -0.91746500483E+01 -0.55737282073E+02  0.69459770018E+02  0.89529204550E+02  0.00000000000E+00 0.  1.
         11    1    1    2    0    0 -0.10446455628E+02  0.16883686058E+02  0.11850689783E+03  0.12015852913E+03  0.00000000000E+00 0. -1.
</event>
<event>
 6    1  0.6447971E-006  0.1018644E+03  0.7561462E-02  0.1276424E+00
          1   -1    0    0  501    0  0.00000000000E+00  0.00000000000E+00  0.67844379638E+03  0.67844379638E+03  0.00000000000E+00 0. -1.
         -1   -1    0    0    0  501 -0.00000000000E+00 -0.00000000000E+00 -0.39308818953E+02  0.39308818953E+02  0.00000000000E+00 0.  1.
          5    1    1    2  502    0 -0.37021992620E+02 -0.51033029403E+02  0.21806262695E+03  0.22703255207E+03  0.41800000000E+01 0. -1.
         -5    1    1    2    0  502 -0.12862057297E+02 -0.18148315886E+02 -0.21296549697E+02  0.31077472812E+02  0.41800000000E+01 0.  1.
        -11    1    1    2    0    0 -0.13470550175E+02  0.49899280878E+02  0.12193338218E+03  0.13243543198E+03  0.00000000000E+00 0.  1.
         11    1    1    2    0    0  0.63354600092E+02  0.19282064411E+02  0.32043551800E+03  0.32720715848E+03  0.00000000000E+00 0. -1.
</event>
<event>
 6    1  0.6447971E-006  0.9860982E+02  0.7561462E-02  0.1283247E+00
          1   -1    0    0  501    0  0.00000000000E+00  0.00000000000E+00  0.57760677225E+02  0.57760677225E+02  0.00000000000E+00 0. -1.
         -1   -1    0    0    0  501 -0.00000000000E+00 -0.00000000000E+00 -0.22704225523E+03  0.22704225523E+03  0.00000000000E+00 0.  1.
          5    1    1    2  502    0 -0.46810766459E+02  0.38796089096E+02 -0.26248556464E+02  0.66353926048E+02  0.41800000000E+01 0. -1.
         -5    1    1    2    0  502  0.43388313642E+02 -0.19120242016E+02 -0.10907477977E+03  0.11900802241E+03  0.41800000000E+01 0. -1.
        -11    1    1    2    0    0  0.36601770702E+02 -0.36316530218E+02 -0.39550403126E+01  0.51712883592E+02  0.00000000000E+00 0. -1.
         11    1    1    2    0    0 -0.33179317885E+02  0.16640683138E+02 -0.30003201456E+02  0.47728100405E+02  0.00000000000E+00 0.  1.
</event>
<event>
 6    1  0.6447971E-006  0.1219670E+03  0.7561462E-02  0.1239887E+00
         -1   -1    0    0    0  501 -0.00000000000E+00  0.00000000000E+00  0.22058774576E+03  0.22058774576E+03  0.00000000000E+00 0.  1.
          1   -1    0    0  501    0  0.00000000000E+00 -0.00000000000E+00 -0.83892641783E+02  0.83892641783E+02  0.00000000000E+00 0. -1.
          5    1    1    2  502    0  0.10808645302E+03 -0.24238479959E+01  0.10534807660E+03  0.15101074799E+03  0.41800000000E+01 0. -1.
         -5    1    1    2    0  502 -0.34435027579E+02 -0.47151110466E+01  0.16762290357E+02  0.38813015530E+02  0.41800000000E+01 0. -1.
        -11    1    1    2    0    0 -0.22405026283E+02  0.35637441734E+02  0.32678837422E+02  0.53290889196E+02  0.00000000000E+00 0.  1.
         11    1    1    2    0    0 -0.51246399155E+02 -0.28498482691E+02 -0.18094100398E+02  0.61365734831E+02  0.00000000000E+00 0. -1.
</event>
<event>
 6    1  0.6447971E-006  0.1505564E+03  0.7561462E-02  0.1199791E+00
          1   -1    0    0  501    0  0.00000000000E+00  0.00000000000E+00  0.53597291959E+02  0.53597291959E+02  0.00000000000E+00 0. -1.
         -1   -1    0    0    0  501 -0.00000000000E+00 -0.00000000000E+00 -0.53769085492E+03  0.53769085492E+03  0.00000000000E+00 0.  1.
          5    1    1    2  502    0  0.31233125931E+02  0.12343078937E+01 -0.15796710129E+03  0.16108416794E+03  0.41800000000E+01 0. -1.
         -5    1    1    2    0  502  0.39363302819E+02 -0.11085550615E+03 -0.97784276410E+02  0.15302826525E+03  0.41800000000E+01 0.  1.
        -11    1    1    2    0    0 -0.25988384997E+02  0.10365199632E+03 -0.19028049095E+03  0.21823335614E+03  0.00000000000E+00 0. -1.
         11    1    1    2    0    0 -0.44608043753E+02  0.59692019381E+01 -0.38061694316E+02  0.58942357549E+02  0.00000000000E+00 0.  1.
</event>
<event>
 6    1  0.6447971E-006  0.1299597E+03  0.7561462E-02  0.1227516E+00
          2   -1    0    0  501    0  0.00000000000E+00  0.00000000000E+00  0.44111912925E+03  0.44111912925E+03  0.00000000000E+00 0. -1.
         -2   -1    0    0    0  501 -0.00000000000E+00 -0.00000000000E+00 -0.74355722429E+02  0.74355722429E+02  0.00000000000E+00 0.  1.
          5    1    1    2  502    0  0.34885226151E+02 -0.33963768441E+02  0.10324987535E+03  0.11423014370E+03  0.41800000000E+01 0. -1.
         -5    1    1    2    0  502  0.78896659134E+02  0.13083674335E+02 -0.19557378030E+02  0.82436816969E+02  0.41800000000E+01 0.  1.
        -11    1    1    2    0    0 -0.35353667570E+02 -0.21944467224E+02  0.16821637947E+03  0.17328644429E+03  0.00000000000E+00 0.  1.
         11    1    1    2    0    0 -0.78428217715E+02  0.42824561329E+02  0.11485453003E+03  0.14552144672E+03  0.00000000000E+00 0. -1.
</event>
<event>
 6    1  0.6447971E-006  0.1106797E+03  0.7561462E-02  0.1259316E+00
         -1   -1    0    0    0  501 -0.00000000000E+00  0.00000000000E+00  0.19342170433E+03  0.19342170433E+03  0.00000000000E+00 0.  1.
          1   -1    0    0  501    0  0.00000000000E+00 -0.00000000000E+00 -0.88423855224E+02  0.88423855224E+02  0.00000000000E+00 0. -1.
          5    1    1    2  502    0 -0.12112499838E+02 -0.30505008955E+02  0.78820320254E+02  0.85483235249E+02  0.41800000000E+01 0.  1.
         -5    1    1    2    0  502  0.78994002343E+02  0.28613075907E+02  0.17320126051E+02  0.85884921176E+02  0.41800000000E+01 0.  1.
        -11    1    1    2    0    0 -0.22161018081E+02 -0.38153478580E+02 -0.13928390251E+02  0.46268765978E+02  0.00000000000E+00 0. -1.
         11    1    1    2    0    0 -0.44720484425E+02  0.40045411628E+02  0.22785793050E+02  0.64208637149E+02  0.00000000000E+00 0.  1.
</event>
<event>
 6    1  0.6447971E-006  0.1552959E+03  0.7561462E-02  0.1194112E+00
          1   -1    0    0  501    0  0.00000000000E+00  0.00000000000E+00  0.20176998622E+03  0.20176998622E+03  0.00000000000E+00 0. -1.
         -1   -1    0    0    0  501 -0.00000000000E+00 -0.00000000000E+00 -0.45348858059E+03  0.45348858059E+03  0.00000000000E+00 0.  1.
          5    1    1    2  502    0  0.14912970219E+01  0.17214743894E+02  0.50372873450E+01  0.18477500857E+02  0.41800000000E+01 0. -1.
         -5    1    1    2    0  502 -0.65626574393E+02  0.11433444710E+03 -0.39464451105E+03  0.41610212155E+03  0.41800000000E+01 0. -1.
        -11    1    1    2    0    0  0.15519757626E+02 -0.10377234323E+03  0.49423844511E+02  0.11598395795E+03  0.00000000000E+00 0.  1.
         11    1    1    2    0    0  0.48615519745E+02 -0.27776847762E+02  0.88464784831E+02  0.10469498645E+03  0.00000000000E+00 0. -1.
</event>
<event>
 6    1  0.6447971E-006  0.1003499E+03  0.7561462E-02  0.1279562E+00
         -1   -1    0    0    0  501 -0.00000000000E+00  0.00000000000E+00  0.91182345167E+02  0.91182345167E+02  0.00000000000E+00 0.  1.
          1   -1    0    0  501    0  0.00000000000E+00 -0.00000000000E+00 -0.19641567094E+03  0.19641567094E+03  0.00000000000E+00 0. -1.
          5    1    1    2  502    0 -0.47168042285E+02  0.26599625562E+02  0.47062486037E+02  0.71865946630E+02  0.41800000000E+01 0.  1.
         -5    1    1    2    0  502  0.49788592226E+02 -0.43796330330E+00 -0.28147001520E+02  0.57348250385E+02  0.41800000000E+01 0.  1.
        -11    1    1    2    0    0 -0.43022897832E+02 -0.34524918044E+02 -0.55234435760E+02  0.78062683771E+02  0.00000000000E+00 0. -1.
         11    1    1    2    0    0  0.40402347891E+02  0.83632557859E+01 -0.68914374532E+02  0.80321135323E+02  0.00000000000E+00 0.  1.
</event>
<event>
 6    1  0.6447971E-006  0.1404503E+03  0.7561462E-02  0.1212724E+00
          2   -1    0    0  501    0  0.00000000000E+00  0.00000000000E+00  0.32372304797E+03  0.32372304797E+03  0.00000000000E+00 0. -1.
         -2   -1    0    0    0  501 -0.00000000000E+00 -0.00000000000E+00 -0.67477476360E+02  0.67477476360E+02  0.00000000000E+00 0.  1.
          5    1    1    2  502    0 -0.10908020794E+03  0.49050619576E+02  0.55693657818E+02  0.13199890517E+03  0.41800000000E+01 0.  1.
         -5    1    1    2    0  502  0.19833875719E+02 -0.23879533568E+02  0.39865303137E+02  0.50698417566E+02  0.41800000000E+01 0.  1.
        -11    1    1    2    0    0  0.28637897764E+02 -0.55258493301E+02  0.99006585627E+02  0.11694415021E+03  0.00000000000E+00 0. -1.
         11    1    1    2    0    0  0.60608434451E+02  0.30087407293E+02  0.61680025031E+02  0.91559051393E+02  0.00000000000E+00 0.  1.
</event>
<event>
 6    1  0.6447971E-006  0.1231886E+03  0.7561462E-02  0.1237928E+00
          1   -1    0    0  501    0  0.00000000000E+00  0.00000000000E+00  0.49804820907E+03  0.49804820907E+03  0.00000000000E+00 0. -1.
         -1   -1    0    0    0  501 -0.00000000000E+00 -0.00000000000E+00 -0.38014777918E+02  0.38014777918E+02  0.00000000000E+00 0.  1.
          5    1    1    2  502    0 -0.18008618402E+02 -0.35921794601E+02  0.71557233563E+02  0.82174179274E+02  0.41800000000E+01 0. -1.
         -5    1    1    2    0  502 -0.16668791474E+02  0.97124827084E+02  0.84983370039E+02  0.13019495470E+03  0.41800000000E+01 0. -1.
        -11    1    1    2    0    0 -0.26114256812E+02 -0.10363312784E+02  0.12936147069E+03  0.13237727434E+03  0.00000000000E+00 0. -1.
         11    1    1    2    0    0  0.60791666688E+02 -0.50839719699E+02  0.17413135686E+03  0.19131657869E+03  0.00000000000E+00 0.  1.
</event>
<event>
 6    1  0.6447971E-006  0.1739115E+03  0.7561462E-02  0.1173829E+00
          2   -1    0    0  501    0  0.00000000000E+00  0.00000000000E+00  0.15469171903E+03  0.15469171903E+03  0.00000000000E+00 0.  1.
         -2   -1    0    0    0  501 -0.00000000000E+00 -0.00000000000E+00 -0.26379001050E+03  0.26379001050E+03  0.00000000000E+00 0. -1.
          5    1    1    2  502    0  0.63819493569E+02 -0.57811829407E+01 -0.93780277995E+02  0.11365985561E+03  0.41800000000E+01 0.  1.
         -5    1    1    2    0  502  0.71810510741E+02 -0.90097871674E+02 -0.20921599279E+01  0.11530926011E+03  0.41800000000E+01 0.  1.
        -11    1    1    2    0    0 -0.28095433303E+02  0.34515188044E+02 -0.43308801852E+02  0.62099145695E+02  0.00000000000E+00 0.  1.
         11    1    1    2    0    0 -0.10753457101E+03  0.61363866571E+02  0.30082948305E+02  0.12741346813E+03  0.00000000000E+00 0. -1.
</event>
<event>
 6    1  0.6447971E-006  0.7801871E+02  0.7561462E-02  0.1334770E+00
         -1   -1    0    0    0  501 -0.00000000000E+00  0.00000000000E+00  0.10614852029E+03  0.10614852029E+03  0.00000000000E+00 0.  1.
          1   -1    0    0  501    0  0.00000000000E+00 -0.00000000000E+00 -0.11755554335E+03  0.11755554335E+03  0.00000000000E+00 0. -1.
          5    1    1    2  502    0 -0.33421283064E+02 -0.44291394367E+01  0.60451876262E+02  0.69343357154E+02  0.41800000000E+01 0.  1.
         -5    1    1    2    0  502  0.41802068742E+02  0.54573702960E+01 -0.39321407544E+02  0.57800011530E+02  0.41800000000E+01 0.  1.
        -11    1    1    2    0    0 -0.44036791450E+02 -0.23399855407E+00  0.55453436211E+01  0.44385184379E+02  0.00000000000E+00 0.  1.
         11    1    1    2    0    0  0.35656005772E+02 -0.79423230528E+00 -0.38082835390E+02  0.52175510577E+02  0.00000000000E+00 0. -1.
</event>
<event>
 6    1  0.6447971E-006  0.2768274E+03  0.7561462E-02  0.1097434E+00
          2   -1    0    0  501    0  0.00000000000E+00  0.00000000000E+00  0.53304622894E+03  0.53304622894E+03  0.00000000000E+00 0. -1.
         -2   -1    0    0    0  501 -0.00000000000E+00 -0.00000000000E+00 -0.17890321745E+03  0.17890321745E+03  0.00000000000E+00 0.  1.
          5    1    1    2  502    0 -0.10630357807E+03  0.14538568958E+03 -0.12035473137E+02  0.18055407627E+03  0.41800000000E+01 0.  1.
         -5    1    1    2    0  502 -0.74621122702E+02  0.60331115409E+02  0.87478965994E+02  0.12991611652E+03  0.41800000000E+01 0.  1.
        -11    1    1    2    0    0  0.14235104962E+03 -0.18573185203E+03  0.18536780845E+03  0.29853201938E+03  0.00000000000E+00 0.  1.
         11    1    1    2    0    0  0.38573651156E+02 -0.19984952959E+02  0.93331710183E+02  0.10294723422E+03  0.00000000000E+00 0. -1.
</event>
<event>
 6    1  0.6447971E-006  0.9443841E+02  0.7561462E-02  0.1292446E+00
         -3   -1    0    0    0  501 -0.00000000000E+00  0.00000000000E+00  0.23596159709E+03  0.23596159709E+03  0.00000000000E+00 0.  1.
          3   -1    0    0  501    0  0.00000000000E+00 -0.00000000000E+00 -0.42771856151E+02  0.42771856151E+02  0.00000000000E+00 0. -1.
          5    1    1    2  502    0 -0.24528622336E+02  0.43747655045E+02  0.79567899700E+02  0.94148997330E+02  0.41800000000E+01 0. -1.
         -5    1    1    2    0  502  0.67075567910E+02 -0.43063863800E+02  0.79775586193E+02  0.11285054155E+03  0.41800000000E+01 0. -1.
        -11    1    1    2    0    0 -0.33928050663E+02 -0.18712271990E+02  0.34298521886E+02  0.51746017705E+02  0.00000000000E+00 0.  1.
         11    1    1    2    0    0 -0.86188949113E+01  0.18028480746E+02 -0.45226683651E+00  0.19987896657E+02  0.00000000000E+00 0. -1.
</event>
<event>
 6    1  0.6447971E-006  0.1124842E+03  0.7561462E-02  0.1256037E+00
          1   -1    0    0  501    0  0.00000000000E+00  0.00000000000E+00  0.15457575980E+03  0.15457575980E+03  0.00000000000E+00 0.  1.
         -1   -1    0    0    0  501 -0.00000000000E+00 -0.00000000000E+00 -0.16566587095E+03  0.16566587095E+03  0.00000000000E+00 0. -1.
          5    1    1    2  502    0  0.42200931235E+02 -0.62707977137E+02 -0.39526375620E+02  0.85399155519E+02  0.41800000000E+01 0.  1.
         -5    1    1    2    0  502  0.32301630167E+02 -0.17133994181E+02  0.76234261603E+02  0.84652844667E+02  0.41800000000E+01 0.  1.
        -11    1    1    2    0    0 -0.51804085931E+01  0.20710581904E+02  0.25495729085E+02  0.33253526694E+02  0.00000000000E+00 0.  1.
         11    1    1    2    0    0 -0.69322152809E+02  0.59131389414E+02 -0.73293726216E+02  0.11693610386E+03  0.00000000000E+00 0. -1.
</event>
<event>
 6    1  0.6447971E-006  0.9256551E+02  0.7561462E-02  0.1296755E+00
         -2   -1    0    0    0  501 -0.00000000000E+00  0.00000000000E+00  0.10141548560E+03  0.10141548560E+03  0.00000000000E+00 0. -1.
          2   -1    0    0  501    0  0.00000000000E+00 -0.00000000000E+00 -0.12395998204E+03  0.12395998204E+03  0.00000000000E+00 0.  1.
          5    1    1    2  502    0  0.41691382165E+02  0.43684954516E+02  0.36423287501E+02  0.70644708721E+02  0.41800000000E+01 0.  1.
         -5    1    1    2    0  502 -0.41822263312E+02 -0.28891297062E+02 -0.23141429759E+02  0.56007204231E+02  0.41800000000E+01 0.  1.
        -11    1    1    2    0    0 -0.33994692871E+02  0.46655264744E+01 -0.46711043658E+02  0.57959709112E+02  0.00000000000E+00 0. -1.
         11    1    1    2    0    0  0.34125574019E+02 -0.19459183928E+02  0.10884689474E+02  0.40763845577E+02  0.00000000000E+00 0.  1.
</event>
<event>
 6    1  0.6447971E-006  0.8954572E+02  0.7561462E-02  0.1303956E+00
          1   -1    0    0  501    0  0.00000000000E+00  0.00000000000E+00  0.22526538956E+03  0.22526538956E+03  0.00000000000E+00 0. -1.
         -1   -1    0    0    0  501 -0.00000000000E+00 -0.00000000000E+00 -0.60131762306E+02  0.60131762306E+02  0.00000000000E+00 0.  1.
          5    1    1    2  502    0 -0.47458893502E+02 -0.60424238357E+02  0.87789992506E+02  0.11673898380E+03  0.41800000000E+01 0.  1.
         -5    1    1    2    0  502  0.16693973249E+02  0.34360225207E+02 -0.47556215468E+01  0.38722114552E+02  0.41800000000E+01 0.  1.
        -11    1    1    2    0    0 -0.12465776060E+02  0.14180564333E+02 -0.14257575574E+02  0.23659299204E+02  0.00000000000E+00 0.  1.
         11    1    1    2    0    0  0.43230696313E+02  0.11883448817E+02  0.96356831869E+02  0.10627675431E+03  0.00000000000E+00 0. -1.
</event>
<event>
 6    1  0.6447971E-006  0.1113748E+03  0.7561462E-02  0.1258045E+00
          2   -1    0    0  501    0  0.00000000000E+00  0.00000000000E+00  0.13701528904E+03  0.13701528904E+03  0.00000000000E+00 0. -1.
         -2   -1    0    0    0  501 -0.00000000000E+00 -0.00000000000E+00 -0.12911200300E+03  0.12911200300E+03  0.00000000000E+00 0.  1.
          5    1    1    2  502    0 -0.96488499247E+02  0.11473999361E+02  0.38056804596E+02  0.10443886214E+03  0.41800000000E+01 0. -1.
         -5    1    1    2    0  502  0.20248251286E+02 -0.12869118857E+02 -0.34347849526E+02  0.42105261754E+02  0.41800000000E+01 0. -1.
        -11    1    1    2    0    0  0.38390147164E+02 -0.32522824197E+02 -0.29763701339E+02  0.58458664118E+02  0.00000000000E+00 0.  1.
         11    1    1    2    0    0  0.37850100796E+02  0.33917943694E+02  0.33958032305E+02  0.61124504029E+02  0.00000000000E+00 0. -1.
</event>
<event>
 6    1  0.6447971E-006  0.1226064E+03  0.7561462E-02  0.1238858E+00
          1   -1    0    0  501    0  0.00000000000E+00  0.00000000000E+00  0.50262991808E+03  0.50262991808E+03  0.00000000000E+00 0. -1.
         -1   -1    0    0    0  501 -0.00000000000E+00 -0.00000000000E+00 -0.36942970724E+02  0.36942970724E+02  0.00000000000E+00 0.  1.
          5    1    1    2  502    0 -0.80696205863E+02  0.58005655022E+02  0.18147120819E+03  0.20694396695E+03  0.41800000000E+01 0. -1.
         -5    1    1    2    0  502  0.36100870552E+02  0.47837319790E+01  0.18156101444E+02  0.40905664228E+02  0.41800000000E+01 0. -1.
        -11    1    1    2    0    0 -0.18113917301E+02 -0.37168372180E+02  0.47844146037E+02  0.63234991899E+02  0.00000000000E+00 0.  1.
         11    1    1    2    0    0  0.62709252612E+02 -0.25621014821E+02  0.21821549168E+03  0.22848826572E+03  0.00000000000E+00 0. -1.
</event>
<event>
 6    1  0.6447971E-006  0.1895403E+03  0.7561462E-02  0.1158877E+00
         -2   -1    0    0    0  501 -0.00000000000E+00  0.00000000000E+00  0.32583016653E+02  0.32583016653E+02  0.00000000000E+00 0.  1.
          2   -1    0    0  501    0  0.00000000000E+00 -0.00000000000E+00 -0.13118448932E+04  0.13118448932E+04  0.00000000000E+00 0. -1.
          5    1    1    2  502    0  0.19554884068E+02 -0.83650355140E+02 -0.48026103708E+03  0.48790153878E+03  0.41800000000E+01 0.  1.
         -5    1    1    2    0  502  0.70695043633E+02 -0.66962607059E+02 -0.15653729366E+03  0.18439950284E+03  0.41800000000E+01 0.  1.
        -11    1    1    2    0    0 -0.10607984704E+03  0.11399984976E+03 -0.47058663091E+03  0.49568203204E+03  0.00000000000E+00 0.  1.
         11    1    1    2    0    0  0.15829919344E+02  0.36613112436E+02 -0.17187691491E+03  0.17644483621E+03  0.00000000000E+00 0. -1.
</event>
<event>
 6    1  0.6447971E-006  0.2236576E+03  0.7561462E-02  0.1131185E+00
          1   -1    0    0  501    0  0.00000000000E+00  0.00000000000E+00  0.47571171019E+03  0.47571171019E+03  0.00000000000E+00 0. -1.
         -1   -1    0    0    0  501 -0.00000000000E+00 -0.00000000000E+00 -0.11738533763E+03  0.11738533763E+03  0.00000000000E+00 0.  1.
          5    1    1    2  502    0 -0.30068555463E+02  0.14787030701E+02 -0.10249271415E+02  0.35288727224E+02  0.41800000000E+01 0. -1.
         -5    1    1    2    0  502  0.35151134859E+02  0.18866735792E+03  0.13084918606E+03  0.23231434764E+03  0.41800000000E+01 0. -1.
        -11    1    1    2    0    0  0.79789601197E+01  0.70690030637E+01  0.63704853079E+01  0.12418441608E+02  0.00000000000E+00 0.  1.
         11    1    1    2    0    0 -0.13061539516E+02 -0.21052339169E+03  0.23135597260E+03  0.31307553134E+03  0.00000000000E+00 0. -1.
</event>
<event>
 6    1  0.6447971E-006  0.1008676E+03  0.7561462E-02  0.1278482E+00
         -3   -1    0    0    0  501 -0.00000000000E+00  0.00000000000E+00  0.57932784992E+03  0.57932784992E+03  0.00000000000E+00 0.  1.
          3   -1    0    0  501    0  0.00000000000E+00 -0.00000000000E+00 -0.25637907764E+02  0.25637907764E+02  0.00000000000E+00 0. -1.
          5    1    1    2  502    0 -0.60259095339E+02 -0.13996702578E+02  0.25373139152E+03  0.26119754535E+03  0.41800000000E+01 0.  1.
         -5    1    1    2    0  502  0.50194631422E+02 -0.52334358957E+02  0.14780263400E+03  0.16468599566E+03  0.41800000000E+01 0.  1.
        -11    1    1    2    0    0  0.52144045401E+01  0.31527676879E+02  0.13723401634E+03  0.14090549906E+03  0.00000000000E+00 0. -1.
         11    1    1    2    0    0  0.48500593778E+01  0.34803384657E+02  0.14921900306E+02  0.38176717620E+02  0.00000000000E+00 0.  1.
</event>
<event>
 6    1  0.6447971E-006  0.1074385E+03  0.7561462E-02  0.1265388E+00
          1   -1    0    0  501    0  0.00000000000E+00  0.00000000000E+00  0.84674025294E+02  0.84674025294E+02  0.00000000000E+00 0. -1.
         -1   -1    0    0    0  501 -0.00000000000E+00 -0.00000000000E+00 -0.32521116797E+03  0.32521116797E+03  0.00000000000E+00 0.  1.
          5    1    1    2  502    0 -0.16608590901E+02 -0.34752340157E+02 -0.21907171755E+02  0.44508055590E+02  0.41800000000E+01 0. -1.
         -5    1    1    2    0  502  0.70331247940E+02  0.99419009776E+01 -0.24090077939E+03  0.25118913938E+03  0.41800000000E+01 0.  1.
        -11    1    1    2    0    0  0.12202326567E+02  0.36090220598E+02 -0.10767948313E+02  0.39589765184E+02  0.00000000000E+00 0.  1.
         11    1    1    2    0    0 -0.65924983606E+02 -0.11279781418E+02  0.33038756787E+02  0.74598233105E+02  0.00000000000E+00 0. -1.
</event>
<event>
 6    1  0.6447971E-006  0.1342636E+03  0.7561462E-02  0.1221263E+00
         -2   -1    0    0    0  501 -0.00000000000E+00  0.00000000000E+00  0.10485921582E+03  0.10485921582E+03  0.00000000000E+00 0.  1.
          2   -1    0    0  501    0  0.00000000000E+00 -0.00000000000E+00 -0.19915263441E+03  0.19915263441E+03  0.00000000000E+00 0. -1.
          5    1    1    2  502    0  0.65329970565E+02  0.70382143659E+02 -0.96035512523E+01  0.96598922338E+02  0.41800000000E+01 0.  1.
         -5    1    1    2    0  502 -0.51029403715E+02  0.10500369054E+02  0.91079483200E+01  0.53053604179E+02  0.41800000000E+01 0.  1.
        -11    1    1    2    0    0 -0.42851916575E+02 -0.80946466896E+02 -0.83703074771E+02  0.12407587188E+03  0.00000000000E+00 0. -1.
         11    1    1    2    0    0  0.28551349725E+02  0.63954182184E-01 -0.10094740894E+02  0.30283451834E+02  0.00000000000E+00 0.  1.
</event>
<event>
 6    1  0.6447971E-006  0.7282142E+02  0.7561462E-02  0.1350753E+00
          1   -1    0    0  501    0  0.00000000000E+00  0.00000000000E+00  0.28843021624E+02  0.28843021624E+02  0.00000000000E+00 0. -1.
         -1   -1    0    0    0  501 -0.00000000000E+00 -0.00000000000E+00 -0.57425598133E+03  0.57425598133E+03  0.00000000000E+00 0.  1.
          5    1    1    2  502    0 -0.19704870500E+02  0.35220881662E+02 -0.48564844367E+02  0.63283559751E+02  0.41800000000E+01 0. -1.
         -5    1    1    2    0  502  0.33985587915E+02 -0.12851797518E+02 -0.40737903949E+03  0.40901753398E+03  0.41800000000E+01 0.  1.
        -11    1    1    2    0    0 -0.31803399410E+02  0.85701540955E+01  0.16580034686E+01  0.32979580512E+02  0.00000000000E+00 0. -1.
         11    1    1    2    0    0  0.17522681994E+02 -0.30939238239E+02 -0.91127079316E+02  0.97818328711E+02  0.00000000000E+00 0.  1.
</event>
<event>
 6    1  0.6447971E-006  0.1179659E+03  0.7561462E-02  0.1246491E+00
          1   -1    0    0  501    0  0.00000000000E+00  0.00000000000E+00  0.18552554670E+03  0.18552554670E+03  0.00000000000E+00 0. -1.
         -1   -1    0    0    0  501 -0.00000000000E+00 -0.00000000000E+00 -0.10100286266E+03  0.10100286266E+03  0.00000000000E+00 0.  1.
          5    1    1    2  502    0 -0.64355128190E+01 -0.37294961139E+02  0.98842226109E+01  0.39338279172E+02  0.41800000000E+01 0. -1.
         -5    1    1    2    0  502 -0.47392243267E+02  0.10214812073E+03  0.37691055092E+02  0.11882066876E+03  0.41800000000E+01 0. -1.
        -11    1    1    2    0    0  0.13335034944E+02 -0.25122282331E+02  0.60572307981E+02  0.66917536720E+02  0.00000000000E+00 0. -1.
         11    1    1    2    0    0  0.40492721142E+02 -0.39730877257E+02 -0.23624901645E+02  0.61451924712E+02  0.00000000000E+00 0.  1.
</event>
<event>
 6    1  0.6447971E-006  0.1453202E+03  0.7561462E-02  0.1206344E+00
         -1   -1    0    0    0  501 -0.00000000000E+00  0.00000000000E+00  0.14320667641E+03  0.14320667641E+03  0.00000000000E+00 0.  1.
          1   -1    0    0  501    0  0.00000000000E+00 -0.00000000000E+00 -0.20990204044E+03  0.20990204044E+03  0.00000000000E+00 0. -1.
          5    1    1    2  502    0 -0.38190747455E+02  0.60993202179E+02 -0.64121935935E+02  0.96476934919E+02  0.41800000000E+01 0.  1.
         -5    1    1    2    0  502 -0.36264656246E+02  0.46503540243E+02  0.60395632430E+02  0.84515142811E+02  0.41800000000E+01 0.  1.
        -11    1    1    2    0    0  0.96086007128E+02 -0.89117316448E+02 -0.45190716013E+02  0.13862401549E+03  0.00000000000E+00 0. -1.
         11    1    1    2    0    0 -0.21630603427E+02 -0.18379425975E+02 -0.17778344515E+02  0.33492623628E+02  0.00000000000E+00 0.  1.
</event>
<event>
 6    1  0.6447971E-006  0.1484055E+03  0.7561462E-02  0.1202446E+00
         -2   -1    0    0    0  501 -0.00000000000E+00  0.00000000000E+00  0.43923247914E+02  0.43923247914E+02  0.00000000000E+00 0.  1.
          2   -1    0    0  501    0  0.00000000000E+00 -0.00000000000E+00 -0.79352565052E+03  0.79352565052E+03  0.00000000000E+00 0. -1.
          5    1    1    2  502    0 -0.11047329272E+03  0.34716903261E+01 -0.82523443589E+02  0.13799997167E+03  0.41800000000E+01 0.  1.
         -5    1    1    2    0  502 -0.30596221384E+02 -0.20563185222E+02 -0.19150153640E+03  0.19506225722E+03  0.41800000000E+01 0.  1.
        -11    1    1    2    0    0  0.12815705129E+03  0.60008050707E+00 -0.46195148876E+03  0.47939938242E+03  0.00000000000E+00 0. -1.
         11    1    1    2    0    0  0.12912462819E+02  0.16491414389E+02 -0.13625933863E+02  0.24987287133E+02  0.00000000000E+00 0.  1.
</event>
<event>
 6    1  0.6447971E-006  0.2494290E+03  0.7561462E-02  0.1113666E+00
          1   -1    0    0  501    0  0.00000000000E+00  0.00000000000E+00  0.74411167605E+02  0.74411167605E+02  0.00000000000E+00 0. -1.
         -1   -1    0    0    0  501 -0.00000000000E+00 -0.00000000000E+00 -0.93203650350E+03  0.93203650350E+03  0.00000000000E+00 0.  1.
          5    1    1    2  502    0 -0.28627874188E+02  0.14498073577E+03 -0.23013475087E+03  0.27352960513E+03  0.41800000000E+01 0.  1.
         -5    1    1    2    0  502  0.76106201498E+02  0.85951236814E+02 -0.26849949075E+03  0.29204317823E+03  0.41800000000E+01 0.  1.
        -11    1    1    2    0    0 -0.21715700436E+02 -0.74505024713E+02 -0.46500753418E+02  0.90470384223E+02  0.00000000000E+00 0. -1.
         11    1    1    2    0    0 -0.25762626874E+02 -0.15642694787E+03 -0.31249034086E+03  0.35040450353E+03  0.00000000000E+00 0.  1.
</event>
<event>
 6    1  0.6447971E-006  0.9234670E+02  0.7561462E-02  0.1297266E+00
          2   -1    0    0  501    0  0.00000000000E+00  0.00000000000E+00  0.46558349838E+03  0.46558349838E+03  0.00000000000E+00 0. -1.
         -2   -1    0    0    0  501 -0.00000000000E+00 -0.00000000000E+00 -0.33780213350E+02  0.33780213350E+02  0.00000000000E+00 0.  1.
          5    1    1    2  502    0  0.30113134769E+02  0.33786917225E+02  0.18207536502E+03  0.18766264308E+03  0.41800000000E+01 0. -1.
         -5    1    1    2    0  502 -0.43960276735E+02  0.14774814990E+02  0.10956905333E+02  0.47836463740E+02  0.41800000000E+01 0. -1.
        -11    1    1    2    0    0 -0.25440438462E+02 -0.46898718453E+02  0.57759873495E+02  0.78631473901E+02  0.00000000000E+00 0.  1.
         11    1    1    2    0    0  0.39287580429E+02 -0.16630137622E+01  0.18101114118E+03  0.18523313101E+03  0.00000000000E+00 0. -1.
</event>
<event>
 6    1  0.6447971E-006  0.3744196E+03  0.7561462E-02  0.1053016E+00
         -2   -1    0    0    0  501 -0.00000000000E+00  0.00000000000E+00  0.54082472112E+02  0.54082472112E+02  0.00000000000E+00 0.  1.
          2   -1    0    0  501    0  0.00000000000E+00 -0.00000000000E+00 -0.26076920119E+04  0.26076920119E+04  0.00000000000E+00 0. -1.
          5    1    1    2  502    0  0.85089694865E+02 -0.22608175758E+03 -0.77083706233E+03  0.80781214793E+03  0.41800000000E+01 0. -1.
         -5    1    1    2    0  502 -0.23648689104E+03  0.23297970512E+03 -0.11601270485E+04  0.12066970762E+04  0.41800000000E+01 0.  1.
        -11    1    1    2    0    0  0.13391326009E+02 -0.32254843602E+02 -0.92769358845E+02  0.99125458327E+02  0.00000000000E+00 0.  1.
         11    1    1    2    0    0  0.13800587017E+03  0.25356896063E+02 -0.52987607012E+03  0.54813980157E+03  0.00000000000E+00 0. -1.
</event>
<event>
 6    1  0.6447971E-006  0.9550850E+02  0.7561462E-02  0.1290035E+00
          4   -1    0    0  501    0  0.00000000000E+00  0.00000000000E+00  0.65293334997E+02  0.65293334997E+02  0.00000000000E+00 0. -1.
         -4   -1    0    0    0  501 -0.00000000000E+00 -0.00000000000E+00 -0.20116137388E+03  0.20116137388E+03  0.00000000000E+00 0.  1.
          5    1    1    2  502    0 -0.43513389116E+01  0.54949397493E+02 -0.99874025972E+02  0.11415193340E+03  0.41800000000E+01 0.  1.
         -5    1    1    2    0  502  0.99252780545E+01 -0.37445962829E+02  0.10884094365E+02  0.40455496373E+02  0.41800000000E+01 0.  1.
        -11    1    1    2    0    0  0.20127695758E+02  0.33830240422E+02 -0.27914994491E+01  0.39463930021E+02  0.00000000000E+00 0. -1.
         11    1    1    2    0    0 -0.25701634901E+02 -0.51333675086E+02 -0.44086607823E+02  0.72383349078E+02  0.00000000000E+00 0.  1.
</event>
<event>
 6    1  0.6447971E-006  0.1489123E+03  0.7561462E-02  0.1201816E+00
          1   -1    0    0  501    0  0.00000000000E+00  0.00000000000E+00  0.35195449318E+03  0.35195449318E+03  0.00000000000E+00 0. -1.
         -1   -1    0    0    0  501 -0.00000000000E+00 -0.00000000000E+00 -0.64775106752E+02  0.64775106752E+02  0.00000000000E+00 0.  1.
          5    1    1    2  502    0  0.12205513592E+03 -0.45326734874E+02  0.11213365471E+03  0.17188193046E+03  0.41800000000E+01 0.  1.
         -5    1    1    2    0  502 -0.30183224252E+02 -0.87062611528E+00  0.14955048526E+02  0.33954541559E+02  0.41800000000E+01 0.  1.
        -11    1    1    2    0    0 -0.28959014383E+02  0.65210113512E+02  0.77499472326E+02  0.10534301889E+03  0.00000000000E+00 0.  1.
         11    1    1    2    0    0 -0.62912897284E+02 -0.19012752523E+02  0.82591210858E+02  0.10555010902E+03  0.00000000000E+00 0. -1.
</event>
<event>
 6    1  0.6447971E-006  0.1127978E+03  0.7561462E-02  0.1255475E+00
          2   -1    0    0  501    0  0.00000000000E+00  0.00000000000E+00  0.39624650065E+03  0.39624650065E+03  0.00000000000E+00 0. -1.
         -2   -1    0    0    0  501 -0.00000000000E+00 -0.00000000000E+00 -0.43218036768E+02  0.43218036768E+02  0.00000000000E+00 0.  1.
          5    1    1    2  502    0 -0.36087276211E+02 -0.63745797657E+01  0.11386532958E+03  0.11969006831E+03  0.41800000000E+01 0.  1.
         -5    1    1    2    0  502  0.49593328886E+02  0.78193478054E+02  0.80770479174E+02  0.12294332428E+03  0.41800000000E+01 0.  1.
        -11    1    1    2    0    0  0.14447793922E+02  0.41850812200E+01 -0.38273657545E+01  0.15521030335E+02  0.00000000000E+00 0.  1.
         11    1    1    2    0    0 -0.27953846597E+02 -0.76003979509E+02  0.16222002088E+03  0.18131011449E+03  0.00000000000E+00 0. -1.
</event>
<event>
 6    1  0.6447971E-006  0.8221594E+02  0.7561462E-02  0.1322878E+00
          3   -1    0    0  501    0  0.00000000000E+00  0.00000000000E+00  0.43400775179E+02  0.43400775179E+02  0.00000000000E+00 0. -1.
         -3   -1    0    0    0  501 -0.00000000000E+00 -0.00000000000E+00 -0.38483058772E+03  0.38483058772E+03  0.00000000000E+00 0.  1.
          5    1    1    2  502    0 -0.24983313759E+02  0.34418491529E+02 -0.21329141198E+02  0.47761942902E+02  0.41800000000E+01 0.  1.
         -5    1    1    2    0  502 -0.21712807876E+02 -0.38383214932E+02 -0.25907012360E+03  0.26282982813E+03  0.41800000000E+01 0.  1.
        -11    1    1    2    0    0  0.52693847632E+02 -0.17178194593E+02 -0.73744695586E+02  0.92249726692E+02  0.00000000000E+00 0.  1.
         11    1    1    2    0    0 -0.59977259968E+01  0.21142917996E+02  0.12714147836E+02  0.25389865178E+02  0.00000000000E+00 0. -1.
</event>
<event>
 6    1  0.6447971E-006  0.1106031E+03  0.7561462E-02  0.1259457E+00
         -2   -1    0    0    0  501 -0.00000000000E+00  0.00000000000E+00  0.37890908361E+02  0.37890908361E+02  0.00000000000E+00 0.  1.
          2   -1    0    0  501    0  0.00000000000E+00 -0.00000000000E+00 -0.39293210327E+03  0.39293210327E+03  0.00000000000E+00 0. -1.
          5    1    1    2  502    0 -0.43659655615E+02  0.82605032116E+02 -0.18442996439E+03  0.20678888032E+03  0.41800000000E+01 0.  1.
         -5    1    1    2    0  502  0.37325040271E+01 -0.37402476958E+02 -0.28220255548E+02  0.47188262228E+02  0.41800000000E+01 0.  1.
        -11    1    1    2    0    0  0.40026333630E+02 -0.61599931773E+02 -0.14264064499E+03  0.16044629189E+03  0.00000000000E+00 0. -1.
         11    1    1    2    0    0 -0.99182042100E-01  0.16397376616E+02  0.24967001924E+00  0.16399577192E+02  0.00000000000E+00 0.  1.
</event>
<event>
 6    1  0.6447971E-006  0.9973580E+02  0.7561462E-02  0.1280853E+00
         -3   -1    0    0    0  501 -0.00000000000E+00  0.00000000000E+00  0.33710579315E+03  0.33710579315E+03  0.00000000000E+00 0.  1.
          3   -1    0    0  501    0  0.00000000000E+00 -0.00000000000E+00 -0.40429384508E+02  0.40429384508E+02  0.00000000000E+00 0. -1.
          5    1    1    2  502    0  0.27352149847E+02 -0.18041065462E+02  0.14740277475E+03  0.15105850042E+03  0.41800000000E+01 0. -1.
         -5    1    1    2    0  502 -0.34402406123E+02  0.55861700727E+02  0.38152573879E+02  0.76007542052E+02  0.41800000000E+01 0. -1.
        -11    1    1    2    0    0  0.17803511983E+02  0.28451522025E+02  0.45944177359E+02  0.56897465476E+02  0.00000000000E+00 0. -1.
         11    1    1    2    0    0 -0.10753255708E+02 -0.66272157290E+02  0.65176882652E+02  0.93571669710E+02  0.00000000000E+00 0.  1.
</event>
<event>
 6    1  0.6447971E-006  0.1107619E+03  0.7561462E-02  0.1259165E+00
         -2   -1    0    0    0  501 -0.00000000000E+00  0.00000000000E+00  0.46797308902E+02  0.46797308902E+02  0.00000000000E+00 0.  1.
          2   -1    0    0  501    0  0.00000000000E+00 -0.00000000000E+00 -0.50443483810E+03  0.50443483810E+03  0.00000000000E+00 0. -1.
          5    1    1    2  502    0  0.14913561232E+02 -0.78804199543E+02 -0.79520089495E+02  0.11301961426E+03  0.41800000000E+01 0.  1.
         -5    1    1    2    0  502  0.15949883717E+02  0.37619725536E+02  0.50624027413E+01  0.41385297649E+02  0.41800000000E+01 0.  1.
        -11    1    1    2    0    0  0.28248137206E+02  0.27359232386E+00 -0.15624623098E+03  0.15877945964E+03  0.00000000000E+00 0. -1.
         11    1    1    2    0    0 -0.59111582154E+02  0.40910881683E+02 -0.22693361146E+03  0.23804777545E+03  0.00000000000E+00 0.  1.
</event>
<event>
 6    1  0.6447971E-006  0.9283727E+02  0.7561462E-02  0.1296123E+00
         -2   -1    0    0    0  501 -0.00000000000E+00  0.00000000000E+00  0.25051577377E+02  0.25051577377E+02  0.00000000000E+00 0.  1.
          2   -1    0    0  501    0  0.00000000000E+00 -0.00000000000E+00 -0.50952039908E+03  0.50952039908E+03  0.00000000000E+00 0. -1.
          5    1    1    2  502    0  0.53390679011E+02  0.53406968532E+01 -0.16226918554E+03  0.17096154136E+03  0.41800000000E+01 0. -1.
         -5    1    1    2    0  502 -0.52568406627E+02 -0.15189367337E+02 -0.43411212696E+02  0.69972566361E+02  0.41800000000E+01 0. -1.
        -11    1    1    2    0    0  0.37281861333E+02  0.10949491164E+02 -0.59520959632E+02  0.71081454521E+02  0.00000000000E+00 0.  1.
         11    1    1    2    0    0 -0.38104133718E+02 -0.11008206811E+01 -0.21926746384E+03  0.22255641422E+03  0.00000000000E+00 0. -1.
</event>
<event>
 6    1  0.6447971E-006  0.1076665E+03  0.7561462E-02  0.1264953E+00
          1   -1    0    0  501    0  0.00000000000E+00  0.00000000000E+00  0.25976879509E+03  0.25976879509E+03  0.00000000000E+00 0. -1.
         -1   -1    0    0    0  501 -0.00000000000E+00 -0.00000000000E+00 -0.15383981571E+03  0.15383981571E+03  0.00000000000E+00 0.  1.
          5    1    1    2  502    0  0.28674856189E+02  0.20240373674E+02  0.40055025841E+02  0.53420947193E+02  0.41800000000E+01 0. -1.
         -5    1    1    2    0  502 -0.77342818764E+02 -0.15909432175E+02 -0.12236828418E+03  0.14569313992E+03  0.41800000000E+01 0.  1.
        -11    1    1    2    0    0 -0.17832611883E+02 -0.25507278468E+02  0.78450050465E+02  0.84398067036E+02  0.00000000000E+00 0.  1.
         11    1    1    2    0    0  0.66500574459E+02  0.21176336970E+02  0.10979218726E+03  0.13009645665E+03  0.00000000000E+00 0. -1.
</event>
<event>
 6    1  0.6447971E-006  0.1288298E+03  0.7561462E-02  0.1229202E+00
          2   -1    0    0  501    0  0.00000000000E+00  0.00000000000E+00  0.77250036434E+03  0.77250036434E+03  0.00000000000E+00 0. -1.
         -2   -1    0    0    0  501 -0.00000000000E+00 -0.00000000000E+00 -0.26182838737E+02  0.26182838737E+02  0.00000000000E+00 0.  1.
          5    1    1    2  502    0  0.63117775544E+01  0.31037484467E+02  0.41021768245E+02  0.51994440548E+02  0.41800000000E+01 0. -1.
         -5    1    1    2    0  502 -0.16167139546E+02 -0.11508887644E+03  0.25838147396E+03  0.28334657994E+03  0.41800000000E+01 0. -1.
        -11    1    1    2    0    0 -0.29702371309E+02  0.44317117867E+02  0.11559624718E+03  0.12731351130E+03  0.00000000000E+00 0.  1.
         11    1    1    2    0    0  0.39557733301E+02  0.39734274103E+02  0.33131803622E+03  0.33602867128E+03  0.00000000000E+00 0. -1.
</event>
<event>
 6    1  0.6447971E-006  0.1637936E+03  0.7561462E-02  0.1184479E+00
          1   -1    0    0  501    0  0.00000000000E+00  0.00000000000E+00  0.67765546448E+03  0.67765546448E+03  0.00000000000E+00 0. -1.
         -1   -1    0    0    0  501 -0.00000000000E+00 -0.00000000000E+00 -0.68895631413E+02  0.68895631413E+02  0.00000000000E+00 0.  1.
          5    1    1    2  502    0  0.50853169214E+02  0.88685687809E+02  0.69609706747E+01  0.10255302801E+03  0.41800000000E+01 0.  1.
         -5    1    1    2    0  502  0.11130271874E+02  0.50096027684E+02  0.12296840831E+03  0.13331240296E+03  0.41800000000E+01 0.  1.
        -11    1    1    2    0    0 -0.43544787085E+02 -0.11316443750E+02  0.17487957422E+03  0.18057429458E+03  0.00000000000E+00 0. -1.
         11    1    1    2    0    0 -0.18438654002E+02 -0.12746527174E+03  0.30395087986E+03  0.33011137034E+03  0.00000000000E+00 0.  1.
</event>
<event>
 6    1  0.6447971E-006  0.1543168E+03  0.7561462E-02  0.1195267E+00
         -1   -1    0    0    0  501 -0.00000000000E+00  0.00000000000E+00  0.17114934580E+03  0.17114934580E+03  0.00000000000E+00 0.  1.
          1   -1    0    0  501    0  0.00000000000E+00 -0.00000000000E+00 -0.15792057697E+03  0.15792057697E+03  0.00000000000E+00 0. -1.
          5    1    1    2  502    0 -0.61152681699E+01 -0.29381389545E+02 -0.30917814116E+02  0.43290255094E+02  0.41800000000E+01 0. -1.
         -5    1    1    2    0  502  0.12685933447E+03  0.12180199810E+02  0.31848351744E+02  0.13142845171E+03  0.41800000000E+01 0. -1.
        -11    1    1    2    0    0 -0.21221414326E+02 -0.33092835743E+02 -0.10157444163E+02  0.40603668251E+02  0.00000000000E+00 0. -1.
         11    1    1    2    0    0 -0.99522651977E+02  0.50294025477E+02  0.22455675357E+02  0.11374754771E+03  0.00000000000E+00 0.  1.
</event>
<event>
 6    1  0.6447971E-006  0.1815432E+03  0.7561462E-02  0.1166318E+00
         -2   -1    0    0    0  501 -0.00000000000E+00  0.00000000000E+00  0.39332219314E+02  0.39332219314E+02  0.00000000000E+00 0.  1.
          2   -1    0    0  501    0  0.00000000000E+00 -0.00000000000E+00 -0.10732104980E+04  0.10732104980E+04  0.00000000000E+00 0. -1.
          5    1    1    2  502    0 -0.16361634731E+03  0.55765188087E+01 -0.48895085383E+03  0.51564698829E+03  0.41800000000E+01 0. -1.
         -5    1    1    2    0  502 -0.89283997918E+01 -0.23414698433E+02 -0.10175353543E+02  0.27367401142E+02  0.41800000000E+01 0. -1.
        -11    1    1    2    0    0  0.12447493247E+03  0.18498246519E+02 -0.48199913192E+03  0.49815595661E+03  0.00000000000E+00 0.  1.
         11    1    1    2    0    0  0.48069814632E+02 -0.66006689509E+00 -0.52752939407E+02  0.71372371287E+02  0.00000000000E+00 0. -1.
</event>
<event>
 6    1  0.6447971E-006  0.1056148E+03  0.7561462E-02  0.1268913E+00
         -1   -1    0    0    0  501 -0.00000000000E+00  0.00000000000E+00  0.12466515242E+03  0.12466515242E+03  0.00000000000E+00 0.  1.
          1   -1    0    0  501    0  0.00000000000E+00 -0.00000000000E+00 -0.13470546483E+03  0.13470546483E+03  0.00000000000E+00 0. -1.
          5    1    1    2  502    0 -0.44251338093E+02  0.94714823024E+02  0.59167845546E+01  0.10479293565E+03  0.41800000000E+01 0.  1.
         -5    1    1    2    0  502  0.71890332869E+01 -0.36785962432E+02  0.86851120633E+01  0.38701328184E+02  0.41800000000E+01 0.  1.
        -11    1    1    2    0    0  0.80386669969E+01 -0.15852131873E+02  0.33827949677E+02  0.38213092408E+02  0.00000000000E+00 0.  1.
         11    1    1    2    0    0  0.29023637809E+02 -0.42076728719E+02 -0.58470158699E+02  0.77663261003E+02  0.00000000000E+00 0. -1.
</event>
<event>
 6    1  0.6447971E-006  0.8719244E+02  0.7561462E-02  0.1309797E+00
         -2   -1    0    0    0  501 -0.00000000000E+00  0.00000000000E+00  0.88677288148E+02  0.88677288148E+02  0.00000000000E+00 0. -1.
          2   -1    0    0  501    0  0.00000000000E+00 -0.00000000000E+00 -0.15270261710E+03  0.15270261710E+03  0.00000000000E+00 0.  1.
          5    1    1    2  502    0  0.31908947845E+01 -0.70728596585E+02  0.29444935023E+02  0.76793181877E+02  0.41800000000E+01 0.  1.
         -5    1    1    2    0  502 -0.50224680741E+01  0.36737805612E+02 -0.37800501624E+02  0.53115363783E+02  0.41800000000E+01 0.  1.
        -11    1    1    2    0    0 -0.31519509462E+01  0.49631353650E+02  0.37050462657E+01  0.49869163095E+02  0.00000000000E+00 0. -1.
         11    1    1    2    0    0  0.49835242358E+01 -0.15640562677E+02 -0.59374808616E+02  0.61602196494E+02  0.00000000000E+00 0.  1.
</event>
<event>
 6    1  0.6447971E-006  0.1444868E+03  0.7561462E-02  0.1207416E+00
         -1   -1    0    0    0  501 -0.00000000000E+00  0.00000000000E+00  0.10144258617E+03  0.10144258617E+03  0.00000000000E+00 0.  1.
          1   -1    0    0  501    0  0.00000000000E+00 -0.00000000000E+00 -0.36254654074E+03  0.36254654074E+03  0.00000000000E+00 0. -1.
          5    1    1    2  502    0  0.99603615606E+02 -0.43595070422E+02  0.21998317161E+02  0.11100814729E+03  0.41800000000E+01 0. -1.
         -5    1    1    2    0  502  0.30215989126E+02  0.39189427882E+02 -0.51820786478E+02  0.71775229486E+02  0.41800000000E+01 0. -1.
        -11    1    1    2    0    0 -0.73747959876E+02  0.87513113973E+01 -0.45493010644E+02  0.87091681890E+02  0.00000000000E+00 0. -1.
         11    1    1    2    0    0 -0.56071644856E+02 -0.43456688568E+01 -0.18578847460E+03  0.19411406824E+03  0.00000000000E+00 0.  1.
</event>
<event>
 6    1  0.6447971E-006  0.7001857E+02  0.7561462E-02  0.1360030E+00
          1   -1    0    0  501    0  0.00000000000E+00  0.00000000000E+00  0.55297742215E+03  0.55297742215E+03  0.00000000000E+00 0. -1.
         -1   -1    0    0    0  501 -0.00000000000E+00 -0.00000000000E+00 -0.27256103259E+02  0.27256103259E+02  0.00000000000E+00 0.  1.
          5    1    1    2  502    0  0.34252392284E+02 -0.59068022929E+01  0.19783409135E+03  0.20090773204E+03  0.41800000000E+01 0. -1.
         -5    1    1    2    0  502 -0.58448656808E+01 -0.66145486076E+01 -0.17917473425E+02  0.20406444130E+02  0.41800000000E+01 0. -1.
        -11    1    1    2    0    0 -0.40518470234E+01 -0.38506829147E+02  0.11740921733E+03  0.12362895158E+03  0.00000000000E+00 0. -1.
         11    1    1    2    0    0 -0.24355679580E+02  0.51028180047E+02  0.22839548363E+03  0.23529039766E+03  0.00000000000E+00 0.  1.
</event>
<event>
 6    1  0.6447971E-006  0.1910142E+03  0.7561462E-02  0.1157550E+00
         -2   -1    0    0    0  501 -0.00000000000E+00  0.00000000000E+00  0.38660196666E+03  0.38660196666E+03  0.00000000000E+00 0.  1.
          2   -1    0    0  501    0  0.00000000000E+00 -0.00000000000E+00 -0.10077780573E+03  0.10077780573E+03  0.00000000000E+00 0. -1.
          5    1    1    2  502    0  0.28264023584E+02  0.15528665228E+03  0.17553741675E+03  0.23610094554E+03  0.41800000000E+01 0.  1.
         -5    1    1    2    0  502 -0.40775595843E+02  0.64846521825E+01  0.16355637129E+02  0.44605820205E+02  0.41800000000E+01 0.  1.
        -11    1    1    2    0    0  0.46678546049E+02 -0.65108131008E+02  0.28409308544E+02  0.85000259980E+02  0.00000000000E+00 0.  1.
         11    1    1    2    0    0 -0.34166973790E+02 -0.96663173458E+02  0.65521798500E+02  0.12167274666E+03  0.00000000000E+00 0. -1.
</event>
<event>
 6    1  0.6447971E-006  0.1359888E+03  0.7561462E-02  0.1218830E+00
         -1   -1    0    0    0  501 -0.00000000000E+00  0.00000000000E+00  0.73808654141E+02  0.73808654141E+02  0.00000000000E+00 0.  1.
          1   -1    0    0  501    0  0.00000000000E+00 -0.00000000000E+00 -0.34429929026E+03  0.34429929026E+03  0.00000000000E+00 0. -1.
          5    1    1    2  502    0  0.21228595839E+02  0.67259506851E+02 -0.56803497483E+02  0.90656518074E+02  0.41800000000E+01 0.  1.
         -5    1    1    2    0  502  0.65475498670E+02 -0.34009599651E+02  0.35474495771E+01  0.73984799743E+02  0.41800000000E+01 0.  1.
        -11    1    1    2    0    0 -0.33898655824E+02  0.29833270973E+02 -0.10510454390E+03  0.11439452815E+03  0.00000000000E+00 0. -1.
         11    1    1    2    0    0 -0.52805438686E+02 -0.63083178173E+02 -0.11213004432E+03  0.13907209843E+03  0.00000000000E+00 0.  1.
</event>
<event>
 6    1  0.6447971E-006  0.2153780E+03  0.7561462E-02  0.1137377E+00
          2   -1    0    0  501    0  0.00000000000E+00  0.00000000000E+00  0.75134271417E+03  0.75134271417E+03  0.00000000000E+00 0. -1.
         -2   -1    0    0    0  501 -0.00000000000E+00 -0.00000000000E+00 -0.73316197694E+02  0.73316197694E+02  0.00000000000E+00 0.  1.
          5    1    1    2  502    0 -0.62839616374E+02 -0.75296965899E+02  0.12236492261E+03  0.15687286937E+03  0.41800000000E+01 0. -1.
         -5    1    1    2    0  502 -0.12014663785E+03  0.26824211493E+02  0.77742773500E+02  0.14565769509E+03  0.41800000000E+01 0. -1.
        -11    1    1    2    0    0  0.66182982468E+02  0.63417371093E+02  0.23266622598E+03  0.25007103558E+03  0.00000000000E+00 0. -1.
         11    1    1    2    0    0  0.11680327175E+03 -0.14944616687E+02  0.24525259438E+03  0.27205731182E+03  0.00000000000E+00 0.  1.
</event>
<event>
 6    1  0.6447971E-006  0.1039450E+03  0.7561462E-02  0.1272212E+00
         -2   -1    0    0    0  501 -0.00000000000E+00  0.00000000000E+00  0.53090967025E+02  0.53090967025E+02  0.00000000000E+00 0.  1.
          2   -1    0    0  501    0  0.00000000000E+00 -0.00000000000E+00 -0.30283260399E+03  0.30283260399E+03  0.00000000000E+00 0. -1.
          5    1    1    2  502    0  0.67845517539E+02  0.24399020980E+02 -0.31949816702E+02  0.78972081537E+02  0.41800000000E+01 0.  1.
         -5    1    1    2    0  502 -0.45092493985E+02  0.44228444932E+02 -0.90401366984E+02  0.11036017356E+03  0.41800000000E+01 0.  1.
        -11    1    1    2    0    0 -0.13259737690E+02 -0.35011801132E+02 -0.12620476716E+03  0.13164076161E+03  0.00000000000E+00 0. -1.
         11    1    1    2    0    0 -0.94932858644E+01 -0.33615664780E+02 -0.11856861123E+01  0.34950554311E+02  0.00000000000E+00 0.  1.
</event>
<event>
 6    1  0.6447971E-006  0.1191839E+03  0.7561462E-02  0.1244449E+00
          1   -1    0    0  501    0  0.00000000000E+00  0.00000000000E+00  0.30764491326E+03  0.30764491326E+03  0.00000000000E+00 0. -1.
         -1   -1    0    0    0  501 -0.00000000000E+00 -0.00000000000E+00 -0.62215753928E+02  0.62215753928E+02  0.00000000000E+00 0.  1.
          5    1    1    2  502    0  0.14077654875E+02  0.16008804298E+02  0.64426576471E+02  0.67990575359E+02  0.41800000000E+01 0. -1.
         -5    1    1    2    0  502 -0.42385591293E+02 -0.91011311199E+02  0.18594805731E+02  0.10219019677E+03  0.41800000000E+01 0. -1.
        -11    1    1    2    0    0 -0.17117418450E+02 -0.99684705308E+01  0.28773894117E+02  0.34932984438E+02  0.00000000000E+00 0.  1.
         11    1    1    2    0    0  0.45425354868E+02  0.84970977432E+02  0.13363388302E+03  0.16474691063E+03  0.00000000000E+00 0. -1.
</event>
<event>
 6    1  0.6447971E-006  0.1117714E+03  0.7561462E-02  0.1257324E+00
          3   -1    0    0  501    0  0.00000000000E+00  0.00000000000E+00  0.23363778942E+02  0.23363778942E+02  0.00000000000E+00 0. -1.
         -3   -1    0    0    0  501 -0.00000000000E+00 -0.00000000000E+00 -0.65150620051E+03  0.65150620051E+03  0.00000000000E+00 0.  1.
          5    1    1    2  502    0  0.13654326985E+02 -0.35138426065E+02 -0.62042537736E+02  0.72717938092E+02  0.41800000000E+01 0. -1.
         -5    1    1    2    0  502 -0.26188664885E+02  0.78325341756E+02 -0.37925387790E+03  0.38816450332E+03  0.41800000000E+01 0. -1.
        -11    1    1    2    0    0 -0.36974993029E+02  0.37176502825E+00 -0.51137829750E+02  0.63105989813E+02  0.00000000000E+00 0. -1.
         11    1    1    2    0    0  0.49509330929E+02 -0.43558680720E+02 -0.13570817618E+03  0.15088154823E+03  0.00000000000E+00 0.  1.
</event>
<event>
 6    1  0.6447971E-006  0.9303620E+02  0.7561462E-02  0.1295661E+00
         -2   -1    0    0    0  501 -0.00000000000E+00  0.00000000000E+00  0.15188211202E+03  0.15188211202E+03  0.00000000000E+00 0.  1.
          2   -1    0    0  501    0  0.00000000000E+00 -0.00000000000E+00 -0.81719930409E+02  0.81719930409E+02  0.00000000000E+00 0. -1.
          5    1    1    2  502    0 -0.46081149167E+02 -0.14841724252E+02  0.79938403602E+02  0.93548756581E+02  0.41800000000E+01 0. -1.
         -5    1    1    2    0  502  0.46492608936E+02  0.14602601716E+02 -0.97710160256E+01  0.49877287584E+02  0.41800000000E+01 0. -1.
        -11    1    1    2    0    0  0.16982542971E+02  0.40931704385E+02  0.84711298839E+01  0.45117305229E+02  0.00000000000E+00 0.  1.
         11    1    1    2    0    0 -0.17394002739E+02 -0.40692581849E+02 -0.84763358485E+01  0.45058693038E+02  0.00000000000E+00 0. -1.
</event>
