<event>
 7    1  0.1584424E-005  0.1434540E+03  0.7546771E-02  0.1218825E+00
         -2   -1    0    0    0  501 -0.00000000000E+00  0.00000000000E+00  0.50498073061E+02  0.50498073061E+02  0.00000000000E+00 0. -1.
          2   -1    0    0  501    0  0.00000000000E+00 -0.00000000000E+00 -0.33431652935E+03  0.33431652935E+03  0.00000000000E+00 0.  1.
         23    2    1    2    0    0 -0.68911071649E+02 -0.14341581004E+02 -0.13934997948E+03  0.18122140139E+03  0.92023707801E+02 0.  0.
          5    1    1    2  502    0  0.74645325851E+02 -0.42478139098E+02 -0.91061169571E+02  0.12526189994E+03  0.47000000000E+01 0. -1.
         -5    1    1    2    0  502 -0.57342542026E+01  0.56819720102E+02 -0.53407307239E+02  0.78331301089E+02  0.47000000000E+01 0. -1.
        -11    1    3    3    0    0 -0.11936787110E+02 -0.45163784198E+02 -0.83557800236E+02  0.95729620650E+02  0.00000000000E+00 0.  1.
         11    1    3    3    0    0 -0.56974284539E+02  0.30822203194E+02 -0.55792179246E+02  0.85491780736E+02  0.00000000000E+00 0. -1.
<mgrwt>
<rscale>  0 0.13599245E+03</rscale>
<asrwt>0</asrwt>
<pdfrwt beam="2">  1        2 0.51433312E-01 0.14345400E+03</pdfrwt>
<pdfrwt beam="1">  1       -2 0.77689343E-02 0.14345400E+03</pdfrwt>
<totfact> 0.91635673E+03</totfact>
</mgrwt>
</event>
<event>
 7    1  0.1111284E-005  0.2264250E+03  0.7546771E-02  0.1132318E+00
         -1   -1    0    0    0  501 -0.00000000000E+00  0.00000000000E+00  0.25994079148E+03  0.25994079148E+03  0.00000000000E+00 0.  1.
          1   -1    0    0  501    0  0.00000000000E+00 -0.00000000000E+00 -0.65933418267E+03  0.65933418267E+03  0.00000000000E+00 0. -1.
         23    2    1    2    0    0 -0.13021449124E+03 -0.13668175406E+03 -0.58820638398E+03  0.62445528554E+03  0.91213693382E+02 0.  0.
          5    1    1    2  502    0  0.32151962880E+02  0.28944277140E+02  0.13095770865E+03  0.13799830198E+03  0.47000000000E+01 0. -1.
         -5    1    1    2    0  502  0.98062528356E+02  0.10773747692E+03  0.57855284136E+02  0.15682138663E+03  0.47000000000E+01 0. -1.
        -11    1    3    3    0    0 -0.73377881707E+02 -0.13322290024E+03 -0.40571780797E+03  0.43328927332E+03  0.00000000000E+00 0. -1.
         11    1    3    3    0    0 -0.56836609528E+02 -0.34588538233E+01 -0.18248857601E+03  0.19116601221E+03  0.00000000000E+00 0.  1.
<mgrwt>
<rscale>  0 0.22211233E+03</rscale>
<asrwt>0</asrwt>
<pdfrwt beam="2">  1        1 0.10143603E+00 0.22642505E+03</pdfrwt>
<pdfrwt beam="1">  1       -1 0.39990891E-01 0.22642505E+03</pdfrwt>
<totfact> 0.19329034E+02</totfact>
</mgrwt>
</event>
<event>
 7    1  0.1111284E-005  0.1347506E+03  0.7546771E-02  0.1232079E+00
          2   -1    0    0  501    0  0.00000000000E+00  0.00000000000E+00  0.25529077732E+03  0.25529077732E+03  0.00000000000E+00 0. -1.
         -2   -1    0    0    0  501 -0.00000000000E+00 -0.00000000000E+00 -0.58271059233E+02  0.58271059233E+02  0.00000000000E+00 0.  1.
         23    2    1    2    0    0  0.38458374322E+02 -0.32429014680E+02  0.62395206515E+02  0.12308488278E+03  0.93413270062E+02 0.  0.
          5    1    1    2  502    0 -0.29143054864E+02 -0.43199397505E+02  0.28013448855E+02  0.59349380017E+02  0.47000000000E+01 0. -1.
         -5    1    1    2    0  502 -0.93153194587E+01  0.75628412185E+02  0.10661106272E+03  0.13112757376E+03  0.47000000000E+01 0. -1.
        -11    1    3    3    0    0  0.39659990076E+02  0.25932744711E+02  0.32856846045E+02  0.57662764355E+02  0.00000000000E+00 0. -1.
         11    1    3    3    0    0 -0.12016157532E+01 -0.58361759391E+02  0.29538360471E+02  0.65422118423E+02  0.00000000000E+00 0.  1.
<mgrwt>
<rscale>  0 0.12693297E+03</rscale>
<asrwt>0</asrwt>
<pdfrwt beam="1">  1        2 0.39275504E-01 0.13475055E+03</pdfrwt>
<pdfrwt beam="2">  1       -2 0.89647785E-02 0.13475055E+03</pdfrwt>
<totfact> 0.97280685E+03</totfact>
</mgrwt>
</event>
<event>
 7    1  0.1111284E-005  0.1521041E+03  0.7546771E-02  0.1206287E+00
         -1   -1    0    0    0  501 -0.00000000000E+00  0.00000000000E+00  0.33463092827E+03  0.33463092827E+03  0.00000000000E+00 0.  1.
          1   -1    0    0  501    0  0.00000000000E+00 -0.00000000000E+00 -0.70329356993E+02  0.70329356993E+02  0.00000000000E+00 0. -1.
         23    2    1    2    0    0 -0.34189335613E+02 -0.79628212636E+02  0.38300479147E+02  0.13254120663E+03  0.92685931153E+02 0.  0.
          5    1    1    2  502    0  0.21583248644E+01 -0.12547637212E+02  0.14465595138E+03  0.14529121045E+03  0.47000000000E+01 0. -1.
         -5    1    1    2    0  502  0.32031010749E+02  0.92175849847E+02  0.81345140747E+02  0.12712786818E+03  0.47000000000E+01 0. -1.
        -11    1    3    3    0    0 -0.36058226485E+02 -0.55489094502E+02  0.67555224104E+02  0.94567138106E+02  0.00000000000E+00 0.  1.
         11    1    3    3    0    0  0.18688908723E+01 -0.24139118134E+02 -0.29254744957E+02  0.37974068519E+02  0.00000000000E+00 0. -1.
<mgrwt>
<rscale>  0 0.14536497E+03</rscale>
<asrwt>0</asrwt>
<pdfrwt beam="2">  1        1 0.10819901E-01 0.15210411E+03</pdfrwt>
<pdfrwt beam="1">  1       -1 0.51481680E-01 0.15210411E+03</pdfrwt>
<totfact> 0.21889276E+03</totfact>
</mgrwt>
</event>
<event>
 7    1  0.1111284E-005  0.2273549E+03  0.7546771E-02  0.1128515E+00
         -2   -1    0    0    0  501 -0.00000000000E+00  0.00000000000E+00  0.45151770608E+02  0.45151770608E+02  0.00000000000E+00 0. -1.
          2   -1    0    0  501    0  0.00000000000E+00 -0.00000000000E+00 -0.28620274376E+03  0.28620274376E+03  0.00000000000E+00 0.  1.
         23    2    1    2    0    0 -0.13210883936E+02  0.28820161435E+02 -0.12363839204E+03  0.15695287423E+03  0.91337963541E+02 0.  0.
          5    1    1    2  502    0  0.40614982473E+02 -0.64889811620E+02 -0.45191801364E+02  0.89020522150E+02  0.47000000000E+01 0. -1.
         -5    1    1    2    0  502 -0.27404098537E+02  0.36069650184E+02 -0.72220779743E+02  0.85381117981E+02  0.47000000000E+01 0. -1.
        -11    1    3    3    0    0 -0.23264335078E+02 -0.22630486776E+02 -0.13843637307E+02  0.35284763174E+02  0.00000000000E+00 0.  1.
         11    1    3    3    0    0  0.10053451142E+02  0.51450648212E+02 -0.10979475474E+03  0.12166811106E+03  0.00000000000E+00 0. -1.
<mgrwt>
<rscale>  0 0.22735488E+03</rscale>
<asrwt>0</asrwt>
<pdfrwt beam="2">  1        2 0.44031192E-01 0.22735488E+03</pdfrwt>
<pdfrwt beam="1">  1       -2 0.69464262E-02 0.22735488E+03</pdfrwt>
<totfact> 0.13282772E+04</totfact>
</mgrwt>
</event>
<event>
 7    1  0.1111284E-005  0.1903478E+03  0.7546771E-02  0.1163815E+00
         -1   -1    0    0    0  501 -0.00000000000E+00  0.00000000000E+00  0.45655137104E+03  0.45655137104E+03  0.00000000000E+00 0.  1.
          1   -1    0    0  501    0  0.00000000000E+00 -0.00000000000E+00 -0.71068229183E+02  0.71068229183E+02  0.00000000000E+00 0. -1.
         23    2    1    2    0    0 -0.14329236742E+03  0.86481584628E+01  0.14610598975E+03  0.22178676604E+03  0.85058310264E+02 0.  0.
          5    1    1    2  502    0  0.21558930247E+02  0.49876069656E+02  0.57680685262E+02  0.79382373674E+02  0.47000000000E+01 0.  1.
         -5    1    1    2    0  502  0.12173343717E+03 -0.58524228119E+02  0.18169646684E+03  0.22645046051E+03  0.47000000000E+01 0.  1.
        -11    1    3    3    0    0 -0.10978937657E+03  0.40405199984E+02  0.82317187504E+02  0.14304686908E+03  0.00000000000E+00 0. -1.
         11    1    3    3    0    0 -0.33502990842E+02 -0.31757041521E+02  0.63788802249E+02  0.78739896964E+02  0.00000000000E+00 0.  1.
<mgrwt>
<rscale>  0 0.18418291E+03</rscale>
<asrwt>0</asrwt>
<pdfrwt beam="2">  1        1 0.10933574E-01 0.19034784E+03</pdfrwt>
<pdfrwt beam="1">  1       -1 0.70238671E-01 0.19034784E+03</pdfrwt>
<totfact> 0.12005741E+03</totfact>
</mgrwt>
</event>
<event>
 7    1  0.1111284E-005  0.1321978E+03  0.7546771E-02  0.1237081E+00
          3   -1    0    0  501    0  0.00000000000E+00  0.00000000000E+00  0.26836645772E+02  0.26836645772E+02  0.00000000000E+00 0. -1.
         -3   -1    0    0    0  501 -0.00000000000E+00 -0.00000000000E+00 -0.54406954152E+03  0.54406954152E+03  0.00000000000E+00 0.  1.
         23    2    1    2    0    0  0.20004496171E+02  0.38111839105E+02 -0.15428943449E+03  0.18463657047E+03  0.91829959229E+02 0.  0.
          5    1    1    2  502    0 -0.55279280812E+02 -0.61661584474E+02 -0.29131209972E+03  0.30289070526E+03  0.47000000000E+01 0.  1.
         -5    1    1    2    0  502  0.35274784641E+02  0.23549745368E+02 -0.71631361536E+02  0.83378911566E+02  0.47000000000E+01 0.  1.
        -11    1    3    3    0    0  0.46296217195E+02  0.29601387414E+02 -0.42461417247E+02  0.69444609712E+02  0.00000000000E+00 0. -1.
         11    1    3    3    0    0 -0.26291721024E+02  0.85104516911E+01 -0.11182801724E+03  0.11519196075E+03  0.00000000000E+00 0.  1.
<mgrwt>
<rscale>  0 0.12372174E+03</rscale>
<asrwt>0</asrwt>
<pdfrwt beam="1">  1        3 0.41287149E-02 0.13219781E+03</pdfrwt>
<pdfrwt beam="2">  1       -3 0.83703003E-01 0.13219781E+03</pdfrwt>
<totfact> 0.95838032E+02</totfact>
</mgrwt>
</event>
<event>
 7    1  0.1111284E-005  0.1720818E+03  0.7546771E-02  0.1181892E+00
         -1   -1    0    0    0  501 -0.00000000000E+00  0.00000000000E+00  0.82164792996E+02  0.82164792996E+02  0.00000000000E+00 0.  1.
          1   -1    0    0  501    0  0.00000000000E+00 -0.00000000000E+00 -0.32386225723E+03  0.32386225723E+03  0.00000000000E+00 0. -1.
         23    2    1    2    0    0  0.26917215542E+02 -0.11516492700E+03 -0.79093902599E+02  0.16927388922E+03  0.91707727274E+02 0.  0.
          5    1    1    2  502    0 -0.36870180154E+02 -0.12466256773E+02 -0.64171583224E+02  0.75199068053E+02  0.47000000000E+01 0.  1.
         -5    1    1    2    0  502  0.99529646122E+01  0.12763118377E+03 -0.98431978414E+02  0.16155409295E+03  0.47000000000E+01 0.  1.
        -11    1    3    3    0    0  0.56554119857E+02 -0.78539941298E+02 -0.74107405039E+02  0.12189667072E+03  0.00000000000E+00 0.  1.
         11    1    3    3    0    0 -0.29636904315E+02 -0.36624985699E+02 -0.49864975597E+01  0.47377218500E+02  0.00000000000E+00 0. -1.
<mgrwt>
<rscale>  0 0.16617927E+03</rscale>
<asrwt>0</asrwt>
<pdfrwt beam="2">  1        1 0.49824963E-01 0.17208179E+03</pdfrwt>
<pdfrwt beam="1">  1       -1 0.12640737E-01 0.17208179E+03</pdfrwt>
<totfact> 0.32812283E+03</totfact>
</mgrwt>
</event>
<event>
 7    1  0.1111284E-005  0.1283052E+03  0.7546771E-02  0.1244647E+00
          2   -1    0    0  501    0  0.00000000000E+00  0.00000000000E+00  0.36373564067E+03  0.36373564067E+03  0.00000000000E+00 0. -1.
         -2   -1    0    0    0  501 -0.00000000000E+00 -0.00000000000E+00 -0.42813238005E+02  0.42813238005E+02  0.00000000000E+00 0.  1.
         23    2    1    2    0    0  0.20191306003E+02 -0.20714594692E+02  0.23111775792E+03  0.24993756335E+03  0.90645376459E+02 0.  0.
          5    1    1    2  502    0 -0.14426433535E+02  0.52150566373E+02 -0.68109132525E+01  0.54738305572E+02  0.47000000000E+01 0.  1.
         -5    1    1    2    0  502 -0.57648724683E+01 -0.31435971680E+02  0.96615557991E+02  0.10187300975E+03  0.47000000000E+01 0.  1.
        -11    1    3    3    0    0  0.36964981549E+02 -0.43641491928E+02  0.19901759895E+03  0.20707243749E+03  0.00000000000E+00 0. -1.
         11    1    3    3    0    0 -0.16773675547E+02  0.22926897236E+02  0.32100158974E+02  0.42865125852E+02  0.00000000000E+00 0.  1.
<mgrwt>
<rscale>  0 0.11906511E+03</rscale>
<asrwt>0</asrwt>
<pdfrwt beam="1">  1        2 0.55959327E-01 0.12830522E+03</pdfrwt>
<pdfrwt beam="2">  1       -2 0.65866522E-02 0.12830522E+03</pdfrwt>
<totfact> 0.10703478E+04</totfact>
</mgrwt>
</event>
<event>
 7    1  0.1111284E-005  0.1312085E+03  0.7546771E-02  0.1238851E+00
         -2   -1    0    0    0  501 -0.00000000000E+00  0.00000000000E+00  0.21448863222E+02  0.21448863222E+02  0.00000000000E+00 0. -1.
          2   -1    0    0  501    0  0.00000000000E+00 -0.00000000000E+00 -0.62947367479E+03  0.62947367479E+03  0.00000000000E+00 0.  1.
         23    2    1    2    0    0 -0.99132761542E+01  0.38632990035E+02 -0.29522877827E+03  0.31172198149E+03  0.91759366074E+02 0.  0.
          5    1    1    2  502    0  0.31372264357E+02 -0.45593448467E+02 -0.31118193476E+03  0.31610009180E+03  0.47000000000E+01 0. -1.
         -5    1    1    2    0  502 -0.21458988203E+02  0.69604584320E+01 -0.16140985370E+01  0.23100464722E+02  0.47000000000E+01 0. -1.
        -11    1    3    3    0    0 -0.39659745593E+02  0.48492438186E+02 -0.14022554265E+03  0.15358259926E+03  0.00000000000E+00 0. -1.
         11    1    3    3    0    0  0.29746469439E+02 -0.98594481507E+01 -0.15500323562E+03  0.15813938224E+03  0.00000000000E+00 0.  1.
<mgrwt>
<rscale>  0 0.12261079E+03</rscale>
<asrwt>0</asrwt>
<pdfrwt beam="2">  1        2 0.96842105E-01 0.13120846E+03</pdfrwt>
<pdfrwt beam="1">  1       -2 0.32998251E-02 0.13120846E+03</pdfrwt>
<totfact> 0.16544529E+04</totfact>
</mgrwt>
</event>
<event>
 7    1  0.1111284E-005  0.1382486E+03  0.7546771E-02  0.1226977E+00
          3   -1    0    0  501    0  0.00000000000E+00  0.00000000000E+00  0.14080856306E+03  0.14080856306E+03  0.00000000000E+00 0. -1.
         -3   -1    0    0    0  501 -0.00000000000E+00 -0.00000000000E+00 -0.13206051391E+03  0.13206051391E+03  0.00000000000E+00 0.  1.
         23    2    1    2    0    0  0.31069433445E+02  0.50226577116E+02  0.61022890408E+02  0.12506736521E+03  0.91815216301E+02 0.  0.
          5    1    1    2  502    0 -0.23456511138E+02 -0.92237170926E+02 -0.35347476345E+02  0.10163384131E+03  0.47000000000E+01 0. -1.
         -5    1    1    2    0  502 -0.76129223070E+01  0.42010593811E+02 -0.16927364915E+02  0.46167870444E+02  0.47000000000E+01 0. -1.
        -11    1    3    3    0    0  0.41820355349E+02  0.24184465865E+02 -0.94018221344E+01  0.49216102753E+02  0.00000000000E+00 0.  1.
         11    1    3    3    0    0 -0.10750921904E+02  0.26042111251E+02  0.70424712542E+02  0.75851262461E+02  0.00000000000E+00 0. -1.
<mgrwt>
<rscale>  0 0.13032307E+03</rscale>
<asrwt>0</asrwt>
<pdfrwt beam="1">  1        3 0.21662856E-01 0.13824864E+03</pdfrwt>
<pdfrwt beam="2">  1       -3 0.20317002E-01 0.13824864E+03</pdfrwt>
<totfact> 0.98231198E+02</totfact>
</mgrwt>
</event>
<event>
 7    1  0.1111284E-005  0.1253852E+03  0.7546771E-02  0.1247762E+00
         -2   -1    0    0    0  501 -0.00000000000E+00  0.00000000000E+00  0.12349824399E+03  0.12349824399E+03  0.00000000000E+00 0.  1.
          2   -1    0    0  501    0  0.00000000000E+00 -0.00000000000E+00 -0.11165463456E+03  0.11165463456E+03  0.00000000000E+00 0. -1.
         23    2    1    2    0    0  0.96364821730E+01 -0.17558251082E+01 -0.34040547072E+02  0.10163585212E+03  0.95263544341E+02 0.  0.
          5    1    1    2  502    0  0.34873907372E+02 -0.44021732909E+02  0.29568515161E+01  0.56435231501E+02  0.47000000000E+01 0. -1.
         -5    1    1    2    0  502 -0.44510389545E+02  0.45777558017E+02  0.42927304991E+02  0.77081794928E+02  0.47000000000E+01 0. -1.
        -11    1    3    3    0    0  0.38892977748E+02 -0.59718553535E+01 -0.53377826954E+02  0.66313793322E+02  0.00000000000E+00 0. -1.
         11    1    3    3    0    0 -0.29256495576E+02  0.42160302453E+01  0.19337279882E+02  0.35322058796E+02  0.00000000000E+00 0.  1.
<mgrwt>
<rscale>  0 0.11721609E+03</rscale>
<asrwt>0</asrwt>
<pdfrwt beam="2">  1        2 0.17177636E-01 0.12538517E+03</pdfrwt>
<pdfrwt beam="1">  1       -2 0.18999730E-01 0.12538517E+03</pdfrwt>
<totfact> 0.71637996E+03</totfact>
</mgrwt>
</event>
<event>
 7    1  0.1111284E-005  0.1411728E+03  0.7546771E-02  0.1222621E+00
         -3   -1    0    0    0  501 -0.00000000000E+00  0.00000000000E+00  0.20056224330E+03  0.20056224330E+03  0.00000000000E+00 0.  1.
          3   -1    0    0  501    0  0.00000000000E+00 -0.00000000000E+00 -0.80662010610E+02  0.80662010610E+02  0.00000000000E+00 0. -1.
         23    2    1    2    0    0 -0.16681489030E+02 -0.63453294431E+02  0.41117140106E+02  0.11955624558E+03  0.91096015257E+02 0.  0.
          5    1    1    2  502    0 -0.43743506044E+02  0.24849453721E+01 -0.14321937975E+01  0.44088665818E+02  0.47000000000E+01 0.  1.
         -5    1    1    2    0  502  0.60424995074E+02  0.60968349059E+02  0.80215286377E+02  0.11757934251E+03  0.47000000000E+01 0.  1.
        -11    1    3    3    0    0  0.67914721821E+01 -0.79281550939E+01 -0.26789968293E+02  0.28752080598E+02  0.00000000000E+00 0. -1.
         11    1    3    3    0    0 -0.23472961212E+02 -0.55525139337E+02  0.67907108399E+02  0.90804164979E+02  0.00000000000E+00 0.  1.
<mgrwt>
<rscale>  0 0.13331313E+03</rscale>
<asrwt>0</asrwt>
<pdfrwt beam="2">  1        3 0.12409540E-01 0.14117283E+03</pdfrwt>
<pdfrwt beam="1">  1       -3 0.30855730E-01 0.14117283E+03</pdfrwt>
<totfact> 0.12113566E+03</totfact>
</mgrwt>
</event>
<event>
 7    1  0.1111284E-005  0.2082243E+03  0.7546771E-02  0.1146691E+00
         -2   -1    0    0    0  501 -0.00000000000E+00  0.00000000000E+00  0.57968855060E+03  0.57968855060E+03  0.00000000000E+00 0.  1.
          2   -1    0    0  501    0  0.00000000000E+00 -0.00000000000E+00 -0.83900800270E+02  0.83900800270E+02  0.00000000000E+00 0. -1.
         23    2    1    2    0    0 -0.13881907928E+03 -0.91998508327E+02  0.97223710223E+02  0.21391097581E+03  0.92579659958E+02 0.  0.
          5    1    1    2  502    0  0.12670592603E+03  0.13197982199E+02  0.22453707353E+03  0.25820063094E+03  0.47000000000E+01 0. -1.
         -5    1    1    2    0  502  0.12113153248E+02  0.78800526129E+02  0.17402696657E+03  0.19147774412E+03  0.47000000000E+01 0. -1.
        -11    1    3    3    0    0 -0.10566232961E+03 -0.31918728191E+02  0.94385201621E+02  0.14523050435E+03  0.00000000000E+00 0.  1.
         11    1    3    3    0    0 -0.33156749666E+02 -0.60079780136E+02  0.28385086028E+01  0.68680471465E+02  0.00000000000E+00 0. -1.
<mgrwt>
<rscale>  0 0.20365496E+03</rscale>
<asrwt>0</asrwt>
<pdfrwt beam="2">  1        2 0.12907816E-01 0.20822427E+03</pdfrwt>
<pdfrwt beam="1">  1       -2 0.89182852E-01 0.20822427E+03</pdfrwt>
<totfact> 0.51988764E+02</totfact>
</mgrwt>
</event>
<event>
 7    1  0.1111284E-005  0.1434830E+03  0.7546771E-02  0.1221742E+00
         -1   -1    0    0    0  501 -0.00000000000E+00  0.00000000000E+00  0.92497605313E+03  0.92497605313E+03  0.00000000000E+00 0.  1.
          1   -1    0    0  501    0  0.00000000000E+00 -0.00000000000E+00 -0.17231533880E+02  0.17231533880E+02  0.00000000000E+00 0. -1.
         23    2    1    2    0    0 -0.32335069857E+01  0.70380037474E+02  0.40499353711E+03  0.41938265687E+03  0.83055659308E+02 0.  0.
          5    1    1    2  502    0  0.58809347354E+02 -0.51582252052E+02  0.35972474783E+03  0.36816199188E+03  0.47000000000E+01 0.  1.
         -5    1    1    2    0  502 -0.55575840368E+02 -0.18797785422E+02  0.14302623431E+03  0.15466293825E+03  0.47000000000E+01 0.  1.
        -11    1    3    3    0    0  0.32374402461E+02  0.42546992049E+02  0.30499176890E+03  0.30964225739E+03  0.00000000000E+00 0.  1.
         11    1    3    3    0    0 -0.35607909447E+02  0.27833045425E+02  0.10000176821E+03  0.10974039948E+03  0.00000000000E+00 0. -1.
<mgrwt>
<rscale>  0 0.13392763E+03</rscale>
<asrwt>0</asrwt>
<pdfrwt beam="2">  1        1 0.26510059E-02 0.14348295E+03</pdfrwt>
<pdfrwt beam="1">  1       -1 0.14230397E+00 0.14348295E+03</pdfrwt>
<totfact> 0.17156127E+03</totfact>
</mgrwt>
</event>
<event>
 7    1  0.1111284E-005  0.1685540E+03  0.7546771E-02  0.1186143E+00
          1   -1    0    0  501    0  0.00000000000E+00  0.00000000000E+00  0.18287435031E+03  0.18287435031E+03  0.00000000000E+00 0. -1.
         -1   -1    0    0    0  501 -0.00000000000E+00 -0.00000000000E+00 -0.14077584212E+03  0.14077584212E+03  0.00000000000E+00 0.  1.
         23    2    1    2    0    0  0.52240526520E+02  0.10027830519E+03  0.54244550438E+02  0.15465918320E+03  0.90510665630E+02 0.  0.
          5    1    1    2  502    0  0.22578291117E+02 -0.42437367638E+02 -0.47668307532E+02  0.67860643563E+02  0.47000000000E+01 0. -1.
         -5    1    1    2    0  502 -0.74818817637E+02 -0.57840937553E+02  0.35522265276E+02  0.10113036567E+03  0.47000000000E+01 0. -1.
        -11    1    3    3    0    0 -0.11883116336E+02  0.69987445746E+02  0.11666991143E+02  0.71941432417E+02  0.00000000000E+00 0.  1.
         11    1    3    3    0    0  0.64123642856E+02  0.30290859445E+02  0.42577559295E+02  0.82717750783E+02  0.00000000000E+00 0. -1.
<mgrwt>
<rscale>  0 0.16228266E+03</rscale>
<asrwt>0</asrwt>
<pdfrwt beam="1">  1        1 0.28134515E-01 0.16855395E+03</pdfrwt>
<pdfrwt beam="2">  1       -1 0.21657822E-01 0.16855395E+03</pdfrwt>
<totfact> 0.28423892E+03</totfact>
</mgrwt>
</event>
<event>
 7    1  0.1111284E-005  0.1535744E+03  0.7546771E-02  0.1205161E+00
          1   -1    0    0  501    0  0.00000000000E+00  0.00000000000E+00  0.37053676893E+02  0.37053676893E+02  0.00000000000E+00 0. -1.
         -1   -1    0    0    0  501 -0.00000000000E+00 -0.00000000000E+00 -0.66457801173E+03  0.66457801173E+03  0.00000000000E+00 0.  1.
         23    2    1    2    0    0  0.83152041887E+02 -0.32331994859E+02 -0.13129554067E+03  0.18218186927E+03  0.89398515262E+02 0.  0.
          5    1    1    2  502    0 -0.10756880871E+03  0.27226396990E+02 -0.27216429281E+03  0.29395206681E+03  0.47000000000E+01 0.  1.
         -5    1    1    2    0  502  0.24416766824E+02  0.51055978688E+01 -0.22406450136E+03  0.22549775254E+03  0.47000000000E+01 0.  1.
        -11    1    3    3    0    0 -0.14698856838E+02 -0.23785075308E+02 -0.32406491439E+02  0.42801482301E+02  0.00000000000E+00 0.  1.
         11    1    3    3    0    0  0.97850898725E+02 -0.85469195511E+01 -0.98889049227E+02  0.13938038697E+03  0.00000000000E+00 0. -1.
<mgrwt>
<rscale>  0 0.14624804E+03</rscale>
<asrwt>0</asrwt>
<pdfrwt beam="1">  1        1 0.57005663E-02 0.15357441E+03</pdfrwt>
<pdfrwt beam="2">  1       -1 0.10224276E+00 0.15357441E+03</pdfrwt>
<totfact> 0.13075702E+03</totfact>
</mgrwt>
</event>
<event>
 7    1  0.1111284E-005  0.1438671E+03  0.7546771E-02  0.1220587E+00
          1   -1    0    0  501    0  0.00000000000E+00  0.00000000000E+00  0.56639372110E+03  0.56639372110E+03  0.00000000000E+00 0. -1.
         -1   -1    0    0    0  501 -0.00000000000E+00 -0.00000000000E+00 -0.34787310799E+02  0.34787310799E+02  0.00000000000E+00 0.  1.
         23    2    1    2    0    0 -0.66913007002E+02  0.24405619090E+02  0.36318533834E+03  0.37967844899E+03  0.84729864222E+02 0.  0.
          5    1    1    2  502    0  0.25015705407E+02 -0.71056251538E+02  0.61060455179E+02  0.97083704020E+02  0.47000000000E+01 0. -1.
         -5    1    1    2    0  502  0.41897301595E+02  0.46650632449E+02  0.10736061678E+03  0.12441887889E+03  0.47000000000E+01 0. -1.
        -11    1    3    3    0    0 -0.77240567138E+02  0.31344341167E+02  0.35530143529E+03  0.36494887704E+03  0.00000000000E+00 0. -1.
         11    1    3    3    0    0  0.10327560136E+02 -0.69387220772E+01  0.78839030522E+01  0.14729571948E+02  0.00000000000E+00 0.  1.
<mgrwt>
<rscale>  0 0.13474031E+03</rscale>
<asrwt>0</asrwt>
<pdfrwt beam="1">  1        1 0.87137489E-01 0.14386708E+03</pdfrwt>
<pdfrwt beam="2">  1       -1 0.53518944E-02 0.14386708E+03</pdfrwt>
<totfact> 0.58494857E+03</totfact>
</mgrwt>
</event>
<event>
 7    1  0.1111284E-005  0.1400168E+03  0.7546771E-02  0.1224000E+00
          3   -1    0    0  501    0  0.00000000000E+00  0.00000000000E+00  0.12743008552E+03  0.12743008552E+03  0.00000000000E+00 0. -1.
         -3   -1    0    0    0  501 -0.00000000000E+00 -0.00000000000E+00 -0.17281002562E+03  0.17281002562E+03  0.00000000000E+00 0.  1.
         23    2    1    2    0    0  0.82975902009E+01 -0.62529281079E+02  0.58231852677E+02  0.12605595512E+03  0.92305981174E+02 0.  0.
          5    1    1    2  502    0 -0.51834633327E+02  0.74910784787E+02 -0.86069359641E+02  0.12541323518E+03  0.47000000000E+01 0.  1.
         -5    1    1    2    0  502  0.43537043126E+02 -0.12381503709E+02 -0.17542433136E+02  0.48770920830E+02  0.47000000000E+01 0.  1.
        -11    1    3    3    0    0  0.38258275153E+01 -0.77096262374E+02  0.71971426379E+02  0.10553841406E+03  0.00000000000E+00 0. -1.
         11    1    3    3    0    0  0.44717626856E+01  0.14566981296E+02 -0.13739573702E+02  0.20517541059E+02  0.00000000000E+00 0.  1.
<mgrwt>
<rscale>  0 0.13235651E+03</rscale>
<asrwt>0</asrwt>
<pdfrwt beam="1">  1        3 0.19604629E-01 0.14001684E+03</pdfrwt>
<pdfrwt beam="2">  1       -3 0.26586158E-01 0.14001684E+03</pdfrwt>
<totfact> 0.72507532E+02</totfact>
</mgrwt>
</event>
<event>
 7    1  0.1111284E-005  0.1260295E+03  0.7546771E-02  0.1247001E+00
         -2   -1    0    0    0  501 -0.00000000000E+00  0.00000000000E+00  0.81624474895E+02  0.81624474895E+02  0.00000000000E+00 0.  1.
          2   -1    0    0  501    0  0.00000000000E+00 -0.00000000000E+00 -0.18473688876E+03  0.18473688876E+03  0.00000000000E+00 0. -1.
         23    2    1    2    0    0  0.40963989264E+01  0.15570322213E+02 -0.10258590426E+03  0.14033071617E+03  0.94390819091E+02 0.  0.
          5    1    1    2  502    0 -0.57310276890E+02  0.11827088219E+02  0.20854073861E+02  0.62300323029E+02  0.47000000000E+01 0.  1.
         -5    1    1    2    0  502  0.53213877964E+02 -0.27397410432E+02 -0.21380583460E+02  0.63730324457E+02  0.47000000000E+01 0.  1.
        -11    1    3    3    0    0 -0.20422884311E+02 -0.13351473526E+02  0.61588797241E+01  0.25165211073E+02  0.00000000000E+00 0.  1.
         11    1    3    3    0    0  0.24519283238E+02  0.28921795739E+02 -0.10874478399E+03  0.11516550509E+03  0.00000000000E+00 0. -1.
<mgrwt>
<rscale>  0 0.11766400E+03</rscale>
<asrwt>0</asrwt>
<pdfrwt beam="2">  1        2 0.28421059E-01 0.12602955E+03</pdfrwt>
<pdfrwt beam="1">  1       -2 0.12557612E-01 0.12602955E+03</pdfrwt>
<totfact> 0.80478860E+03</totfact>
</mgrwt>
</event>
<event>
 7    1  0.1111284E-005  0.1557464E+03  0.7546771E-02  0.1200195E+00
         -2   -1    0    0    0  501 -0.00000000000E+00  0.00000000000E+00  0.61726920483E+02  0.61726920483E+02  0.00000000000E+00 0.  1.
          2   -1    0    0  501    0  0.00000000000E+00 -0.00000000000E+00 -0.34760624948E+03  0.34760624948E+03  0.00000000000E+00 0. -1.
         23    2    1    2    0    0  0.10553358047E+03 -0.30426444849E+02 -0.10671517449E+03  0.17193744250E+03  0.78174487604E+02 0.  0.
          5    1    1    2  502    0 -0.80349608726E+02 -0.21682045280E+02 -0.15185488242E+03  0.17322865243E+03  0.47000000000E+01 0. -1.
         -5    1    1    2    0  502 -0.25183971746E+02  0.52108490129E+02 -0.27309272090E+02  0.64167075034E+02  0.47000000000E+01 0.  1.
        -11    1    3    3    0    0  0.29886395761E+02 -0.42903800436E+02 -0.68775542544E+02  0.86394490540E+02  0.00000000000E+00 0. -1.
         11    1    3    3    0    0  0.75647184712E+02  0.12477355587E+02 -0.37939631949E+02  0.85542951958E+02  0.00000000000E+00 0.  1.
<mgrwt>
<rscale>  0 0.15022626E+03</rscale>
<asrwt>0</asrwt>
<pdfrwt beam="2">  1        2 0.53477885E-01 0.15574639E+03</pdfrwt>
<pdfrwt beam="1">  1       -2 0.94964492E-02 0.15574639E+03</pdfrwt>
<totfact> 0.64663430E+03</totfact>
</mgrwt>
</event>
<event>
 7    1  0.1111284E-005  0.1269551E+03  0.7546771E-02  0.1252299E+00
          2   -1    0    0  501    0  0.00000000000E+00  0.00000000000E+00  0.29542588882E+03  0.29542588882E+03  0.00000000000E+00 0. -1.
         -2   -1    0    0    0  501 -0.00000000000E+00 -0.00000000000E+00 -0.44544354551E+02  0.44544354551E+02  0.00000000000E+00 0.  1.
         23    2    1    2    0    0 -0.22163942499E+02  0.23215540625E+00  0.16916648655E+03  0.18899027695E+03  0.81294097983E+02 0.  0.
          5    1    1    2  502    0  0.11782865301E+02  0.54950635724E+02  0.75577141935E+02  0.94299536925E+02  0.47000000000E+01 0. -1.
         -5    1    1    2    0  502  0.10381077198E+02 -0.55182791130E+02  0.61379057860E+01  0.56680429498E+02  0.47000000000E+01 0. -1.
        -11    1    3    3    0    0 -0.20245241178E+02 -0.36595717650E+02  0.55516410936E+02  0.69506749484E+02  0.00000000000E+00 0.  1.
         11    1    3    3    0    0 -0.19187013219E+01  0.36827873057E+02  0.11365007561E+03  0.11948352746E+03  0.00000000000E+00 0. -1.
<mgrwt>
<rscale>  0 0.11458958E+03</rscale>
<asrwt>0</asrwt>
<pdfrwt beam="1">  1        2 0.45450136E-01 0.12695512E+03</pdfrwt>
<pdfrwt beam="2">  1       -2 0.68529778E-02 0.12695512E+03</pdfrwt>
<totfact> 0.12547232E+04</totfact>
</mgrwt>
</event>
<event>
 7    1  0.1111284E-005  0.1310583E+03  0.7546771E-02  0.1238433E+00
         -2   -1    0    0    0  501 -0.00000000000E+00  0.00000000000E+00  0.85857310652E+02  0.85857310652E+02  0.00000000000E+00 0.  1.
          2   -1    0    0  501    0  0.00000000000E+00 -0.00000000000E+00 -0.16657788390E+03  0.16657788390E+03  0.00000000000E+00 0. -1.
         23    2    1    2    0    0  0.37553895034E+02 -0.11853579524E+02 -0.65270027061E+02  0.12046933190E+03  0.93283873827E+02 0.  0.
          5    1    1    2  502    0 -0.81901619285E+02 -0.47136777572E+01 -0.18728946618E+02  0.84279045088E+02  0.47000000000E+01 0.  1.
         -5    1    1    2    0  502  0.44347724251E+02  0.16567257281E+02  0.32784004306E+01  0.47686817565E+02  0.47000000000E+01 0.  1.
        -11    1    3    3    0    0 -0.19437448918E+02 -0.34693191232E+02 -0.23178980216E+02  0.46029306558E+02  0.00000000000E+00 0.  1.
         11    1    3    3    0    0  0.56991343953E+02  0.22839611708E+02 -0.42091046845E+02  0.74440025343E+02  0.00000000000E+00 0. -1.
<mgrwt>
<rscale>  0 0.12287202E+03</rscale>
<asrwt>0</asrwt>
<pdfrwt beam="2">  1        2 0.25627367E-01 0.13105827E+03</pdfrwt>
<pdfrwt beam="1">  1       -2 0.13208817E-01 0.13105827E+03</pdfrwt>
<totfact> 0.83332673E+03</totfact>
</mgrwt>
</event>
<event>
 7    1  0.1111284E-005  0.1277790E+03  0.7546771E-02  0.1244930E+00
         -4   -1    0    0    0  501 -0.00000000000E+00  0.00000000000E+00  0.18341523885E+02  0.18341523885E+02  0.00000000000E+00 0. -1.
          4   -1    0    0  501    0  0.00000000000E+00 -0.00000000000E+00 -0.71775735892E+03  0.71775735892E+03  0.00000000000E+00 0.  1.
         23    2    1    2    0    0 -0.19438893927E+02  0.18086874569E+02 -0.38441064324E+03  0.39616398551E+03  0.92029099467E+02 0.  0.
          5    1    1    2  502    0 -0.81611843841E+01  0.24007361631E+02 -0.55520219105E+01  0.26379410348E+02  0.47000000000E+01 0. -1.
         -5    1    1    2    0  502  0.27600078312E+02 -0.42094236200E+02 -0.30945316988E+03  0.31355548695E+03  0.47000000000E+01 0. -1.
        -11    1    3    3    0    0  0.29779939902E+02  0.32467758091E+02 -0.15867480728E+03  0.16467754735E+03  0.00000000000E+00 0.  1.
         11    1    3    3    0    0 -0.49218833829E+02 -0.14380883523E+02 -0.22573583595E+03  0.23148643815E+03  0.00000000000E+00 0. -1.
<mgrwt>
<rscale>  0 0.11889580E+03</rscale>
<asrwt>0</asrwt>
<pdfrwt beam="2">  1        4 0.11042419E+00 0.12777896E+03</pdfrwt>
<pdfrwt beam="1">  1       -4 0.28217733E-02 0.12777896E+03</pdfrwt>
<totfact> 0.65993976E+02</totfact>
</mgrwt>
</event>
<event>
 7    1  0.1111284E-005  0.1366287E+03  0.7546771E-02  0.1230032E+00
         -2   -1    0    0    0  501 -0.00000000000E+00  0.00000000000E+00  0.28424377143E+02  0.28424377143E+02  0.00000000000E+00 0.  1.
          2   -1    0    0  501    0  0.00000000000E+00 -0.00000000000E+00 -0.52034097107E+03  0.52034097107E+03  0.00000000000E+00 0. -1.
         23    2    1    2    0    0  0.56249472127E+01  0.54884458020E+02 -0.23144819329E+03  0.25463749956E+03  0.90708578655E+02 0.  0.
          5    1    1    2  502    0  0.33677454738E+02 -0.78500424110E+02 -0.20416747792E+03  0.22136606918E+03  0.47000000000E+01 0.  1.
         -5    1    1    2    0  502 -0.39302401950E+02  0.23615966090E+02 -0.56300922708E+02  0.72761779467E+02  0.47000000000E+01 0.  1.
        -11    1    3    3    0    0  0.40101172539E+02  0.24477713735E+02 -0.17821135337E+03  0.18430016001E+03  0.00000000000E+00 0. -1.
         11    1    3    3    0    0 -0.34476225326E+02  0.30406744285E+02 -0.53236839922E+02  0.70337339555E+02  0.00000000000E+00 0.  1.
<mgrwt>
<rscale>  0 0.12827929E+03</rscale>
<asrwt>0</asrwt>
<pdfrwt beam="2">  1        2 0.80052453E-01 0.13662871E+03</pdfrwt>
<pdfrwt beam="1">  1       -2 0.43729813E-02 0.13662871E+03</pdfrwt>
<totfact> 0.13546554E+04</totfact>
</mgrwt>
</event>
<event>
 7    1  0.1111284E-005  0.3704514E+03  0.7546771E-02  0.1055547E+00
         -2   -1    0    0    0  501 -0.00000000000E+00  0.00000000000E+00  0.17720392056E+03  0.17720392056E+03  0.00000000000E+00 0.  1.
          2   -1    0    0  501    0  0.00000000000E+00 -0.00000000000E+00 -0.84167691755E+03  0.84167691755E+03  0.00000000000E+00 0. -1.
         23    2    1    2    0    0  0.17749970065E+02  0.34827431676E+03 -0.49377192417E+03  0.61099221856E+03  0.88829707302E+02 0.  0.
          5    1    1    2  502    0 -0.28988768769E+01 -0.43569099165E+02  0.19822965508E+02  0.48184124468E+02  0.47000000000E+01 0.  1.
         -5    1    1    2    0  502 -0.14851093189E+02 -0.30470521759E+03 -0.19052403833E+03  0.35970449508E+03  0.47000000000E+01 0.  1.
        -11    1    3    3    0    0  0.29042348273E+02  0.16025724989E+03 -0.16345062232E+03  0.23074217229E+03  0.00000000000E+00 0.  1.
         11    1    3    3    0    0 -0.11292378208E+02  0.18801706687E+03 -0.33032130184E+03  0.38025004627E+03  0.00000000000E+00 0. -1.
<mgrwt>
<rscale>  0 0.36777526E+03</rscale>
<asrwt>0</asrwt>
<pdfrwt beam="2">  1        2 0.12948875E+00 0.37045144E+03</pdfrwt>
<pdfrwt beam="1">  1       -2 0.27262142E-01 0.37045144E+03</pdfrwt>
<totfact> 0.40376736E+02</totfact>
</mgrwt>
</event>
<event>
 7    1  0.1111284E-005  0.1585487E+03  0.7546771E-02  0.1198987E+00
         -1   -1    0    0    0  501 -0.00000000000E+00  0.00000000000E+00  0.61270531183E+02  0.61270531183E+02  0.00000000000E+00 0.  1.
          1   -1    0    0  501    0  0.00000000000E+00 -0.00000000000E+00 -0.48315630498E+03  0.48315630498E+03  0.00000000000E+00 0. -1.
         23    2    1    2    0    0 -0.49746997464E+02 -0.83890888222E+02 -0.34321488253E+03  0.36743307332E+03  0.87739175395E+02 0.  0.
          5    1    1    2  502    0  0.76313417530E+02  0.69073044645E+02 -0.12220376051E+02  0.10376054540E+03  0.47000000000E+01 0.  1.
         -5    1    1    2    0  502 -0.26566420066E+02  0.14817843578E+02 -0.66450515223E+02  0.73233217442E+02  0.47000000000E+01 0.  1.
        -11    1    3    3    0    0 -0.66746733083E+02 -0.44455873655E+02 -0.27810305301E+03  0.28943524177E+03  0.00000000000E+00 0. -1.
         11    1    3    3    0    0  0.16999735619E+02 -0.39435014567E+02 -0.65111829512E+02  0.77997831556E+02  0.00000000000E+00 0.  1.
<mgrwt>
<rscale>  0 0.15121556E+03</rscale>
<asrwt>0</asrwt>
<pdfrwt beam="2">  1        1 0.74331743E-01 0.15854868E+03</pdfrwt>
<pdfrwt beam="1">  1       -1 0.94262351E-02 0.15854868E+03</pdfrwt>
<totfact> 0.30926395E+03</totfact>
</mgrwt>
</event>
<event>
 7    1  0.1111284E-005  0.1347479E+03  0.7546771E-02  0.1234041E+00
          1   -1    0    0  501    0  0.00000000000E+00  0.00000000000E+00  0.43296655274E+02  0.43296655274E+02  0.00000000000E+00 0. -1.
         -1   -1    0    0    0  501 -0.00000000000E+00 -0.00000000000E+00 -0.51352816598E+03  0.51352816598E+03  0.00000000000E+00 0.  1.
         23    2    1    2    0    0 -0.26593645432E+02  0.42703108855E+02 -0.46195549221E+02  0.11189393142E+03  0.88630951914E+02 0.  0.
          5    1    1    2  502    0 -0.14535509833E+02  0.29165747581E+02 -0.24981765393E+03  0.25197791985E+03  0.47000000000E+01 0. -1.
         -5    1    1    2    0  502  0.41129155265E+02 -0.71868856435E+02 -0.17421830756E+03  0.19295296999E+03  0.47000000000E+01 0. -1.
        -11    1    3    3    0    0  0.56563117483E+01 -0.14793077425E+02 -0.43077936073E+02  0.45897032350E+02  0.00000000000E+00 0.  1.
         11    1    3    3    0    0 -0.32249957180E+02  0.57496186280E+02 -0.31176131483E+01  0.65996899068E+02  0.00000000000E+00 0. -1.
<mgrwt>
<rscale>  0 0.12566049E+03</rscale>
<asrwt>0</asrwt>
<pdfrwt beam="1">  1        1 0.66610241E-02 0.13474791E+03</pdfrwt>
<pdfrwt beam="2">  1       -1 0.79004331E-01 0.13474791E+03</pdfrwt>
<totfact> 0.18218873E+03</totfact>
</mgrwt>
</event>
<event>
 7    1  0.1111284E-005  0.1830062E+03  0.7546771E-02  0.1167825E+00
         -2   -1    0    0    0  501 -0.00000000000E+00  0.00000000000E+00  0.50304638744E+02  0.50304638744E+02  0.00000000000E+00 0.  1.
          2   -1    0    0  501    0  0.00000000000E+00 -0.00000000000E+00 -0.73851086420E+03  0.73851086420E+03  0.00000000000E+00 0. -1.
         23    2    1    2    0    0  0.22431184250E+02  0.14004842151E+03 -0.49000114339E+03  0.51904428225E+03  0.95859939590E+02 0.  0.
          5    1    1    2  502    0  0.41304281809E+02 -0.19285895088E+02 -0.59142361928E+02  0.74819104643E+02  0.47000000000E+01 0. -1.
         -5    1    1    2    0  502 -0.63735466059E+02 -0.12076252642E+03 -0.13906272013E+03  0.19495211605E+03  0.47000000000E+01 0.  1.
        -11    1    3    3    0    0 -0.23879112650E+02  0.71094108204E+02 -0.33390907829E+03  0.34222778498E+03  0.00000000000E+00 0.  1.
         11    1    3    3    0    0  0.46310296900E+02  0.68954313303E+02 -0.15609206510E+03  0.17681649728E+03  0.00000000000E+00 0. -1.
<mgrwt>
<rscale>  0 0.17997765E+03</rscale>
<asrwt>0</asrwt>
<pdfrwt beam="2">  1        2 0.11361704E+00 0.18300617E+03</pdfrwt>
<pdfrwt beam="1">  1       -2 0.77391760E-02 0.18300617E+03</pdfrwt>
<totfact> 0.38528618E+03</totfact>
</mgrwt>
</event>
<event>
 7    1  0.1111284E-005  0.1297001E+03  0.7546771E-02  0.1241903E+00
         -3   -1    0    0    0  501 -0.00000000000E+00  0.00000000000E+00  0.10974985370E+03  0.10974985370E+03  0.00000000000E+00 0.  1.
          3   -1    0    0  501    0  0.00000000000E+00 -0.00000000000E+00 -0.12932431811E+03  0.12932431811E+03  0.00000000000E+00 0. -1.
         23    2    1    2    0    0  0.24186586042E+02 -0.24724444926E+02 -0.44419070291E+02  0.10701594181E+03  0.91011366731E+02 0.  0.
          5    1    1    2  502    0 -0.15392508609E+02  0.73052178445E+02 -0.39813765811E+01  0.74909888909E+02  0.47000000000E+01 0. -1.
         -5    1    1    2    0  502 -0.87940774328E+01 -0.48327733520E+02  0.28825982462E+02  0.57148341095E+02  0.47000000000E+01 0. -1.
        -11    1    3    3    0    0  0.12083713736E+02 -0.52368012336E+02 -0.52173102724E+00  0.53746600422E+02  0.00000000000E+00 0.  1.
         11    1    3    3    0    0  0.12102872306E+02  0.27643567410E+02 -0.43897339263E+02  0.53269341385E+02  0.00000000000E+00 0. -1.
<mgrwt>
<rscale>  0 0.12072651E+03</rscale>
<asrwt>0</asrwt>
<pdfrwt beam="2">  1        3 0.19896049E-01 0.12970012E+03</pdfrwt>
<pdfrwt beam="1">  1       -3 0.16884593E-01 0.12970012E+03</pdfrwt>
<totfact> 0.15608852E+03</totfact>
</mgrwt>
</event>
<event>
 7    1  0.1111284E-005  0.1484674E+03  0.7546771E-02  0.1211396E+00
          4   -1    0    0  501    0  0.00000000000E+00  0.00000000000E+00  0.47972921411E+03  0.47972921411E+03  0.00000000000E+00 0. -1.
         -4   -1    0    0    0  501 -0.00000000000E+00 -0.00000000000E+00 -0.49332255132E+02  0.49332255132E+02  0.00000000000E+00 0.  1.
         23    2    1    2    0    0 -0.80044611696E+02  0.31288673428E+01  0.32424743846E+03  0.34655040700E+03  0.92432967990E+02 0.  0.
          5    1    1    2  502    0  0.58121479302E+02 -0.89840161084E+01  0.13392106792E+03  0.14634124960E+03  0.47000000000E+01 0. -1.
         -5    1    1    2    0  502  0.21923132395E+02  0.58551487656E+01 -0.27771547405E+02  0.36169812639E+02  0.47000000000E+01 0. -1.
        -11    1    3    3    0    0 -0.86537696355E+02 -0.89879279106E+01  0.32078505193E+03  0.33237419467E+03  0.00000000000E+00 0. -1.
         11    1    3    3    0    0  0.64930846592E+01  0.12116795253E+02  0.34623865288E+01  0.14176212332E+02  0.00000000000E+00 0.  1.
<mgrwt>
<rscale>  0 0.14144663E+03</rscale>
<asrwt>0</asrwt>
<pdfrwt beam="1">  1        4 0.73804491E-01 0.14846739E+03</pdfrwt>
<pdfrwt beam="2">  1       -4 0.75895780E-02 0.14846739E+03</pdfrwt>
<totfact> 0.34641405E+02</totfact>
</mgrwt>
</event>
<event>
 7    1  0.1342147E-005  0.2069504E+03  0.7546771E-02  0.1149600E+00
          1   -1    0    0  501    0  0.00000000000E+00  0.00000000000E+00  0.15140889902E+04  0.15140889902E+04  0.00000000000E+00 0. -1.
         -1   -1    0    0    0  501 -0.00000000000E+00 -0.00000000000E+00 -0.24870660136E+02  0.24870660136E+02  0.00000000000E+00 0.  1.
         23    2    1    2    0    0 -0.15420326796E+03  0.58521969831E+02  0.70625609883E+03  0.72910883640E+03  0.74823454809E+02 0.  0.
          5    1    1    2  502    0  0.16725660212E+03 -0.37142131098E+02  0.74254112121E+03  0.76206542733E+03  0.47000000000E+01 0. -1.
         -5    1    1    2    0  502 -0.13053334162E+02 -0.21379838733E+02  0.40421110074E+02  0.47785386642E+02  0.47000000000E+01 0. -1.
        -11    1    3    3    0    0 -0.13624963601E+03  0.50150143753E+02  0.68431997191E+03  0.69955187384E+03  0.00000000000E+00 0. -1.
         11    1    3    3    0    0 -0.17953631952E+02  0.83718260778E+01  0.21936126914E+02  0.29556962567E+02  0.00000000000E+00 0.  1.
<mgrwt>
<rscale>  0 0.20016463E+03</rscale>
<asrwt>0</asrwt>
<pdfrwt beam="1">  1        1 0.23293670E+00 0.20695044E+03</pdfrwt>
<pdfrwt beam="2">  1       -1 0.38262566E-02 0.20695044E+03</pdfrwt>
<totfact> 0.18419961E+03</totfact>
</mgrwt>
</event>
<event>
 7    1  0.1111284E-005  0.1450320E+03  0.7546771E-02  0.1221720E+00
          1   -1    0    0  501    0  0.00000000000E+00  0.00000000000E+00  0.20223659260E+02  0.20223659260E+02  0.00000000000E+00 0. -1.
         -1   -1    0    0    0  501 -0.00000000000E+00 -0.00000000000E+00 -0.83663874259E+03  0.83663874259E+03  0.00000000000E+00 0.  1.
         23    2    1    2    0    0  0.39398263238E+02 -0.62022146417E+02 -0.23443237111E+03  0.25708064568E+03  0.75716259592E+02 0.  0.
          5    1    1    2  502    0 -0.82576906446E+02  0.23229687795E+02 -0.37867050336E+03  0.38829370841E+03  0.47000000000E+01 0.  1.
         -5    1    1    2    0  502  0.43178643208E+02  0.38792458622E+02 -0.20331220886E+03  0.21148804776E+03  0.47000000000E+01 0.  1.
        -11    1    3    3    0    0  0.35201042245E+02  0.17403856113E+01 -0.12961198648E+03  0.13431831355E+03  0.00000000000E+00 0.  1.
         11    1    3    3    0    0  0.41972209937E+01 -0.63762532028E+02 -0.10482038464E+03  0.12276233213E+03  0.00000000000E+00 0. -1.
<mgrwt>
<rscale>  0 0.13394272E+03</rscale>
<asrwt>0</asrwt>
<pdfrwt beam="1">  1        1 0.31113321E-02 0.14503199E+03</pdfrwt>
<pdfrwt beam="2">  1       -1 0.12871366E+00 0.14503199E+03</pdfrwt>
<totfact> 0.17615873E+03</totfact>
</mgrwt>
</event>
<event>
 7    1  0.1111284E-005  0.1394852E+03  0.7546771E-02  0.1231461E+00
          1   -1    0    0  501    0  0.00000000000E+00  0.00000000000E+00  0.17163644338E+03  0.17163644338E+03  0.00000000000E+00 0. -1.
         -1   -1    0    0    0  501 -0.00000000000E+00 -0.00000000000E+00 -0.11348833877E+03  0.11348833877E+03  0.00000000000E+00 0.  1.
         23    2    1    2    0    0  0.11132307859E+02 -0.39366006206E+02  0.10026096755E+03  0.13942094288E+03  0.87819855244E+02 0.  0.
          5    1    1    2  502    0 -0.54389444352E+02 -0.23912800383E+02 -0.33839987812E+01  0.59695687674E+02  0.47000000000E+01 0. -1.
         -5    1    1    2    0  502  0.43257136493E+02  0.63278806589E+02 -0.38728864167E+02  0.86008151594E+02  0.47000000000E+01 0.  1.
        -11    1    3    3    0    0  0.29469418931E+02 -0.61290406023E+02  0.75409602724E+02  0.10154589458E+03  0.00000000000E+00 0. -1.
         11    1    3    3    0    0 -0.18337111072E+02  0.21924399817E+02  0.24851364831E+02  0.37875048300E+02  0.00000000000E+00 0.  1.
<mgrwt>
<rscale>  0 0.12733734E+03</rscale>
<asrwt>0</asrwt>
<pdfrwt beam="1">  1        1 0.26405607E-01 0.13948518E+03</pdfrwt>
<pdfrwt beam="2">  1       -1 0.17459744E-01 0.13948518E+03</pdfrwt>
<totfact> 0.43102408E+03</totfact>
</mgrwt>
</event>
<event>
 7    1  0.1111284E-005  0.1515476E+03  0.7546771E-02  0.1207440E+00
         -3   -1    0    0    0  501 -0.00000000000E+00  0.00000000000E+00  0.87283089395E+02  0.87283089395E+02  0.00000000000E+00 0.  1.
          3   -1    0    0  501    0  0.00000000000E+00 -0.00000000000E+00 -0.22315146679E+03  0.22315146679E+03  0.00000000000E+00 0. -1.
         23    2    1    2    0    0  0.61150783346E+02  0.60012216241E+02 -0.41261035435E+02  0.13178064490E+03  0.91229276673E+02 0.  0.
          5    1    1    2  502    0 -0.28009374910E+02  0.26755329584E+02  0.83605074092E+01  0.39904396100E+02  0.47000000000E+01 0. -1.
         -5    1    1    2    0  502 -0.33141408436E+02 -0.86767545824E+02 -0.10296784937E+03  0.13874951519E+03  0.47000000000E+01 0. -1.
        -11    1    3    3    0    0 -0.29655792503E+01 -0.19258800724E+02  0.45446115269E+01  0.20008737081E+02  0.00000000000E+00 0.  1.
         11    1    3    3    0    0  0.64116362596E+02  0.79271016965E+02 -0.45805646962E+02  0.11177190782E+03  0.00000000000E+00 0. -1.
<mgrwt>
<rscale>  0 0.14446859E+03</rscale>
<asrwt>0</asrwt>
<pdfrwt beam="2">  1        3 0.34330995E-01 0.15154759E+03</pdfrwt>
<pdfrwt beam="1">  1       -3 0.13428167E-01 0.15154759E+03</pdfrwt>
<totfact> 0.87781965E+02</totfact>
</mgrwt>
</event>
<event>
 7    1  0.1111284E-005  0.1431137E+03  0.7546771E-02  0.1217097E+00
          2   -1    0    0  501    0  0.00000000000E+00  0.00000000000E+00  0.24970089365E+03  0.24970089365E+03  0.00000000000E+00 0. -1.
         -2   -1    0    0    0  501 -0.00000000000E+00 -0.00000000000E+00 -0.69932171909E+02  0.69932171909E+02  0.00000000000E+00 0.  1.
         23    2    1    2    0    0  0.57376037580E+02 -0.55301303495E+02  0.76774444009E+02  0.14331132228E+03  0.91069072604E+02 0.  0.
          5    1    1    2  502    0 -0.37863655858E+02  0.57370426911E+02  0.12728979716E+03  0.14474047389E+03  0.47000000000E+01 0. -1.
         -5    1    1    2    0  502 -0.19512381722E+02 -0.20691234165E+01 -0.24295519428E+02  0.31581269393E+02  0.47000000000E+01 0.  1.
        -11    1    3    3    0    0  0.36828706671E+02  0.14001761192E+02  0.55306459918E+02  0.67905872060E+02  0.00000000000E+00 0. -1.
         11    1    3    3    0    0  0.20547330909E+02 -0.69303064686E+02  0.21467984091E+02  0.75405450223E+02  0.00000000000E+00 0.  1.
<mgrwt>
<rscale>  0 0.13723590E+03</rscale>
<asrwt>0</asrwt>
<pdfrwt beam="1">  1        2 0.38415522E-01 0.14311372E+03</pdfrwt>
<pdfrwt beam="2">  1       -2 0.10758796E-01 0.14311372E+03</pdfrwt>
<totfact> 0.75118666E+03</totfact>
</mgrwt>
</event>
<event>
 7    1  0.1111284E-005  0.3427553E+03  0.7546771E-02  0.1066822E+00
         -1   -1    0    0    0  501 -0.00000000000E+00  0.00000000000E+00  0.13913552519E+03  0.13913552519E+03  0.00000000000E+00 0.  1.
          1   -1    0    0  501    0  0.00000000000E+00 -0.00000000000E+00 -0.81809191094E+03  0.81809191094E+03  0.00000000000E+00 0. -1.
         23    2    1    2    0    0 -0.97812511574E+02 -0.30379047858E+03 -0.34986725341E+03  0.48206341519E+03  0.90122688366E+02 0.  0.
          5    1    1    2  502    0  0.15667223216E+02  0.20861869132E+03 -0.25224104272E+03  0.32774205388E+03  0.47000000000E+01 0.  1.
         -5    1    1    2    0  502  0.82145288358E+02  0.95171787267E+02 -0.76848089617E+02  0.14742196705E+03  0.47000000000E+01 0.  1.
        -11    1    3    3    0    0 -0.93900046587E+02 -0.29218968010E+03 -0.29446776014E+03  0.42532727360E+03  0.00000000000E+00 0.  1.
         11    1    3    3    0    0 -0.39124649872E+01 -0.11600798481E+02 -0.55399493275E+02  0.56736141593E+02  0.00000000000E+00 0. -1.
<mgrwt>
<rscale>  0 0.33993930E+03</rscale>
<asrwt>0</asrwt>
<pdfrwt beam="2">  1        1 0.12586029E+00 0.34275529E+03</pdfrwt>
<pdfrwt beam="1">  1       -1 0.21405466E-01 0.34275529E+03</pdfrwt>
<totfact> 0.40129363E+02</totfact>
</mgrwt>
</event>
<event>
 7    1  0.1111284E-005  0.1254245E+03  0.7546771E-02  0.1251117E+00
         -1   -1    0    0    0  501 -0.00000000000E+00  0.00000000000E+00  0.80433451351E+02  0.80433451351E+02  0.00000000000E+00 0.  1.
          1   -1    0    0  501    0  0.00000000000E+00 -0.00000000000E+00 -0.14906994858E+03  0.14906994858E+03  0.00000000000E+00 0. -1.
         23    2    1    2    0    0  0.20445051550E+01  0.10006956061E+02 -0.50613856445E+02  0.10279066378E+03  0.88881038049E+02 0.  0.
          5    1    1    2  502    0  0.40134197760E+02  0.40677646281E+02  0.27977897711E+01  0.57405072636E+02  0.47000000000E+01 0.  1.
         -5    1    1    2    0  502 -0.42178702914E+02 -0.50684602342E+02 -0.20820430559E+02  0.69307663521E+02  0.47000000000E+01 0.  1.
        -11    1    3    3    0    0  0.15256924667E+02 -0.20110165555E+02  0.15023352198E+02  0.29375050982E+02  0.00000000000E+00 0.  1.
         11    1    3    3    0    0 -0.13212419512E+02  0.30117121616E+02 -0.65637208642E+02  0.73415612796E+02  0.00000000000E+00 0. -1.
<mgrwt>
<rscale>  0 0.11526600E+03</rscale>
<asrwt>0</asrwt>
<pdfrwt beam="2">  1        1 0.22933838E-01 0.12542449E+03</pdfrwt>
<pdfrwt beam="1">  1       -1 0.12374377E-01 0.12542449E+03</pdfrwt>
<totfact> 0.87514689E+03</totfact>
</mgrwt>
</event>
<event>
 7    1  0.1111284E-005  0.1590980E+03  0.7546771E-02  0.1197840E+00
         -2   -1    0    0    0  501 -0.00000000000E+00  0.00000000000E+00  0.10169198717E+03  0.10169198717E+03  0.00000000000E+00 0.  1.
          2   -1    0    0  501    0  0.00000000000E+00 -0.00000000000E+00 -0.23388345477E+03  0.23388345477E+03  0.00000000000E+00 0. -1.
         23    2    1    2    0    0 -0.75976680505E+02 -0.62717109037E+02 -0.11433124554E+03  0.17547810235E+03  0.89526749916E+02 0.  0.
          5    1    1    2  502    0  0.86087090497E+02  0.91475654744E+02 -0.25633913729E+02  0.12828862028E+03  0.47000000000E+01 0. -1.
         -5    1    1    2    0  502 -0.10110409992E+02 -0.28758545707E+02  0.77736916685E+01  0.31808719301E+02  0.47000000000E+01 0. -1.
        -11    1    3    3    0    0  0.61471662745E+01 -0.20436580816E+02 -0.69696127521E+02  0.72890271505E+02  0.00000000000E+00 0. -1.
         11    1    3    3    0    0 -0.82123846780E+02 -0.42280528221E+02 -0.44635118019E+02  0.10258783084E+03  0.00000000000E+00 0.  1.
<mgrwt>
<rscale>  0 0.15216310E+03</rscale>
<asrwt>0</asrwt>
<pdfrwt beam="2">  1        2 0.35982070E-01 0.15909799E+03</pdfrwt>
<pdfrwt beam="1">  1       -2 0.15644921E-01 0.15909799E+03</pdfrwt>
<totfact> 0.44317842E+03</totfact>
</mgrwt>
</event>
<event>
 7    1  0.1111284E-005  0.1309390E+03  0.7546771E-02  0.1239952E+00
         -1   -1    0    0    0  501 -0.00000000000E+00  0.00000000000E+00  0.47458555784E+02  0.47458555784E+02  0.00000000000E+00 0.  1.
          1   -1    0    0  501    0  0.00000000000E+00 -0.00000000000E+00 -0.38948002875E+03  0.38948002875E+03  0.00000000000E+00 0. -1.
         23    2    1    2    0    0  0.34751750346E+02 -0.17691549086E+02 -0.27024509735E+03  0.28761723011E+03  0.90391279181E+02 0.  0.
          5    1    1    2  502    0  0.37065055022E+02  0.29972057367E+02 -0.57658575808E+02  0.74958281003E+02  0.47000000000E+01 0.  1.
         -5    1    1    2    0  502 -0.71816805368E+02 -0.12280508281E+02 -0.14117799801E+02  0.74363073418E+02  0.47000000000E+01 0.  1.
        -11    1    3    3    0    0  0.50223969754E+02  0.11018824659E+02 -0.83621313642E+02  0.98165094254E+02  0.00000000000E+00 0.  1.
         11    1    3    3    0    0 -0.15472219408E+02 -0.28710373745E+02 -0.18662378371E+03  0.18945213586E+03  0.00000000000E+00 0. -1.
<mgrwt>
<rscale>  0 0.12192682E+03</rscale>
<asrwt>0</asrwt>
<pdfrwt beam="2">  1        1 0.59920006E-01 0.13093899E+03</pdfrwt>
<pdfrwt beam="1">  1       -1 0.73013160E-02 0.13093899E+03</pdfrwt>
<totfact> 0.59395848E+03</totfact>
</mgrwt>
</event>
<event>
 7    1  0.1111284E-005  0.1302038E+03  0.7546771E-02  0.1240525E+00
         -2   -1    0    0    0  501 -0.00000000000E+00  0.00000000000E+00  0.11470760814E+03  0.11470760814E+03  0.00000000000E+00 0.  1.
          2   -1    0    0  501    0  0.00000000000E+00 -0.00000000000E+00 -0.12662266988E+03  0.12662266988E+03  0.00000000000E+00 0. -1.
         23    2    1    2    0    0 -0.35601022029E+02  0.77184173617E+01 -0.42306793908E+02  0.10762653109E+03  0.92014122004E+02 0.  0.
          5    1    1    2  502    0 -0.10144584287E+02 -0.28444163050E+02 -0.37973140961E+02  0.48744563147E+02  0.47000000000E+01 0. -1.
         -5    1    1    2    0  502  0.45745606316E+02  0.20725745689E+02  0.68364873121E+02  0.84959183779E+02  0.47000000000E+01 0. -1.
        -11    1    3    3    0    0  0.21149608430E+02  0.43421078937E+01  0.15476891116E+02  0.26564901587E+02  0.00000000000E+00 0.  1.
         11    1    3    3    0    0 -0.56750630459E+02  0.33763094679E+01 -0.57783685024E+02  0.81061629506E+02  0.00000000000E+00 0. -1.
<mgrwt>
<rscale>  0 0.12157258E+03</rscale>
<asrwt>0</asrwt>
<pdfrwt beam="2">  1        2 0.19480411E-01 0.13020382E+03</pdfrwt>
<pdfrwt beam="1">  1       -2 0.17647324E-01 0.13020382E+03</pdfrwt>
<totfact> 0.70405971E+03</totfact>
</mgrwt>
</event>
<event>
 7    1  0.1111284E-005  0.1614955E+03  0.7546771E-02  0.1194333E+00
         -4   -1    0    0    0  501 -0.00000000000E+00  0.00000000000E+00  0.33335113152E+02  0.33335113152E+02  0.00000000000E+00 0.  1.
          4   -1    0    0  501    0  0.00000000000E+00 -0.00000000000E+00 -0.77226128262E+03  0.77226128262E+03  0.00000000000E+00 0. -1.
         23    2    1    2    0    0 -0.10079955843E+03  0.17114084196E+02 -0.48973338437E+03  0.50864886112E+03  0.91822836409E+02 0.  0.
          5    1    1    2  502    0  0.73118497452E+02  0.44875593296E+02 -0.18225504343E+03  0.20149224402E+03  0.47000000000E+01 0. -1.
         -5    1    1    2    0  502  0.27681060974E+02 -0.61989677492E+02 -0.66937741661E+02  0.95455290639E+02  0.47000000000E+01 0. -1.
        -11    1    3    3    0    0 -0.49142590655E+02 -0.30470699883E+02 -0.31616575626E+03  0.32140977459E+03  0.00000000000E+00 0.  1.
         11    1    3    3    0    0 -0.51656967771E+02  0.47584784079E+02 -0.17356762811E+03  0.18723908653E+03  0.00000000000E+00 0. -1.
<mgrwt>
<rscale>  0 0.15510813E+03</rscale>
<asrwt>0</asrwt>
<pdfrwt beam="2">  1        4 0.11880942E+00 0.16149549E+03</pdfrwt>
<pdfrwt beam="1">  1       -4 0.51284794E-02 0.16149549E+03</pdfrwt>
<totfact> 0.22428854E+02</totfact>
</mgrwt>
</event>
<event>
 7    1  0.1111284E-005  0.2260779E+03  0.7546771E-02  0.1129431E+00
          3   -1    0    0  501    0  0.00000000000E+00  0.00000000000E+00  0.21335232180E+02  0.21335232180E+02  0.00000000000E+00 0. -1.
         -3   -1    0    0    0  501 -0.00000000000E+00 -0.00000000000E+00 -0.59890609438E+03  0.59890609438E+03  0.00000000000E+00 0.  1.
         23    2    1    2    0    0 -0.11148771746E+02 -0.27525496303E+02 -0.11647028592E+03  0.14157647991E+03  0.74810588176E+02 0.  0.
          5    1    1    2  502    0  0.12004451216E+02  0.66227815414E+02 -0.40352045769E+03  0.40912232909E+03  0.47000000000E+01 0. -1.
         -5    1    1    2    0  502 -0.85567947008E+00 -0.38702319112E+02 -0.57580118585E+02  0.69542517557E+02  0.47000000000E+01 0. -1.
        -11    1    3    3    0    0 -0.42474882881E+02 -0.22411310588E+02 -0.60633910864E+02  0.77348908621E+02  0.00000000000E+00 0. -1.
         11    1    3    3    0    0  0.31326111136E+02 -0.51141857149E+01 -0.55836375060E+02  0.64227571293E+02  0.00000000000E+00 0.  1.
<mgrwt>
<rscale>  0 0.22607787E+03</rscale>
<asrwt>0</asrwt>
<pdfrwt beam="1">  1        3 0.32823439E-02 0.22607787E+03</pdfrwt>
<pdfrwt beam="2">  1       -3 0.92139385E-01 0.22607787E+03</pdfrwt>
<totfact> 0.11996052E+03</totfact>
</mgrwt>
</event>
<event>
 7    1  0.1111284E-005  0.3591192E+03  0.7546771E-02  0.1059984E+00
          1   -1    0    0  501    0  0.00000000000E+00  0.00000000000E+00  0.10509142565E+04  0.10509142565E+04  0.00000000000E+00 0. -1.
         -1   -1    0    0    0  501 -0.00000000000E+00 -0.00000000000E+00 -0.11920366242E+03  0.11920366242E+03  0.00000000000E+00 0.  1.
         23    2    1    2    0    0  0.32433709181E+03 -0.90249451883E+02  0.46623642082E+03  0.58221248060E+03  0.90859560753E+02 0.  0.
          5    1    1    2  502    0 -0.18420367966E+03 -0.12931564809E+02  0.25195966924E+03  0.31241636624E+03  0.47000000000E+01 0.  1.
         -5    1    1    2    0  502 -0.14013341215E+03  0.10318101669E+03  0.21351450400E+03  0.27548907206E+03  0.47000000000E+01 0.  1.
        -11    1    3    3    0    0  0.22884510634E+03 -0.19791520297E+02  0.29520784757E+03  0.37404473027E+03  0.00000000000E+00 0.  1.
         11    1    3    3    0    0  0.95491985464E+02 -0.70457931586E+02  0.17102857324E+03  0.20816775033E+03  0.00000000000E+00 0. -1.
<mgrwt>
<rscale>  0 0.35648677E+03</rscale>
<asrwt>0</asrwt>
<pdfrwt beam="1">  1        1 0.16167911E+00 0.35911920E+03</pdfrwt>
<pdfrwt beam="2">  1       -1 0.18339026E-01 0.35911920E+03</pdfrwt>
<totfact> 0.33929655E+02</totfact>
</mgrwt>
</event>
<event>
 7    1  0.1111284E-005  0.1280422E+03  0.7546771E-02  0.1244241E+00
         -1   -1    0    0    0  501 -0.00000000000E+00  0.00000000000E+00  0.87763468949E+02  0.87763468949E+02  0.00000000000E+00 0.  1.
          1   -1    0    0  501    0  0.00000000000E+00 -0.00000000000E+00 -0.22208984626E+03  0.22208984626E+03  0.00000000000E+00 0. -1.
         23    2    1    2    0    0 -0.74136602965E+01  0.26723013362E+02 -0.15254779409E+03  0.18052107400E+03  0.92455107346E+02 0.  0.
          5    1    1    2  502    0  0.38415402145E+02  0.16854766850E+02 -0.34176793036E+02  0.54313621402E+02  0.47000000000E+01 0.  1.
         -5    1    1    2    0  502 -0.31001741848E+02 -0.43577780212E+02  0.52398209815E+02  0.75018619807E+02  0.47000000000E+01 0.  1.
        -11    1    3    3    0    0 -0.97657143758E+01  0.47723310050E+02 -0.15174745706E+03  0.15937432109E+03  0.00000000000E+00 0. -1.
         11    1    3    3    0    0  0.23520540793E+01 -0.21000296688E+02 -0.80033703506E+00  0.21146752913E+02  0.00000000000E+00 0.  1.
<mgrwt>
<rscale>  0 0.11930937E+03</rscale>
<asrwt>0</asrwt>
<pdfrwt beam="2">  1        1 0.34167669E-01 0.12804221E+03</pdfrwt>
<pdfrwt beam="1">  1       -1 0.13502072E-01 0.12804221E+03</pdfrwt>
<totfact> 0.46599213E+03</totfact>
</mgrwt>
</event>
<event>
 7    1  0.1111284E-005  0.1621115E+03  0.7546771E-02  0.1193198E+00
         -3   -1    0    0    0  501 -0.00000000000E+00  0.00000000000E+00  0.41788577083E+03  0.41788577083E+03  0.00000000000E+00 0.  1.
          3   -1    0    0  501    0  0.00000000000E+00 -0.00000000000E+00 -0.56146759734E+02  0.56146759734E+02  0.00000000000E+00 0. -1.
         23    2    1    2    0    0 -0.50866703019E+02  0.89864808848E+02  0.12529597777E+03  0.18735247658E+03  0.93481351554E+02 0.  0.
          5    1    1    2  502    0 -0.34357971989E+02  0.32800330372E+00  0.30436798808E+02  0.46141809101E+02  0.47000000000E+01 0. -1.
         -5    1    1    2    0  502  0.85224675008E+02 -0.90192812152E+02  0.20600623452E+03  0.24053824489E+03  0.47000000000E+01 0. -1.
        -11    1    3    3    0    0 -0.21544139063E+02  0.57117256910E+02  0.12952796136E+03  0.14319226145E+03  0.00000000000E+00 0.  1.
         11    1    3    3    0    0 -0.29322563956E+02  0.32747551939E+02 -0.42319835891E+01  0.44160215127E+02  0.00000000000E+00 0. -1.
<mgrwt>
<rscale>  0 0.15607770E+03</rscale>
<asrwt>0</asrwt>
<pdfrwt beam="2">  1        3 0.86379633E-02 0.16211152E+03</pdfrwt>
<pdfrwt beam="1">  1       -3 0.64290117E-01 0.16211152E+03</pdfrwt>
<totfact> 0.53258890E+02</totfact>
</mgrwt>
</event>
<event>
 7    1  0.1111284E-005  0.1335814E+03  0.7546771E-02  0.1240036E+00
          1   -1    0    0  501    0  0.00000000000E+00  0.00000000000E+00  0.13631025861E+03  0.13631025861E+03  0.00000000000E+00 0. -1.
         -1   -1    0    0    0  501 -0.00000000000E+00 -0.00000000000E+00 -0.96601519714E+02  0.96601519714E+02  0.00000000000E+00 0.  1.
         23    2    1    2    0    0  0.10791950494E+02  0.45832406850E+02  0.35899528557E+02  0.99276035017E+02  0.79686129690E+02 0.  0.
          5    1    1    2  502    0  0.38413648223E+02  0.21640869267E+02 -0.16928628748E+02  0.47461606206E+02  0.47000000000E+01 0.  1.
         -5    1    1    2    0  502 -0.49205598717E+02 -0.67473276117E+02  0.20737839085E+02  0.86174137100E+02  0.47000000000E+01 0.  1.
        -11    1    3    3    0    0  0.16363789681E+02 -0.20355048582E+02  0.11045331379E+02  0.28356674008E+02  0.00000000000E+00 0.  1.
         11    1    3    3    0    0 -0.55718391872E+01  0.66187455432E+02  0.24854197178E+02  0.70919361009E+02  0.00000000000E+00 0. -1.
<mgrwt>
<rscale>  0 0.12187452E+03</rscale>
<asrwt>0</asrwt>
<pdfrwt beam="1">  1        1 0.20970809E-01 0.13358144E+03</pdfrwt>
<pdfrwt beam="2">  1       -1 0.14861772E-01 0.13358144E+03</pdfrwt>
<totfact> 0.74068264E+03</totfact>
</mgrwt>
</event>
<event>
 7    1  0.1111284E-005  0.1250132E+03  0.7546771E-02  0.1250404E+00
         -4   -1    0    0    0  501 -0.00000000000E+00  0.00000000000E+00  0.24161996112E+03  0.24161996112E+03  0.00000000000E+00 0.  1.
          4   -1    0    0  501    0  0.00000000000E+00 -0.00000000000E+00 -0.49663096618E+02  0.49663096618E+02  0.00000000000E+00 0. -1.
         23    2    1    2    0    0 -0.12094546376E+01 -0.19968454362E+01  0.10287679777E+03  0.13777883287E+03  0.91618344744E+02 0.  0.
          5    1    1    2  502    0 -0.35556250813E+02 -0.27872439306E+02 -0.73039304470E+01  0.46006056609E+02  0.47000000000E+01 0. -1.
         -5    1    1    2    0  502  0.36765705450E+02  0.29869284742E+02  0.96383997176E+02  0.10749816826E+03  0.47000000000E+01 0. -1.
        -11    1    3    3    0    0  0.25746156998E+02 -0.12814891101E+02  0.10479556476E+03  0.10867012665E+03  0.00000000000E+00 0. -1.
         11    1    3    3    0    0 -0.26955611636E+02  0.10818045664E+02 -0.19187669839E+01  0.29108706213E+02  0.00000000000E+00 0.  1.
<mgrwt>
<rscale>  0 0.11567716E+03</rscale>
<asrwt>0</asrwt>
<pdfrwt beam="2">  1        4 0.76404765E-02 0.12501315E+03</pdfrwt>
<pdfrwt beam="1">  1       -4 0.37172301E-01 0.12501315E+03</pdfrwt>
<totfact> 0.13558091E+03</totfact>
</mgrwt>
</event>
<event>
 7    1  0.1111284E-005  0.1625206E+03  0.7546771E-02  0.1209637E+00
          1   -1    0    0  501    0  0.00000000000E+00  0.00000000000E+00  0.59241523727E+03  0.59241523727E+03  0.00000000000E+00 0. -1.
         -1   -1    0    0    0  501 -0.00000000000E+00 -0.00000000000E+00 -0.29684183970E+02  0.29684183970E+02  0.00000000000E+00 0.  1.
         23    2    1    2    0    0 -0.35280912121E+02 -0.12405312074E+02  0.27633573011E+03  0.29280437283E+03  0.89299106870E+02 0.  0.
          5    1    1    2  502    0  0.79854402019E+02 -0.26973145637E+02  0.87247147303E+02  0.12140193911E+03  0.47000000000E+01 0.  1.
         -5    1    1    2    0  502 -0.44573489898E+02  0.39378457712E+02  0.19914817589E+03  0.20789310929E+03  0.47000000000E+01 0. -1.
        -11    1    3    3    0    0 -0.49223625226E+02 -0.37714537481E+02  0.13522383855E+03  0.14876437117E+03  0.00000000000E+00 0. -1.
         11    1    3    3    0    0  0.13942713105E+02  0.25309225407E+02  0.14111189156E+03  0.14404000166E+03  0.00000000000E+00 0.  1.
<mgrwt>
<rscale>  0 0.14277953E+03</rscale>
<asrwt>0</asrwt>
<pdfrwt beam="1">  1        1 0.91140797E-01 0.16252061E+03</pdfrwt>
<pdfrwt beam="2">  1       -1 0.45667980E-02 0.16252061E+03</pdfrwt>
<totfact> 0.70104049E+03</totfact>
</mgrwt>
</event>
<event>
 7    1  0.1111284E-005  0.1844206E+03  0.7546771E-02  0.1168379E+00
         -1   -1    0    0    0  501 -0.00000000000E+00  0.00000000000E+00  0.20440907820E+03  0.20440907820E+03  0.00000000000E+00 0.  1.
          1   -1    0    0  501    0  0.00000000000E+00 -0.00000000000E+00 -0.15311852003E+03  0.15311852003E+03  0.00000000000E+00 0. -1.
         23    2    1    2    0    0 -0.12238136470E+03 -0.58384694142E+02 -0.32920040681E+01  0.16519921150E+03  0.94307853620E+02 0.  0.
          5    1    1    2  502    0  0.88277706421E+02  0.86959417363E+02  0.73056433013E+02  0.14392437641E+03  0.47000000000E+01 0.  1.
         -5    1    1    2    0  502  0.34103658276E+02 -0.28574723221E+02 -0.18473870775E+02  0.48404010334E+02  0.47000000000E+01 0.  1.
        -11    1    3    3    0    0  0.12805115675E+01 -0.40075403850E+02  0.11188016679E+01  0.40111462462E+02  0.00000000000E+00 0.  1.
         11    1    3    3    0    0 -0.12366187627E+03 -0.18309290292E+02 -0.44108057360E+01  0.12508774904E+03  0.00000000000E+00 0. -1.
<mgrwt>
<rscale>  0 0.17940621E+03</rscale>
<asrwt>0</asrwt>
<pdfrwt beam="2">  1        1 0.23556695E-01 0.18442059E+03</pdfrwt>
<pdfrwt beam="1">  1       -1 0.31447550E-01 0.18442059E+03</pdfrwt>
<totfact> 0.19195233E+03</totfact>
</mgrwt>
</event>
<event>
 7    1  0.1111284E-005  0.8141563E+03  0.7546771E-02  0.9539750E-01
          2   -1    0    0  501    0  0.00000000000E+00  0.00000000000E+00  0.54658384682E+03  0.54658384682E+03  0.00000000000E+00 0. -1.
         -2   -1    0    0    0  501 -0.00000000000E+00 -0.00000000000E+00 -0.30317876217E+03  0.30317876217E+03  0.00000000000E+00 0.  1.
         23    2    1    2    0    0 -0.58732425260E+02  0.76779139038E+02  0.91662329756E+02  0.16152024566E+03  0.91336044876E+02 0.  0.
          5    1    1    2  502    0 -0.77478856533E+02  0.10768471042E+03  0.35673463276E+03  0.38063191968E+03  0.47000000000E+01 0. -1.
         -5    1    1    2    0  502  0.13621128179E+03 -0.18446384946E+03 -0.20499187787E+03  0.30761044365E+03  0.47000000000E+01 0.  1.
        -11    1    3    3    0    0 -0.74247716272E+02  0.24708639368E+02  0.60264674251E+02  0.98767763939E+02  0.00000000000E+00 0.  1.
         11    1    3    3    0    0  0.15515291011E+02  0.52070499670E+02  0.31397655505E+02  0.62752481722E+02  0.00000000000E+00 0. -1.
<mgrwt>
<rscale>  0 0.81415629E+03</rscale>
<asrwt>0</asrwt>
<pdfrwt beam="1">  1        2 0.84089822E-01 0.81415629E+03</pdfrwt>
<pdfrwt beam="2">  1       -2 0.46642887E-01 0.81415629E+03</pdfrwt>
<totfact> 0.24319784E+02</totfact>
</mgrwt>
</event>
<event>
 7    1  0.1111284E-005  0.1514862E+03  0.7546771E-02  0.1207929E+00
          2   -1    0    0  501    0  0.00000000000E+00  0.00000000000E+00  0.36321824334E+03  0.36321824334E+03  0.00000000000E+00 0. -1.
         -2   -1    0    0    0  501 -0.00000000000E+00 -0.00000000000E+00 -0.55857473407E+02  0.55857473407E+02  0.00000000000E+00 0.  1.
         23    2    1    2    0    0  0.74729918127E+02 -0.41678488880E+02  0.19244521678E+03  0.22893459768E+03  0.89745370116E+02 0.  0.
          5    1    1    2  502    0  0.30885264976E+01 -0.36051186064E+02  0.51428744189E+02  0.63057376582E+02  0.47000000000E+01 0. -1.
         -5    1    1    2    0  502 -0.77818444624E+02  0.77729674944E+02  0.63486808970E+02  0.12708374248E+03  0.47000000000E+01 0. -1.
        -11    1    3    3    0    0  0.58881339524E+02  0.42152634416E+01  0.46566157332E+02  0.75187682493E+02  0.00000000000E+00 0.  1.
         11    1    3    3    0    0  0.15848578603E+02 -0.45893752321E+02  0.14587905944E+03  0.15374691519E+03  0.00000000000E+00 0. -1.
<mgrwt>
<rscale>  0 0.14409031E+03</rscale>
<asrwt>0</asrwt>
<pdfrwt beam="1">  1        2 0.55879728E-01 0.15148617E+03</pdfrwt>
<pdfrwt beam="2">  1       -2 0.85934577E-02 0.15148617E+03</pdfrwt>
<totfact> 0.72007509E+03</totfact>
</mgrwt>
</event>
<event>
 7    1  0.1111284E-005  0.1394354E+03  0.7546771E-02  0.1224519E+00
         -3   -1    0    0    0  501 -0.00000000000E+00  0.00000000000E+00  0.15494443934E+03  0.15494443934E+03  0.00000000000E+00 0.  1.
          3   -1    0    0  501    0  0.00000000000E+00 -0.00000000000E+00 -0.10231812205E+03  0.10231812205E+03  0.00000000000E+00 0. -1.
         23    2    1    2    0    0 -0.14351471029E+02  0.60099528902E+02  0.16250543297E+02  0.11316043838E+03  0.93398536190E+02 0.  0.
          5    1    1    2  502    0 -0.25961725173E+02 -0.79403012025E+02 -0.38868698574E+01  0.83761848416E+02  0.47000000000E+01 0.  1.
         -5    1    1    2    0  502  0.40313196202E+02  0.19303483123E+02  0.40262643845E+02  0.60340274595E+02  0.47000000000E+01 0.  1.
        -11    1    3    3    0    0 -0.37417875972E+02  0.66134686104E+02 -0.11193114560E+02  0.76806119299E+02  0.00000000000E+00 0. -1.
         11    1    3    3    0    0  0.23066404943E+02 -0.60351572014E+01  0.27443657856E+02  0.36354319083E+02  0.00000000000E+00 0.  1.
<mgrwt>
<rscale>  0 0.13199946E+03</rscale>
<asrwt>0</asrwt>
<pdfrwt beam="2">  1        3 0.15741250E-01 0.13943538E+03</pdfrwt>
<pdfrwt beam="1">  1       -3 0.23837606E-01 0.13943538E+03</pdfrwt>
<totfact> 0.12927451E+03</totfact>
</mgrwt>
</event>
<event>
 7    1  0.1111284E-005  0.1782258E+03  0.7546771E-02  0.1175298E+00
         -1   -1    0    0    0  501 -0.00000000000E+00  0.00000000000E+00  0.51962992570E+03  0.51962992570E+03  0.00000000000E+00 0.  1.
          1   -1    0    0  501    0  0.00000000000E+00 -0.00000000000E+00 -0.54568751125E+02  0.54568751125E+02  0.00000000000E+00 0. -1.
         23    2    1    2    0    0 -0.12065811088E+03 -0.39754322294E+02  0.18428414535E+03  0.24163265354E+03  0.91032451158E+02 0.  0.
          5    1    1    2  502    0  0.65066859127E+02  0.52982083634E+02  0.56968316846E+02  0.10152968269E+03  0.47000000000E+01 0.  1.
         -5    1    1    2    0  502  0.55591251757E+02 -0.13227761339E+02  0.22380871238E+03  0.23103634060E+03  0.47000000000E+01 0.  1.
        -11    1    3    3    0    0 -0.36362251918E+02 -0.11311348657E+02  0.12254943647E+01  0.38100679907E+02  0.00000000000E+00 0. -1.
         11    1    3    3    0    0 -0.84295858966E+02 -0.28442973638E+02  0.18305865099E+03  0.20353197363E+03  0.00000000000E+00 0.  1.
<mgrwt>
<rscale>  0 0.17246807E+03</rscale>
<asrwt>0</asrwt>
<pdfrwt beam="2">  1        1 0.83951928E-02 0.17822575E+03</pdfrwt>
<pdfrwt beam="1">  1       -1 0.79943062E-01 0.17822575E+03</pdfrwt>
<totfact> 0.13140454E+03</totfact>
</mgrwt>
</event>
<event>
 7    1  0.1111284E-005  0.1261806E+03  0.7546771E-02  0.1248973E+00
         -2   -1    0    0    0  501 -0.00000000000E+00  0.00000000000E+00  0.28516477776E+02  0.28516477776E+02  0.00000000000E+00 0.  1.
          2   -1    0    0  501    0  0.00000000000E+00 -0.00000000000E+00 -0.44802690924E+03  0.44802690924E+03  0.00000000000E+00 0. -1.
         23    2    1    2    0    0  0.82665476539E+01 -0.14989574385E+02 -0.24166361911E+03  0.25848140797E+03  0.90101666551E+02 0.  0.
          5    1    1    2  502    0 -0.22054542117E+02 -0.47934346304E+02 -0.41860438663E+02  0.67516595801E+02  0.47000000000E+01 0. -1.
         -5    1    1    2    0  502  0.13787994463E+02  0.62923920689E+02 -0.13598637369E+03  0.15054538325E+03  0.47000000000E+01 0. -1.
        -11    1    3    3    0    0 -0.31582733237E+01  0.37493811312E+02 -0.88242608741E+02  0.95929758545E+02  0.00000000000E+00 0.  1.
         11    1    3    3    0    0  0.11424820978E+02 -0.52483385697E+02 -0.15342101037E+03  0.16255164942E+03  0.00000000000E+00 0. -1.
<mgrwt>
<rscale>  0 0.11650713E+03</rscale>
<asrwt>0</asrwt>
<pdfrwt beam="2">  1        2 0.68927214E-01 0.12618058E+03</pdfrwt>
<pdfrwt beam="1">  1       -2 0.43871506E-02 0.12618058E+03</pdfrwt>
<totfact> 0.15771632E+04</totfact>
</mgrwt>
</event>
<event>
 7    1  0.1111284E-005  0.1901502E+03  0.7546771E-02  0.1162116E+00
          1   -1    0    0  501    0  0.00000000000E+00  0.00000000000E+00  0.34144999945E+03  0.34144999945E+03  0.00000000000E+00 0. -1.
         -1   -1    0    0    0  501 -0.00000000000E+00 -0.00000000000E+00 -0.97665443650E+02  0.97665443650E+02  0.00000000000E+00 0.  1.
         23    2    1    2    0    0  0.14306787899E+03  0.79619760650E+01  0.10048612959E+03  0.20101560710E+03  0.98883775190E+02 0.  0.
          5    1    1    2  502    0  0.23771941736E+01  0.21387948300E+02  0.68330370288E+02  0.71792930629E+02  0.47000000000E+01 0. -1.
         -5    1    1    2    0  502 -0.14544507316E+03 -0.29349924365E+02  0.74968055919E+02  0.16630690537E+03  0.47000000000E+01 0. -1.
        -11    1    3    3    0    0  0.54469176901E+02  0.17633784769E+02 -0.10983495529E+02  0.58296473063E+02  0.00000000000E+00 0.  1.
         11    1    3    3    0    0  0.88598702085E+02 -0.96718087039E+01  0.11146962512E+03  0.14271913403E+03  0.00000000000E+00 0. -1.
<mgrwt>
<rscale>  0 0.18600322E+03</rscale>
<asrwt>0</asrwt>
<pdfrwt beam="1">  1        1 0.52530768E-01 0.19015019E+03</pdfrwt>
<pdfrwt beam="2">  1       -1 0.15025453E-01 0.19015019E+03</pdfrwt>
<totfact> 0.23499440E+03</totfact>
</mgrwt>
</event>
<event>
 7    1  0.1111284E-005  0.1784377E+03  0.7546771E-02  0.1178657E+00
         -2   -1    0    0    0  501 -0.00000000000E+00  0.00000000000E+00  0.23842288466E+03  0.23842288466E+03  0.00000000000E+00 0. -1.
          2   -1    0    0  501    0  0.00000000000E+00 -0.00000000000E+00 -0.12978283847E+03  0.12978283847E+03  0.00000000000E+00 0.  1.
         23    2    1    2    0    0 -0.36782315272E+02 -0.12191286628E+03 -0.23389905760E+02  0.14623292097E+03  0.67980098573E+02 0.  0.
          5    1    1    2  502    0  0.28543248138E+02  0.93346376264E+02  0.12275963319E+02  0.98493919870E+02  0.47000000000E+01 0.  1.
         -5    1    1    2    0  502  0.82390671333E+01  0.28566490018E+02  0.11975398863E+03  0.12347888229E+03  0.47000000000E+01 0.  1.
        -11    1    3    3    0    0 -0.28999821624E+02 -0.83822715835E+02 -0.47370776198E+02  0.10055460100E+03  0.00000000000E+00 0.  1.
         11    1    3    3    0    0 -0.77824936473E+01 -0.38090150448E+02  0.23980870439E+02  0.45678319972E+02  0.00000000000E+00 0. -1.
<mgrwt>
<rscale>  0 0.16922687E+03</rscale>
<asrwt>0</asrwt>
<pdfrwt beam="2">  1        2 0.19966591E-01 0.17843771E+03</pdfrwt>
<pdfrwt beam="1">  1       -2 0.36680444E-01 0.17843771E+03</pdfrwt>
<totfact> 0.19224388E+03</totfact>
</mgrwt>
</event>
<event>
 7    1  0.1111284E-005  0.2641726E+03  0.7546771E-02  0.1106949E+00
         -2   -1    0    0    0  501 -0.00000000000E+00  0.00000000000E+00  0.11614093012E+03  0.11614093012E+03  0.00000000000E+00 0.  1.
          2   -1    0    0  501    0  0.00000000000E+00 -0.00000000000E+00 -0.80983316021E+03  0.80983316021E+03  0.00000000000E+00 0. -1.
         23    2    1    2    0    0  0.52971341343E+02 -0.22662238091E+03 -0.59311372565E+03  0.64330258219E+03  0.88829354128E+02 0.  0.
          5    1    1    2  502    0  0.14104008721E+02  0.16451156008E+03 -0.95929128179E+02  0.19101692097E+03  0.47000000000E+01 0. -1.
         -5    1    1    2    0  502 -0.67075350064E+02  0.62110820825E+02 -0.46493762534E+01  0.91654587170E+02  0.47000000000E+01 0. -1.
        -11    1    3    3    0    0 -0.90310425461E+01 -0.13496068142E+03 -0.37646619476E+03  0.40002842531E+03  0.00000000000E+00 0. -1.
         11    1    3    3    0    0  0.62002383889E+02 -0.91661699491E+02 -0.21664753090E+03  0.24327415688E+03  0.00000000000E+00 0.  1.
<mgrwt>
<rscale>  0 0.26032285E+03</rscale>
<asrwt>0</asrwt>
<pdfrwt beam="2">  1        2 0.12458971E+00 0.26417257E+03</pdfrwt>
<pdfrwt beam="1">  1       -2 0.17867836E-01 0.26417257E+03</pdfrwt>
<totfact> 0.89282324E+02</totfact>
</mgrwt>
</event>
<event>
 7    1  0.1111284E-005  0.1448323E+03  0.7546771E-02  0.1211410E+00
         -1   -1    0    0    0  501 -0.00000000000E+00  0.00000000000E+00  0.59547255924E+03  0.59547255924E+03  0.00000000000E+00 0.  1.
          1   -1    0    0  501    0  0.00000000000E+00 -0.00000000000E+00 -0.32649512007E+02  0.32649512007E+02  0.00000000000E+00 0. -1.
         23    2    1    2    0    0  0.73062574112E+02  0.34183006450E+01  0.30867186602E+03  0.33559992127E+03  0.10954068545E+03 0.  0.
          5    1    1    2  502    0 -0.69533769696E+02  0.12339863353E+02  0.47615122003E+02  0.85302445446E+02  0.47000000000E+01 0. -1.
         -5    1    1    2    0  502 -0.35288044159E+01 -0.15758163998E+02  0.20653605921E+03  0.20721970453E+03  0.47000000000E+01 0. -1.
        -11    1    3    3    0    0  0.36208690718E+02  0.35576651569E+02  0.46292593954E+02  0.68700594433E+02  0.00000000000E+00 0. -1.
         11    1    3    3    0    0  0.36853883393E+02 -0.32158350924E+02  0.26237927207E+03  0.26689932684E+03  0.00000000000E+00 0.  1.
<mgrwt>
<rscale>  0 0.14143544E+03</rscale>
<asrwt>0</asrwt>
<pdfrwt beam="2">  1        1 0.50230023E-02 0.14483227E+03</pdfrwt>
<pdfrwt beam="1">  1       -1 0.91611155E-01 0.14483227E+03</pdfrwt>
<totfact> 0.19701639E+03</totfact>
</mgrwt>
</event>
<event>
 6    1  0.1111284E-005  0.1259494E+03  0.7546771E-02  0.1274964E+00
         -1   -1    0    0    0  501 -0.00000000000E+00  0.00000000000E+00  0.85949680656E+02  0.85949680656E+02  0.00000000000E+00 0. -1.
          1   -1    0    0  501    0  0.00000000000E+00 -0.00000000000E+00 -0.11015297916E+03  0.11015297916E+03  0.00000000000E+00 0.  1.
          5    1    1    2  502    0 -0.55008430687E+02  0.12290006080E+02  0.25408700260E+02  0.62005352551E+02  0.47000000000E+01 0.  1.
         -5    1    1    2    0  502  0.64352689018E+02  0.28970634331E-01 -0.84712362682E+01  0.65077809329E+02  0.47000000000E+01 0.  1.
        -11    1    1    2    0    0 -0.20676252779E+02  0.14413655586E+02 -0.26239568510E+02  0.36383730594E+02  0.00000000000E+00 0. -1.
         11    1    1    2    0    0  0.11331994448E+02 -0.26732632300E+02 -0.14901193987E+02  0.32635767343E+02  0.00000000000E+00 0.  1.
<mgrwt>
<rscale>  0 0.10257921E+03</rscale>
<asrwt>0</asrwt>
<pdfrwt beam="2">  1        1 0.16946612E-01 0.12594940E+03</pdfrwt>
<pdfrwt beam="1">  1       -1 0.13223028E-01 0.12594940E+03</pdfrwt>
<totfact> 0.11600975E+04</totfact>
</mgrwt>
</event>
<event>
 7    1  0.1111284E-005  0.1559627E+03  0.7546771E-02  0.1205290E+00
          2   -1    0    0  501    0  0.00000000000E+00  0.00000000000E+00  0.45894059603E+02  0.45894059603E+02  0.00000000000E+00 0. -1.
         -2   -1    0    0    0  501 -0.00000000000E+00 -0.00000000000E+00 -0.41572131263E+03  0.41572131263E+03  0.00000000000E+00 0.  1.
         23    2    1    2    0    0 -0.52172017159E+02 -0.55692462192E+02 -0.15709851582E+03  0.19783915595E+03  0.92934483553E+02 0.  0.
          5    1    1    2  502    0  0.45908989037E+02 -0.12433622398E+02 -0.87628027634E+01  0.48591222999E+02  0.47000000000E+01 0. -1.
         -5    1    1    2    0  502  0.62630281223E+01  0.68126084590E+02 -0.20396593444E+03  0.21518499328E+03  0.47000000000E+01 0.  1.
        -11    1    3    3    0    0 -0.61604224426E+02 -0.38630484347E+02 -0.16214319945E+03  0.17770146852E+03  0.00000000000E+00 0.  1.
         11    1    3    3    0    0  0.94322072669E+01 -0.17061977844E+02  0.50446836271E+01  0.20137687424E+02  0.00000000000E+00 0. -1.
<mgrwt>
<rscale>  0 0.14614641E+03</rscale>
<asrwt>0</asrwt>
<pdfrwt beam="1">  1        2 0.70606246E-02 0.15596274E+03</pdfrwt>
<pdfrwt beam="2">  1       -2 0.63957124E-01 0.15596274E+03</pdfrwt>
<totfact> 0.22403981E+03</totfact>
</mgrwt>
</event>
<event>
 7    1  0.1111284E-005  0.1344862E+03  0.7546771E-02  0.1233030E+00
          2   -1    0    0  501    0  0.00000000000E+00  0.00000000000E+00  0.33823314530E+03  0.33823314530E+03  0.00000000000E+00 0. -1.
         -2   -1    0    0    0  501 -0.00000000000E+00 -0.00000000000E+00 -0.53425380206E+02  0.53425380206E+02  0.00000000000E+00 0.  1.
         23    2    1    2    0    0  0.49266894251E+02 -0.59104697984E+01  0.21727849626E+03  0.24117019314E+03  0.92146386789E+02 0.  0.
          5    1    1    2  502    0  0.15976327781E+02 -0.44297691473E+02  0.44288777326E+02  0.64816003551E+02  0.47000000000E+01 0. -1.
         -5    1    1    2    0  502 -0.65243222032E+02  0.50208161272E+02  0.23240491507E+02  0.85672328816E+02  0.47000000000E+01 0. -1.
        -11    1    3    3    0    0  0.56235080080E+01 -0.25947290620E+02  0.99505057633E+01  0.28353100320E+02  0.00000000000E+00 0.  1.
         11    1    3    3    0    0  0.43643386243E+02  0.20036820822E+02  0.20732799050E+03  0.21281709282E+03  0.00000000000E+00 0. -1.
<mgrwt>
<rscale>  0 0.12631371E+03</rscale>
<asrwt>0</asrwt>
<pdfrwt beam="1">  1        2 0.52035867E-01 0.13448619E+03</pdfrwt>
<pdfrwt beam="2">  1       -2 0.82192894E-02 0.13448619E+03</pdfrwt>
<totfact> 0.82596360E+03</totfact>
</mgrwt>
</event>
<event>
 7    1  0.1111284E-005  0.1533952E+03  0.7546771E-02  0.1204194E+00
          1   -1    0    0  501    0  0.00000000000E+00  0.00000000000E+00  0.26075001907E+02  0.26075001907E+02  0.00000000000E+00 0. -1.
         -1   -1    0    0    0  501 -0.00000000000E+00 -0.00000000000E+00 -0.97563982576E+03  0.97563982576E+03  0.00000000000E+00 0.  1.
         23    2    1    2    0    0 -0.61148883040E+02 -0.69643485136E+02 -0.21207816991E+03  0.24844419285E+03  0.90321458636E+02 0.  0.
          5    1    1    2  502    0 -0.38747879491E+01  0.14360362605E+02 -0.58531241830E+01  0.16660824064E+02  0.47000000000E+01 0. -1.
         -5    1    1    2    0  502  0.65023670989E+02  0.55283122531E+02 -0.73163352976E+03  0.73660981075E+03  0.47000000000E+01 0.  1.
        -11    1    3    3    0    0 -0.33799780925E+02 -0.49925056705E+02 -0.20540945332E+03  0.21407470657E+03  0.00000000000E+00 0.  1.
         11    1    3    3    0    0 -0.27349102115E+02 -0.19718428431E+02 -0.66687165833E+01  0.34369486280E+02  0.00000000000E+00 0. -1.
<mgrwt>
<rscale>  0 0.14701178E+03</rscale>
<asrwt>0</asrwt>
<pdfrwt beam="1">  1        1 0.40115391E-02 0.15339519E+03</pdfrwt>
<pdfrwt beam="2">  1       -1 0.15009842E+00 0.15339519E+03</pdfrwt>
<totfact> 0.84472147E+02</totfact>
</mgrwt>
</event>
<event>
 7    1  0.1111284E-005  0.1842790E+03  0.7546771E-02  0.1168850E+00
          1   -1    0    0  501    0  0.00000000000E+00  0.00000000000E+00  0.72035469805E+02  0.72035469805E+02  0.00000000000E+00 0. -1.
         -1   -1    0    0    0  501 -0.00000000000E+00 -0.00000000000E+00 -0.43057642010E+03  0.43057642010E+03  0.00000000000E+00 0.  1.
         23    2    1    2    0    0  0.27468503381E+02 -0.13258724945E+03 -0.13040239111E+03  0.20934419845E+03  0.92121183344E+02 0.  0.
          5    1    1    2  502    0 -0.76414367089E+02  0.64336954983E+02 -0.12994534190E+03  0.16397036670E+03  0.47000000000E+01 0. -1.
         -5    1    1    2    0  502  0.48945863707E+02  0.68250294469E+02 -0.98193217277E+02  0.12929732475E+03  0.47000000000E+01 0. -1.
        -11    1    3    3    0    0  0.17326214062E+02  0.67910462700E+01 -0.60738317903E+00  0.18619476832E+02  0.00000000000E+00 0. -1.
         11    1    3    3    0    0  0.10142289319E+02 -0.13937829572E+03 -0.12979500793E+03  0.19072472162E+03  0.00000000000E+00 0.  1.
<mgrwt>
<rscale>  0 0.17892235E+03</rscale>
<asrwt>0</asrwt>
<pdfrwt beam="1">  1        1 0.11082380E-01 0.18427896E+03</pdfrwt>
<pdfrwt beam="2">  1       -1 0.66242526E-01 0.18427896E+03</pdfrwt>
<totfact> 0.13226846E+03</totfact>
</mgrwt>
</event>
<event>
 7    1  0.1111284E-005  0.1316382E+03  0.7546771E-02  0.1239103E+00
          2   -1    0    0  501    0  0.00000000000E+00  0.00000000000E+00  0.86499237650E+03  0.86499237650E+03  0.00000000000E+00 0. -1.
         -2   -1    0    0    0  501 -0.00000000000E+00 -0.00000000000E+00 -0.15814546222E+02  0.15814546222E+02  0.00000000000E+00 0.  1.
         23    2    1    2    0    0  0.29464159861E+02  0.28913913669E+02  0.44286537071E+03  0.45370222184E+03  0.89508761594E+02 0.  0.
          5    1    1    2  502    0 -0.53724122108E+02 -0.44785225887E+02  0.38366818622E+03  0.39001969805E+03  0.47000000000E+01 0. -1.
         -5    1    1    2    0  502  0.24259962247E+02  0.15871312218E+02  0.22644273348E+02  0.37085002834E+02  0.47000000000E+01 0. -1.
        -11    1    3    3    0    0 -0.28701224834E+02  0.10201294983E+01  0.76750941731E+02  0.81948203322E+02  0.00000000000E+00 0.  1.
         11    1    3    3    0    0  0.58165384695E+02  0.27893784171E+02  0.36611442898E+03  0.37175401852E+03  0.00000000000E+00 0. -1.
<mgrwt>
<rscale>  0 0.12245377E+03</rscale>
<asrwt>0</asrwt>
<pdfrwt beam="1">  1        2 0.13307571E+00 0.13163818E+03</pdfrwt>
<pdfrwt beam="2">  1       -2 0.24330078E-02 0.13163818E+03</pdfrwt>
<totfact> 0.17611920E+04</totfact>
</mgrwt>
</event>
<event>
 7    1  0.1111284E-005  0.1330076E+03  0.7546771E-02  0.1235986E+00
         -1   -1    0    0    0  501 -0.00000000000E+00  0.00000000000E+00  0.13787099098E+03  0.13787099098E+03  0.00000000000E+00 0.  1.
          1   -1    0    0  501    0  0.00000000000E+00 -0.00000000000E+00 -0.10084675075E+03  0.10084675075E+03  0.00000000000E+00 0. -1.
         23    2    1    2    0    0  0.41862912832E+02  0.17698125741E+02  0.52284315062E+01  0.10196246905E+03  0.91122343436E+02 0.  0.
          5    1    1    2  502    0 -0.45093919281E+02 -0.47257579292E+02  0.64768001317E+02  0.92107135181E+02  0.47000000000E+01 0. -1.
         -5    1    1    2    0  502  0.32310064491E+01  0.29559453551E+02 -0.32972192593E+02  0.44648137490E+02  0.47000000000E+01 0. -1.
        -11    1    3    3    0    0 -0.15135342642E+02 -0.11665895992E+02 -0.24679269723E+02  0.31212787127E+02  0.00000000000E+00 0. -1.
         11    1    3    3    0    0  0.56998255474E+02  0.29364021733E+02  0.29907701229E+02  0.70749681923E+02  0.00000000000E+00 0.  1.
<mgrwt>
<rscale>  0 0.12441553E+03</rscale>
<asrwt>0</asrwt>
<pdfrwt beam="2">  1        1 0.15514885E-01 0.13300764E+03</pdfrwt>
<pdfrwt beam="1">  1       -1 0.21210922E-01 0.13300764E+03</pdfrwt>
<totfact> 0.61870401E+03</totfact>
</mgrwt>
</event>
<event>
 7    1  0.1111284E-005  0.1623759E+03  0.7546771E-02  0.1193684E+00
         -2   -1    0    0    0  501 -0.00000000000E+00  0.00000000000E+00  0.87694417034E+02  0.87694417034E+02  0.00000000000E+00 0.  1.
          2   -1    0    0  501    0  0.00000000000E+00 -0.00000000000E+00 -0.25695783544E+03  0.25695783544E+03  0.00000000000E+00 0. -1.
         23    2    1    2    0    0 -0.10338072291E+03 -0.72595228528E+01 -0.89348645688E+02  0.16367625445E+03  0.89813480288E+02 0.  0.
          5    1    1    2  502    0  0.33386397147E+01 -0.44606200482E+02 -0.43204618573E+02  0.62366567187E+02  0.47000000000E+01 0. -1.
         -5    1    1    2    0  502  0.10004208320E+03  0.51865723335E+02 -0.36710154146E+02  0.11860943084E+03  0.47000000000E+01 0. -1.
        -11    1    3    3    0    0 -0.51824162913E+02 -0.21912034267E+02  0.36000017590E+01  0.56381212474E+02  0.00000000000E+00 0.  1.
         11    1    3    3    0    0 -0.51556559999E+02  0.14652511415E+02 -0.92948647447E+02  0.10729504197E+03  0.00000000000E+00 0. -1.
<mgrwt>
<rscale>  0 0.15566121E+03</rscale>
<asrwt>0</asrwt>
<pdfrwt beam="2">  1        2 0.39531974E-01 0.16237592E+03</pdfrwt>
<pdfrwt beam="1">  1       -2 0.13491449E-01 0.16237592E+03</pdfrwt>
<totfact> 0.51094546E+03</totfact>
</mgrwt>
</event>
<event>
 7    1  0.1111284E-005  0.1289732E+03  0.7546771E-02  0.1243286E+00
         -1   -1    0    0    0  501 -0.00000000000E+00  0.00000000000E+00  0.25594711447E+02  0.25594711447E+02  0.00000000000E+00 0.  1.
          1   -1    0    0  501    0  0.00000000000E+00 -0.00000000000E+00 -0.49628611058E+03  0.49628611058E+03  0.00000000000E+00 0. -1.
         23    2    1    2    0    0  0.12957879212E+02 -0.28998676021E+02 -0.19183844850E+03  0.21464628980E+03  0.90896697179E+02 0.  0.
          5    1    1    2  502    0 -0.31076922310E+02  0.45480569087E+02 -0.42925545637E+02  0.69992497691E+02  0.47000000000E+01 0.  1.
         -5    1    1    2    0  502  0.18119043098E+02 -0.16481893066E+02 -0.23592740500E+03  0.23724203454E+03  0.47000000000E+01 0.  1.
        -11    1    3    3    0    0 -0.22440122166E+02  0.23632121109E+02 -0.57675112420E+02  0.66245413604E+02  0.00000000000E+00 0. -1.
         11    1    3    3    0    0  0.35398001378E+02 -0.52630797130E+02 -0.13416333608E+03  0.14840087619E+03  0.00000000000E+00 0.  1.
<mgrwt>
<rscale>  0 0.11988523E+03</rscale>
<asrwt>0</asrwt>
<pdfrwt beam="2">  1        1 0.76351712E-01 0.12897321E+03</pdfrwt>
<pdfrwt beam="1">  1       -1 0.39376478E-02 0.12897321E+03</pdfrwt>
<totfact> 0.10877063E+04</totfact>
</mgrwt>
</event>
<event>
 7    1  0.1111284E-005  0.1487956E+03  0.7546771E-02  0.1218816E+00
          1   -1    0    0  501    0  0.00000000000E+00  0.00000000000E+00  0.34258265644E+03  0.34258265644E+03  0.00000000000E+00 0. -1.
         -1   -1    0    0    0  501 -0.00000000000E+00 -0.00000000000E+00 -0.57127721885E+02  0.57127721885E+02  0.00000000000E+00 0.  1.
         23    2    1    2    0    0  0.80389801149E+02  0.38588641001E+01  0.20679375922E+03  0.23140196337E+03  0.65618586051E+02 0.  0.
          5    1    1    2  502    0  0.30917159249E+02  0.11001690390E+02  0.40334283242E+01  0.33395605572E+02  0.47000000000E+01 0.  1.
         -5    1    1    2    0  502 -0.11130696040E+03 -0.14860554490E+02  0.74627747005E+02  0.13491280938E+03  0.47000000000E+01 0.  1.
        -11    1    3    3    0    0  0.40049898026E+02  0.33101815890E+02  0.12840190575E+03  0.13851633098E+03  0.00000000000E+00 0. -1.
         11    1    3    3    0    0  0.40339903123E+02 -0.29242951790E+02  0.78391853470E+02  0.92885632386E+02  0.00000000000E+00 0.  1.
<mgrwt>
<rscale>  0 0.13599914E+03</rscale>
<asrwt>0</asrwt>
<pdfrwt beam="1">  1        1 0.52705023E-01 0.14879564E+03</pdfrwt>
<pdfrwt beam="2">  1       -1 0.87888805E-02 0.14879564E+03</pdfrwt>
<totfact> 0.53106315E+03</totfact>
</mgrwt>
</event>
<event>
 7    1  0.1111284E-005  0.1514237E+03  0.7546771E-02  0.1207797E+00
         -1   -1    0    0    0  501 -0.00000000000E+00  0.00000000000E+00  0.43245490779E+02  0.43245490779E+02  0.00000000000E+00 0.  1.
          1   -1    0    0  501    0  0.00000000000E+00 -0.00000000000E+00 -0.44630320915E+03  0.44630320915E+03  0.00000000000E+00 0. -1.
         23    2    1    2    0    0  0.83027427341E+02  0.20270960560E+02 -0.21076556969E+03  0.24479290676E+03  0.90537154256E+02 0.  0.
          5    1    1    2  502    0 -0.23038239535E+02  0.63626009608E+01  0.14087869426E+02  0.28138962966E+02  0.47000000000E+01 0. -1.
         -5    1    1    2    0  502 -0.59989187806E+02 -0.26633561520E+02 -0.20638001811E+03  0.21661683020E+03  0.47000000000E+01 0. -1.
        -11    1    3    3    0    0 -0.15750055441E+02  0.13513318609E+02 -0.15642195968E+02  0.25987541648E+02  0.00000000000E+00 0.  1.
         11    1    3    3    0    0  0.98777482782E+02  0.67576419506E+01 -0.19512337372E+03  0.21880536511E+03  0.00000000000E+00 0. -1.
<mgrwt>
<rscale>  0 0.14419222E+03</rscale>
<asrwt>0</asrwt>
<pdfrwt beam="2">  1        1 0.68662031E-01 0.15142367E+03</pdfrwt>
<pdfrwt beam="1">  1       -1 0.66531525E-02 0.15142367E+03</pdfrwt>
<totfact> 0.57929800E+03</totfact>
</mgrwt>
</event>
<event>
 7    1  0.1111284E-005  0.1736068E+03  0.7546771E-02  0.1180557E+00
         -3   -1    0    0    0  501 -0.00000000000E+00  0.00000000000E+00  0.37051005920E+02  0.37051005920E+02  0.00000000000E+00 0.  1.
          3   -1    0    0  501    0  0.00000000000E+00 -0.00000000000E+00 -0.77901875293E+03  0.77901875293E+03  0.00000000000E+00 0. -1.
         23    2    1    2    0    0  0.11992644922E+03 -0.11469432056E+02 -0.47005011457E+03  0.49345773763E+03  0.89663412450E+02 0.  0.
          5    1    1    2  502    0 -0.55483938452E+02  0.37685575382E+02 -0.35311982770E+02  0.75945349727E+02  0.47000000000E+01 0. -1.
         -5    1    1    2    0  502 -0.64442510772E+02 -0.26216143326E+02 -0.23660564968E+03  0.24666667149E+03  0.47000000000E+01 0. -1.
        -11    1    3    3    0    0  0.57686628460E+02 -0.45791736541E+02 -0.30476390404E+03  0.31353734617E+03  0.00000000000E+00 0.  1.
         11    1    3    3    0    0  0.62239820765E+02  0.34322304485E+02 -0.16528621052E+03  0.17992039146E+03  0.00000000000E+00 0. -1.
<mgrwt>
<rscale>  0 0.16742743E+03</rscale>
<asrwt>0</asrwt>
<pdfrwt beam="2">  1        3 0.11984903E+00 0.17360679E+03</pdfrwt>
<pdfrwt beam="1">  1       -3 0.57001550E-02 0.17360679E+03</pdfrwt>
<totfact> 0.26437205E+02</totfact>
</mgrwt>
</event>
<event>
 7    1  0.1111284E-005  0.2064341E+03  0.7546771E-02  0.1147901E+00
          1   -1    0    0  501    0  0.00000000000E+00  0.00000000000E+00  0.13548308015E+03  0.13548308015E+03  0.00000000000E+00 0. -1.
         -1   -1    0    0    0  501 -0.00000000000E+00 -0.00000000000E+00 -0.35656695831E+03  0.35656695831E+03  0.00000000000E+00 0.  1.
         23    2    1    2    0    0  0.30151785497E+02 -0.16318566365E+03 -0.57564009407E+00  0.18999222113E+03  0.92509576484E+02 0.  0.
          5    1    1    2  502    0 -0.34517126343E+01  0.95056920856E+02 -0.33113250322E+02  0.10082812043E+03  0.47000000000E+01 0. -1.
         -5    1    1    2    0  502 -0.26700072862E+02  0.68128742790E+02 -0.18739498774E+03  0.20122969690E+03  0.47000000000E+01 0.  1.
        -11    1    3    3    0    0  0.53418343318E+02 -0.98012870966E+02  0.28064396571E+02  0.11509844757E+03  0.00000000000E+00 0.  1.
         11    1    3    3    0    0 -0.23266557821E+02 -0.65172792680E+02 -0.28640036665E+02  0.74893773564E+02  0.00000000000E+00 0. -1.
<mgrwt>
<rscale>  0 0.20219460E+03</rscale>
<asrwt>0</asrwt>
<pdfrwt beam="1">  1        1 0.20843551E-01 0.20643411E+03</pdfrwt>
<pdfrwt beam="2">  1       -1 0.54856455E-01 0.20643411E+03</pdfrwt>
<totfact> 0.83393539E+02</totfact>
</mgrwt>
</event>
<event>
 7    1  0.1111284E-005  0.1656215E+03  0.7546771E-02  0.1189761E+00
         -1   -1    0    0    0  501 -0.00000000000E+00  0.00000000000E+00  0.11302988269E+03  0.11302988269E+03  0.00000000000E+00 0.  1.
          1   -1    0    0  501    0  0.00000000000E+00 -0.00000000000E+00 -0.25206907469E+03  0.25206907469E+03  0.00000000000E+00 0. -1.
         23    2    1    2    0    0 -0.10435557058E+03  0.30171831848E+02 -0.14118721198E+03  0.19946354317E+03  0.89729881748E+02 0.  0.
          5    1    1    2  502    0  0.61784906804E+02 -0.72409380037E+02 -0.26629770751E+02  0.98953159204E+02  0.47000000000E+01 0.  1.
         -5    1    1    2    0  502  0.42570663781E+02  0.42237548189E+02  0.28777790733E+02  0.66682254995E+02  0.47000000000E+01 0.  1.
        -11    1    3    3    0    0 -0.75191369831E+02 -0.22038544016E+02 -0.99104584839E+02  0.12633747764E+03  0.00000000000E+00 0.  1.
         11    1    3    3    0    0 -0.29164200754E+02  0.52210375865E+02 -0.42082627143E+02  0.73126065536E+02  0.00000000000E+00 0. -1.
<mgrwt>
<rscale>  0 0.15906063E+03</rscale>
<asrwt>0</asrwt>
<pdfrwt beam="2">  1        1 0.38779857E-01 0.16562149E+03</pdfrwt>
<pdfrwt beam="1">  1       -1 0.17389213E-01 0.16562149E+03</pdfrwt>
<totfact> 0.27092734E+03</totfact>
</mgrwt>
</event>
<event>
 7    1  0.1111284E-005  0.1834426E+03  0.7546771E-02  0.1169944E+00
         -1   -1    0    0    0  501 -0.00000000000E+00  0.00000000000E+00  0.40453669277E+02  0.40453669277E+02  0.00000000000E+00 0.  1.
          1   -1    0    0  501    0  0.00000000000E+00 -0.00000000000E+00 -0.76174704209E+03  0.76174704209E+03  0.00000000000E+00 0. -1.
         23    2    1    2    0    0 -0.49537208619E+02 -0.12478940346E+03 -0.41092875397E+03  0.44167694070E+03  0.90497231188E+02 0.  0.
          5    1    1    2  502    0  0.89055298411E+02  0.98299471555E+02 -0.19752203993E+03  0.23797201209E+03  0.47000000000E+01 0.  1.
         -5    1    1    2    0  502 -0.39518089792E+02  0.26489931904E+02 -0.11284257892E+03  0.12255175857E+03  0.47000000000E+01 0.  1.
        -11    1    3    3    0    0  0.88724452239E+01 -0.87387113147E+02 -0.28080989371E+03  0.29422682446E+03  0.00000000000E+00 0.  1.
         11    1    3    3    0    0 -0.58409653842E+02 -0.37402290312E+02 -0.13011886026E+03  0.14745011624E+03  0.00000000000E+00 0. -1.
<mgrwt>
<rscale>  0 0.17780589E+03</rscale>
<asrwt>0</asrwt>
<pdfrwt beam="2">  1        1 0.11719185E+00 0.18344261E+03</pdfrwt>
<pdfrwt beam="1">  1       -1 0.62236416E-02 0.18344261E+03</pdfrwt>
<totfact> 0.31033362E+03</totfact>
</mgrwt>
</event>
<event>
 7    1  0.1111284E-005  0.1294478E+03  0.7546771E-02  0.1243943E+00
          1   -1    0    0  501    0  0.00000000000E+00  0.00000000000E+00  0.10745721629E+03  0.10745721629E+03  0.00000000000E+00 0. -1.
         -1   -1    0    0    0  501 -0.00000000000E+00 -0.00000000000E+00 -0.12423289136E+03  0.12423289136E+03  0.00000000000E+00 0.  1.
         23    2    1    2    0    0  0.14455314651E+01  0.33614253402E+02  0.22081086987E+02  0.96536235227E+02  0.87747722001E+02 0.  0.
          5    1    1    2  502    0  0.11255357188E+02 -0.13765778466E+02 -0.82935989247E+02  0.84950856585E+02  0.47000000000E+01 0.  1.
         -5    1    1    2    0  502 -0.12700888653E+02 -0.19848474936E+02  0.44079227190E+02  0.50203015841E+02  0.47000000000E+01 0.  1.
        -11    1    3    3    0    0 -0.43092018488E+02  0.15298174730E+02  0.86064072410E+01  0.46529844756E+02  0.00000000000E+00 0. -1.
         11    1    3    3    0    0  0.44537549953E+02  0.18316078671E+02  0.13474679746E+02  0.50006390471E+02  0.00000000000E+00 0.  1.
<mgrwt>
<rscale>  0 0.11948854E+03</rscale>
<asrwt>0</asrwt>
<pdfrwt beam="1">  1        1 0.16531880E-01 0.12944775E+03</pdfrwt>
<pdfrwt beam="2">  1       -1 0.19112752E-01 0.12944775E+03</pdfrwt>
<totfact> 0.67257200E+03</totfact>
</mgrwt>
</event>
<event>
 7    1  0.1111284E-005  0.1538172E+03  0.7546771E-02  0.1202240E+00
          2   -1    0    0  501    0  0.00000000000E+00  0.00000000000E+00  0.24297523802E+02  0.24297523802E+02  0.00000000000E+00 0. -1.
         -2   -1    0    0    0  501 -0.00000000000E+00 -0.00000000000E+00 -0.97493318602E+03  0.97493318602E+03  0.00000000000E+00 0.  1.
         23    2    1    2    0    0 -0.31828669042E+02 -0.83849868323E+02 -0.26924237032E+03  0.30069183799E+03  0.99399511419E+02 0.  0.
          5    1    1    2  502    0 -0.42755599494E+02  0.40169522897E+01 -0.15504410063E+03  0.16095011753E+03  0.47000000000E+01 0. -1.
         -5    1    1    2    0  502  0.74584268536E+02  0.79832916034E+02 -0.52634919127E+03  0.53758875430E+03  0.47000000000E+01 0. -1.
        -11    1    3    3    0    0 -0.43365249960E+02 -0.69491750657E+02 -0.27010565614E+03  0.28225292521E+03  0.00000000000E+00 0.  1.
         11    1    3    3    0    0  0.11536580918E+02 -0.14358117667E+02  0.86328581771E+00  0.18438912783E+02  0.00000000000E+00 0. -1.
<mgrwt>
<rscale>  0 0.14857080E+03</rscale>
<asrwt>0</asrwt>
<pdfrwt beam="1">  1        2 0.37380810E-02 0.15381722E+03</pdfrwt>
<pdfrwt beam="2">  1       -2 0.14998970E+00 0.15381722E+03</pdfrwt>
<totfact> 0.72111341E+02</totfact>
</mgrwt>
</event>
<event>
 7    1  0.1111284E-005  0.1512852E+03  0.7546771E-02  0.1207819E+00
          2   -1    0    0  501    0  0.00000000000E+00  0.00000000000E+00  0.63349313698E+03  0.63349313698E+03  0.00000000000E+00 0. -1.
         -2   -1    0    0    0  501 -0.00000000000E+00 -0.00000000000E+00 -0.32962687675E+02  0.32962687675E+02  0.00000000000E+00 0.  1.
         23    2    1    2    0    0  0.84129753373E+02 -0.13714905035E+02  0.37213395958E+03  0.39249932202E+03  0.91137916860E+02 0.  0.
          5    1    1    2  502    0 -0.63874998813E+02 -0.23835076354E+02  0.21980370281E+03  0.23018228452E+03  0.47000000000E+01 0.  1.
         -5    1    1    2    0  502 -0.20254754560E+02  0.37549981389E+02  0.85927869138E+01  0.43774218114E+02  0.47000000000E+01 0.  1.
        -11    1    3    3    0    0  0.70498824614E+02 -0.42360753957E+02  0.32795092056E+03  0.33810697131E+03  0.00000000000E+00 0. -1.
         11    1    3    3    0    0  0.13630928759E+02  0.28645848922E+02  0.44183039022E+02  0.54392350717E+02  0.00000000000E+00 0.  1.
<mgrwt>
<rscale>  0 0.14417517E+03</rscale>
<asrwt>0</asrwt>
<pdfrwt beam="1">  1        2 0.97460474E-01 0.15128519E+03</pdfrwt>
<pdfrwt beam="2">  1       -2 0.50711832E-02 0.15128519E+03</pdfrwt>
<totfact> 0.87454812E+03</totfact>
</mgrwt>
</event>
<event>
 7    1  0.1111284E-005  0.1528799E+03  0.7546771E-02  0.1205764E+00
          2   -1    0    0  501    0  0.00000000000E+00  0.00000000000E+00  0.90752148255E+03  0.90752148255E+03  0.00000000000E+00 0. -1.
         -2   -1    0    0    0  501 -0.00000000000E+00 -0.00000000000E+00 -0.24147357453E+02  0.24147357453E+02  0.00000000000E+00 0.  1.
         23    2    1    2    0    0 -0.87499030151E+02 -0.95856992532E+01  0.55851473121E+03  0.57263416208E+03  0.90681931474E+02 0.  0.
          5    1    1    2  502    0  0.10054452854E+03 -0.25985822134E+02  0.28708661761E+03  0.30532815328E+03  0.47000000000E+01 0.  1.
         -5    1    1    2    0  502 -0.13045498389E+02  0.35571521387E+02  0.37772776273E+02  0.53706524644E+02  0.47000000000E+01 0.  1.
        -11    1    3    3    0    0 -0.86605880499E+02  0.25860606451E+02  0.42382063721E+03  0.43335122248E+03  0.00000000000E+00 0.  1.
         11    1    3    3    0    0 -0.89314965214E+00 -0.35446305704E+02  0.13469409400E+03  0.13928293960E+03  0.00000000000E+00 0. -1.
<mgrwt>
<rscale>  0 0.14577397E+03</rscale>
<asrwt>0</asrwt>
<pdfrwt beam="1">  1        2 0.13961866E+00 0.15287993E+03</pdfrwt>
<pdfrwt beam="2">  1       -2 0.37149788E-02 0.15287993E+03</pdfrwt>
<totfact> 0.89590391E+03</totfact>
</mgrwt>
</event>
<event>
 7    1  0.1111284E-005  0.1424885E+03  0.7546771E-02  0.1220708E+00
         -2   -1    0    0    0  501 -0.00000000000E+00  0.00000000000E+00  0.24140435906E+03  0.24140435906E+03  0.00000000000E+00 0.  1.
          2   -1    0    0  501    0  0.00000000000E+00 -0.00000000000E+00 -0.73813542693E+02  0.73813542693E+02  0.00000000000E+00 0. -1.
         23    2    1    2    0    0  0.67914219013E+02  0.81168050645E+01  0.30912307661E+02  0.11777429851E+03  0.90757869938E+02 0.  0.
          5    1    1    2  502    0 -0.15135564345E+02  0.45910977743E+02  0.10445304823E+03  0.11519302266E+03  0.47000000000E+01 0.  1.
         -5    1    1    2    0  502 -0.52778654667E+02 -0.54027782807E+02  0.32225460476E+02  0.82250580584E+02  0.47000000000E+01 0.  1.
        -11    1    3    3    0    0  0.92058530999E+01  0.31195610987E+02 -0.18702127223E+02  0.37519107649E+02  0.00000000000E+00 0. -1.
         11    1    3    3    0    0  0.58708365913E+02 -0.23078805922E+02  0.49614434884E+02  0.80255190859E+02  0.00000000000E+00 0.  1.
<mgrwt>
<rscale>  0 0.13465500E+03</rscale>
<asrwt>0</asrwt>
<pdfrwt beam="2">  1        2 0.11355930E-01 0.14248846E+03</pdfrwt>
<pdfrwt beam="1">  1       -2 0.37139132E-01 0.14248846E+03</pdfrwt>
<totfact> 0.36061041E+03</totfact>
</mgrwt>
</event>
<event>
 7    1  0.1111284E-005  0.4007636E+03  0.7546771E-02  0.1044307E+00
          3   -1    0    0  501    0  0.00000000000E+00  0.00000000000E+00  0.36813731684E+03  0.36813731684E+03  0.00000000000E+00 0. -1.
         -3   -1    0    0    0  501 -0.00000000000E+00 -0.00000000000E+00 -0.50959072198E+03  0.50959072198E+03  0.00000000000E+00 0.  1.
         23    2    1    2    0    0  0.18531002336E+03 -0.33263338961E+03 -0.24727944858E+03  0.46322759019E+03  0.91912447379E+02 0.  0.
          5    1    1    2  502    0 -0.12345505445E+03  0.10380219135E+03  0.21153202886E+02  0.16274395040E+03  0.47000000000E+01 0. -1.
         -5    1    1    2    0  502 -0.61854968911E+02  0.22883119826E+03  0.84672840550E+02  0.25175649823E+03  0.47000000000E+01 0. -1.
        -11    1    3    3    0    0  0.10947672097E+03 -0.13748581680E+03 -0.15536609464E+03  0.23457648139E+03  0.00000000000E+00 0.  1.
         11    1    3    3    0    0  0.75833302383E+02 -0.19514757281E+03 -0.91913353935E+02  0.22865110880E+03  0.00000000000E+00 0. -1.
<mgrwt>
<rscale>  0 0.39847946E+03</rscale>
<asrwt>0</asrwt>
<pdfrwt beam="1">  1        3 0.56636510E-01 0.40076361E+03</pdfrwt>
<pdfrwt beam="2">  1       -3 0.78398573E-01 0.40076361E+03</pdfrwt>
<totfact> 0.12104630E+01</totfact>
</mgrwt>
</event>
<event>
 7    1  0.1111284E-005  0.1874001E+03  0.7546771E-02  0.1165508E+00
         -1   -1    0    0    0  501 -0.00000000000E+00  0.00000000000E+00  0.18088597953E+03  0.18088597953E+03  0.00000000000E+00 0.  1.
          1   -1    0    0  501    0  0.00000000000E+00 -0.00000000000E+00 -0.18126593769E+03  0.18126593769E+03  0.00000000000E+00 0. -1.
         23    2    1    2    0    0 -0.76123851658E+01  0.13941274281E+03 -0.34531514006E+02  0.17166538328E+03  0.93716151705E+02 0.  0.
          5    1    1    2  502    0  0.17314973397E+01 -0.10342081175E+02 -0.39879188678E+02  0.41501764007E+02  0.47000000000E+01 0. -1.
         -5    1    1    2    0  502  0.58808878261E+01 -0.12907066164E+03  0.74030744521E+02  0.14898476993E+03  0.47000000000E+01 0. -1.
        -11    1    3    3    0    0 -0.19339157984E+02  0.13330432393E+03 -0.11640469690E-01  0.13469983647E+03  0.00000000000E+00 0.  1.
         11    1    3    3    0    0  0.11726772818E+02  0.61084188851E+01 -0.34519873536E+02  0.36965546810E+02  0.00000000000E+00 0. -1.
<mgrwt>
<rscale>  0 0.18239196E+03</rscale>
<asrwt>0</asrwt>
<pdfrwt beam="2">  1        1 0.27887067E-01 0.18740008E+03</pdfrwt>
<pdfrwt beam="1">  1       -1 0.27828612E-01 0.18740008E+03</pdfrwt>
<totfact> 0.19073967E+03</totfact>
</mgrwt>
</event>
<event>
 7    1  0.1111284E-005  0.2059615E+03  0.7546771E-02  0.1154524E+00
          2   -1    0    0  501    0  0.00000000000E+00  0.00000000000E+00  0.99728932644E+02  0.99728932644E+02  0.00000000000E+00 0. -1.
         -2   -1    0    0    0  501 -0.00000000000E+00 -0.00000000000E+00 -0.43111878320E+03  0.43111878320E+03  0.00000000000E+00 0.  1.
         23    2    1    2    0    0  0.13591130203E+03  0.51916560084E+01 -0.30771435339E+02  0.16644192719E+03  0.90869128878E+02 0.  0.
          5    1    1    2  502    0 -0.48751026122E+02  0.56481454889E+02 -0.44788922593E+02  0.87149038328E+02  0.47000000000E+01 0. -1.
         -5    1    1    2    0  502 -0.87160275907E+02 -0.61673110898E+02 -0.25582949262E+03  0.27725675032E+03  0.47000000000E+01 0.  1.
        -11    1    3    3    0    0 -0.24714701346E+01 -0.12965361725E+02 -0.23170671208E+02  0.26666247833E+02  0.00000000000E+00 0.  1.
         11    1    3    3    0    0  0.13838277216E+03  0.18157017734E+02 -0.76007641315E+01  0.13977567936E+03  0.00000000000E+00 0. -1.
<mgrwt>
<rscale>  0 0.19443179E+03</rscale>
<asrwt>0</asrwt>
<pdfrwt beam="1">  1        2 0.15342913E-01 0.20596152E+03</pdfrwt>
<pdfrwt beam="2">  1       -2 0.66325967E-01 0.20596152E+03</pdfrwt>
<totfact> 0.80760162E+02</totfact>
</mgrwt>
</event>
<event>
 7    1  0.1111284E-005  0.1259621E+03  0.7546771E-02  0.1248787E+00
          2   -1    0    0  501    0  0.00000000000E+00  0.00000000000E+00  0.25567573257E+02  0.25567573257E+02  0.00000000000E+00 0. -1.
         -2   -1    0    0    0  501 -0.00000000000E+00 -0.00000000000E+00 -0.46963690576E+03  0.46963690576E+03  0.00000000000E+00 0.  1.
         23    2    1    2    0    0 -0.32650535728E+01 -0.15065719701E+02 -0.16930930801E+03  0.19294711965E+03  0.91243151624E+02 0.  0.
          5    1    1    2  502    0 -0.27825101403E+02  0.97805513273E+01 -0.26800649924E+03  0.26966547626E+03  0.47000000000E+01 0.  1.
         -5    1    1    2    0  502  0.31090154975E+02  0.52851683734E+01 -0.67535252578E+01  0.32591883108E+02  0.47000000000E+01 0.  1.
        -11    1    3    3    0    0 -0.41866769493E+02  0.90829625964E+01 -0.11089960778E+03  0.11888670911E+03  0.00000000000E+00 0.  1.
         11    1    3    3    0    0  0.38601715920E+02 -0.24148682297E+02 -0.58409700227E+02  0.74060410539E+02  0.00000000000E+00 0. -1.
<mgrwt>
<rscale>  0 0.11661589E+03</rscale>
<asrwt>0</asrwt>
<pdfrwt beam="1">  1        2 0.39334726E-02 0.12596206E+03</pdfrwt>
<pdfrwt beam="2">  1       -2 0.72251835E-01 0.12596206E+03</pdfrwt>
<totfact> 0.36541862E+03</totfact>
</mgrwt>
</event>
<event>
 7    1  0.1111284E-005  0.1361951E+03  0.7546771E-02  0.1230810E+00
         -2   -1    0    0    0  501 -0.00000000000E+00  0.00000000000E+00  0.19705260311E+03  0.19705260311E+03  0.00000000000E+00 0.  1.
          2   -1    0    0  501    0  0.00000000000E+00 -0.00000000000E+00 -0.76195508264E+02  0.76195508264E+02  0.00000000000E+00 0. -1.
         23    2    1    2    0    0 -0.50603953924E+02 -0.19054548118E+02  0.30481089432E+02  0.10979499092E+03  0.90564933949E+02 0.  0.
          5    1    1    2  502    0 -0.10563358935E+02  0.59469304254E+02  0.55377280643E+02  0.82078717776E+02  0.47000000000E+01 0.  1.
         -5    1    1    2    0  502  0.61167312860E+02 -0.40414756136E+02  0.34998724776E+02  0.81374402682E+02  0.47000000000E+01 0.  1.
        -11    1    3    3    0    0 -0.27286232099E+02 -0.25561480251E+02 -0.27862160170E+02  0.46628614649E+02  0.00000000000E+00 0. -1.
         11    1    3    3    0    0 -0.23317721826E+02  0.65069321335E+01  0.58343249602E+02  0.63166376270E+02  0.00000000000E+00 0.  1.
<mgrwt>
<rscale>  0 0.12776523E+03</rscale>
<asrwt>0</asrwt>
<pdfrwt beam="2">  1        2 0.11722386E-01 0.13619508E+03</pdfrwt>
<pdfrwt beam="1">  1       -2 0.30315785E-01 0.13619508E+03</pdfrwt>
<totfact> 0.50212426E+03</totfact>
</mgrwt>
</event>
<event>
 7    1  0.1111284E-005  0.1316146E+03  0.7546771E-02  0.1237817E+00
          1   -1    0    0  501    0  0.00000000000E+00  0.00000000000E+00  0.28377023467E+03  0.28377023467E+03  0.00000000000E+00 0.  1.
         -1   -1    0    0    0  501 -0.00000000000E+00 -0.00000000000E+00 -0.48750459739E+02  0.48750459739E+02  0.00000000000E+00 0. -1.
         23    2    1    2    0    0 -0.38666440207E+02  0.14213034398E+02  0.12589382867E+03  0.16155032236E+03  0.92477816874E+02 0.  0.
          5    1    1    2  502    0  0.31333618720E+01 -0.19645302357E+02 -0.24849601506E+02  0.32176832603E+02  0.47000000000E+01 0.  1.
         -5    1    1    2    0  502  0.35533078335E+02  0.54322679593E+01  0.13397554777E+03  0.13879353945E+03  0.47000000000E+01 0.  1.
        -11    1    3    3    0    0 -0.46556086583E+02 -0.54147843284E+01  0.13155234388E+03  0.13965245529E+03  0.00000000000E+00 0.  1.
         11    1    3    3    0    0  0.78896463761E+01  0.19627818726E+02 -0.56585152159E+01  0.21897867073E+02  0.00000000000E+00 0. -1.
<mgrwt>
<rscale>  0 0.12325782E+03</rscale>
<asrwt>0</asrwt>
<pdfrwt beam="1">  1        1 0.43656958E-01 0.13161457E+03</pdfrwt>
<pdfrwt beam="2">  1       -1 0.75000709E-02 0.13161457E+03</pdfrwt>
<totfact> 0.84594834E+03</totfact>
</mgrwt>
</event>
<event>
 7    1  0.1111284E-005  0.3167301E+03  0.7546771E-02  0.1078048E+00
         -2   -1    0    0    0  501 -0.00000000000E+00  0.00000000000E+00  0.11320061841E+03  0.11320061841E+03  0.00000000000E+00 0.  1.
          2   -1    0    0  501    0  0.00000000000E+00 -0.00000000000E+00 -0.99183082763E+03  0.99183082763E+03  0.00000000000E+00 0. -1.
         23    2    1    2    0    0 -0.20071916613E+03  0.21072334800E+03 -0.63200227944E+03  0.70360490200E+03  0.10459667234E+03 0.  0.
          5    1    1    2  502    0  0.35289675348E+01 -0.78867625673E+02 -0.53241746233E+02  0.95337975294E+02  0.47000000000E+01 0.  1.
         -5    1    1    2    0  502  0.19719019860E+03 -0.13185572232E+03 -0.19338618355E+03  0.30608856875E+03  0.47000000000E+01 0.  1.
        -11    1    3    3    0    0 -0.47126101162E+02  0.51876465800E+02 -0.67107903467E+02  0.97033539678E+02  0.00000000000E+00 0. -1.
         11    1    3    3    0    0 -0.15359306497E+03  0.15884688220E+03 -0.56489437597E+03  0.60657136233E+03  0.00000000000E+00 0.  1.
<mgrwt>
<rscale>  0 0.31484219E+03</rscale>
<asrwt>0</asrwt>
<pdfrwt beam="2">  1        2 0.15258936E+00 0.31673007E+03</pdfrwt>
<pdfrwt beam="1">  1       -2 0.17415479E-01 0.31673007E+03</pdfrwt>
<totfact> 0.70801875E+02</totfact>
</mgrwt>
</event>
<event>
 7    1  0.1111284E-005  0.1375249E+03  0.7546771E-02  0.1229812E+00
          2   -1    0    0  501    0  0.00000000000E+00  0.00000000000E+00  0.36318155432E+03  0.36318155432E+03  0.00000000000E+00 0.  1.
         -2   -1    0    0    0  501 -0.00000000000E+00 -0.00000000000E+00 -0.40827216056E+02  0.40827216056E+02  0.00000000000E+00 0. -1.
         23    2    1    2    0    0  0.54714056799E+02 -0.17173376697E+02  0.11782989053E+03  0.15754708924E+03  0.87456556918E+02 0.  0.
          5    1    1    2  502    0  0.34662131865E+02  0.19468372145E+02  0.10614448171E+03  0.11344259296E+03  0.47000000000E+01 0. -1.
         -5    1    1    2    0  502 -0.89376188664E+02 -0.22949954486E+01  0.98379966024E+02  0.13301908818E+03  0.47000000000E+01 0. -1.
        -11    1    3    3    0    0  0.33116157710E+02 -0.52629397506E+02  0.80473742648E+02  0.10169836104E+03  0.00000000000E+00 0.  1.
         11    1    3    3    0    0  0.21597899090E+02  0.35456020810E+02  0.37356147877E+02  0.55848728195E+02  0.00000000000E+00 0. -1.
<mgrwt>
<rscale>  0 0.12842495E+03</rscale>
<asrwt>0</asrwt>
<pdfrwt beam="1">  1        2 0.55874083E-01 0.13752495E+03</pdfrwt>
<pdfrwt beam="2">  1       -2 0.62811104E-02 0.13752495E+03</pdfrwt>
<totfact> 0.11585347E+04</totfact>
</mgrwt>
</event>
<event>
 7    1  0.1111284E-005  0.1331747E+03  0.7546771E-02  0.1235983E+00
          2   -1    0    0  501    0  0.00000000000E+00  0.00000000000E+00  0.33402960287E+03  0.33402960287E+03  0.00000000000E+00 0.  1.
         -2   -1    0    0    0  501 -0.00000000000E+00 -0.00000000000E+00 -0.45293143232E+02  0.45293143232E+02  0.00000000000E+00 0. -1.
         23    2    1    2    0    0  0.15903706656E+02 -0.43123302366E+02  0.18314518118E+03  0.20936679921E+03  0.90441982122E+02 0.  0.
          5    1    1    2  502    0  0.12627777503E+02 -0.35905682081E+02  0.67389718284E+02  0.77538009394E+02  0.47000000000E+01 0. -1.
         -5    1    1    2    0  502 -0.28531484159E+02  0.79028984447E+02  0.38201560171E+02  0.92417937493E+02  0.47000000000E+01 0. -1.
        -11    1    3    3    0    0 -0.16013937842E+02  0.21769291110E+02  0.70539690138E+02  0.75539368050E+02  0.00000000000E+00 0.  1.
         11    1    3    3    0    0  0.31917644498E+02 -0.64892593476E+02  0.11260549104E+03  0.13382743116E+03  0.00000000000E+00 0. -1.
<mgrwt>
<rscale>  0 0.12441719E+03</rscale>
<asrwt>0</asrwt>
<pdfrwt beam="1">  1        2 0.51389168E-01 0.13317472E+03</pdfrwt>
<pdfrwt beam="2">  1       -2 0.69681761E-02 0.13317472E+03</pdfrwt>
<totfact> 0.10782325E+04</totfact>
</mgrwt>
</event>
<event>
 7    1  0.1111284E-005  0.8162113E+03  0.7546771E-02  0.1012352E+00
          2   -1    0    0  501    0  0.00000000000E+00  0.00000000000E+00  0.87725872776E+03  0.87725872776E+03  0.00000000000E+00 0. -1.
         -2   -1    0    0    0  501 -0.00000000000E+00 -0.00000000000E+00 -0.26112950570E+03  0.26112950570E+03  0.00000000000E+00 0.  1.
         23    2    1    2    0    0 -0.31303306337E+02 -0.49013429703E+02  0.17021730550E+03  0.20831382626E+03  0.10506429383E+03 0.  0.
          5    1    1    2  502    0 -0.42579095315E+02  0.31813179812E+02  0.68095815329E+03  0.68304549944E+03  0.47000000000E+01 0. -1.
         -5    1    1    2    0  502  0.73882401652E+02  0.17200249891E+02 -0.23504623673E+03  0.24702890777E+03  0.47000000000E+01 0.  1.
        -11    1    3    3    0    0 -0.21505359290E+02 -0.77182211893E+02  0.79708244140E+02  0.11301760259E+03  0.00000000000E+00 0. -1.
         11    1    3    3    0    0 -0.97979470465E+01  0.28168782190E+02  0.90509061364E+02  0.95296223668E+02  0.00000000000E+00 0.  1.
<mgrwt>
<rscale>  0 0.50550486E+03</rscale>
<asrwt>0</asrwt>
<pdfrwt beam="1">  1        2 0.13496288E+00 0.81621135E+03</pdfrwt>
<pdfrwt beam="2">  1       -2 0.40173770E-01 0.81621135E+03</pdfrwt>
<totfact> 0.17937255E+02</totfact>
</mgrwt>
</event>
<event>
 7    1  0.1111284E-005  0.1519426E+03  0.7546771E-02  0.1207310E+00
          2   -1    0    0  501    0  0.00000000000E+00  0.00000000000E+00  0.40360518452E+03  0.40360518452E+03  0.00000000000E+00 0. -1.
         -2   -1    0    0    0  501 -0.00000000000E+00 -0.00000000000E+00 -0.65452207258E+02  0.65452207258E+02  0.00000000000E+00 0.  1.
         23    2    1    2    0    0 -0.83335420771E+02  0.22695837605E+02  0.27986321143E+03  0.30631759378E+03  0.89705951552E+02 0.  0.
          5    1    1    2  502    0  0.49433538478E+02  0.27349548671E+02  0.80251429431E+02  0.98255048036E+02  0.47000000000E+01 0. -1.
         -5    1    1    2    0  502  0.33901882293E+02 -0.50045386276E+02 -0.21961663599E+02  0.64484749969E+02  0.47000000000E+01 0. -1.
        -11    1    3    3    0    0 -0.19265808745E+02  0.45121697909E+02  0.68045571660E+02  0.83888848075E+02  0.00000000000E+00 0.  1.
         11    1    3    3    0    0 -0.64069612026E+02 -0.22425860304E+02  0.21181763977E+03  0.22242874570E+03  0.00000000000E+00 0. -1.
<mgrwt>
<rscale>  0 0.14456919E+03</rscale>
<asrwt>0</asrwt>
<pdfrwt beam="1">  1        2 0.62093104E-01 0.15194257E+03</pdfrwt>
<pdfrwt beam="2">  1       -2 0.10069571E-01 0.15194257E+03</pdfrwt>
<totfact> 0.50190262E+03</totfact>
</mgrwt>
</event>
<event>
 7    1  0.1111284E-005  0.1716840E+03  0.7546771E-02  0.1185235E+00
         -2   -1    0    0    0  501 -0.00000000000E+00  0.00000000000E+00  0.64890596080E+03  0.64890596080E+03  0.00000000000E+00 0.  1.
          2   -1    0    0  501    0  0.00000000000E+00 -0.00000000000E+00 -0.40324563985E+02  0.40324563985E+02  0.00000000000E+00 0. -1.
         23    2    1    2    0    0  0.75863379365E+02 -0.89981424320E+02  0.18299053474E+03  0.23031552409E+03  0.75549955524E+02 0.  0.
          5    1    1    2  502    0 -0.11681729294E+02 -0.25080441350E+02  0.26445895727E+02  0.38561207688E+02  0.47000000000E+01 0.  1.
         -5    1    1    2    0  502 -0.64181650070E+02  0.11506186567E+03  0.39914496635E+03  0.42035379301E+03  0.47000000000E+01 0.  1.
        -11    1    3    3    0    0  0.44715781795E+02 -0.90358320633E+02  0.16756364899E+03  0.19555486113E+03  0.00000000000E+00 0.  1.
         11    1    3    3    0    0  0.31147597570E+02  0.37689631332E+00  0.15426885752E+02  0.34760662957E+02  0.00000000000E+00 0. -1.
<mgrwt>
<rscale>  0 0.16310514E+03</rscale>
<asrwt>0</asrwt>
<pdfrwt beam="2">  1        2 0.62037796E-02 0.17168400E+03</pdfrwt>
<pdfrwt beam="1">  1       -2 0.99831678E-01 0.17168400E+03</pdfrwt>
<totfact> 0.99992403E+02</totfact>
</mgrwt>
</event>
<event>
 7    1  0.1111284E-005  0.1579332E+03  0.7546771E-02  0.1198870E+00
         -1   -1    0    0    0  501 -0.00000000000E+00  0.00000000000E+00  0.10477947644E+03  0.10477947644E+03  0.00000000000E+00 0.  1.
          1   -1    0    0  501    0  0.00000000000E+00 -0.00000000000E+00 -0.21298248790E+03  0.21298248790E+03  0.00000000000E+00 0. -1.
         23    2    1    2    0    0 -0.81728665444E+02 -0.51356642437E+02 -0.85594742366E+02  0.15821876822E+03  0.91594973770E+02 0.  0.
          5    1    1    2  502    0  0.67070323242E+02 -0.30633461471E+02 -0.35414372571E+01  0.73969378795E+02  0.47000000000E+01 0.  1.
         -5    1    1    2    0  502  0.14658342202E+02  0.81990103908E+02 -0.19066831831E+02  0.85573817322E+02  0.47000000000E+01 0.  1.
        -11    1    3    3    0    0  0.12582954669E+01  0.17964901289E+02  0.32130575181E+01  0.18293297254E+02  0.00000000000E+00 0. -1.
         11    1    3    3    0    0 -0.82986960911E+02 -0.69321543726E+02 -0.88807799885E+02  0.13992547097E+03  0.00000000000E+00 0.  1.
<mgrwt>
<rscale>  0 0.15131164E+03</rscale>
<asrwt>0</asrwt>
<pdfrwt beam="2">  1        1 0.32766536E-01 0.15793321E+03</pdfrwt>
<pdfrwt beam="1">  1       -1 0.16119920E-01 0.15793321E+03</pdfrwt>
<totfact> 0.37609056E+03</totfact>
</mgrwt>
</event>
<event>
 7    1  0.1111284E-005  0.1342640E+03  0.7546771E-02  0.1233633E+00
         -4   -1    0    0    0  501 -0.00000000000E+00  0.00000000000E+00  0.56716918834E+02  0.56716918834E+02  0.00000000000E+00 0.  1.
          4   -1    0    0  501    0  0.00000000000E+00 -0.00000000000E+00 -0.27399604461E+03  0.27399604461E+03  0.00000000000E+00 0. -1.
         23    2    1    2    0    0 -0.25449477443E+02 -0.41888780588E+02 -0.14457751607E+03  0.17802914997E+03  0.91593527311E+02 0.  0.
          5    1    1    2  502    0  0.36336356677E+02  0.83373741306E+02 -0.47407303090E+02  0.10266963496E+03  0.47000000000E+01 0.  1.
         -5    1    1    2    0  502 -0.10886879234E+02 -0.41484960718E+02 -0.25294306612E+02  0.50014178512E+02  0.47000000000E+01 0.  1.
        -11    1    3    3    0    0 -0.57600855056E+02 -0.34158593459E+02 -0.72316273886E+02  0.98561206765E+02  0.00000000000E+00 0.  1.
         11    1    3    3    0    0  0.32151377613E+02 -0.77301871292E+01 -0.72261242188E+02  0.79467943210E+02  0.00000000000E+00 0. -1.
<mgrwt>
<rscale>  0 0.12592328E+03</rscale>
<asrwt>0</asrwt>
<pdfrwt beam="2">  1        4 0.42153238E-01 0.13426400E+03</pdfrwt>
<pdfrwt beam="1">  1       -4 0.87256797E-02 0.13426400E+03</pdfrwt>
<totfact> 0.86326071E+02</totfact>
</mgrwt>
</event>
<event>
 7    1  0.1111284E-005  0.1471471E+03  0.7546771E-02  0.1209953E+00
          1   -1    0    0  501    0  0.00000000000E+00  0.00000000000E+00  0.18433109835E+03  0.18433109835E+03  0.00000000000E+00 0. -1.
         -1   -1    0    0    0  501 -0.00000000000E+00 -0.00000000000E+00 -0.12040909897E+03  0.12040909897E+03  0.00000000000E+00 0.  1.
         23    2    1    2    0    0  0.87875339456E+02 -0.13871284221E+02  0.86624143219E+02  0.15585214729E+03  0.94189499503E+02 0.  0.
          5    1    1    2  502    0 -0.52506121487E+02  0.64963639853E+02 -0.22245726920E+02  0.86568641336E+02  0.47000000000E+01 0. -1.
         -5    1    1    2    0  502 -0.35369217969E+02 -0.51092355632E+02 -0.45641692461E+00  0.62319408695E+02  0.47000000000E+01 0.  1.
        -11    1    3    3    0    0  0.12762080081E+02 -0.17163166952E+02  0.77164836585E+02  0.80074071915E+02  0.00000000000E+00 0.  1.
         11    1    3    3    0    0  0.75113259375E+02  0.32918827309E+01  0.94593066341E+01  0.75778075377E+02  0.00000000000E+00 0. -1.
<mgrwt>
<rscale>  0 0.14253865E+03</rscale>
<asrwt>0</asrwt>
<pdfrwt beam="1">  1        1 0.28358630E-01 0.14714708E+03</pdfrwt>
<pdfrwt beam="2">  1       -1 0.18524477E-01 0.14714708E+03</pdfrwt>
<totfact> 0.35978084E+03</totfact>
</mgrwt>
</event>
<event>
 7    1  0.1111284E-005  0.1257452E+03  0.7546771E-02  0.1249477E+00
         -1   -1    0    0    0  501 -0.00000000000E+00  0.00000000000E+00  0.28130737772E+03  0.28130737772E+03  0.00000000000E+00 0.  1.
          1   -1    0    0  501    0  0.00000000000E+00 -0.00000000000E+00 -0.42200583812E+02  0.42200583812E+02  0.00000000000E+00 0. -1.
         23    2    1    2    0    0 -0.80415547701E+00 -0.13856541561E+02  0.11092037548E+03  0.14394291270E+03  0.90683967757E+02 0.  0.
          5    1    1    2  502    0 -0.58869005751E+02 -0.40722756025E+01  0.85102540072E+02  0.10366617381E+03  0.47000000000E+01 0. -1.
         -5    1    1    2    0  502  0.59673161228E+02  0.17928817164E+02  0.43083878355E+02  0.75898875024E+02  0.47000000000E+01 0. -1.
        -11    1    3    3    0    0  0.10187804050E+02  0.28450383274E+02  0.91036999018E+02  0.95921586986E+02  0.00000000000E+00 0.  1.
         11    1    3    3    0    0 -0.10991959527E+02 -0.42306924836E+02  0.19883376466E+02  0.48021325710E+02  0.00000000000E+00 0. -1.
<mgrwt>
<rscale>  0 0.11621394E+03</rscale>
<asrwt>0</asrwt>
<pdfrwt beam="2">  1        1 0.64923977E-02 0.12574517E+03</pdfrwt>
<pdfrwt beam="1">  1       -1 0.43278057E-01 0.12574517E+03</pdfrwt>
<totfact> 0.58678607E+03</totfact>
</mgrwt>
</event>
<event>
 7    1  0.1111284E-005  0.1270652E+03  0.7546771E-02  0.1245293E+00
         -1   -1    0    0    0  501 -0.00000000000E+00  0.00000000000E+00  0.33805952504E+02  0.33805952504E+02  0.00000000000E+00 0. -1.
          1   -1    0    0  501    0  0.00000000000E+00 -0.00000000000E+00 -0.38478126710E+03  0.38478126710E+03  0.00000000000E+00 0.  1.
         23    2    1    2    0    0  0.21014808039E+02  0.95078863404E+01 -0.19285607249E+03  0.21573937295E+03  0.93904154785E+02 0.  0.
          5    1    1    2  502    0  0.43296274770E+02  0.17931560998E+02 -0.27292018071E+02  0.54433928199E+02  0.47000000000E+01 0.  1.
         -5    1    1    2    0  502 -0.64311082809E+02 -0.27439447338E+02 -0.13082722404E+03  0.14841391846E+03  0.47000000000E+01 0.  1.
        -11    1    3    3    0    0  0.40080655519E+02 -0.27711602355E+02 -0.65123586566E+02  0.81335560361E+02  0.00000000000E+00 0. -1.
         11    1    3    3    0    0 -0.19065847480E+02  0.37219488695E+02 -0.12773248592E+03  0.13440381259E+03  0.00000000000E+00 0.  1.
<mgrwt>
<rscale>  0 0.11867832E+03</rscale>
<asrwt>0</asrwt>
<pdfrwt beam="2">  1        1 0.59197121E-01 0.12706516E+03</pdfrwt>
<pdfrwt beam="1">  1       -1 0.52009155E-02 0.12706516E+03</pdfrwt>
<totfact> 0.99744970E+03</totfact>
</mgrwt>
</event>
<event>
 7    1  0.1111284E-005  0.1401918E+03  0.7546771E-02  0.1226524E+00
         -2   -1    0    0    0  501 -0.00000000000E+00  0.00000000000E+00  0.83604061994E+02  0.83604061994E+02  0.00000000000E+00 0.  1.
          2   -1    0    0  501    0  0.00000000000E+00 -0.00000000000E+00 -0.18575534528E+03  0.18575534528E+03  0.00000000000E+00 0. -1.
         23    2    1    2    0    0  0.22295247663E+02 -0.58763528405E+02 -0.65938390897E+02  0.12456605107E+03  0.84962340750E+02 0.  0.
          5    1    1    2  502    0 -0.45381473671E+02  0.76241811194E+02  0.10670402958E+02  0.89488767038E+02  0.47000000000E+01 0.  1.
         -5    1    1    2    0  502  0.23086226008E+02 -0.17478282789E+02 -0.46883295350E+02  0.55304589171E+02  0.47000000000E+01 0.  1.
        -11    1    3    3    0    0  0.35979025755E+02 -0.75246677158E+02 -0.58549033523E+02  0.10190457322E+03  0.00000000000E+00 0.  1.
         11    1    3    3    0    0 -0.13683778092E+02  0.16483148753E+02 -0.73893573744E+01  0.22661477844E+02  0.00000000000E+00 0. -1.
<mgrwt>
<rscale>  0 0.13063000E+03</rscale>
<asrwt>0</asrwt>
<pdfrwt beam="2">  1        2 0.28577745E-01 0.14019181E+03</pdfrwt>
<pdfrwt beam="1">  1       -2 0.12862164E-01 0.14019181E+03</pdfrwt>
<totfact> 0.77582512E+03</totfact>
</mgrwt>
</event>
<event>
 7    1  0.1111284E-005  0.1421455E+03  0.7546771E-02  0.1235487E+00
          2   -1    0    0  501    0  0.00000000000E+00  0.00000000000E+00  0.50323256169E+02  0.50323256169E+02  0.00000000000E+00 0. -1.
         -2   -1    0    0    0  501 -0.00000000000E+00 -0.00000000000E+00 -0.26000398679E+03  0.26000398679E+03  0.00000000000E+00 0.  1.
         23    2    1    2    0    0 -0.26394322364E+02  0.77319860593E+01 -0.57149475762E+02  0.10182991644E+03  0.79666965812E+02 0.  0.
          5    1    1    2  502    0  0.50254006225E+02 -0.38179192334E+02 -0.14304566266E+02  0.64883175670E+02  0.47000000000E+01 0. -1.
         -5    1    1    2    0  502 -0.23859683861E+02  0.30447206274E+02 -0.13822668860E+03  0.14361415085E+03  0.47000000000E+01 0.  1.
        -11    1    3    3    0    0 -0.40028768745E+02 -0.13217000576E+02 -0.63334809539E+02  0.76080809215E+02  0.00000000000E+00 0. -1.
         11    1    3    3    0    0  0.13634446381E+02  0.20948986635E+02  0.61853337771E+01  0.25749107229E+02  0.00000000000E+00 0.  1.
<mgrwt>
<rscale>  0 0.12473324E+03</rscale>
<asrwt>0</asrwt>
<pdfrwt beam="1">  1        2 0.77420394E-02 0.14214553E+03</pdfrwt>
<pdfrwt beam="2">  1       -2 0.40000614E-01 0.14214553E+03</pdfrwt>
<totfact> 0.50358933E+03</totfact>
</mgrwt>
</event>
<event>
 7    1  0.1111284E-005  0.1297786E+03  0.7546771E-02  0.1240265E+00
         -2   -1    0    0    0  501 -0.00000000000E+00  0.00000000000E+00  0.29683008164E+03  0.29683008164E+03  0.00000000000E+00 0.  1.
          2   -1    0    0  501    0  0.00000000000E+00 -0.00000000000E+00 -0.56811379524E+02  0.56811379524E+02  0.00000000000E+00 0. -1.
         23    2    1    2    0    0 -0.45876307917E+01 -0.34587448078E+02  0.26713638697E+02  0.10395859345E+03  0.94214822289E+02 0.  0.
          5    1    1    2  502    0 -0.32890561757E+02 -0.36365361648E+02  0.86742313392E+02  0.99752431113E+02  0.47000000000E+01 0. -1.
         -5    1    1    2    0  502  0.37478192549E+02  0.70952809726E+02  0.12656275002E+03  0.14993043660E+03  0.47000000000E+01 0. -1.
        -11    1    3    3    0    0 -0.14606707383E+02  0.30690814570E+02  0.13696648079E+02  0.36645329418E+02  0.00000000000E+00 0.  1.
         11    1    3    3    0    0  0.10019076591E+02 -0.65278262647E+02  0.13016990618E+02  0.67313264033E+02  0.00000000000E+00 0. -1.
<mgrwt>
<rscale>  0 0.12173319E+03</rscale>
<asrwt>0</asrwt>
<pdfrwt beam="2">  1        2 0.87402124E-02 0.12977860E+03</pdfrwt>
<pdfrwt beam="1">  1       -2 0.45666166E-01 0.12977860E+03</pdfrwt>
<totfact> 0.33357952E+03</totfact>
</mgrwt>
</event>
<event>
 7    1  0.1111284E-005  0.1352425E+03  0.7546771E-02  0.1231016E+00
          1   -1    0    0  501    0  0.00000000000E+00  0.00000000000E+00  0.34598015633E+02  0.34598015633E+02  0.00000000000E+00 0. -1.
         -1   -1    0    0    0  501 -0.00000000000E+00 -0.00000000000E+00 -0.45859860435E+03  0.45859860435E+03  0.00000000000E+00 0.  1.
         23    2    1    2    0    0 -0.43956354466E+02 -0.27549467723E+02 -0.12296468844E+03  0.16317668733E+03  0.93889202864E+02 0.  0.
          5    1    1    2  502    0 -0.27103109817E+02  0.11579023637E+02 -0.12432386497E+02  0.32331201403E+02  0.47000000000E+01 0.  1.
         -5    1    1    2    0  502  0.71059464284E+02  0.15970444086E+02 -0.28860351378E+03  0.29768873125E+03  0.47000000000E+01 0.  1.
        -11    1    3    3    0    0 -0.47627986623E+02 -0.42360399696E+02 -0.13118043941E+03  0.14584627612E+03  0.00000000000E+00 0.  1.
         11    1    3    3    0    0  0.36716321567E+01  0.14810931974E+02  0.82157509757E+01  0.17330411210E+02  0.00000000000E+00 0. -1.
<mgrwt>
<rscale>  0 0.12762978E+03</rscale>
<asrwt>0</asrwt>
<pdfrwt beam="1">  1        1 0.53227719E-02 0.13524253E+03</pdfrwt>
<pdfrwt beam="2">  1       -1 0.70553628E-01 0.13524253E+03</pdfrwt>
<totfact> 0.31008418E+03</totfact>
</mgrwt>
</event>
<event>
 7    1  0.1111284E-005  0.2994900E+03  0.7546771E-02  0.1087147E+00
          2   -1    0    0  501    0  0.00000000000E+00  0.00000000000E+00  0.40037828513E+03  0.40037828513E+03  0.00000000000E+00 0. -1.
         -2   -1    0    0    0  501 -0.00000000000E+00 -0.00000000000E+00 -0.39574063476E+03  0.39574063476E+03  0.00000000000E+00 0.  1.
         23    2    1    2    0    0  0.26794223128E+03 -0.47706001264E+02  0.27164315983E+03  0.39488802898E+03  0.89875732478E+02 0.  0.
          5    1    1    2  502    0 -0.89293647019E+02 -0.10746045980E+02 -0.16333309879E+03  0.18651708786E+03  0.47000000000E+01 0. -1.
         -5    1    1    2    0  502 -0.17864858426E+03  0.58452047244E+02 -0.10367241067E+03  0.21471380305E+03  0.47000000000E+01 0. -1.
        -11    1    3    3    0    0  0.10602546747E+03  0.94625417888E+01  0.59458627061E+02  0.12192730531E+03  0.00000000000E+00 0.  1.
         11    1    3    3    0    0  0.16191676382E+03 -0.57168543053E+02  0.21218453277E+03  0.27296072367E+03  0.00000000000E+00 0. -1.
<mgrwt>
<rscale>  0 0.29621733E+03</rscale>
<asrwt>0</asrwt>
<pdfrwt beam="1">  1        2 0.61596660E-01 0.29949004E+03</pdfrwt>
<pdfrwt beam="2">  1       -2 0.60883174E-01 0.29949004E+03</pdfrwt>
<totfact> 0.20583165E+02</totfact>
</mgrwt>
</event>
<event>
 7    1  0.1111284E-005  0.1422490E+03  0.7546771E-02  0.1220897E+00
          1   -1    0    0  501    0  0.00000000000E+00  0.00000000000E+00  0.53854814963E+03  0.53854814963E+03  0.00000000000E+00 0. -1.
         -1   -1    0    0    0  501 -0.00000000000E+00 -0.00000000000E+00 -0.32630839890E+02  0.32630839890E+02  0.00000000000E+00 0.  1.
         23    2    1    2    0    0 -0.48175123455E+02 -0.47845117628E+02  0.30052179096E+03  0.32133482972E+03  0.91283778129E+02 0.  0.
          5    1    1    2  502    0  0.24016512411E+02  0.37272998732E+00 -0.11077084613E+02  0.26864913913E+02  0.47000000000E+01 0. -1.
         -5    1    1    2    0  502  0.24158611044E+02  0.47472387641E+02  0.21647260340E+03  0.22297924589E+03  0.47000000000E+01 0. -1.
        -11    1    3    3    0    0 -0.22949419587E+02  0.25965305217E+02  0.11427016072E+03  0.11940913937E+03  0.00000000000E+00 0. -1.
         11    1    3    3    0    0 -0.25225703868E+02 -0.73810422846E+02  0.18625163024E+03  0.20192569035E+03  0.00000000000E+00 0.  1.
<mgrwt>
<rscale>  0 0.13452103E+03</rscale>
<asrwt>0</asrwt>
<pdfrwt beam="1">  1        1 0.82853555E-01 0.14224902E+03</pdfrwt>
<pdfrwt beam="2">  1       -1 0.50201296E-02 0.14224902E+03</pdfrwt>
<totfact> 0.68754523E+03</totfact>
</mgrwt>
</event>
<event>
 7    1  0.1111284E-005  0.1271441E+03  0.7546771E-02  0.1248365E+00
         -2   -1    0    0    0  501 -0.00000000000E+00  0.00000000000E+00  0.40215200702E+02  0.40215200702E+02  0.00000000000E+00 0.  1.
          2   -1    0    0  501    0  0.00000000000E+00 -0.00000000000E+00 -0.29978126454E+03  0.29978126454E+03  0.00000000000E+00 0. -1.
         23    2    1    2    0    0  0.15975412010E-02 -0.23480466501E+02 -0.12932199662E+03  0.15798237858E+03  0.87652272209E+02 0.  0.
          5    1    1    2  502    0 -0.49238766637E+02  0.43467645510E+01 -0.10077762708E+02  0.50665587959E+02  0.47000000000E+01 0.  1.
         -5    1    1    2    0  502  0.49237169096E+02  0.19133701950E+02 -0.12016630450E+03  0.13134849869E+03  0.47000000000E+01 0.  1.
        -11    1    3    3    0    0  0.37903306873E+02 -0.33085249274E+02 -0.59156732873E+02  0.77658312083E+02  0.00000000000E+00 0.  1.
         11    1    3    3    0    0 -0.37901709332E+02  0.96047827728E+01 -0.70165263748E+02  0.80324066501E+02  0.00000000000E+00 0. -1.
<mgrwt>
<rscale>  0 0.11686247E+03</rscale>
<asrwt>0</asrwt>
<pdfrwt beam="2">  1        2 0.46120195E-01 0.12714405E+03</pdfrwt>
<pdfrwt beam="1">  1       -2 0.61869539E-02 0.12714405E+03</pdfrwt>
<totfact> 0.14435415E+04</totfact>
</mgrwt>
</event>
<event>
 7    1  0.1111284E-005  0.1281151E+03  0.7546771E-02  0.1244370E+00
         -1   -1    0    0    0  501 -0.00000000000E+00  0.00000000000E+00  0.27724218286E+03  0.27724218286E+03  0.00000000000E+00 0.  1.
          1   -1    0    0  501    0  0.00000000000E+00 -0.00000000000E+00 -0.60243279482E+02  0.60243279482E+02  0.00000000000E+00 0. -1.
         23    2    1    2    0    0 -0.14904410651E+02  0.24001321808E+02  0.13551396885E+02  0.97060077050E+02  0.91863013743E+02 0.  0.
          5    1    1    2  502    0 -0.30853422367E+02  0.29828932147E+02  0.13580379151E+03  0.14250073211E+03  0.47000000000E+01 0.  1.
         -5    1    1    2    0  502  0.45757833018E+02 -0.53830253956E+02  0.67643714988E+02  0.97924653182E+02  0.47000000000E+01 0.  1.
        -11    1    3    3    0    0  0.99927177675E+01  0.29188955149E+02  0.46274515906E+02  0.55616367496E+02  0.00000000000E+00 0.  1.
         11    1    3    3    0    0 -0.24897128419E+02 -0.51876333409E+01 -0.32723119021E+02  0.41443709554E+02  0.00000000000E+00 0. -1.
<mgrwt>
<rscale>  0 0.11923169E+03</rscale>
<asrwt>0</asrwt>
<pdfrwt beam="2">  1        1 0.92681970E-02 0.12811510E+03</pdfrwt>
<pdfrwt beam="1">  1       -1 0.42652643E-01 0.12811510E+03</pdfrwt>
<totfact> 0.37416042E+03</totfact>
</mgrwt>
</event>
<event>
 7    1  0.1111284E-005  0.1277471E+03  0.7546771E-02  0.1245921E+00
         -2   -1    0    0    0  501 -0.00000000000E+00  0.00000000000E+00  0.46913121269E+03  0.46913121269E+03  0.00000000000E+00 0. -1.
          2   -1    0    0  501    0  0.00000000000E+00 -0.00000000000E+00 -0.27918298893E+02  0.27918298893E+02  0.00000000000E+00 0.  1.
         23    2    1    2    0    0  0.25874853651E+02  0.47487007277E+01  0.12798402079E+03  0.15877200975E+03  0.90203011544E+02 0.  0.
          5    1    1    2  502    0  0.41323252526E+02  0.21965943263E+02  0.18603784808E+03  0.19189133586E+03  0.47000000000E+01 0. -1.
         -5    1    1    2    0  502 -0.67198106178E+02 -0.26714643991E+02  0.12719104493E+03  0.14638616597E+03  0.47000000000E+01 0. -1.
        -11    1    3    3    0    0 -0.20846343880E+02  0.49125726934E+01  0.10413687418E+03  0.10631647092E+03  0.00000000000E+00 0. -1.
         11    1    3    3    0    0  0.46721197531E+02 -0.16387196563E+00  0.23847146608E+02  0.52455538831E+02  0.00000000000E+00 0.  1.
<mgrwt>
<rscale>  0 0.11830418E+03</rscale>
<asrwt>0</asrwt>
<pdfrwt beam="2">  1        2 0.42951233E-02 0.12774713E+03</pdfrwt>
<pdfrwt beam="1">  1       -2 0.72174027E-01 0.12774713E+03</pdfrwt>
<totfact> 0.32648250E+03</totfact>
</mgrwt>
</event>
<event>
 7    1  0.1111284E-005  0.1666972E+03  0.7546771E-02  0.1188533E+00
         -2   -1    0    0    0  501 -0.00000000000E+00  0.00000000000E+00  0.92514292923E+02  0.92514292923E+02  0.00000000000E+00 0. -1.
          2   -1    0    0  501    0  0.00000000000E+00 -0.00000000000E+00 -0.27094748496E+03  0.27094748496E+03  0.00000000000E+00 0.  1.
         23    2    1    2    0    0  0.17829479655E+02 -0.10883861249E+03 -0.12279466755E+03  0.18772445084E+03  0.89432685022E+02 0.  0.
          5    1    1    2  502    0  0.10463213350E+02  0.12830390003E+03 -0.29046577931E+02  0.13204985152E+03  0.47000000000E+01 0. -1.
         -5    1    1    2    0  502 -0.28292693004E+02 -0.19465287543E+02 -0.26591946555E+02  0.43687475529E+02  0.47000000000E+01 0. -1.
        -11    1    3    3    0    0  0.18725778461E+02 -0.48581884868E+01  0.77387523389E+01  0.20836147967E+02  0.00000000000E+00 0. -1.
         11    1    3    3    0    0 -0.89629880610E+00 -0.10398042400E+03 -0.13053341989E+03  0.16688830287E+03  0.00000000000E+00 0.  1.
<mgrwt>
<rscale>  0 0.16014479E+03</rscale>
<asrwt>0</asrwt>
<pdfrwt beam="2">  1        2 0.41684228E-01 0.16669722E+03</pdfrwt>
<pdfrwt beam="1">  1       -2 0.14232968E-01 0.16669722E+03</pdfrwt>
<totfact> 0.44315658E+03</totfact>
</mgrwt>
</event>
<event>
 7    1  0.1111284E-005  0.2106054E+03  0.7546771E-02  0.1145820E+00
          3   -1    0    0  501    0  0.00000000000E+00  0.00000000000E+00  0.20177904823E+03  0.20177904823E+03  0.00000000000E+00 0. -1.
         -3   -1    0    0    0  501 -0.00000000000E+00 -0.00000000000E+00 -0.20225999158E+03  0.20225999158E+03  0.00000000000E+00 0.  1.
         23    2    1    2    0    0  0.16899512233E+03  0.13054687937E+02  0.32682408459E+02  0.19083857476E+03  0.81372265202E+02 0.  0.
          5    1    1    2  502    0 -0.83715983722E+02  0.54064283605E+02 -0.31290048005E+02  0.10455845158E+03  0.47000000000E+01 0. -1.
         -5    1    1    2    0  502 -0.85279138611E+02 -0.67118971541E+02 -0.18733038058E+01  0.10864201347E+03  0.47000000000E+01 0. -1.
        -11    1    3    3    0    0  0.11421949254E+03 -0.12557661335E+02  0.53681026774E+02  0.12682838787E+03  0.00000000000E+00 0. -1.
         11    1    3    3    0    0  0.54775629791E+02  0.25612349271E+02 -0.20998618315E+02  0.64010186887E+02  0.00000000000E+00 0.  1.
<mgrwt>
<rscale>  0 0.20471641E+03</rscale>
<asrwt>0</asrwt>
<pdfrwt beam="1">  1        3 0.31042930E-01 0.21060539E+03</pdfrwt>
<pdfrwt beam="2">  1       -3 0.31116922E-01 0.21060539E+03</pdfrwt>
<totfact> 0.24795751E+02</totfact>
</mgrwt>
</event>
<event>
 7    1  0.1111284E-005  0.1310279E+03  0.7546771E-02  0.1238590E+00
          1   -1    0    0  501    0  0.00000000000E+00  0.00000000000E+00  0.16435136663E+03  0.16435136663E+03  0.00000000000E+00 0. -1.
         -1   -1    0    0    0  501 -0.00000000000E+00 -0.00000000000E+00 -0.82773652445E+02  0.82773652445E+02  0.00000000000E+00 0.  1.
         23    2    1    2    0    0 -0.39003790149E+02 -0.46580897996E+01  0.48193019426E+02  0.11191092274E+03  0.93051029340E+02 0.  0.
          5    1    1    2  502    0 -0.17525933353E+02 -0.78054778555E+01  0.65801107758E+02  0.68701962174E+02  0.47000000000E+01 0.  1.
         -5    1    1    2    0  502  0.56529723503E+02  0.12463567655E+02 -0.32416413002E+02  0.66512134155E+02  0.47000000000E+01 0.  1.
        -11    1    3    3    0    0 -0.19281250005E+02  0.11983174758E+02  0.72797905093E+02  0.76255478917E+02  0.00000000000E+00 0. -1.
         11    1    3    3    0    0 -0.19722540144E+02 -0.16641264557E+02 -0.24604885666E+02  0.35655443826E+02  0.00000000000E+00 0.  1.
<mgrwt>
<rscale>  0 0.12277383E+03</rscale>
<asrwt>0</asrwt>
<pdfrwt beam="1">  1        1 0.25284826E-01 0.13102791E+03</pdfrwt>
<pdfrwt beam="2">  1       -1 0.12734408E-01 0.13102791E+03</pdfrwt>
<totfact> 0.74315875E+03</totfact>
</mgrwt>
</event>
<event>
 7    1  0.1111284E-005  0.1266668E+03  0.7546771E-02  0.1248322E+00
          1   -1    0    0  501    0  0.00000000000E+00  0.00000000000E+00  0.26503878901E+03  0.26503878901E+03  0.00000000000E+00 0. -1.
         -1   -1    0    0    0  501 -0.00000000000E+00 -0.00000000000E+00 -0.12308543400E+03  0.12308543400E+03  0.00000000000E+00 0.  1.
         23    2    1    2    0    0 -0.44506999997E+01  0.45343348940E+01  0.22064788340E+03  0.23900242106E+03  0.91631325984E+02 0.  0.
          5    1    1    2  502    0  0.15601051030E+02 -0.56910141337E+02 -0.71412115919E+01  0.59625865891E+02  0.47000000000E+01 0. -1.
         -5    1    1    2    0  502 -0.11150351030E+02  0.52375806443E+02 -0.71553316792E+02  0.89495936067E+02  0.47000000000E+01 0.  1.
        -11    1    3    3    0    0  0.30748173724E+02  0.17536463958E+02  0.35653821651E+02  0.50241146024E+02  0.00000000000E+00 0.  1.
         11    1    3    3    0    0 -0.35198873724E+02 -0.13002129064E+02  0.18499406175E+03  0.18876127503E+03  0.00000000000E+00 0. -1.
<mgrwt>
<rscale>  0 0.11688762E+03</rscale>
<asrwt>0</asrwt>
<pdfrwt beam="1">  1        1 0.40775198E-01 0.12666682E+03</pdfrwt>
<pdfrwt beam="2">  1       -1 0.18936221E-01 0.12666682E+03</pdfrwt>
<totfact> 0.21995840E+03</totfact>
</mgrwt>
</event>
<event>
 7    1  0.1111284E-005  0.1537912E+03  0.7546771E-02  0.1204294E+00
         -2   -1    0    0    0  501 -0.00000000000E+00  0.00000000000E+00  0.16964927756E+03  0.16964927756E+03  0.00000000000E+00 0.  1.
          2   -1    0    0  501    0  0.00000000000E+00 -0.00000000000E+00 -0.11977138654E+03  0.11977138654E+03  0.00000000000E+00 0. -1.
         23    2    1    2    0    0  0.28837272714E+02 -0.84816380669E+02  0.13104867480E+01  0.12814291848E+03  0.91615956327E+02 0.  0.
          5    1    1    2  502    0 -0.26993064810E+02  0.15605488342E+02 -0.38612021475E+02  0.49851128539E+02  0.47000000000E+01 0. -1.
         -5    1    1    2    0  502 -0.18442079043E+01  0.69210892326E+02  0.87179425755E+02  0.11142661708E+03  0.47000000000E+01 0. -1.
        -11    1    3    3    0    0  0.14236826861E+02 -0.44277777255E+02 -0.45120001439E+02  0.64799871354E+02  0.00000000000E+00 0. -1.
         11    1    3    3    0    0  0.14600445853E+02 -0.40538603414E+02  0.46430488187E+02  0.63343047126E+02  0.00000000000E+00 0.  1.
<mgrwt>
<rscale>  0 0.14693203E+03</rscale>
<asrwt>0</asrwt>
<pdfrwt beam="2">  1        2 0.18426367E-01 0.15379115E+03</pdfrwt>
<pdfrwt beam="1">  1       -2 0.26099889E-01 0.15379115E+03</pdfrwt>
<totfact> 0.38816801E+03</totfact>
</mgrwt>
</event>
<event>
 7    1  0.1111284E-005  0.1472406E+03  0.7546771E-02  0.1213086E+00
          2   -1    0    0  501    0  0.00000000000E+00  0.00000000000E+00  0.30961486355E+03  0.30961486355E+03  0.00000000000E+00 0. -1.
         -2   -1    0    0    0  501 -0.00000000000E+00 -0.00000000000E+00 -0.58098592257E+02  0.58098592257E+02  0.00000000000E+00 0.  1.
         23    2    1    2    0    0  0.60340979495E+02 -0.49125589591E+02  0.11064547027E+03  0.16393812336E+03  0.92622517997E+02 0.  0.
          5    1    1    2  502    0 -0.93900990955E+02  0.59968350099E+02  0.11060189267E+03  0.15706198706E+03  0.47000000000E+01 0. -1.
         -5    1    1    2    0  502  0.33560011460E+02 -0.10842760508E+02  0.30268908352E+02  0.46713345389E+02  0.47000000000E+01 0. -1.
        -11    1    3    3    0    0 -0.22578775978E+02 -0.43968206134E+01  0.40137497922E+02  0.46261775751E+02  0.00000000000E+00 0. -1.
         11    1    3    3    0    0  0.82919755472E+02 -0.44728768978E+02  0.70507972347E+02  0.11767634761E+03  0.00000000000E+00 0.  1.
<mgrwt>
<rscale>  0 0.14018079E+03</rscale>
<asrwt>0</asrwt>
<pdfrwt beam="1">  1        2 0.47633055E-01 0.14724063E+03</pdfrwt>
<pdfrwt beam="2">  1       -2 0.89382451E-02 0.14724063E+03</pdfrwt>
<totfact> 0.80128404E+03</totfact>
</mgrwt>
</event>
<event>
 7    1  0.1111284E-005  0.1286937E+03  0.7546771E-02  0.1240335E+00
         -2   -1    0    0    0  501 -0.00000000000E+00  0.00000000000E+00  0.47056618073E+02  0.47056618073E+02  0.00000000000E+00 0.  1.
          2   -1    0    0  501    0  0.00000000000E+00 -0.00000000000E+00 -0.50946231413E+03  0.50946231413E+03  0.00000000000E+00 0. -1.
         23    2    1    2    0    0  0.13321656051E+02 -0.33100288193E+02 -0.40088473408E+03  0.41387636876E+03  0.96498616599E+02 0.  0.
          5    1    1    2  502    0  0.89996790363E+01 -0.93033690928E+01 -0.87057634795E+02  0.88140051482E+02  0.47000000000E+01 0. -1.
         -5    1    1    2    0  502 -0.22321335087E+02  0.42403657286E+02  0.25536672814E+02  0.54502511958E+02  0.47000000000E+01 0.  1.
        -11    1    3    3    0    0 -0.37144479267E+02 -0.18330832402E+02 -0.96969951769E+02  0.10544621047E+03  0.00000000000E+00 0.  1.
         11    1    3    3    0    0  0.50466135318E+02 -0.14769455791E+02 -0.30391478231E+03  0.30843015829E+03  0.00000000000E+00 0. -1.
<mgrwt>
<rscale>  0 0.12168996E+03</rscale>
<asrwt>0</asrwt>
<pdfrwt beam="2">  1        2 0.78378816E-01 0.12869371E+03</pdfrwt>
<pdfrwt beam="1">  1       -2 0.72394798E-02 0.12869371E+03</pdfrwt>
<totfact> 0.64488287E+03</totfact>
</mgrwt>
</event>
<event>
 7    1  0.1111284E-005  0.1690273E+03  0.7546771E-02  0.1185340E+00
          1   -1    0    0  501    0  0.00000000000E+00  0.00000000000E+00  0.11795567307E+03  0.11795567307E+03  0.00000000000E+00 0. -1.
         -1   -1    0    0    0  501 -0.00000000000E+00 -0.00000000000E+00 -0.21070858099E+03  0.21070858099E+03  0.00000000000E+00 0.  1.
         23    2    1    2    0    0 -0.25338392211E+02  0.11092119208E+03 -0.39685569018E+02  0.15150222323E+03  0.91828286941E+02 0.  0.
          5    1    1    2  502    0 -0.29745619753E+02 -0.96292326388E+02 -0.63246087578E+02  0.11907632682E+03  0.47000000000E+01 0. -1.
         -5    1    1    2    0  502  0.55084011963E+02 -0.14628865696E+02  0.10178748672E+02  0.58085704007E+02  0.47000000000E+01 0. -1.
        -11    1    3    3    0    0 -0.23512019088E+02 -0.15163199962E+01  0.13448361156E+02  0.27128816519E+02  0.00000000000E+00 0. -1.
         11    1    3    3    0    0 -0.18263731227E+01  0.11243751208E+03 -0.53133930174E+02  0.12437340671E+03  0.00000000000E+00 0.  1.
<mgrwt>
<rscale>  0 0.16300974E+03</rscale>
<asrwt>0</asrwt>
<pdfrwt beam="1">  1        1 0.18147027E-01 0.16902734E+03</pdfrwt>
<pdfrwt beam="2">  1       -1 0.32416705E-01 0.16902734E+03</pdfrwt>
<totfact> 0.25361399E+03</totfact>
</mgrwt>
</event>
<event>
 7    1  0.1111284E-005  0.1412940E+03  0.7546771E-02  0.1219053E+00
         -2   -1    0    0    0  501 -0.00000000000E+00  0.00000000000E+00  0.48840872416E+02  0.48840872416E+02  0.00000000000E+00 0.  1.
          2   -1    0    0  501    0  0.00000000000E+00 -0.00000000000E+00 -0.50270441275E+03  0.50270441275E+03  0.00000000000E+00 0. -1.
         23    2    1    2    0    0 -0.33920251841E+02  0.68931938532E+02 -0.36547664881E+03  0.38488327598E+03  0.93057829687E+02 0.  0.
          5    1    1    2  502    0 -0.32430344716E+02 -0.30258856962E+02 -0.76855564808E+02  0.88860528498E+02  0.47000000000E+01 0. -1.
         -5    1    1    2    0  502  0.66350596557E+02 -0.38673081570E+02 -0.11531326714E+02  0.77801480689E+02  0.47000000000E+01 0.  1.
        -11    1    3    3    0    0  0.16642760585E+02 -0.91985494522E+01 -0.22276114578E+02  0.29288565561E+02  0.00000000000E+00 0.  1.
         11    1    3    3    0    0 -0.50563012426E+02  0.78130487984E+02 -0.34320053424E+03  0.35559471042E+03  0.00000000000E+00 0. -1.
<mgrwt>
<rscale>  0 0.13582983E+03</rscale>
<asrwt>0</asrwt>
<pdfrwt beam="2">  1        2 0.77339146E-01 0.14129396E+03</pdfrwt>
<pdfrwt beam="1">  1       -2 0.75139799E-02 0.14129396E+03</pdfrwt>
<totfact> 0.62137932E+03</totfact>
</mgrwt>
</event>
<event>
 7    1  0.1111284E-005  0.1289370E+03  0.7546771E-02  0.1243044E+00
         -2   -1    0    0    0  501 -0.00000000000E+00  0.00000000000E+00  0.20913036918E+02  0.20913036918E+02  0.00000000000E+00 0.  1.
          2   -1    0    0  501    0  0.00000000000E+00 -0.00000000000E+00 -0.64912549210E+03  0.64912549210E+03  0.00000000000E+00 0. -1.
         23    2    1    2    0    0  0.55609959837E+01 -0.31116505027E+02 -0.35429931545E+03  0.36729580835E+03  0.91537119989E+02 0.  0.
          5    1    1    2  502    0  0.12362430032E+02 -0.13967183763E+01  0.98328956166E+01  0.16539538528E+02  0.47000000000E+01 0.  1.
         -5    1    1    2    0  502 -0.17923426015E+02  0.32513223403E+02 -0.28374603534E+03  0.28620318215E+03  0.47000000000E+01 0.  1.
        -11    1    3    3    0    0  0.45934535732E+02 -0.29016861489E+02 -0.16456153472E+03  0.17329875514E+03  0.00000000000E+00 0. -1.
         11    1    3    3    0    0 -0.40373539748E+02 -0.20996435379E+01 -0.18973778073E+03  0.19399705320E+03  0.00000000000E+00 0.  1.
<mgrwt>
<rscale>  0 0.12003230E+03</rscale>
<asrwt>0</asrwt>
<pdfrwt beam="2">  1        2 0.99865448E-01 0.12893699E+03</pdfrwt>
<pdfrwt beam="1">  1       -2 0.32173907E-02 0.12893699E+03</pdfrwt>
<totfact> 0.16550584E+04</totfact>
</mgrwt>
</event>
<event>
 7    1  0.1111284E-005  0.1388792E+03  0.7546771E-02  0.1229855E+00
          2   -1    0    0  501    0  0.00000000000E+00  0.00000000000E+00  0.29208992695E+03  0.29208992695E+03  0.00000000000E+00 0. -1.
         -2   -1    0    0    0  501 -0.00000000000E+00 -0.00000000000E+00 -0.49511710096E+02  0.49511710096E+02  0.00000000000E+00 0.  1.
         23    2    1    2    0    0 -0.43476865139E+02 -0.35479793111E+01  0.10887132057E+03  0.14881948515E+03  0.91604851171E+02 0.  0.
          5    1    1    2  502    0  0.44623302479E+02 -0.19901455648E+02  0.15385135299E+03  0.16149190654E+03  0.47000000000E+01 0. -1.
         -5    1    1    2    0  502 -0.11464373396E+01  0.23449434959E+02 -0.20144456707E+02  0.31290245357E+02  0.47000000000E+01 0.  1.
        -11    1    3    3    0    0 -0.58355494249E+02 -0.34006464395E+02  0.71043247190E+02  0.98025232981E+02  0.00000000000E+00 0. -1.
         11    1    3    3    0    0  0.14878629109E+02  0.30458485084E+02  0.37828073384E+02  0.50794252172E+02  0.00000000000E+00 0.  1.
<mgrwt>
<rscale>  0 0.12839624E+03</rscale>
<asrwt>0</asrwt>
<pdfrwt beam="1">  1        2 0.44936911E-01 0.13887917E+03</pdfrwt>
<pdfrwt beam="2">  1       -2 0.76171863E-02 0.13887917E+03</pdfrwt>
<totfact> 0.10876154E+04</totfact>
</mgrwt>
</event>
<event>
 7    1  0.1111284E-005  0.1316498E+03  0.7546771E-02  0.1237599E+00
         -1   -1    0    0    0  501 -0.00000000000E+00  0.00000000000E+00  0.24202385244E+02  0.24202385244E+02  0.00000000000E+00 0.  1.
          1   -1    0    0  501    0  0.00000000000E+00 -0.00000000000E+00 -0.59636887744E+03  0.59636887744E+03  0.00000000000E+00 0. -1.
         23    2    1    2    0    0  0.17383517618E+02  0.37535750592E+02 -0.32523956392E+03  0.34074172686E+03  0.92806418009E+02 0.  0.
          5    1    1    2  502    0  0.85357430268E+01 -0.80292293434E+02 -0.16450811942E+03  0.18331590943E+03  0.47000000000E+01 0.  1.
         -5    1    1    2    0  502 -0.25919260645E+02  0.42756542842E+02 -0.82418808850E+02  0.96513626398E+02  0.47000000000E+01 0.  1.
        -11    1    3    3    0    0  0.45765994368E+02  0.24721012902E+02 -0.28577401470E+03  0.29046934812E+03  0.00000000000E+00 0. -1.
         11    1    3    3    0    0 -0.28382476750E+02  0.12814737690E+02 -0.39465549226E+02  0.50272378740E+02  0.00000000000E+00 0.  1.
<mgrwt>
<rscale>  0 0.12339480E+03</rscale>
<asrwt>0</asrwt>
<pdfrwt beam="2">  1        1 0.91749053E-01 0.13164977E+03</pdfrwt>
<pdfrwt beam="1">  1       -1 0.37234441E-02 0.13164977E+03</pdfrwt>
<totfact> 0.92656357E+03</totfact>
</mgrwt>
</event>
<event>
 7    1  0.1111284E-005  0.2244741E+03  0.7546771E-02  0.1130591E+00
         -1   -1    0    0    0  501 -0.00000000000E+00  0.00000000000E+00  0.73940119837E+02  0.73940119837E+02  0.00000000000E+00 0.  1.
          1   -1    0    0  501    0  0.00000000000E+00 -0.00000000000E+00 -0.17036972827E+03  0.17036972827E+03  0.00000000000E+00 0. -1.
         23    2    1    2    0    0  0.32060556384E+02  0.40019604115E+01 -0.31433876418E+02  0.99761887429E+02  0.88996913621E+02 0.  0.
          5    1    1    2  502    0 -0.79422233468E+02  0.81807164103E+01 -0.39909443690E+02  0.89384948318E+02  0.47000000000E+01 0. -1.
         -5    1    1    2    0  502  0.47361677084E+02 -0.12182676822E+02 -0.25086288327E+02  0.55163012361E+02  0.47000000000E+01 0. -1.
        -11    1    3    3    0    0  0.51030447320E+02 -0.42270200225E+01 -0.50294816023E+02  0.71774248660E+02  0.00000000000E+00 0. -1.
         11    1    3    3    0    0 -0.18969890936E+02  0.82289804340E+01  0.18860939605E+02  0.27987638769E+02  0.00000000000E+00 0.  1.
<mgrwt>
<rscale>  0 0.22447412E+03</rscale>
<asrwt>0</asrwt>
<pdfrwt beam="2">  1        1 0.26210727E-01 0.22447412E+03</pdfrwt>
<pdfrwt beam="1">  1       -1 0.11375403E-01 0.22447412E+03</pdfrwt>
<totfact> 0.87752757E+03</totfact>
</mgrwt>
</event>
<event>
 7    1  0.1111284E-005  0.1455136E+03  0.7546771E-02  0.1216041E+00
         -4   -1    0    0    0  501 -0.00000000000E+00  0.00000000000E+00  0.30577048107E+03  0.30577048107E+03  0.00000000000E+00 0.  1.
          4   -1    0    0  501    0  0.00000000000E+00 -0.00000000000E+00 -0.60153827127E+02  0.60153827127E+02  0.00000000000E+00 0. -1.
         23    2    1    2    0    0 -0.67813816674E+02  0.30815329798E+02  0.66690168021E+02  0.13529715877E+03  0.91156153815E+02 0.  0.
          5    1    1    2  502    0  0.69672224532E+02  0.34014479219E+02  0.11956673883E+03  0.14258155106E+03  0.47000000000E+01 0. -1.
         -5    1    1    2    0  502 -0.18584078579E+01 -0.64829809017E+02  0.59359747087E+02  0.88045598363E+02  0.47000000000E+01 0. -1.
        -11    1    3    3    0    0 -0.71657250236E+02  0.56249408370E+02  0.44784028271E+02  0.10151042627E+03  0.00000000000E+00 0. -1.
         11    1    3    3    0    0  0.38434335615E+01 -0.25434078572E+02  0.21906139750E+02  0.33786732501E+02  0.00000000000E+00 0.  1.
<mgrwt>
<rscale>  0 0.13800320E+03</rscale>
<asrwt>0</asrwt>
<pdfrwt beam="2">  1        4 0.92544351E-02 0.14551355E+03</pdfrwt>
<pdfrwt beam="1">  1       -4 0.47041612E-01 0.14551355E+03</pdfrwt>
<totfact> 0.63824937E+02</totfact>
</mgrwt>
</event>
<event>
 7    1  0.1111284E-005  0.1465493E+03  0.7546771E-02  0.1215960E+00
         -4   -1    0    0    0  501 -0.00000000000E+00  0.00000000000E+00  0.20726837166E+02  0.20726837166E+02  0.00000000000E+00 0. -1.
          4   -1    0    0  501    0  0.00000000000E+00 -0.00000000000E+00 -0.84406187706E+03  0.84406187706E+03  0.00000000000E+00 0.  1.
         23    2    1    2    0    0 -0.33167413268E+02  0.66435758763E+02 -0.42317516053E+03  0.43863777685E+03  0.88386059099E+02 0.  0.
          5    1    1    2  502    0  0.78391017642E+02 -0.46926308572E+02 -0.19940650321E+03  0.21939068714E+03  0.47000000000E+01 0. -1.
         -5    1    1    2    0  502 -0.45223604374E+02 -0.19509450191E+02 -0.20075337615E+03  0.20676025023E+03  0.47000000000E+01 0.  1.
        -11    1    3    3    0    0 -0.52967715480E+02  0.26142228510E+02 -0.32958691525E+03  0.33483806489E+03  0.00000000000E+00 0.  1.
         11    1    3    3    0    0  0.19800302213E+02  0.40293530254E+02 -0.93588245276E+02  0.10379971195E+03  0.00000000000E+00 0. -1.
<mgrwt>
<rscale>  0 0.13806219E+03</rscale>
<asrwt>0</asrwt>
<pdfrwt beam="2">  1        4 0.12985566E+00 0.14654928E+03</pdfrwt>
<pdfrwt beam="1">  1       -4 0.31887444E-02 0.14654928E+03</pdfrwt>
<totfact> 0.37887599E+02</totfact>
</mgrwt>
</event>
<event>
 7    1  0.1111284E-005  0.3594928E+03  0.7546771E-02  0.1060144E+00
         -1   -1    0    0    0  501 -0.00000000000E+00  0.00000000000E+00  0.45553361088E+03  0.45553361088E+03  0.00000000000E+00 0.  1.
          1   -1    0    0  501    0  0.00000000000E+00 -0.00000000000E+00 -0.35371135567E+03  0.35371135567E+03  0.00000000000E+00 0. -1.
         23    2    1    2    0    0 -0.68314239014E+02  0.33006688473E+03  0.24318016782E+03  0.42295867222E+03  0.78399366986E+02 0.  0.
          5    1    1    2  502    0  0.12798373919E+02 -0.62359091274E+02 -0.86321168869E+02  0.10735869240E+03  0.47000000000E+01 0.  1.
         -5    1    1    2    0  502  0.55515865096E+02 -0.26770779345E+03 -0.55036743738E+02  0.27892760192E+03  0.47000000000E+01 0.  1.
        -11    1    3    3    0    0 -0.14809263908E+01  0.12376568839E+03  0.53462047013E+02  0.13482703451E+03  0.00000000000E+00 0. -1.
         11    1    3    3    0    0 -0.66833312624E+02  0.20630119634E+03  0.18971812081E+03  0.28813163771E+03  0.00000000000E+00 0.  1.
<mgrwt>
<rscale>  0 0.35608643E+03</rscale>
<asrwt>0</asrwt>
<pdfrwt beam="2">  1        1 0.54417132E-01 0.35949276E+03</pdfrwt>
<pdfrwt beam="1">  1       -1 0.70082094E-01 0.35949276E+03</pdfrwt>
<totfact> 0.15178342E+02</totfact>
</mgrwt>
</event>
<event>
 7    1  0.1111284E-005  0.1694197E+03  0.7546771E-02  0.1185283E+00
         -1   -1    0    0    0  501 -0.00000000000E+00  0.00000000000E+00  0.61943982429E+03  0.61943982429E+03  0.00000000000E+00 0.  1.
          1   -1    0    0  501    0  0.00000000000E+00 -0.00000000000E+00 -0.54173503264E+02  0.54173503264E+02  0.00000000000E+00 0. -1.
         23    2    1    2    0    0 -0.16708540332E+02 -0.11313277810E+03  0.94772176599E+02  0.17354556512E+03  0.89766903235E+02 0.  0.
          5    1    1    2  502    0  0.15841617791E+02 -0.10561783319E+02  0.78072083774E+01  0.21108070110E+02  0.47000000000E+01 0.  1.
         -5    1    1    2    0  502  0.86692254103E+00  0.12369456142E+03  0.46268693604E+03  0.47895969232E+03  0.47000000000E+01 0.  1.
        -11    1    3    3    0    0 -0.72110824285E+00 -0.11149018471E+03  0.43271036315E+02  0.11959499934E+03  0.00000000000E+00 0. -1.
         11    1    3    3    0    0 -0.15987432089E+02 -0.16425933898E+01  0.51501140283E+02  0.53950565783E+02  0.00000000000E+00 0.  1.
<mgrwt>
<rscale>  0 0.16306153E+03</rscale>
<asrwt>0</asrwt>
<pdfrwt beam="2">  1        1 0.83343855E-02 0.16941968E+03</pdfrwt>
<pdfrwt beam="1">  1       -1 0.95298430E-01 0.16941968E+03</pdfrwt>
<totfact> 0.91409152E+02</totfact>
</mgrwt>
</event>
<event>
 7    1  0.1111284E-005  0.2468176E+03  0.7546771E-02  0.1119864E+00
          2   -1    0    0  501    0  0.00000000000E+00  0.00000000000E+00  0.47713504370E+03  0.47713504370E+03  0.00000000000E+00 0. -1.
         -2   -1    0    0    0  501 -0.00000000000E+00 -0.00000000000E+00 -0.12615335095E+03  0.12615335095E+03  0.00000000000E+00 0.  1.
         23    2    1    2    0    0  0.18039522891E+03  0.84580182593E+02  0.25873943225E+03  0.33979730964E+03  0.93914173230E+02 0.  0.
          5    1    1    2  502    0 -0.34015760939E+02  0.38189395949E+02  0.40776060451E+02  0.65576513029E+02  0.47000000000E+01 0. -1.
         -5    1    1    2    0  502 -0.14637946797E+03 -0.12276957854E+03  0.51466200047E+02  0.19791457199E+03  0.47000000000E+01 0.  1.
        -11    1    3    3    0    0 -0.11335296096E+02  0.72804992687E+01  0.17881737451E+02  0.22388638669E+02  0.00000000000E+00 0.  1.
         11    1    3    3    0    0  0.19173052500E+03  0.77299683324E+02  0.24085769480E+03  0.31740867097E+03  0.00000000000E+00 0. -1.
<mgrwt>
<rscale>  0 0.23989314E+03</rscale>
<asrwt>0</asrwt>
<pdfrwt beam="1">  1        2 0.73405390E-01 0.24681758E+03</pdfrwt>
<pdfrwt beam="2">  1       -2 0.19408208E-01 0.24681758E+03</pdfrwt>
<totfact> 0.14505152E+03</totfact>
</mgrwt>
</event>
<event>
 7    1  0.1111284E-005  0.1399638E+03  0.7546771E-02  0.1224393E+00
          1   -1    0    0  501    0  0.00000000000E+00  0.00000000000E+00  0.28280727801E+03  0.28280727801E+03  0.00000000000E+00 0. -1.
         -1   -1    0    0    0  501 -0.00000000000E+00 -0.00000000000E+00 -0.58744677948E+02  0.58744677948E+02  0.00000000000E+00 0.  1.
         23    2    1    2    0    0  0.62763551087E+02  0.50371496082E+01  0.13852243382E+03  0.17751848652E+03  0.91431461564E+02 0.  0.
          5    1    1    2  502    0  0.14523389324E+02  0.26418102130E+02  0.73518249741E+02  0.79598165824E+02  0.47000000000E+01 0. -1.
         -5    1    1    2    0  502 -0.77286940411E+02 -0.31455251738E+02  0.12021916502E+02  0.84435303614E+02  0.47000000000E+01 0. -1.
        -11    1    3    3    0    0  0.18049304945E+02  0.41338275028E+02  0.28566358552E+02  0.53391640096E+02  0.00000000000E+00 0.  1.
         11    1    3    3    0    0  0.44714246143E+02 -0.36301125420E+02  0.10995607527E+03  0.12412684642E+03  0.00000000000E+00 0. -1.
<mgrwt>
<rscale>  0 0.13208614E+03</rscale>
<asrwt>0</asrwt>
<pdfrwt beam="1">  1        1 0.43508811E-01 0.13996378E+03</pdfrwt>
<pdfrwt beam="2">  1       -1 0.90376429E-02 0.13996378E+03</pdfrwt>
<totfact> 0.64358968E+03</totfact>
</mgrwt>
</event>
<event>
 7    1  0.1111284E-005  0.1460120E+03  0.7546771E-02  0.1215360E+00
         -2   -1    0    0    0  501 -0.00000000000E+00  0.00000000000E+00  0.72911814208E+02  0.72911814208E+02  0.00000000000E+00 0.  1.
          2   -1    0    0  501    0  0.00000000000E+00 -0.00000000000E+00 -0.26328920061E+03  0.26328920061E+03  0.00000000000E+00 0. -1.
         23    2    1    2    0    0 -0.53821253637E+02  0.53004267090E+02 -0.13648947070E+03  0.18056230290E+03  0.90924088915E+02 0.  0.
          5    1    1    2  502    0  0.15194243707E+02  0.40835937293E+02 -0.22801855145E+02  0.49400945482E+02  0.47000000000E+01 0.  1.
         -5    1    1    2    0  502  0.38627009930E+02 -0.93840204383E+02 -0.31086060550E+02  0.10623776643E+03  0.47000000000E+01 0.  1.
        -11    1    3    3    0    0 -0.42942583742E+02 -0.65488689128E+01 -0.10205614817E+03  0.11091623218E+03  0.00000000000E+00 0. -1.
         11    1    3    3    0    0 -0.10878669895E+02  0.59553136003E+02 -0.34433322534E+02  0.69646070723E+02  0.00000000000E+00 0.  1.
<mgrwt>
<rscale>  0 0.13850136E+03</rscale>
<asrwt>0</asrwt>
<pdfrwt beam="2">  1        2 0.40506031E-01 0.14601199E+03</pdfrwt>
<pdfrwt beam="1">  1       -2 0.11217202E-01 0.14601199E+03</pdfrwt>
<totfact> 0.66534141E+03</totfact>
</mgrwt>
</event>
<event>
 7    1  0.1111284E-005  0.1278706E+03  0.7546771E-02  0.1243922E+00
          3   -1    0    0  501    0  0.00000000000E+00  0.00000000000E+00  0.17845023950E+03  0.17845023950E+03  0.00000000000E+00 0. -1.
         -3   -1    0    0    0  501 -0.00000000000E+00 -0.00000000000E+00 -0.12738464830E+03  0.12738464830E+03  0.00000000000E+00 0.  1.
         23    2    1    2    0    0  0.26863657889E+02 -0.21388282676E+01  0.12467047646E+03  0.15829312104E+03  0.93743019820E+02 0.  0.
          5    1    1    2  502    0 -0.62257368175E+02  0.33252676094E+02 -0.15206405877E+02  0.72353611791E+02  0.47000000000E+01 0. -1.
         -5    1    1    2    0  502  0.35393710286E+02 -0.31113847826E+02 -0.58398479385E+02  0.75188154977E+02  0.47000000000E+01 0. -1.
        -11    1    3    3    0    0 -0.18135402183E+02  0.25746194069E+02  0.11810300505E+02  0.33633948911E+02  0.00000000000E+00 0.  1.
         11    1    3    3    0    0  0.44999060072E+02 -0.27885022336E+02  0.11286017596E+03  0.12465917213E+03  0.00000000000E+00 0. -1.
<mgrwt>
<rscale>  0 0.11950150E+03</rscale>
<asrwt>0</asrwt>
<pdfrwt beam="1">  1        3 0.27453883E-01 0.12787061E+03</pdfrwt>
<pdfrwt beam="2">  1       -3 0.19597638E-01 0.12787061E+03</pdfrwt>
<totfact> 0.67505076E+02</totfact>
</mgrwt>
</event>
<event>
 7    1  0.1111284E-005  0.1451182E+03  0.7546771E-02  0.1219172E+00
          1   -1    0    0  501    0  0.00000000000E+00  0.00000000000E+00  0.73080014734E+03  0.73080014734E+03  0.00000000000E+00 0. -1.
         -1   -1    0    0    0  501 -0.00000000000E+00 -0.00000000000E+00 -0.22496820159E+02  0.22496820159E+02  0.00000000000E+00 0.  1.
         23    2    1    2    0    0 -0.58198037218E+02 -0.45244433615E+02  0.32270995436E+03  0.34129996153E+03  0.83125680704E+02 0.  0.
          5    1    1    2  502    0  0.16270887590E+02  0.37844946144E+02  0.35941175532E+03  0.36179535872E+03  0.47000000000E+01 0.  1.
         -5    1    1    2    0  502  0.41927149628E+02  0.73994874705E+01  0.26181617506E+02  0.50201647244E+02  0.47000000000E+01 0.  1.
        -11    1    3    3    0    0 -0.16392482180E+02  0.23476967751E+02  0.58758812374E+02  0.65364206706E+02  0.00000000000E+00 0.  1.
         11    1    3    3    0    0 -0.41805555038E+02 -0.68721401365E+02  0.26395114198E+03  0.27593575483E+03  0.00000000000E+00 0. -1.
<mgrwt>
<rscale>  0 0.13574477E+03</rscale>
<asrwt>0</asrwt>
<pdfrwt beam="1">  1        1 0.11243077E+00 0.14511817E+03</pdfrwt>
<pdfrwt beam="2">  1       -1 0.34610498E-02 0.14511817E+03</pdfrwt>
<totfact> 0.77983539E+03</totfact>
</mgrwt>
</event>
<event>
 7    1  0.1111284E-005  0.3194004E+03  0.7546771E-02  0.1075926E+00
         -2   -1    0    0    0  501 -0.00000000000E+00  0.00000000000E+00  0.10258217670E+03  0.10258217670E+03  0.00000000000E+00 0.  1.
          2   -1    0    0  501    0  0.00000000000E+00 -0.00000000000E+00 -0.24862161793E+03  0.24862161793E+03  0.00000000000E+00 0. -1.
         23    2    1    2    0    0  0.18683785219E+02 -0.22190161266E+02 -0.45343122646E+02  0.10640793923E+03  0.91788690334E+02 0.  0.
          5    1    1    2  502    0  0.63787300636E+02 -0.69344170095E+02 -0.70735272902E+02  0.11791099389E+03  0.47000000000E+01 0. -1.
         -5    1    1    2    0  502 -0.82471085855E+02  0.91534331361E+02 -0.29961045683E+02  0.12688486150E+03  0.47000000000E+01 0.  1.
        -11    1    3    3    0    0  0.10353980130E+02 -0.16257683363E+02 -0.73744348789E+02  0.76221690819E+02  0.00000000000E+00 0.  1.
         11    1    3    3    0    0  0.83298050889E+01 -0.59324779026E+01  0.28401226143E+02  0.30186248414E+02  0.00000000000E+00 0. -1.
<mgrwt>
<rscale>  0 0.31940036E+03</rscale>
<asrwt>0</asrwt>
<pdfrwt beam="2">  1        2 0.38249479E-01 0.31940036E+03</pdfrwt>
<pdfrwt beam="1">  1       -2 0.15781873E-01 0.31940036E+03</pdfrwt>
<totfact> 0.42205781E+03</totfact>
</mgrwt>
</event>
<event>
 7    1  0.1111284E-005  0.1311113E+03  0.7546771E-02  0.1239000E+00
          2   -1    0    0  501    0  0.00000000000E+00  0.00000000000E+00  0.33636906808E+02  0.33636906808E+02  0.00000000000E+00 0. -1.
         -2   -1    0    0    0  501 -0.00000000000E+00 -0.00000000000E+00 -0.39792426895E+03  0.39792426895E+03  0.00000000000E+00 0.  1.
         23    2    1    2    0    0 -0.34828592338E+02 -0.19373753644E+02 -0.14673361541E+03  0.17755366708E+03  0.91685209426E+02 0.  0.
          5    1    1    2  502    0  0.36231498446E+02  0.52985419498E+02 -0.20941008857E+03  0.21907727257E+03  0.47000000000E+01 0. -1.
         -5    1    1    2    0  502 -0.14029061079E+01 -0.33611665854E+02 -0.81436581666E+01  0.34930236120E+02  0.47000000000E+01 0. -1.
        -11    1    3    3    0    0 -0.23050543818E+02  0.35871047018E+02 -0.74715638796E+02  0.86026078983E+02  0.00000000000E+00 0.  1.
         11    1    3    3    0    0 -0.11778048520E+02 -0.55244800662E+02 -0.72017976611E+02  0.91527588094E+02  0.00000000000E+00 0. -1.
<mgrwt>
<rscale>  0 0.12251819E+03</rscale>
<asrwt>0</asrwt>
<pdfrwt beam="1">  1        2 0.51749086E-02 0.13111133E+03</pdfrwt>
<pdfrwt beam="2">  1       -2 0.61219120E-01 0.13111133E+03</pdfrwt>
<totfact> 0.36207434E+03</totfact>
</mgrwt>
</event>
<event>
 7    1  0.1111284E-005  0.1315041E+03  0.7546771E-02  0.1238343E+00
         -1   -1    0    0    0  501 -0.00000000000E+00  0.00000000000E+00  0.37203941620E+02  0.37203941620E+02  0.00000000000E+00 0.  1.
          1   -1    0    0  501    0  0.00000000000E+00 -0.00000000000E+00 -0.37471049616E+03  0.37471049616E+03  0.00000000000E+00 0. -1.
         23    2    1    2    0    0  0.24319049008E+02  0.32826725297E+02 -0.18537728001E+03  0.21082577537E+03  0.91726558741E+02 0.  0.
          5    1    1    2  502    0 -0.72985836906E+02 -0.23157861183E+01 -0.95281795167E+02  0.12013744522E+03  0.47000000000E+01 0. -1.
         -5    1    1    2    0  502  0.48666787898E+02 -0.30510939178E+02 -0.56847479359E+02  0.80951217183E+02  0.47000000000E+01 0. -1.
        -11    1    3    3    0    0  0.88764377905E+01 -0.25395162105E+02 -0.16574267625E+02  0.31597654240E+02  0.00000000000E+00 0.  1.
         11    1    3    3    0    0  0.15442611218E+02  0.58221887402E+02 -0.16880301238E+03  0.17922812113E+03  0.00000000000E+00 0. -1.
<mgrwt>
<rscale>  0 0.12292834E+03</rscale>
<asrwt>0</asrwt>
<pdfrwt beam="2">  1        1 0.57647770E-01 0.13150412E+03</pdfrwt>
<pdfrwt beam="1">  1       -1 0.57236832E-02 0.13150412E+03</pdfrwt>
<totfact> 0.89694953E+03</totfact>
</mgrwt>
</event>
<event>
 7    1  0.1111284E-005  0.1269217E+03  0.7546771E-02  0.1245891E+00
          1   -1    0    0  501    0  0.00000000000E+00  0.00000000000E+00  0.23771942694E+03  0.23771942694E+03  0.00000000000E+00 0. -1.
         -1   -1    0    0    0  501 -0.00000000000E+00 -0.00000000000E+00 -0.59549588074E+02  0.59549588074E+02  0.00000000000E+00 0.  1.
         23    2    1    2    0    0  0.21958881757E+02  0.18431100666E+01  0.12997831464E+03  0.16150619035E+03  0.93296825775E+02 0.  0.
          5    1    1    2  502    0  0.45313584837E+02 -0.24686555760E+02  0.40143192854E+01  0.51970681787E+02  0.47000000000E+01 0. -1.
         -5    1    1    2    0  502 -0.67272466594E+02  0.22843445694E+02  0.44177204941E+02  0.83792142885E+02  0.47000000000E+01 0. -1.
        -11    1    3    3    0    0 -0.20678550320E+02 -0.12956428057E+01 -0.37980370804E+01  0.21064335244E+02  0.00000000000E+00 0.  1.
         11    1    3    3    0    0  0.42637432077E+02  0.31387528723E+01  0.13377635172E+03  0.14044185510E+03  0.00000000000E+00 0. -1.
<mgrwt>
<rscale>  0 0.11832206E+03</rscale>
<asrwt>0</asrwt>
<pdfrwt beam="1">  1        1 0.36572219E-01 0.12692171E+03</pdfrwt>
<pdfrwt beam="2">  1       -1 0.91614752E-02 0.12692171E+03</pdfrwt>
<totfact> 0.77613444E+03</totfact>
</mgrwt>
</event>
<event>
 7    1  0.1111284E-005  0.1736675E+03  0.7546771E-02  0.1179443E+00
         -1   -1    0    0    0  501 -0.00000000000E+00  0.00000000000E+00  0.51333091650E+02  0.51333091650E+02  0.00000000000E+00 0.  1.
          1   -1    0    0  501    0  0.00000000000E+00 -0.00000000000E+00 -0.60600559925E+03  0.60600559925E+03  0.00000000000E+00 0. -1.
         23    2    1    2    0    0  0.12050981861E+03 -0.35275426227E+01 -0.38478727905E+03  0.41439548724E+03  0.95536955112E+02 0.  0.
          5    1    1    2  502    0 -0.11989624702E+03  0.43452267805E+02 -0.99244817282E+02  0.16166271488E+03  0.47000000000E+01 0.  1.
         -5    1    1    2    0  502 -0.61357159020E+00 -0.39924725183E+02 -0.70640411268E+02  0.81280488773E+02  0.47000000000E+01 0.  1.
        -11    1    3    3    0    0  0.55394146717E+02 -0.72476307519E+01 -0.55634765935E+02  0.78843305504E+02  0.00000000000E+00 0.  1.
         11    1    3    3    0    0  0.65115671890E+02  0.37200881292E+01 -0.32915251311E+03  0.33555218174E+03  0.00000000000E+00 0. -1.
<mgrwt>
<rscale>  0 0.16847918E+03</rscale>
<asrwt>0</asrwt>
<pdfrwt beam="2">  1        1 0.93231628E-01 0.17366753E+03</pdfrwt>
<pdfrwt beam="1">  1       -1 0.78973989E-02 0.17366753E+03</pdfrwt>
<totfact> 0.29996704E+03</totfact>
</mgrwt>
</event>
<event>
 7    1  0.1111284E-005  0.5660014E+03  0.7546771E-02  0.9978566E-01
          2   -1    0    0  501    0  0.00000000000E+00  0.00000000000E+00  0.58324564969E+03  0.58324564969E+03  0.00000000000E+00 0. -1.
         -2   -1    0    0    0  501 -0.00000000000E+00 -0.00000000000E+00 -0.13731672711E+03  0.13731672711E+03  0.00000000000E+00 0.  1.
         23    2    1    2    0    0  0.16608424785E+01 -0.55886347686E+02  0.39015790108E+03  0.40425850245E+03  0.89864936284E+02 0.  0.
          5    1    1    2  502    0  0.47379343325E+01  0.11432419729E+02  0.18187615887E+03  0.18235727407E+03  0.47000000000E+01 0. -1.
         -5    1    1    2    0  502 -0.63987768110E+01  0.44453927957E+02 -0.12610513737E+03  0.13394660028E+03  0.47000000000E+01 0.  1.
        -11    1    3    3    0    0 -0.76120311607E+01  0.99958865048E+01  0.52069505864E+01  0.13600481602E+02  0.00000000000E+00 0.  1.
         11    1    3    3    0    0  0.92728736392E+01 -0.65882234191E+02  0.38495095049E+03  0.39065802085E+03  0.00000000000E+00 0. -1.
<mgrwt>
<rscale>  0 0.56600136E+03</rscale>
<asrwt>0</asrwt>
<pdfrwt beam="1">  1        2 0.89730099E-01 0.56600136E+03</pdfrwt>
<pdfrwt beam="2">  1       -2 0.21125651E-01 0.56600136E+03</pdfrwt>
<totfact> 0.99783205E+02</totfact>
</mgrwt>
</event>
<event>
 7    1  0.1111284E-005  0.1466475E+03  0.7546771E-02  0.1214673E+00
          1   -1    0    0  501    0  0.00000000000E+00  0.00000000000E+00  0.20492046401E+03  0.20492046401E+03  0.00000000000E+00 0. -1.
         -1   -1    0    0    0  501 -0.00000000000E+00 -0.00000000000E+00 -0.10193798994E+03  0.10193798994E+03  0.00000000000E+00 0.  1.
         23    2    1    2    0    0  0.64842395347E+02  0.40912626554E+02  0.10782417976E+03  0.16013099952E+03  0.90208115048E+02 0.  0.
          5    1    1    2  502    0  0.77373747648E+00 -0.70304248271E+02 -0.19683849833E+02  0.73163036698E+02  0.47000000000E+01 0.  1.
         -5    1    1    2    0  502 -0.65616132824E+02  0.29391621717E+02  0.14842144147E+02  0.73564417736E+02  0.47000000000E+01 0.  1.
        -11    1    3    3    0    0  0.93833366045E+01  0.24683937614E+02 -0.10525662462E+02  0.28427686368E+02  0.00000000000E+00 0.  1.
         11    1    3    3    0    0  0.55459058743E+02  0.16228688940E+02  0.11834984222E+03  0.13170331315E+03  0.00000000000E+00 0. -1.
<mgrwt>
<rscale>  0 0.13900604E+03</rscale>
<asrwt>0</asrwt>
<pdfrwt beam="1">  1        1 0.31526225E-01 0.14664755E+03</pdfrwt>
<pdfrwt beam="2">  1       -1 0.15682768E-01 0.14664755E+03</pdfrwt>
<totfact> 0.41051771E+03</totfact>
</mgrwt>
</event>
<event>
 7    1  0.1111284E-005  0.4971591E+03  0.7546771E-02  0.1088957E+00
          2   -1    0    0  501    0  0.00000000000E+00  0.00000000000E+00  0.13536331001E+03  0.13536331001E+03  0.00000000000E+00 0. -1.
         -2   -1    0    0    0  501 -0.00000000000E+00 -0.00000000000E+00 -0.57832185997E+03  0.57832185997E+03  0.00000000000E+00 0.  1.
         23    2    1    2    0    0  0.76741390988E+01 -0.22667626869E+02 -0.27316512512E+02  0.65668614278E+02  0.54712533542E+02 0.  0.
          5    1    1    2  502    0 -0.85097732704E+02  0.50383286194E+01  0.97010834012E+02  0.12922925668E+03  0.47000000000E+01 0. -1.
         -5    1    1    2    0  502  0.77423593606E+02  0.17629298250E+02 -0.51265287146E+03  0.51878729902E+03  0.47000000000E+01 0.  1.
        -11    1    3    3    0    0  0.81820366444E+01  0.14503433903E+02  0.39262550546E+01  0.17108792984E+02  0.00000000000E+00 0. -1.
         11    1    3    3    0    0 -0.50789754555E+00 -0.37171060772E+02 -0.31242767566E+02  0.48559821293E+02  0.00000000000E+00 0.  1.
<mgrwt>
<rscale>  0 0.29268257E+03</rscale>
<asrwt>0</asrwt>
<pdfrwt beam="1">  1        2 0.20825124E-01 0.49715908E+03</pdfrwt>
<pdfrwt beam="2">  1       -2 0.88972596E-01 0.49715908E+03</pdfrwt>
<totfact> 0.29768109E+02</totfact>
</mgrwt>
</event>
<event>
 7    1  0.1111284E-005  0.1402462E+03  0.7546771E-02  0.1236428E+00
         -1   -1    0    0    0  501 -0.00000000000E+00  0.00000000000E+00  0.40083520335E+03  0.40083520335E+03  0.00000000000E+00 0.  1.
          1   -1    0    0  501    0  0.00000000000E+00 -0.00000000000E+00 -0.33515346081E+02  0.33515346081E+02  0.00000000000E+00 0. -1.
         23    2    1    2    0    0  0.58557735997E+02 -0.24810737830E+02  0.96088064533E+02  0.12900534305E+03  0.58007596338E+02 0.  0.
          5    1    1    2  502    0 -0.23386166996E+02  0.71958141809E+02  0.10946850582E+03  0.13315528809E+03  0.47000000000E+01 0. -1.
         -5    1    1    2    0  502 -0.35171569001E+02 -0.47147403979E+02  0.16176328691E+03  0.17218991829E+03  0.47000000000E+01 0. -1.
        -11    1    3    3    0    0  0.38981359853E+02 -0.28451035584E+02  0.97760265308E+02  0.10902328795E+03  0.00000000000E+00 0.  1.
         11    1    3    3    0    0  0.19576376144E+02  0.36402977537E+01 -0.16722007751E+01  0.19982055102E+02  0.00000000000E+00 0. -1.
<mgrwt>
<rscale>  0 0.12413429E+03</rscale>
<asrwt>0</asrwt>
<pdfrwt beam="2">  1        1 0.51562074E-02 0.14024625E+03</pdfrwt>
<pdfrwt beam="1">  1       -1 0.61666951E-01 0.14024625E+03</pdfrwt>
<totfact> 0.42164991E+03</totfact>
</mgrwt>
</event>
<event>
 7    1  0.1111284E-005  0.1573698E+03  0.7546771E-02  0.1200581E+00
          1   -1    0    0  501    0  0.00000000000E+00  0.00000000000E+00  0.42158841715E+02  0.42158841715E+02  0.00000000000E+00 0. -1.
         -1   -1    0    0    0  501 -0.00000000000E+00 -0.00000000000E+00 -0.72285601499E+03  0.72285601499E+03  0.00000000000E+00 0.  1.
         23    2    1    2    0    0  0.93905961879E+02  0.18144960801E+02 -0.10090443007E+03  0.16424461603E+03  0.87447244717E+02 0.  0.
          5    1    1    2  502    0 -0.10097408063E+03 -0.74240172930E+01 -0.23773596978E+03  0.25844024903E+03  0.47000000000E+01 0.  1.
         -5    1    1    2    0  502  0.70681187507E+01 -0.10720943508E+02 -0.34205677342E+03  0.34232999164E+03  0.47000000000E+01 0.  1.
        -11    1    3    3    0    0  0.94945328342E+01  0.35425820077E+02 -0.80052883056E+01  0.37539572756E+02  0.00000000000E+00 0. -1.
         11    1    3    3    0    0  0.84411429045E+02 -0.17280859276E+02 -0.92899141763E+02  0.12670504327E+03  0.00000000000E+00 0.  1.
<mgrwt>
<rscale>  0 0.14991229E+03</rscale>
<asrwt>0</asrwt>
<pdfrwt beam="1">  1        1 0.64859749E-02 0.15736981E+03</pdfrwt>
<pdfrwt beam="2">  1       -1 0.11120863E+00 0.15736981E+03</pdfrwt>
<totfact> 0.90780926E+02</totfact>
</mgrwt>
</event>
<event>
 7    1  0.1111284E-005  0.1281048E+03  0.7546771E-02  0.1243597E+00
         -1   -1    0    0    0  501 -0.00000000000E+00  0.00000000000E+00  0.37490095687E+03  0.37490095687E+03  0.00000000000E+00 0.  1.
          1   -1    0    0  501    0  0.00000000000E+00 -0.00000000000E+00 -0.73038535934E+02  0.73038535934E+02  0.00000000000E+00 0. -1.
         23    2    1    2    0    0 -0.24866874945E+02 -0.12944874036E+02 -0.21625365049E+02  0.10000963389E+03  0.93532557026E+02 0.  0.
          5    1    1    2  502    0 -0.19068472226E+02  0.34136009479E+02  0.27892987652E+03  0.28169636098E+03  0.47000000000E+01 0.  1.
         -5    1    1    2    0  502  0.43935347171E+02 -0.21191135443E+02  0.44557909465E+02  0.66233497932E+02  0.47000000000E+01 0.  1.
        -11    1    3    3    0    0 -0.12018813048E+01 -0.33443697963E+02 -0.48380093979E+02  0.58826515667E+02  0.00000000000E+00 0. -1.
         11    1    3    3    0    0 -0.23664993640E+02  0.20498823926E+02  0.26754728930E+02  0.41183118222E+02  0.00000000000E+00 0.  1.
<mgrwt>
<rscale>  0 0.11969747E+03</rscale>
<asrwt>0</asrwt>
<pdfrwt beam="2">  1        1 0.11236698E-01 0.12810480E+03</pdfrwt>
<pdfrwt beam="1">  1       -1 0.57677069E-01 0.12810480E+03</pdfrwt>
<totfact> 0.16741462E+03</totfact>
</mgrwt>
</event>
<event>
 7    1  0.1111284E-005  0.1256256E+03  0.7546771E-02  0.1251184E+00
          1   -1    0    0  501    0  0.00000000000E+00  0.00000000000E+00  0.43038821023E+02  0.43038821023E+02  0.00000000000E+00 0. -1.
         -1   -1    0    0    0  501 -0.00000000000E+00 -0.00000000000E+00 -0.28307706061E+03  0.28307706061E+03  0.00000000000E+00 0.  1.
         23    2    1    2    0    0  0.61150552501E+01 -0.10988137736E+02 -0.62748689245E+02  0.10882950121E+03  0.88024594630E+02 0.  0.
          5    1    1    2  502    0 -0.37316790523E+02 -0.27920059192E+01 -0.17888530263E+03  0.18281788657E+03  0.47000000000E+01 0.  1.
         -5    1    1    2    0  502  0.31201735273E+02  0.13780143655E+02  0.15957522897E+01  0.34468493854E+02  0.47000000000E+01 0.  1.
        -11    1    3    3    0    0  0.20426600151E+02  0.29448305200E+02 -0.39624191739E+01  0.36057585035E+02  0.00000000000E+00 0. -1.
         11    1    3    3    0    0 -0.14311544900E+02 -0.40436442935E+02 -0.58786270071E+02  0.72771916174E+02  0.00000000000E+00 0.  1.
<mgrwt>
<rscale>  0 0.11522755E+03</rscale>
<asrwt>0</asrwt>
<pdfrwt beam="1">  1        1 0.66213572E-02 0.12562558E+03</pdfrwt>
<pdfrwt beam="2">  1       -1 0.43550316E-01 0.12562558E+03</pdfrwt>
<totfact> 0.56504736E+03</totfact>
</mgrwt>
</event>
<event>
 7    1  0.1322199E-005  0.1864108E+03  0.7546771E-02  0.1166630E+00
         -1   -1    0    0    0  501 -0.00000000000E+00  0.00000000000E+00  0.48642463942E+02  0.48642463942E+02  0.00000000000E+00 0.  1.
          1   -1    0    0  501    0  0.00000000000E+00 -0.00000000000E+00 -0.67759298535E+03  0.67759298535E+03  0.00000000000E+00 0. -1.
         23    2    1    2    0    0 -0.80555553042E+02 -0.11240514463E+03 -0.38302909254E+03  0.41764780270E+03  0.92705381230E+02 0.  0.
          5    1    1    2  502    0  0.13951383965E+01 -0.20036599556E+02 -0.31098509437E+01  0.20860798302E+02  0.47000000000E+01 0.  1.
         -5    1    1    2    0  502  0.79160414646E+02  0.13244174418E+03 -0.24281157793E+03  0.28772684829E+03  0.47000000000E+01 0.  1.
        -11    1    3    3    0    0 -0.67992373678E+01 -0.80266769777E+02 -0.13848943313E+03  0.16021331732E+03  0.00000000000E+00 0.  1.
         11    1    3    3    0    0 -0.73756315674E+02 -0.32138374850E+02 -0.24453965941E+03  0.25743448538E+03  0.00000000000E+00 0. -1.
<mgrwt>
<rscale>  0 0.18121716E+03</rscale>
<asrwt>0</asrwt>
<pdfrwt beam="2">  1        1 0.10424507E+00 0.18641080E+03</pdfrwt>
<pdfrwt beam="1">  1       -1 0.74834560E-02 0.18641080E+03</pdfrwt>
<totfact> 0.27887376E+03</totfact>
</mgrwt>
</event>
<event>
 7    1  0.1111284E-005  0.1908953E+03  0.7546771E-02  0.1184707E+00
         -2   -1    0    0    0  501 -0.00000000000E+00  0.00000000000E+00  0.98786348024E+02  0.98786348024E+02  0.00000000000E+00 0.  1.
          2   -1    0    0  501    0  0.00000000000E+00 -0.00000000000E+00 -0.24631688366E+03  0.24631688366E+03  0.00000000000E+00 0. -1.
         23    2    1    2    0    0 -0.32488463283E+02  0.18277344238E+02 -0.10980822859E+03  0.15051652216E+03  0.95957359374E+02 0.  0.
          5    1    1    2  502    0 -0.50328668613E+02 -0.70901985410E+02 -0.41112350277E+02  0.96293207262E+02  0.47000000000E+01 0. -1.
         -5    1    1    2    0  502  0.82817131896E+02  0.52624641172E+02  0.33900432306E+01  0.98293502263E+02  0.47000000000E+01 0.  1.
        -11    1    3    3    0    0 -0.21372950360E+02 -0.11253126701E+02 -0.11589182005E+03  0.11838221920E+03  0.00000000000E+00 0. -1.
         11    1    3    3    0    0 -0.11115512923E+02  0.29530470939E+02  0.60835914652E+01  0.32134302957E+02  0.00000000000E+00 0.  1.
<mgrwt>
<rscale>  0 0.16358603E+03</rscale>
<asrwt>0</asrwt>
<pdfrwt beam="2">  1        2 0.37894905E-01 0.19089530E+03</pdfrwt>
<pdfrwt beam="1">  1       -2 0.15197900E-01 0.19089530E+03</pdfrwt>
<totfact> 0.44379410E+03</totfact>
</mgrwt>
</event>
<event>
 7    1  0.1111284E-005  0.4160147E+03  0.7546771E-02  0.1039113E+00
          2   -1    0    0  501    0  0.00000000000E+00  0.00000000000E+00  0.11401238428E+04  0.11401238428E+04  0.00000000000E+00 0. -1.
         -2   -1    0    0    0  501 -0.00000000000E+00 -0.00000000000E+00 -0.15211386038E+03  0.15211386038E+03  0.00000000000E+00 0.  1.
         23    2    1    2    0    0  0.37373055628E+03  0.13329342052E+03  0.58746044460E+03  0.71473604745E+03  0.91083362373E+02 0.  0.
          5    1    1    2  502    0 -0.27253896252E+03 -0.11986186823E+03  0.22067232685E+03  0.37062476898E+03  0.47000000000E+01 0.  1.
         -5    1    1    2    0  502 -0.10119159376E+03 -0.13431552282E+02  0.17987721094E+03  0.20687688672E+03  0.47000000000E+01 0.  1.
        -11    1    3    3    0    0  0.35873740693E+03  0.14214464102E+03  0.57786387527E+03  0.69485558532E+03  0.00000000000E+00 0. -1.
         11    1    3    3    0    0  0.14993149346E+02 -0.88512204998E+01  0.95965693299E+01  0.19880462131E+02  0.00000000000E+00 0.  1.
<mgrwt>
<rscale>  0 0.41377021E+03</rscale>
<asrwt>0</asrwt>
<pdfrwt beam="1">  1        2 0.17540366E+00 0.41601470E+03</pdfrwt>
<pdfrwt beam="2">  1       -2 0.23402133E-01 0.41601470E+03</pdfrwt>
<totfact> 0.34286273E+02</totfact>
</mgrwt>
</event>
<event>
 7    1  0.1111284E-005  0.1198963E+03  0.7546771E-02  0.1257052E+00
         -1   -1    0    0    0  501 -0.00000000000E+00  0.00000000000E+00  0.18654893695E+03  0.18654893695E+03  0.00000000000E+00 0.  1.
          1   -1    0    0  501    0  0.00000000000E+00 -0.00000000000E+00 -0.62301678420E+02  0.62301678420E+02  0.00000000000E+00 0. -1.
         23    2    1    2    0    0 -0.72043899514E+01  0.20578573371E+02  0.28450685757E+02  0.95383630403E+02  0.88392389447E+02 0.  0.
          5    1    1    2  502    0 -0.46434606920E+01  0.11541829234E+02 -0.24732757067E+02  0.28081574411E+02  0.47000000000E+01 0. -1.
         -5    1    1    2    0  502  0.11847850643E+02 -0.32120402606E+02  0.12052932984E+03  0.12538541055E+03  0.47000000000E+01 0.  1.
        -11    1    3    3    0    0 -0.21724957737E+02 -0.30635391540E+02  0.15278659757E+02  0.40545510817E+02  0.00000000000E+00 0. -1.
         11    1    3    3    0    0  0.14520567786E+02  0.51213964911E+02  0.13172026000E+02  0.54838119585E+02  0.00000000000E+00 0.  1.
<mgrwt>
<rscale>  0 0.11192177E+03</rscale>
<asrwt>0</asrwt>
<pdfrwt beam="2">  1        1 0.95848737E-02 0.11989634E+03</pdfrwt>
<pdfrwt beam="1">  1       -1 0.28699836E-01 0.11989634E+03</pdfrwt>
<totfact> 0.70237919E+03</totfact>
</mgrwt>
</event>
<event>
 7    1  0.1111284E-005  0.1349181E+03  0.7546771E-02  0.1232575E+00
         -2   -1    0    0    0  501 -0.00000000000E+00  0.00000000000E+00  0.42081735453E+02  0.42081735453E+02  0.00000000000E+00 0.  1.
          2   -1    0    0  501    0  0.00000000000E+00 -0.00000000000E+00 -0.34198205560E+03  0.34198205560E+03  0.00000000000E+00 0. -1.
         23    2    1    2    0    0 -0.48283218823E+02  0.15700058857E+02 -0.14174002323E+03  0.17617542706E+03  0.91486533689E+02 0.  0.
          5    1    1    2  502    0 -0.35208336452E+02 -0.66509088894E+01 -0.98071404216E+02  0.10451771079E+03  0.47000000000E+01 0. -1.
         -5    1    1    2    0  502  0.83491555275E+02 -0.90491499680E+01 -0.60088892708E+02  0.10337065321E+03  0.47000000000E+01 0. -1.
        -11    1    3    3    0    0 -0.63750543889E+01  0.21265794062E+02  0.55950537693E+01  0.22894976354E+02  0.00000000000E+00 0.  1.
         11    1    3    3    0    0 -0.41908164434E+02 -0.55657352045E+01 -0.14733507699E+03  0.15328045070E+03  0.00000000000E+00 0. -1.
<mgrwt>
<rscale>  0 0.12660978E+03</rscale>
<asrwt>0</asrwt>
<pdfrwt beam="2">  1        2 0.52612625E-01 0.13491810E+03</pdfrwt>
<pdfrwt beam="1">  1       -2 0.64741130E-02 0.13491810E+03</pdfrwt>
<totfact> 0.11777178E+04</totfact>
</mgrwt>
</event>
<event>
 7    1  0.1111284E-005  0.1549264E+03  0.7546771E-02  0.1202842E+00
          3   -1    0    0  501    0  0.00000000000E+00  0.00000000000E+00  0.17635230181E+03  0.17635230181E+03  0.00000000000E+00 0. -1.
         -3   -1    0    0    0  501 -0.00000000000E+00 -0.00000000000E+00 -0.11563644720E+03  0.11563644720E+03  0.00000000000E+00 0.  1.
         23    2    1    2    0    0  0.83585333132E+02  0.37254567797E+02  0.41766393653E+02  0.13590781762E+03  0.91389783426E+02 0.  0.
          5    1    1    2  502    0 -0.33542894678E+02  0.15128761778E+02  0.61581648620E+02  0.71891547925E+02  0.47000000000E+01 0. -1.
         -5    1    1    2    0  502 -0.50042438454E+02 -0.52383329575E+02 -0.42632187656E+02  0.84189383464E+02  0.47000000000E+01 0. -1.
        -11    1    3    3    0    0  0.49783352555E+02  0.32255957288E+02 -0.22240010266E+02  0.63351772105E+02  0.00000000000E+00 0.  1.
         11    1    3    3    0    0  0.33801980578E+02  0.49986105085E+01  0.64006403919E+02  0.72556045514E+02  0.00000000000E+00 0. -1.
<mgrwt>
<rscale>  0 0.14808792E+03</rscale>
<asrwt>0</asrwt>
<pdfrwt beam="1">  1        3 0.27131123E-01 0.15492635E+03</pdfrwt>
<pdfrwt beam="2">  1       -3 0.17790223E-01 0.15492635E+03</pdfrwt>
<totfact> 0.84077265E+02</totfact>
</mgrwt>
</event>
<event>
 7    1  0.1111284E-005  0.1200815E+03  0.7546771E-02  0.1254533E+00
          1   -1    0    0  501    0  0.00000000000E+00  0.00000000000E+00  0.30605276747E+02  0.30605276747E+02  0.00000000000E+00 0. -1.
         -1   -1    0    0    0  501 -0.00000000000E+00 -0.00000000000E+00 -0.42603885977E+03  0.42603885977E+03  0.00000000000E+00 0.  1.
         23    2    1    2    0    0 -0.21674426511E+02  0.23524801309E+02 -0.10184701781E+03  0.13944916540E+03  0.89722113514E+02 0.  0.
          5    1    1    2  502    0  0.66464224016E+02  0.27653910836E+01 -0.18700505258E+03  0.19853997117E+03  0.47000000000E+01 0. -1.
         -5    1    1    2    0  502 -0.44789797504E+02 -0.26290192393E+02 -0.10658151263E+03  0.11865499995E+03  0.47000000000E+01 0.  1.
        -11    1    3    3    0    0 -0.17839678515E+02  0.57329719219E+02 -0.54087979879E+02  0.80811264083E+02  0.00000000000E+00 0. -1.
         11    1    3    3    0    0 -0.38347479965E+01 -0.33804917910E+02 -0.47759037926E+02  0.58637901316E+02  0.00000000000E+00 0.  1.
<mgrwt>
<rscale>  0 0.11332549E+03</rscale>
<asrwt>0</asrwt>
<pdfrwt beam="1">  1        1 0.47085044E-02 0.12008155E+03</pdfrwt>
<pdfrwt beam="2">  1       -1 0.65544436E-01 0.12008155E+03</pdfrwt>
<totfact> 0.42016222E+03</totfact>
</mgrwt>
</event>
<event>
 7    1  0.1111284E-005  0.1524854E+03  0.7546771E-02  0.1207566E+00
          2   -1    0    0  501    0  0.00000000000E+00  0.00000000000E+00  0.68702198944E+03  0.68702198944E+03  0.00000000000E+00 0. -1.
         -2   -1    0    0    0  501 -0.00000000000E+00 -0.00000000000E+00 -0.29279177090E+02  0.29279177090E+02  0.00000000000E+00 0.  1.
         23    2    1    2    0    0 -0.86849510489E+02  0.90302922086E+01  0.38245542271E+03  0.40160299946E+03  0.85956007169E+02 0.  0.
          5    1    1    2  502    0  0.51641177495E+02  0.14213193631E+02  0.22356740093E+02  0.58230060225E+02  0.47000000000E+01 0.  1.
         -5    1    1    2    0  502  0.35208332994E+02 -0.23243485840E+02  0.25293064955E+03  0.25646810685E+03  0.47000000000E+01 0.  1.
        -11    1    3    3    0    0 -0.16593012732E+02  0.15288497396E+02  0.14212612382E+02  0.26665794098E+02  0.00000000000E+00 0.  1.
         11    1    3    3    0    0 -0.70256497757E+02 -0.62582051874E+01  0.36824281033E+03  0.37493720536E+03  0.00000000000E+00 0. -1.
<mgrwt>
<rscale>  0 0.14437065E+03</rscale>
<asrwt>0</asrwt>
<pdfrwt beam="1">  1        2 0.10569568E+00 0.15248537E+03</pdfrwt>
<pdfrwt beam="2">  1       -2 0.45044893E-02 0.15248537E+03</pdfrwt>
<totfact> 0.95065505E+03</totfact>
</mgrwt>
</event>
<event>
 7    1  0.1111284E-005  0.1630540E+03  0.7546771E-02  0.1192380E+00
         -2   -1    0    0    0  501 -0.00000000000E+00  0.00000000000E+00  0.70419069930E+02  0.70419069930E+02  0.00000000000E+00 0.  1.
          2   -1    0    0  501    0  0.00000000000E+00 -0.00000000000E+00 -0.32752094613E+03  0.32752094613E+03  0.00000000000E+00 0. -1.
         23    2    1    2    0    0 -0.98380783154E+02  0.35817945008E+02 -0.10017145424E+03  0.17163546755E+03  0.91992987768E+02 0.  0.
          5    1    1    2  502    0  0.49035240560E+02  0.10586122955E+02 -0.14978200082E+03  0.15802929661E+03  0.47000000000E+01 0.  1.
         -5    1    1    2    0  502  0.49345542593E+02 -0.46404067963E+02 -0.71484211379E+01  0.68275251901E+02  0.47000000000E+01 0.  1.
        -11    1    3    3    0    0  0.91924143783E+01  0.73144464688E+01 -0.46728809135E+02  0.48182810342E+02  0.00000000000E+00 0. -1.
         11    1    3    3    0    0 -0.10757319753E+03  0.28503498539E+02 -0.53442645103E+02  0.12345265721E+03  0.00000000000E+00 0.  1.
<mgrwt>
<rscale>  0 0.15678048E+03</rscale>
<asrwt>0</asrwt>
<pdfrwt beam="2">  1        2 0.50387838E-01 0.16305395E+03</pdfrwt>
<pdfrwt beam="1">  1       -2 0.10833703E-01 0.16305395E+03</pdfrwt>
<totfact> 0.56107636E+03</totfact>
</mgrwt>
</event>
<event>
 7    1  0.1111284E-005  0.1405808E+03  0.7546771E-02  0.1224287E+00
          1   -1    0    0  501    0  0.00000000000E+00  0.00000000000E+00  0.55442697722E+02  0.55442697722E+02  0.00000000000E+00 0. -1.
         -1   -1    0    0    0  501 -0.00000000000E+00 -0.00000000000E+00 -0.45909961297E+03  0.45909961297E+03  0.00000000000E+00 0.  1.
         23    2    1    2    0    0 -0.38438884293E+02 -0.51578607663E+02 -0.27814484782E+02  0.11326871283E+03  0.88984578145E+02 0.  0.
          5    1    1    2  502    0  0.43135296852E+02 -0.94032276490E+01 -0.30213348538E+03  0.30537813856E+03  0.47000000000E+01 0. -1.
         -5    1    1    2    0  502 -0.46964125592E+01  0.60981835312E+02 -0.73708945085E+02  0.95895459301E+02  0.47000000000E+01 0. -1.
        -11    1    3    3    0    0 -0.58981041954E+02 -0.36271495364E+02 -0.44855106268E+02  0.82500698447E+02  0.00000000000E+00 0.  1.
         11    1    3    3    0    0  0.20542157660E+02 -0.15307112299E+02  0.17040621486E+02  0.30768014380E+02  0.00000000000E+00 0. -1.
<mgrwt>
<rscale>  0 0.13215867E+03</rscale>
<asrwt>0</asrwt>
<pdfrwt beam="1">  1        1 0.85296457E-02 0.14058082E+03</pdfrwt>
<pdfrwt beam="2">  1       -1 0.70630710E-01 0.14058082E+03</pdfrwt>
<totfact> 0.16387386E+03</totfact>
</mgrwt>
</event>
<event>
 7    1  0.1111284E-005  0.1386907E+03  0.7546771E-02  0.1226657E+00
         -2   -1    0    0    0  501 -0.00000000000E+00  0.00000000000E+00  0.11824973107E+03  0.11824973107E+03  0.00000000000E+00 0.  1.
          2   -1    0    0  501    0  0.00000000000E+00 -0.00000000000E+00 -0.14678207751E+03  0.14678207751E+03  0.00000000000E+00 0. -1.
         23    2    1    2    0    0 -0.23974257698E+02  0.55101916965E+02 -0.57861672529E+02  0.12327381908E+03  0.90760536779E+02 0.  0.
          5    1    1    2  502    0  0.53824995911E+02 -0.61502374848E+02 -0.19336528385E+02  0.84116963965E+02  0.47000000000E+01 0. -1.
         -5    1    1    2    0  502 -0.29850738212E+02  0.64004578834E+01  0.48665854482E+02  0.57641025541E+02  0.47000000000E+01 0. -1.
        -11    1    3    3    0    0  0.32570417919E+02  0.11344536294E+02 -0.32559527461E+02  0.47430511863E+02  0.00000000000E+00 0.  1.
         11    1    3    3    0    0 -0.56544675617E+02  0.43757380671E+02 -0.25302145068E+02  0.75843307212E+02  0.00000000000E+00 0. -1.
<mgrwt>
<rscale>  0 0.13053991E+03</rscale>
<asrwt>0</asrwt>
<pdfrwt beam="2">  1        2 0.22581858E-01 0.13869073E+03</pdfrwt>
<pdfrwt beam="1">  1       -2 0.18192266E-01 0.13869073E+03</pdfrwt>
<totfact> 0.56932076E+03</totfact>
</mgrwt>
</event>
<event>
 7    1  0.1111284E-005  0.3493204E+03  0.7546771E-02  0.1064059E+00
         -2   -1    0    0    0  501 -0.00000000000E+00  0.00000000000E+00  0.33135474506E+03  0.33135474506E+03  0.00000000000E+00 0.  1.
          2   -1    0    0  501    0  0.00000000000E+00 -0.00000000000E+00 -0.42391230089E+03  0.42391230089E+03  0.00000000000E+00 0. -1.
         23    2    1    2    0    0  0.72775953679E+02 -0.31796906289E+03 -0.19608447567E+03  0.39092854882E+03  0.89304783134E+02 0.  0.
          5    1    1    2  502    0 -0.61386757367E+02  0.12566384943E+03  0.99308984086E+02  0.17159283597E+03  0.47000000000E+01 0.  1.
         -5    1    1    2    0  502 -0.11389196312E+02  0.19230521346E+03  0.42179357641E+01  0.19274566116E+03  0.47000000000E+01 0.  1.
        -11    1    3    3    0    0  0.30475645929E+02 -0.16090430057E+03 -0.47235134490E+02  0.17044094833E+03  0.00000000000E+00 0.  1.
         11    1    3    3    0    0  0.42300307751E+02 -0.15706476232E+03 -0.14884934118E+03  0.22048760049E+03  0.00000000000E+00 0. -1.
<mgrwt>
<rscale>  0 0.34650523E+03</rscale>
<asrwt>0</asrwt>
<pdfrwt beam="2">  1        2 0.65217277E-01 0.34932036E+03</pdfrwt>
<pdfrwt beam="1">  1       -2 0.50977653E-01 0.34932036E+03</pdfrwt>
<totfact> 0.27745637E+02</totfact>
</mgrwt>
</event>
<event>
 7    1  0.1111284E-005  0.1275689E+03  0.7546771E-02  0.1246636E+00
         -2   -1    0    0    0  501 -0.00000000000E+00  0.00000000000E+00  0.48099822916E+02  0.48099822916E+02  0.00000000000E+00 0.  1.
          2   -1    0    0  501    0  0.00000000000E+00 -0.00000000000E+00 -0.31180342273E+03  0.31180342273E+03  0.00000000000E+00 0. -1.
         23    2    1    2    0    0 -0.29527146299E+01 -0.25295829521E+02 -0.19253896818E+03  0.21382716441E+03  0.89455041534E+02 0.  0.
          5    1    1    2  502    0  0.62544898168E+02  0.22300542435E+02 -0.27671996289E+02  0.72090275755E+02  0.47000000000E+01 0.  1.
         -5    1    1    2    0  502 -0.59592183538E+02  0.29952870859E+01 -0.43492635342E+02  0.73985805480E+02  0.47000000000E+01 0.  1.
        -11    1    3    3    0    0  0.42070304731E+02 -0.13489965231E+02 -0.11742364178E+03  0.12545995916E+03  0.00000000000E+00 0.  1.
         11    1    3    3    0    0 -0.45023019361E+02 -0.11805864290E+02 -0.75115326397E+02  0.88367205251E+02  0.00000000000E+00 0. -1.
<mgrwt>
<rscale>  0 0.11788012E+03</rscale>
<asrwt>0</asrwt>
<pdfrwt beam="2">  1        2 0.47969756E-01 0.12756887E+03</pdfrwt>
<pdfrwt beam="1">  1       -2 0.73999730E-02 0.12756887E+03</pdfrwt>
<totfact> 0.10542126E+04</totfact>
</mgrwt>
</event>
<event>
 7    1  0.1111284E-005  0.1266279E+03  0.7546771E-02  0.1247630E+00
         -1   -1    0    0    0  501 -0.00000000000E+00  0.00000000000E+00  0.10322127657E+03  0.10322127657E+03  0.00000000000E+00 0.  1.
          1   -1    0    0  501    0  0.00000000000E+00 -0.00000000000E+00 -0.12719197818E+03  0.12719197818E+03  0.00000000000E+00 0. -1.
         23    2    1    2    0    0  0.78341009208E+01 -0.18773126257E+02 -0.42475797400E+02  0.10244039117E+03  0.90972726526E+02 0.  0.
          5    1    1    2  502    0 -0.52155494828E+02 -0.22294041571E+02  0.32820341785E+02  0.65699960161E+02  0.47000000000E+01 0.  1.
         -5    1    1    2    0  502  0.44321393907E+02  0.41067167828E+02 -0.14315245998E+02  0.62272903412E+02  0.47000000000E+01 0.  1.
        -11    1    3    3    0    0 -0.20575962156E+02 -0.32555829296E+02  0.11249747752E+02  0.40122425952E+02  0.00000000000E+00 0.  1.
         11    1    3    3    0    0  0.28410063077E+02  0.13782703039E+02 -0.53725545152E+02  0.62317965218E+02  0.00000000000E+00 0. -1.
<mgrwt>
<rscale>  0 0.11729336E+03</rscale>
<asrwt>0</asrwt>
<pdfrwt beam="2">  1        1 0.19567997E-01 0.12662786E+03</pdfrwt>
<pdfrwt beam="1">  1       -1 0.15880196E-01 0.12662786E+03</pdfrwt>
<totfact> 0.72594434E+03</totfact>
</mgrwt>
</event>
<event>
 7    1  0.1111284E-005  0.1920935E+03  0.7546771E-02  0.1162058E+00
          1   -1    0    0  501    0  0.00000000000E+00  0.00000000000E+00  0.15844639645E+03  0.15844639645E+03  0.00000000000E+00 0. -1.
         -1   -1    0    0    0  501 -0.00000000000E+00 -0.00000000000E+00 -0.22034855807E+03  0.22034855807E+03  0.00000000000E+00 0.  1.
         23    2    1    2    0    0  0.51014247614E+01 -0.14576980829E+03 -0.77620597998E+02  0.18605941955E+03  0.85546997752E+02 0.  0.
          5    1    1    2  502    0  0.42449538247E+01  0.16057186008E+03  0.36877915313E+02  0.16487392917E+03  0.47000000000E+01 0.  1.
         -5    1    1    2    0  502 -0.93463785861E+01 -0.14802051782E+02 -0.21159478933E+02  0.27861605810E+02  0.47000000000E+01 0.  1.
        -11    1    3    3    0    0 -0.26164920071E+02 -0.10346923023E+03 -0.80035798736E+02  0.13340245023E+03  0.00000000000E+00 0.  1.
         11    1    3    3    0    0  0.31266344832E+02 -0.42300578062E+02  0.24152007380E+01  0.52656969322E+02  0.00000000000E+00 0. -1.
<mgrwt>
<rscale>  0 0.18606611E+03</rscale>
<asrwt>0</asrwt>
<pdfrwt beam="1">  1        1 0.24376369E-01 0.19209351E+03</pdfrwt>
<pdfrwt beam="2">  1       -1 0.33899778E-01 0.19209351E+03</pdfrwt>
<totfact> 0.16181319E+03</totfact>
</mgrwt>
</event>
<event>
 7    1  0.1111284E-005  0.1585070E+03  0.7546771E-02  0.1197905E+00
         -1   -1    0    0    0  501 -0.00000000000E+00  0.00000000000E+00  0.10591315449E+03  0.10591315449E+03  0.00000000000E+00 0.  1.
          1   -1    0    0  501    0  0.00000000000E+00 -0.00000000000E+00 -0.20412737949E+03  0.20412737949E+03  0.00000000000E+00 0. -1.
         23    2    1    2    0    0 -0.89992329521E+02  0.37426870550E+02 -0.58713635610E+02  0.14668578410E+03  0.92574501013E+02 0.  0.
          5    1    1    2  502    0  0.47928691951E+02 -0.67884492206E+02  0.18600778634E+02  0.85285067626E+02  0.47000000000E+01 0. -1.
         -5    1    1    2    0  502  0.42063637571E+02  0.30457621656E+02 -0.58101368019E+02  0.78069682261E+02  0.47000000000E+01 0. -1.
        -11    1    3    3    0    0 -0.97762207371E+02  0.22240987621E+02 -0.17095260259E+02  0.10170722021E+03  0.00000000000E+00 0.  1.
         11    1    3    3    0    0  0.77698778494E+01  0.15185882928E+02 -0.41618375352E+02  0.44978563883E+02  0.00000000000E+00 0. -1.
<mgrwt>
<rscale>  0 0.15210884E+03</rscale>
<asrwt>0</asrwt>
<pdfrwt beam="2">  1        1 0.31404212E-01 0.15850703E+03</pdfrwt>
<pdfrwt beam="1">  1       -1 0.16294332E-01 0.15850703E+03</pdfrwt>
<totfact> 0.38991527E+03</totfact>
</mgrwt>
</event>
<event>
 7    1  0.1111284E-005  0.1507932E+03  0.7546771E-02  0.1208313E+00
         -2   -1    0    0    0  501 -0.00000000000E+00  0.00000000000E+00  0.21265183677E+02  0.21265183677E+02  0.00000000000E+00 0.  1.
          2   -1    0    0  501    0  0.00000000000E+00 -0.00000000000E+00 -0.91977432529E+03  0.91977432529E+03  0.00000000000E+00 0. -1.
         23    2    1    2    0    0 -0.54987786527E+02 -0.63929111604E+02 -0.32680786282E+03  0.34978579760E+03  0.91848445973E+02 0.  0.
          5    1    1    2  502    0  0.52452461393E+02 -0.15205858430E+02 -0.37783175034E+03  0.38178711398E+03  0.47000000000E+01 0. -1.
         -5    1    1    2    0  502  0.25353251336E+01  0.79134970034E+02 -0.19386952845E+03  0.20946659738E+03  0.47000000000E+01 0. -1.
        -11    1    3    3    0    0 -0.67791092510E+02 -0.99249424226E+01 -0.16233633676E+03  0.17620222172E+03  0.00000000000E+00 0.  1.
         11    1    3    3    0    0  0.12803305984E+02 -0.54004169181E+02 -0.16447152606E+03  0.17358357589E+03  0.00000000000E+00 0. -1.
<mgrwt>
<rscale>  0 0.14379416E+03</rscale>
<asrwt>0</asrwt>
<pdfrwt beam="2">  1        2 0.14150378E+00 0.15079323E+03</pdfrwt>
<pdfrwt beam="1">  1       -2 0.32715659E-02 0.15079323E+03</pdfrwt>
<totfact> 0.10618007E+04</totfact>
</mgrwt>
</event>
<event>
 7    1  0.1111284E-005  0.1414671E+03  0.7546771E-02  0.1222363E+00
         -1   -1    0    0    0  501 -0.00000000000E+00  0.00000000000E+00  0.32991241526E+02  0.32991241526E+02  0.00000000000E+00 0.  1.
          1   -1    0    0  501    0  0.00000000000E+00 -0.00000000000E+00 -0.52974609982E+03  0.52974609982E+03  0.00000000000E+00 0. -1.
         23    2    1    2    0    0 -0.39347863058E+02 -0.53290862073E+02 -0.30095962418E+03  0.32118254296E+03  0.90517181845E+02 0.  0.
          5    1    1    2  502    0  0.79063332815E+02  0.39836557469E+02 -0.17099310641E+03  0.19261021351E+03  0.47000000000E+01 0. -1.
         -5    1    1    2    0  502 -0.39715469757E+02  0.13454304604E+02 -0.24802127705E+02  0.48944584880E+02  0.47000000000E+01 0. -1.
        -11    1    3    3    0    0  0.21801050670E+01 -0.36361252721E+02 -0.31927436977E+02  0.48438154274E+02  0.00000000000E+00 0.  1.
         11    1    3    3    0    0 -0.41527968125E+02 -0.16929609351E+02 -0.26903218720E+03  0.27274438869E+03  0.00000000000E+00 0. -1.
<mgrwt>
<rscale>  0 0.13349295E+03</rscale>
<asrwt>0</asrwt>
<pdfrwt beam="2">  1        1 0.81499402E-01 0.14146712E+03</pdfrwt>
<pdfrwt beam="1">  1       -1 0.50755755E-02 0.14146712E+03</pdfrwt>
<totfact> 0.69115062E+03</totfact>
</mgrwt>
</event>
<event>
 7    1  0.1111284E-005  0.1370666E+03  0.7546771E-02  0.1229006E+00
         -3   -1    0    0    0  501 -0.00000000000E+00  0.00000000000E+00  0.18672778184E+03  0.18672778184E+03  0.00000000000E+00 0.  1.
          3   -1    0    0  501    0  0.00000000000E+00 -0.00000000000E+00 -0.82441628743E+02  0.82441628743E+02  0.00000000000E+00 0. -1.
         23    2    1    2    0    0 -0.48221606439E+02 -0.28920388125E+02  0.68907646663E+02  0.12761060893E+03  0.91512248181E+02 0.  0.
          5    1    1    2  502    0  0.50639331794E+02  0.82229889650E+01 -0.38717827115E+02  0.64444701943E+02  0.47000000000E+01 0.  1.
         -5    1    1    2    0  502 -0.24177253552E+01  0.20697399160E+02  0.74096333545E+02  0.77114099701E+02  0.47000000000E+01 0.  1.
        -11    1    3    3    0    0 -0.26295363618E+02 -0.18474874967E+02 -0.18370110756E+02  0.37016592523E+02  0.00000000000E+00 0. -1.
         11    1    3    3    0    0 -0.21926242821E+02 -0.10445513159E+02  0.87277757419E+02  0.90594016411E+02  0.00000000000E+00 0.  1.
<mgrwt>
<rscale>  0 0.12896047E+03</rscale>
<asrwt>0</asrwt>
<pdfrwt beam="2">  1        3 0.12683328E-01 0.13706661E+03</pdfrwt>
<pdfrwt beam="1">  1       -3 0.28727351E-01 0.13706661E+03</pdfrwt>
<totfact> 0.13263228E+03</totfact>
</mgrwt>
</event>
<event>
 7    1  0.1111284E-005  0.1168430E+03  0.7546771E-02  0.1257971E+00
         -1   -1    0    0    0  501 -0.00000000000E+00  0.00000000000E+00  0.35831474209E+03  0.35831474209E+03  0.00000000000E+00 0.  1.
          1   -1    0    0  501    0  0.00000000000E+00 -0.00000000000E+00 -0.81097106621E+02  0.81097106621E+02  0.00000000000E+00 0. -1.
         23    2    1    2    0    0  0.27566436598E+02  0.12724814717E+02 -0.37563269971E+02  0.10364510085E+03  0.91703207922E+02 0.  0.
          5    1    1    2  502    0  0.11022458162E+02  0.47197168281E+01 -0.45098755882E+01  0.13645486019E+02  0.47000000000E+01 0. -1.
         -5    1    1    2    0  502 -0.38588894761E+02 -0.17444531545E+02  0.31929078103E+03  0.32212126184E+03  0.47000000000E+01 0.  1.
        -11    1    3    3    0    0 -0.22411883743E+02  0.27083188264E+02  0.61802774951E+01  0.35692960782E+02  0.00000000000E+00 0.  1.
         11    1    3    3    0    0  0.49978320341E+02 -0.14358373547E+02 -0.43743547466E+02  0.67952140069E+02  0.00000000000E+00 0. -1.
<mgrwt>
<rscale>  0 0.11141531E+03</rscale>
<asrwt>0</asrwt>
<pdfrwt beam="2">  1        1 0.12476478E-01 0.11684302E+03</pdfrwt>
<pdfrwt beam="1">  1       -1 0.55125344E-01 0.11684302E+03</pdfrwt>
<totfact> 0.15827823E+03</totfact>
</mgrwt>
</event>
<event>
 7    1  0.1111284E-005  0.1916029E+03  0.7546771E-02  0.1161791E+00
          1   -1    0    0  501    0  0.00000000000E+00  0.00000000000E+00  0.71195775057E+02  0.71195775057E+02  0.00000000000E+00 0. -1.
         -1   -1    0    0    0  501 -0.00000000000E+00 -0.00000000000E+00 -0.46579540813E+03  0.46579540813E+03  0.00000000000E+00 0.  1.
         23    2    1    2    0    0  0.14409552917E+03  0.18061644095E+02 -0.16511243582E+03  0.23803292020E+03  0.91147189318E+02 0.  0.
          5    1    1    2  502    0 -0.15449094024E+03 -0.61909324541E+01 -0.14214784744E+03  0.21008064830E+03  0.47000000000E+01 0. -1.
         -5    1    1    2    0  502  0.10395411065E+02 -0.11870711641E+02 -0.87339349820E+02  0.88877614691E+02  0.47000000000E+01 0. -1.
        -11    1    3    3    0    0  0.11893185835E+02  0.28146001879E+02 -0.65236696675E+02  0.72037989173E+02  0.00000000000E+00 0.  1.
         11    1    3    3    0    0  0.13220234334E+03 -0.10084357785E+02 -0.99875739145E+02  0.16599493102E+03  0.00000000000E+00 0. -1.
<mgrwt>
<rscale>  0 0.18635474E+03</rscale>
<asrwt>0</asrwt>
<pdfrwt beam="1">  1        1 0.10953196E-01 0.19160289E+03</pdfrwt>
<pdfrwt beam="2">  1       -1 0.71660831E-01 0.19160289E+03</pdfrwt>
<totfact> 0.11509177E+03</totfact>
</mgrwt>
</event>
<event>
 7    1  0.1111284E-005  0.1360007E+03  0.7546771E-02  0.1228552E+00
         -2   -1    0    0    0  501 -0.00000000000E+00  0.00000000000E+00  0.61720115868E+02  0.61720115868E+02  0.00000000000E+00 0.  1.
          2   -1    0    0  501    0  0.00000000000E+00 -0.00000000000E+00 -0.30624733340E+03  0.30624733340E+03  0.00000000000E+00 0. -1.
         23    2    1    2    0    0  0.51187015411E+02  0.15836116358E+02 -0.19279298303E+03  0.22245928927E+03  0.97201378329E+02 0.  0.
          5    1    1    2  502    0  0.28318611158E+01 -0.74446600836E+01  0.38667635043E+02  0.39758249470E+02  0.47000000000E+01 0.  1.
         -5    1    1    2    0  502 -0.54018876527E+02 -0.83914562744E+01 -0.90401869545E+02  0.10574991053E+03  0.47000000000E+01 0.  1.
        -11    1    3    3    0    0  0.18932035269E+02  0.34353329359E+02 -0.17826627721E+03  0.18253065164E+03  0.00000000000E+00 0. -1.
         11    1    3    3    0    0  0.32254980142E+02 -0.18517213001E+02 -0.14526705824E+02  0.39928637635E+02  0.00000000000E+00 0.  1.
<mgrwt>
<rscale>  0 0.12926407E+03</rscale>
<asrwt>0</asrwt>
<pdfrwt beam="2">  1        2 0.47114974E-01 0.13600071E+03</pdfrwt>
<pdfrwt beam="1">  1       -2 0.94954025E-02 0.13600071E+03</pdfrwt>
<totfact> 0.73368463E+03</totfact>
</mgrwt>
</event>
<event>
 7    1  0.1111284E-005  0.1972641E+03  0.7546771E-02  0.1155588E+00
          2   -1    0    0  501    0  0.00000000000E+00  0.00000000000E+00  0.82727898965E+03  0.82727898965E+03  0.00000000000E+00 0. -1.
         -2   -1    0    0    0  501 -0.00000000000E+00 -0.00000000000E+00 -0.46907430926E+02  0.46907430926E+02  0.00000000000E+00 0.  1.
         23    2    1    2    0    0  0.40132714354E+02 -0.14723670048E+03  0.49514419045E+03  0.52738997275E+03  0.98402913047E+02 0.  0.
          5    1    1    2  502    0 -0.19576917004E+02  0.16621388337E+03  0.25737152425E+03  0.30703827481E+03  0.47000000000E+01 0. -1.
         -5    1    1    2    0  502 -0.20555797349E+02 -0.18977182890E+02  0.27855844028E+02  0.39758173017E+02  0.47000000000E+01 0. -1.
        -11    1    3    3    0    0 -0.99578459241E+01 -0.12570678073E+03  0.31974824232E+03  0.34371542282E+03  0.00000000000E+00 0.  1.
         11    1    3    3    0    0  0.50090560278E+02 -0.21529919746E+02  0.17539594812E+03  0.18367454993E+03  0.00000000000E+00 0. -1.
<mgrwt>
<rscale>  0 0.19322125E+03</rscale>
<asrwt>0</asrwt>
<pdfrwt beam="1">  1        2 0.12727368E+00 0.19726410E+03</pdfrwt>
<pdfrwt beam="2">  1       -2 0.72165284E-02 0.19726410E+03</pdfrwt>
<totfact> 0.37341622E+03</totfact>
</mgrwt>
</event>
<event>
 7    1  0.2367493E-005  0.2296876E+03  0.7546771E-02  0.1129920E+00
         -1   -1    0    0    0  501 -0.00000000000E+00  0.00000000000E+00  0.14855780661E+03  0.14855780661E+03  0.00000000000E+00 0.  1.
          1   -1    0    0  501    0  0.00000000000E+00 -0.00000000000E+00 -0.33174662574E+03  0.33174662574E+03  0.00000000000E+00 0. -1.
         23    2    1    2    0    0  0.19079337357E+03  0.27007185289E+02 -0.10651700283E+03  0.23815788817E+03  0.90784405869E+02 0.  0.
          5    1    1    2  502    0 -0.13196293208E+03 -0.21249380655E+02 -0.11084352302E+03  0.17370701833E+03  0.47000000000E+01 0.  1.
         -5    1    1    2    0  502 -0.58830441485E+02 -0.57578046341E+01  0.34171706719E+02  0.68439525858E+02  0.47000000000E+01 0.  1.
        -11    1    3    3    0    0  0.14259052198E+03  0.29792028239E+01 -0.31921082459E+02  0.14615022447E+03  0.00000000000E+00 0.  1.
         11    1    3    3    0    0  0.48202851589E+02  0.24027982466E+02 -0.74595920368E+02  0.92007663693E+02  0.00000000000E+00 0. -1.
<mgrwt>
<rscale>  0 0.22539962E+03</rscale>
<asrwt>0</asrwt>
<pdfrwt beam="2">  1        1 0.51037942E-01 0.22968757E+03</pdfrwt>
<pdfrwt beam="1">  1       -1 0.22855047E-01 0.22968757E+03</pdfrwt>
<totfact> 0.12444820E+03</totfact>
</mgrwt>
</event>
<event>
 7    1  0.1111284E-005  0.1275981E+03  0.7546771E-02  0.1245972E+00
          1   -1    0    0  501    0  0.00000000000E+00  0.00000000000E+00  0.40501419041E+03  0.40501419041E+03  0.00000000000E+00 0. -1.
         -1   -1    0    0    0  501 -0.00000000000E+00 -0.00000000000E+00 -0.52639489106E+02  0.52639489106E+02  0.00000000000E+00 0.  1.
         23    2    1    2    0    0 -0.21258425622E+02  0.14335602234E+02  0.30875835214E+03  0.32280683401E+03  0.90637199415E+02 0.  0.
          5    1    1    2  502    0 -0.47575523186E+01 -0.38850260009E+02  0.76493022854E+02  0.86053759663E+02  0.47000000000E+01 0. -1.
         -5    1    1    2    0  502  0.26015977940E+02  0.24514657775E+02 -0.32876673683E+02  0.48793085847E+02  0.47000000000E+01 0. -1.
        -11    1    3    3    0    0  0.21213959194E+02 -0.24223597433E+02  0.66999252828E+02  0.74335150614E+02  0.00000000000E+00 0.  1.
         11    1    3    3    0    0 -0.42472384816E+02  0.38559199667E+02  0.24175909931E+03  0.24847168340E+03  0.00000000000E+00 0. -1.
<mgrwt>
<rscale>  0 0.11827398E+03</rscale>
<asrwt>0</asrwt>
<pdfrwt beam="1">  1        1 0.62309873E-01 0.12759814E+03</pdfrwt>
<pdfrwt beam="2">  1       -1 0.80983832E-02 0.12759814E+03</pdfrwt>
<totfact> 0.48313465E+03</totfact>
</mgrwt>
</event>
<event>
 7    1  0.1111284E-005  0.1638424E+03  0.7546771E-02  0.1207852E+00
         -2   -1    0    0    0  501 -0.00000000000E+00  0.00000000000E+00  0.18896985851E+02  0.18896985851E+02  0.00000000000E+00 0.  1.
          2   -1    0    0  501    0  0.00000000000E+00 -0.00000000000E+00 -0.90835963183E+03  0.90835963183E+03  0.00000000000E+00 0. -1.
         23    2    1    2    0    0  0.94485433569E+01  0.35238593076E+02 -0.33908525396E+03  0.35300963330E+03  0.91137030539E+02 0.  0.
          5    1    1    2  502    0 -0.51018343140E+02 -0.32657061745E+02 -0.51729261026E+03  0.52084843251E+03  0.47000000000E+01 0. -1.
         -5    1    1    2    0  502  0.41569799783E+02 -0.25815313309E+01 -0.33084781761E+02  0.53398551874E+02  0.47000000000E+01 0.  1.
        -11    1    3    3    0    0  0.45063078663E+02 -0.25465596856E+01 -0.18434352336E+03  0.18978856823E+03  0.00000000000E+00 0.  1.
         11    1    3    3    0    0 -0.35614535306E+02  0.37785152762E+02 -0.15474173060E+03  0.16322106508E+03  0.00000000000E+00 0. -1.
<mgrwt>
<rscale>  0 0.14414924E+03</rscale>
<asrwt>0</asrwt>
<pdfrwt beam="2">  1        2 0.13974759E+00 0.16384238E+03</pdfrwt>
<pdfrwt beam="1">  1       -2 0.29072295E-02 0.16384238E+03</pdfrwt>
<totfact> 0.12913340E+04</totfact>
</mgrwt>
</event>
<event>
 7    1  0.1111284E-005  0.1446406E+03  0.7546771E-02  0.1217871E+00
         -1   -1    0    0    0  501 -0.00000000000E+00  0.00000000000E+00  0.57015937129E+02  0.57015937129E+02  0.00000000000E+00 0.  1.
          1   -1    0    0  501    0  0.00000000000E+00 -0.00000000000E+00 -0.32072721918E+03  0.32072721918E+03  0.00000000000E+00 0. -1.
         23    2    1    2    0    0  0.71963535843E+02  0.10957705431E+02 -0.16990661246E+03  0.20534764774E+03  0.89445948335E+02 0.  0.
          5    1    1    2  502    0 -0.25120629262E+02 -0.66626643970E+02 -0.52596093416E+02  0.88648715410E+02  0.47000000000E+01 0.  1.
         -5    1    1    2    0  502 -0.46842906582E+02  0.55668938539E+02 -0.41208576176E+02  0.83746793166E+02  0.47000000000E+01 0.  1.
        -11    1    3    3    0    0  0.29673856074E+02  0.34214407202E+02 -0.23159243882E+02  0.50867612208E+02  0.00000000000E+00 0.  1.
         11    1    3    3    0    0  0.42289679769E+02 -0.23256701771E+02 -0.14674736858E+03  0.15448003553E+03  0.00000000000E+00 0. -1.
<mgrwt>
<rscale>  0 0.13667737E+03</rscale>
<asrwt>0</asrwt>
<pdfrwt beam="2">  1        1 0.49342649E-01 0.14464057E+03</pdfrwt>
<pdfrwt beam="1">  1       -1 0.87716826E-02 0.14464057E+03</pdfrwt>
<totfact> 0.57731642E+03</totfact>
</mgrwt>
</event>
<event>
 6    1  0.1111284E-005  0.1251762E+03  0.7546771E-02  0.1281587E+00
         -3   -1    0    0    0  501 -0.00000000000E+00  0.00000000000E+00  0.11034113492E+03  0.11034113492E+03  0.00000000000E+00 0.  1.
          3   -1    0    0  501    0  0.00000000000E+00 -0.00000000000E+00 -0.75015564582E+02  0.75015564582E+02  0.00000000000E+00 0. -1.
          5    1    1    2  502    0 -0.27211573368E+02 -0.28571281479E+02 -0.25571385077E+02  0.47252233654E+02  0.47000000000E+01 0.  1.
         -5    1    1    2    0  502  0.33282715830E+02  0.31622085644E+02  0.73497242164E+02  0.86784964592E+02  0.47000000000E+01 0.  1.
        -11    1    1    2    0    0 -0.14847726285E+02  0.13419247427E+02 -0.22566521025E+02  0.30162543800E+02  0.00000000000E+00 0. -1.
         11    1    1    2    0    0  0.87765838227E+01 -0.16470051592E+02  0.99662342706E+01  0.21156957451E+02  0.00000000000E+00 0.  1.
<mgrwt>
<rscale>  0 0.99388600E+02</rscale>
<asrwt>0</asrwt>
<pdfrwt beam="2">  1        3 0.11540856E-01 0.12517621E+03</pdfrwt>
<pdfrwt beam="1">  1       -3 0.16975559E-01 0.12517621E+03</pdfrwt>
<totfact> 0.39000728E+03</totfact>
</mgrwt>
</event>
<event>
 7    1  0.1111284E-005  0.1342924E+03  0.7546771E-02  0.1234326E+00
          1   -1    0    0  501    0  0.00000000000E+00  0.00000000000E+00  0.16627562143E+03  0.16627562143E+03  0.00000000000E+00 0.  1.
         -1   -1    0    0    0  501 -0.00000000000E+00 -0.00000000000E+00 -0.94975977568E+02  0.94975977568E+02  0.00000000000E+00 0. -1.
         23    2    1    2    0    0 -0.37769360079E+02  0.31360851079E+02  0.75029692686E+02  0.12690745425E+03  0.89811021700E+02 0.  0.
          5    1    1    2  502    0 -0.13026206766E+02 -0.40341135405E+02  0.45865128240E+02  0.62632174295E+02  0.47000000000E+01 0. -1.
         -5    1    1    2    0  502  0.50795566846E+02  0.89802843254E+01 -0.49595177066E+02  0.71711970451E+02  0.47000000000E+01 0. -1.
        -11    1    3    3    0    0 -0.35797704736E+02 -0.26671143995E+01  0.84265812508E+02  0.91593211108E+02  0.00000000000E+00 0.  1.
         11    1    3    3    0    0 -0.19716553432E+01  0.34027965479E+02 -0.92361198211E+01  0.35314243143E+02  0.00000000000E+00 0. -1.
<mgrwt>
<rscale>  0 0.12547672E+03</rscale>
<asrwt>0</asrwt>
<pdfrwt beam="1">  1        1 0.25580865E-01 0.13429235E+03</pdfrwt>
<pdfrwt beam="2">  1       -1 0.14611689E-01 0.13429235E+03</pdfrwt>
<totfact> 0.59236732E+03</totfact>
</mgrwt>
</event>
<event>
 7    1  0.1111284E-005  0.1940815E+03  0.7546771E-02  0.1159954E+00
         -1   -1    0    0    0  501 -0.00000000000E+00  0.00000000000E+00  0.23395974974E+03  0.23395974974E+03  0.00000000000E+00 0.  1.
          1   -1    0    0  501    0  0.00000000000E+00 -0.00000000000E+00 -0.14359003745E+03  0.14359003745E+03  0.00000000000E+00 0. -1.
         23    2    1    2    0    0 -0.36239755645E+02 -0.14396867393E+03  0.34525929626E+02  0.17559398944E+03  0.87183199921E+02 0.  0.
          5    1    1    2  502    0 -0.23782185450E+02  0.10504859419E+03  0.70457641602E+02  0.12879118272E+03  0.47000000000E+01 0. -1.
         -5    1    1    2    0  502  0.60021941095E+02  0.38920079732E+02 -0.14613858938E+02  0.73164615029E+02  0.47000000000E+01 0. -1.
        -11    1    3    3    0    0 -0.51563676714E+02 -0.39496125797E+02  0.24916732363E+02  0.69567235541E+02  0.00000000000E+00 0.  1.
         11    1    3    3    0    0  0.15323921068E+02 -0.10447254813E+03  0.96091972626E+01  0.10602675390E+03  0.00000000000E+00 0. -1.
<mgrwt>
<rscale>  0 0.18835408E+03</rscale>
<asrwt>0</asrwt>
<pdfrwt beam="2">  1        1 0.22090775E-01 0.19408147E+03</pdfrwt>
<pdfrwt beam="1">  1       -1 0.35993808E-01 0.19408147E+03</pdfrwt>
<totfact> 0.16539393E+03</totfact>
</mgrwt>
</event>
<event>
 7    1  0.1111284E-005  0.1250623E+03  0.7546771E-02  0.1248651E+00
         -2   -1    0    0    0  501 -0.00000000000E+00  0.00000000000E+00  0.98922291735E+03  0.98922291735E+03  0.00000000000E+00 0.  1.
          2   -1    0    0  501    0  0.00000000000E+00 -0.00000000000E+00 -0.12448753884E+02  0.12448753884E+02  0.00000000000E+00 0. -1.
         23    2    1    2    0    0  0.37441404565E+01 -0.62501640741E+00  0.35473819248E+03  0.36718816129E+03  0.94728830650E+02 0.  0.
          5    1    1    2  502    0  0.38425094838E+02  0.25681476795E+02  0.10156536327E+03  0.11168544749E+03  0.47000000000E+01 0.  1.
         -5    1    1    2    0  502 -0.42169235295E+02 -0.25056460388E+02  0.52047060772E+03  0.52279806246E+03  0.47000000000E+01 0.  1.
        -11    1    3    3    0    0 -0.32843091666E+02  0.31944729098E+02  0.17327656682E+03  0.17923142302E+03  0.00000000000E+00 0.  1.
         11    1    3    3    0    0  0.36587232122E+02 -0.32569745505E+02  0.18146162566E+03  0.18795673827E+03  0.00000000000E+00 0. -1.
<mgrwt>
<rscale>  0 0.11669504E+03</rscale>
<asrwt>0</asrwt>
<pdfrwt beam="2">  1        2 0.19151937E-02 0.12506229E+03</pdfrwt>
<pdfrwt beam="1">  1       -2 0.15218808E+00 0.12506229E+03</pdfrwt>
<totfact> 0.16940211E+03</totfact>
</mgrwt>
</event>
<event>
 7    1  0.1111284E-005  0.1324275E+03  0.7546771E-02  0.1236334E+00
          1   -1    0    0  501    0  0.00000000000E+00  0.00000000000E+00  0.87439960419E+03  0.87439960419E+03  0.00000000000E+00 0. -1.
         -1   -1    0    0    0  501 -0.00000000000E+00 -0.00000000000E+00 -0.16710195705E+02  0.16710195705E+02  0.00000000000E+00 0.  1.
         23    2    1    2    0    0 -0.43593420097E+02 -0.30660273185E+01  0.48194041999E+03  0.49270756090E+03  0.92651958156E+02 0.  0.
          5    1    1    2  502    0  0.21044407506E+02 -0.39467007831E+02  0.43222259390E+02  0.62376001004E+02  0.47000000000E+01 0.  1.
         -5    1    1    2    0  502  0.22549012591E+02  0.42533035150E+02  0.33252672911E+03  0.33602623799E+03  0.47000000000E+01 0.  1.
        -11    1    3    3    0    0 -0.68609234610E+01  0.42941218522E+02  0.19500743779E+03  0.19979720047E+03  0.00000000000E+00 0.  1.
         11    1    3    3    0    0 -0.36732496636E+02 -0.46007245840E+02  0.28693298219E+03  0.29291036043E+03  0.00000000000E+00 0. -1.
<mgrwt>
<rscale>  0 0.12419444E+03</rscale>
<asrwt>0</asrwt>
<pdfrwt beam="1">  1        1 0.13452298E+00 0.13242750E+03</pdfrwt>
<pdfrwt beam="2">  1       -1 0.25708000E-02 0.13242750E+03</pdfrwt>
<totfact> 0.91267263E+03</totfact>
</mgrwt>
</event>
<event>
 7    1  0.1111284E-005  0.1403979E+03  0.7546771E-02  0.1220475E+00
         -1   -1    0    0    0  501 -0.00000000000E+00  0.00000000000E+00  0.15017265922E+03  0.15017265922E+03  0.00000000000E+00 0.  1.
          1   -1    0    0  501    0  0.00000000000E+00 -0.00000000000E+00 -0.35383051335E+03  0.35383051335E+03  0.00000000000E+00 0. -1.
         23    2    1    2    0    0 -0.26354442250E+02 -0.73213187980E+02 -0.30718276205E+03  0.32956417719E+03  0.90534910737E+02 0.  0.
          5    1    1    2  502    0 -0.20474594907E+02 -0.12532644862E+02 -0.83376969705E+01  0.25843440456E+02  0.47000000000E+01 0. -1.
         -5    1    1    2    0  502  0.46829037157E+02  0.85745832842E+02  0.11186260489E+03  0.14859555492E+03  0.47000000000E+01 0.  1.
        -11    1    3    3    0    0 -0.49759714890E+02 -0.88403752207E+01 -0.11819392453E+03  0.12854565436E+03  0.00000000000E+00 0.  1.
         11    1    3    3    0    0  0.23405272640E+02 -0.64372812759E+02 -0.18898883752E+03  0.20101852282E+03  0.00000000000E+00 0. -1.
<mgrwt>
<rscale>  0 0.13481932E+03</rscale>
<asrwt>0</asrwt>
<pdfrwt beam="2">  1        1 0.54435463E-01 0.14039785E+03</pdfrwt>
<pdfrwt beam="1">  1       -1 0.23103486E-01 0.14039785E+03</pdfrwt>
<totfact> 0.11190635E+03</totfact>
</mgrwt>
</event>
<event>
 7    1  0.1111284E-005  0.1307090E+03  0.7546771E-02  0.1240458E+00
         -2   -1    0    0    0  501 -0.00000000000E+00  0.00000000000E+00  0.22688604165E+03  0.22688604165E+03  0.00000000000E+00 0.  1.
          2   -1    0    0  501    0  0.00000000000E+00 -0.00000000000E+00 -0.66979875601E+02  0.66979875601E+02  0.00000000000E+00 0. -1.
         23    2    1    2    0    0  0.12153068435E+02 -0.36219035166E+02  0.15640274764E+02  0.99193145956E+02  0.90195046589E+02 0.  0.
          5    1    1    2  502    0 -0.49815993873E+02  0.50939719116E+02  0.13530229868E+03  0.15298787618E+03  0.47000000000E+01 0. -1.
         -5    1    1    2    0  502  0.37662925437E+02 -0.14720683949E+02  0.89635926036E+01  0.41684895116E+02  0.47000000000E+01 0. -1.
        -11    1    3    3    0    0  0.19694706123E+02 -0.43028035272E+02 -0.27595437585E+02  0.54779571413E+02  0.00000000000E+00 0. -1.
         11    1    3    3    0    0 -0.75416376877E+01  0.68090001060E+01  0.43235712348E+02  0.44413574543E+02  0.00000000000E+00 0.  1.
<mgrwt>
<rscale>  0 0.12161379E+03</rscale>
<asrwt>0</asrwt>
<pdfrwt beam="2">  1        2 0.10304596E-01 0.13070899E+03</pdfrwt>
<pdfrwt beam="1">  1       -2 0.34905544E-01 0.13070899E+03</pdfrwt>
<totfact> 0.45284715E+03</totfact>
</mgrwt>
</event>
<event>
 7    1  0.1111284E-005  0.1391318E+03  0.7546771E-02  0.1225635E+00
         -2   -1    0    0    0  501 -0.00000000000E+00  0.00000000000E+00  0.80234665748E+03  0.80234665748E+03  0.00000000000E+00 0.  1.
          2   -1    0    0  501    0  0.00000000000E+00 -0.00000000000E+00 -0.19453899629E+02  0.19453899629E+02  0.00000000000E+00 0. -1.
         23    2    1    2    0    0 -0.84607674398E+01 -0.60514386834E+02  0.31773253029E+03  0.33627847287E+03  0.91627915577E+02 0.  0.
          5    1    1    2  502    0  0.56550089586E+02  0.58983403983E+02  0.36809281335E+03  0.37708270157E+03  0.47000000000E+01 0. -1.
         -5    1    1    2    0  502 -0.48089322147E+02  0.15309828514E+01  0.97067414201E+02  0.10843938266E+03  0.47000000000E+01 0. -1.
        -11    1    3    3    0    0 -0.10909424457E+02  0.20193215203E+01 -0.12956375210E+01  0.11170133301E+02  0.00000000000E+00 0. -1.
         11    1    3    3    0    0  0.24486570168E+01 -0.62533708355E+02  0.31902816781E+03  0.32510833957E+03  0.00000000000E+00 0.  1.
<mgrwt>
<rscale>  0 0.13123481E+03</rscale>
<asrwt>0</asrwt>
<pdfrwt beam="2">  1        2 0.29929083E-02 0.13913180E+03</pdfrwt>
<pdfrwt beam="1">  1       -2 0.12343792E+00 0.13913180E+03</pdfrwt>
<totfact> 0.15689584E+03</totfact>
</mgrwt>
</event>
<event>
 7    1  0.1111284E-005  0.1604539E+03  0.7546771E-02  0.1195137E+00
          4   -1    0    0  501    0  0.00000000000E+00  0.00000000000E+00  0.30828059146E+03  0.30828059146E+03  0.00000000000E+00 0. -1.
         -4   -1    0    0    0  501 -0.00000000000E+00 -0.00000000000E+00 -0.14780483776E+03  0.14780483776E+03  0.00000000000E+00 0.  1.
         23    2    1    2    0    0 -0.82616111635E+02 -0.57599868903E+02  0.24024652714E+03  0.27689605632E+03  0.93860883268E+02 0.  0.
          5    1    1    2  502    0  0.64156095089E+02 -0.23044861419E+02 -0.66352419964E+02  0.95246017291E+02  0.47000000000E+01 0.  1.
         -5    1    1    2    0  502  0.18460016547E+02  0.80644730323E+02 -0.13418353475E+02  0.83943355602E+02  0.47000000000E+01 0.  1.
        -11    1    3    3    0    0 -0.35943717638E+02 -0.69309139546E+02  0.90068860492E+02  0.11919776547E+03  0.00000000000E+00 0. -1.
         11    1    3    3    0    0 -0.46672393998E+02  0.11709270643E+02  0.15017766664E+03  0.15769829086E+03  0.00000000000E+00 0.  1.
<mgrwt>
<rscale>  0 0.15442676E+03</rscale>
<asrwt>0</asrwt>
<pdfrwt beam="1">  1        4 0.47427783E-01 0.16045390E+03</pdfrwt>
<pdfrwt beam="2">  1       -4 0.22739206E-01 0.16045390E+03</pdfrwt>
<totfact> 0.13270064E+02</totfact>
</mgrwt>
</event>
<event>
 7    1  0.1111284E-005  0.1290304E+03  0.7546771E-02  0.1238461E+00
          2   -1    0    0  501    0  0.00000000000E+00  0.00000000000E+00  0.12155576734E+03  0.12155576734E+03  0.00000000000E+00 0. -1.
         -2   -1    0    0    0  501 -0.00000000000E+00 -0.00000000000E+00 -0.11377650333E+03  0.11377650333E+03  0.00000000000E+00 0.  1.
         23    2    1    2    0    0  0.24491252027E+02  0.20587234447E+02 -0.37192801724E+00  0.10604463109E+03  0.10110227399E+03 0.  0.
          5    1    1    2  502    0 -0.18966536080E+02  0.45117441800E+02  0.32393212528E+02  0.58878886397E+02  0.47000000000E+01 0. -1.
         -5    1    1    2    0  502 -0.55247159473E+01 -0.65704676246E+02 -0.24242020501E+02  0.70408753184E+02  0.47000000000E+01 0. -1.
        -11    1    3    3    0    0  0.29399943223E+02 -0.35860498459E+02 -0.12655659193E+02  0.48067636939E+02  0.00000000000E+00 0.  1.
         11    1    3    3    0    0 -0.49086911964E+01  0.56447732906E+02  0.12283731176E+02  0.57976994153E+02  0.00000000000E+00 0. -1.
<mgrwt>
<rscale>  0 0.12285437E+03</rscale>
<asrwt>0</asrwt>
<pdfrwt beam="1">  1        2 0.18700887E-01 0.12903043E+03</pdfrwt>
<pdfrwt beam="2">  1       -2 0.17504077E-01 0.12903043E+03</pdfrwt>
<totfact> 0.74701263E+03</totfact>
</mgrwt>
</event>
<event>
 7    1  0.1111284E-005  0.1612133E+03  0.7546771E-02  0.1194697E+00
         -1   -1    0    0    0  501 -0.00000000000E+00  0.00000000000E+00  0.14563071987E+03  0.14563071987E+03  0.00000000000E+00 0.  1.
          1   -1    0    0  501    0  0.00000000000E+00 -0.00000000000E+00 -0.43261561900E+03  0.43261561900E+03  0.00000000000E+00 0. -1.
         23    2    1    2    0    0  0.41720852176E+02  0.92852659402E+02 -0.37167886116E+03  0.39613980996E+03  0.91756892589E+02 0.  0.
          5    1    1    2  502    0 -0.54105587230E+02 -0.17491262346E+02  0.88720927250E+02  0.10548389337E+03  0.47000000000E+01 0. -1.
         -5    1    1    2    0  502  0.12384735054E+02 -0.75361397056E+02 -0.40269652142E+01  0.76622635542E+02  0.47000000000E+01 0. -1.
        -11    1    3    3    0    0 -0.86199449610E+01  0.37048793194E+02 -0.36781135070E+02  0.52912838000E+02  0.00000000000E+00 0.  1.
         11    1    3    3    0    0  0.50340797137E+02  0.55803866209E+02 -0.33489772609E+03  0.34322697196E+03  0.00000000000E+00 0. -1.
<mgrwt>
<rscale>  0 0.15479863E+03</rscale>
<asrwt>0</asrwt>
<pdfrwt beam="2">  1        1 0.66556248E-01 0.16121328E+03</pdfrwt>
<pdfrwt beam="1">  1       -1 0.22404726E-01 0.16121328E+03</pdfrwt>
<totfact> 0.91426517E+02</totfact>
</mgrwt>
</event>
<event>
 7    1  0.1111284E-005  0.1258244E+03  0.7546771E-02  0.1248586E+00
          2   -1    0    0  501    0  0.00000000000E+00  0.00000000000E+00  0.16667183183E+03  0.16667183183E+03  0.00000000000E+00 0. -1.
         -2   -1    0    0    0  501 -0.00000000000E+00 -0.00000000000E+00 -0.72323062116E+02  0.72323062116E+02  0.00000000000E+00 0.  1.
         23    2    1    2    0    0 -0.14072041364E+02  0.15886799969E+01  0.48514005152E+02  0.10508219604E+03  0.92130955578E+02 0.  0.
          5    1    1    2  502    0  0.30782279561E+02 -0.52843363068E+02  0.50703776741E+02  0.79579725629E+02  0.47000000000E+01 0. -1.
         -5    1    1    2    0  502 -0.16710238198E+02  0.51254683071E+02 -0.48690121787E+01  0.54332972281E+02  0.47000000000E+01 0. -1.
        -11    1    3    3    0    0 -0.24850066081E+02 -0.40387859149E+02  0.13325470220E+02  0.49257213761E+02  0.00000000000E+00 0.  1.
         11    1    3    3    0    0  0.10778024718E+02  0.41976539146E+02  0.35188534933E+02  0.55824982277E+02  0.00000000000E+00 0. -1.
<mgrwt>
<rscale>  0 0.11673277E+03</rscale>
<asrwt>0</asrwt>
<pdfrwt beam="1">  1        2 0.25641820E-01 0.12582442E+03</pdfrwt>
<pdfrwt beam="2">  1       -2 0.11126625E-01 0.12582442E+03</pdfrwt>
<totfact> 0.10915411E+04</totfact>
</mgrwt>
</event>
<event>
 7    1  0.1111284E-005  0.1457145E+03  0.7546771E-02  0.1216397E+00
         -2   -1    0    0    0  501 -0.00000000000E+00  0.00000000000E+00  0.15776013332E+03  0.15776013332E+03  0.00000000000E+00 0. -1.
          2   -1    0    0  501    0  0.00000000000E+00 -0.00000000000E+00 -0.15149650443E+03  0.15149650443E+03  0.00000000000E+00 0.  1.
         23    2    1    2    0    0  0.71240722823E+02  0.23055988212E+02 -0.78803597536E+02  0.14052861350E+03  0.89058772992E+02 0.  0.
          5    1    1    2  502    0 -0.98164805426E+01 -0.57285697488E+02  0.65226616739E-01  0.58310450877E+02  0.47000000000E+01 0.  1.
         -5    1    1    2    0  502 -0.61424242281E+02  0.34229709276E+02  0.85001999817E+02  0.11041757337E+03  0.47000000000E+01 0.  1.
        -11    1    3    3    0    0 -0.94796938993E+01  0.33628704765E+02 -0.23070997767E+02  0.41869145185E+02  0.00000000000E+00 0.  1.
         11    1    3    3    0    0  0.80720416723E+02 -0.10572716552E+02 -0.55732599769E+02  0.98659468315E+02  0.00000000000E+00 0. -1.
<mgrwt>
<rscale>  0 0.13774394E+03</rscale>
<asrwt>0</asrwt>
<pdfrwt beam="2">  1        2 0.23307155E-01 0.14571449E+03</pdfrwt>
<pdfrwt beam="1">  1       -2 0.24270790E-01 0.14571449E+03</pdfrwt>
<totfact> 0.33709926E+03</totfact>
</mgrwt>
</event>
<event>
 7    1  0.1111284E-005  0.1800204E+03  0.7546771E-02  0.1173407E+00
          2   -1    0    0  501    0  0.00000000000E+00  0.00000000000E+00  0.57402158988E+03  0.57402158988E+03  0.00000000000E+00 0.  1.
         -2   -1    0    0    0  501 -0.00000000000E+00 -0.00000000000E+00 -0.50838799205E+02  0.50838799205E+02  0.00000000000E+00 0. -1.
         23    2    1    2    0    0 -0.50436271640E+02  0.11932456970E+03  0.28852082598E+03  0.32910104329E+03  0.91000325506E+02 0.  0.
          5    1    1    2  502    0  0.49488853253E+01  0.12179102899E+02  0.10363887368E+03  0.10457498817E+03  0.47000000000E+01 0.  1.
         -5    1    1    2    0  502  0.45487386314E+02 -0.13150367260E+03  0.13102309103E+03  0.19118435763E+03  0.47000000000E+01 0.  1.
        -11    1    3    3    0    0 -0.66343596400E+02  0.10883608217E+03  0.19026157288E+03  0.22901142260E+03  0.00000000000E+00 0. -1.
         11    1    3    3    0    0  0.15907324760E+02  0.10488487531E+02  0.98259253096E+02  0.10008962069E+03  0.00000000000E+00 0.  1.
<mgrwt>
<rscale>  0 0.17432953E+03</rscale>
<asrwt>0</asrwt>
<pdfrwt beam="1">  1        2 0.88311009E-01 0.18002042E+03</pdfrwt>
<pdfrwt beam="2">  1       -2 0.78213541E-02 0.18002042E+03</pdfrwt>
<totfact> 0.50959757E+03</totfact>
</mgrwt>
</event>
<event>
 7    1  0.1111284E-005  0.2678504E+03  0.7546771E-02  0.1104904E+00
         -2   -1    0    0    0  501 -0.00000000000E+00  0.00000000000E+00  0.23310530889E+03  0.23310530889E+03  0.00000000000E+00 0.  1.
          2   -1    0    0  501    0  0.00000000000E+00 -0.00000000000E+00 -0.44529738050E+03  0.44529738050E+03  0.00000000000E+00 0. -1.
         23    2    1    2    0    0 -0.18259375034E+03  0.15092959709E+03 -0.30443256649E+03  0.39511460499E+03  0.85534452711E+02 0.  0.
          5    1    1    2  502    0  0.42174054581E+02 -0.96026856416E+01 -0.26857423289E+02  0.51129968092E+02  0.47000000000E+01 0. -1.
         -5    1    1    2    0  502  0.14041969576E+03 -0.14132691144E+03  0.11909791817E+03  0.23215811631E+03  0.47000000000E+01 0. -1.
        -11    1    3    3    0    0 -0.77965610908E+02  0.65478335769E+02 -0.19979241111E+03  0.22423883802E+03  0.00000000000E+00 0. -1.
         11    1    3    3    0    0 -0.10462813943E+03  0.85451261317E+02 -0.10464015538E+03  0.17087576698E+03  0.00000000000E+00 0.  1.
<mgrwt>
<rscale>  0 0.26376155E+03</rscale>
<asrwt>0</asrwt>
<pdfrwt beam="2">  1        2 0.68507289E-01 0.26785039E+03</pdfrwt>
<pdfrwt beam="1">  1       -2 0.35862355E-01 0.26785039E+03</pdfrwt>
<totfact> 0.52276972E+02</totfact>
</mgrwt>
</event>
<event>
 7    1  0.2358585E-005  0.1679562E+03  0.7546771E-02  0.1186826E+00
          2   -1    0    0  501    0  0.00000000000E+00  0.00000000000E+00  0.61910968253E+03  0.61910968253E+03  0.00000000000E+00 0. -1.
         -2   -1    0    0    0  501 -0.00000000000E+00 -0.00000000000E+00 -0.39837422622E+02  0.39837422622E+02  0.00000000000E+00 0.  1.
         23    2    1    2    0    0  0.60249134341E+02 -0.94626862491E+02  0.30443969888E+03  0.33685672580E+03  0.90579921435E+02 0.  0.
          5    1    1    2  502    0  0.33258322749E+02  0.23419899796E+02  0.30967354161E+02  0.51338823148E+02  0.47000000000E+01 0.  1.
         -5    1    1    2    0  502 -0.93507457090E+02  0.71206962694E+02  0.24386520687E+03  0.27075155621E+03  0.47000000000E+01 0.  1.
        -11    1    3    3    0    0  0.32591946768E+02 -0.10263834358E+03  0.18560687297E+03  0.21458512498E+03  0.00000000000E+00 0.  1.
         11    1    3    3    0    0  0.27657187573E+02  0.80114810918E+01  0.11883282590E+03  0.12227160081E+03  0.00000000000E+00 0. -1.
<mgrwt>
<rscale>  0 0.16166871E+03</rscale>
<asrwt>0</asrwt>
<pdfrwt beam="1">  1        2 0.95247636E-01 0.16795617E+03</pdfrwt>
<pdfrwt beam="2">  1       -2 0.61288347E-02 0.16795617E+03</pdfrwt>
<totfact> 0.67780539E+03</totfact>
</mgrwt>
</event>
<event>
 7    1  0.1111284E-005  0.2500407E+03  0.7546771E-02  0.1115802E+00
         -1   -1    0    0    0  501 -0.00000000000E+00  0.00000000000E+00  0.93022828028E+02  0.93022828028E+02  0.00000000000E+00 0.  1.
          1   -1    0    0  501    0  0.00000000000E+00 -0.00000000000E+00 -0.64054664634E+03  0.64054664634E+03  0.00000000000E+00 0. -1.
         23    2    1    2    0    0 -0.21144000432E+03  0.46686165439E+02 -0.30935966844E+03  0.38825440406E+03  0.90286235629E+02 0.  0.
          5    1    1    2  502    0  0.59038934403E+02 -0.54207846909E+02 -0.14702838859E+03  0.16752171051E+03  0.47000000000E+01 0. -1.
         -5    1    1    2    0  502  0.15240106991E+03  0.75216814695E+01 -0.91135761281E+02  0.17779335980E+03  0.47000000000E+01 0. -1.
        -11    1    3    3    0    0 -0.47109778100E+02 -0.26067859014E+02 -0.56607885904E+02  0.78123730151E+02  0.00000000000E+00 0.  1.
         11    1    3    3    0    0 -0.16433022622E+03  0.72754024453E+02 -0.25275178254E+03  0.31013067391E+03  0.00000000000E+00 0. -1.
<mgrwt>
<rscale>  0 0.24608826E+03</rscale>
<asrwt>0</asrwt>
<pdfrwt beam="2">  1        1 0.98545636E-01 0.25004067E+03</pdfrwt>
<pdfrwt beam="1">  1       -1 0.14311205E-01 0.25004067E+03</pdfrwt>
<totfact> 0.11121370E+03</totfact>
</mgrwt>
</event>
<event>
 7    1  0.1111284E-005  0.1332355E+03  0.7546771E-02  0.1233940E+00
          1   -1    0    0  501    0  0.00000000000E+00  0.00000000000E+00  0.16116605152E+03  0.16116605152E+03  0.00000000000E+00 0. -1.
         -1   -1    0    0    0  501 -0.00000000000E+00 -0.00000000000E+00 -0.96990016724E+02  0.96990016724E+02  0.00000000000E+00 0.  1.
         23    2    1    2    0    0  0.21891285296E+02  0.40592909947E+02  0.66630105224E+02  0.12489795250E+03  0.95041648271E+02 0.  0.
          5    1    1    2  502    0 -0.10653023619E+02  0.34563202218E+02  0.33078442021E+02  0.49237944578E+02  0.47000000000E+01 0. -1.
         -5    1    1    2    0  502 -0.11238261677E+02 -0.75156112165E+02 -0.35532512452E+02  0.84020171164E+02  0.47000000000E+01 0. -1.
        -11    1    3    3    0    0 -0.21288903744E+02  0.24007544876E+02  0.71516352117E+02  0.78384745032E+02  0.00000000000E+00 0. -1.
         11    1    3    3    0    0  0.43180189040E+02  0.16585365071E+02 -0.48862468931E+01  0.46513207466E+02  0.00000000000E+00 0.  1.
<mgrwt>
<rscale>  0 0.12572530E+03</rscale>
<asrwt>0</asrwt>
<pdfrwt beam="1">  1        1 0.24794777E-01 0.13323552E+03</pdfrwt>
<pdfrwt beam="2">  1       -1 0.14921541E-01 0.13323552E+03</pdfrwt>
<totfact> 0.59581505E+03</totfact>
</mgrwt>
</event>
<event>
 7    1  0.1111284E-005  0.1812130E+03  0.7546771E-02  0.1171923E+00
          1   -1    0    0  501    0  0.00000000000E+00  0.00000000000E+00  0.45514523120E+03  0.45514523120E+03  0.00000000000E+00 0. -1.
         -1   -1    0    0    0  501 -0.00000000000E+00 -0.00000000000E+00 -0.65329565167E+02  0.65329565167E+02  0.00000000000E+00 0.  1.
         23    2    1    2    0    0 -0.38424525030E+02 -0.12545034244E+03  0.21818889598E+03  0.27088732001E+03  0.92516556764E+02 0.  0.
          5    1    1    2  502    0  0.12665456261E+02  0.13919835606E+03  0.16976912340E+03  0.21995508945E+03  0.47000000000E+01 0.  1.
         -5    1    1    2    0  502  0.25759068768E+02 -0.13748013624E+02  0.18576466510E+01  0.29632386902E+02  0.47000000000E+01 0.  1.
        -11    1    3    3    0    0  0.11485461531E+01 -0.53237637610E+02  0.16370854692E+03  0.17215125196E+03  0.00000000000E+00 0. -1.
         11    1    3    3    0    0 -0.39573071183E+02 -0.72212704829E+02  0.54480349054E+02  0.98736068053E+02  0.00000000000E+00 0.  1.
<mgrwt>
<rscale>  0 0.17580808E+03</rscale>
<asrwt>0</asrwt>
<pdfrwt beam="1">  1        1 0.70022341E-01 0.18121302E+03</pdfrwt>
<pdfrwt beam="2">  1       -1 0.10050703E-01 0.18121302E+03</pdfrwt>
<totfact> 0.30437113E+03</totfact>
</mgrwt>
</event>
<event>
 7    1  0.1111284E-005  0.1250008E+03  0.7546771E-02  0.1252372E+00
         -1   -1    0    0    0  501 -0.00000000000E+00  0.00000000000E+00  0.99687398883E+03  0.99687398883E+03  0.00000000000E+00 0.  1.
          1   -1    0    0  501    0  0.00000000000E+00 -0.00000000000E+00 -0.15632839083E+02  0.15632839083E+02  0.00000000000E+00 0. -1.
         23    2    1    2    0    0  0.12743565420E+00  0.56059337466E+00  0.16806256277E+03  0.18977685553E+03  0.88147032765E+02 0.  0.
          5    1    1    2  502    0  0.47070311561E+02  0.21076287626E+02  0.63426347806E+03  0.63637416174E+03  0.47000000000E+01 0.  1.
         -5    1    1    2    0  502 -0.47197747215E+02 -0.21636881001E+02  0.17891510892E+03  0.18635581065E+03  0.47000000000E+01 0.  1.
        -11    1    3    3    0    0  0.26634952992E+02  0.49779304916E+01  0.15918610386E+03  0.16147574485E+03  0.00000000000E+00 0.  1.
         11    1    3    3    0    0 -0.26507517338E+02 -0.44173371169E+01  0.88764589025E+01  0.28301110672E+02  0.00000000000E+00 0. -1.
<mgrwt>
<rscale>  0 0.11454833E+03</rscale>
<asrwt>0</asrwt>
<pdfrwt beam="2">  1        1 0.24050529E-02 0.12500077E+03</pdfrwt>
<pdfrwt beam="1">  1       -1 0.15336518E+00 0.12500077E+03</pdfrwt>
<totfact> 0.16101256E+03</totfact>
</mgrwt>
</event>
<event>
 7    1  0.1111284E-005  0.2329380E+03  0.7546771E-02  0.1127444E+00
          3   -1    0    0  501    0  0.00000000000E+00  0.00000000000E+00  0.14042492967E+04  0.14042492967E+04  0.00000000000E+00 0. -1.
         -3   -1    0    0    0  501 -0.00000000000E+00 -0.00000000000E+00 -0.36054109082E+02  0.36054109082E+02  0.00000000000E+00 0.  1.
         23    2    1    2    0    0  0.19359475397E+03 -0.33994257539E+02  0.66743162478E+03  0.70183898230E+03  0.92078472008E+02 0.  0.
          5    1    1    2  502    0 -0.20198141909E+02  0.11194396701E+02  0.95066489690E+01  0.25411529444E+02  0.47000000000E+01 0.  1.
         -5    1    1    2    0  502 -0.17339661206E+03  0.22799860838E+02  0.69125691392E+03  0.71305289409E+03  0.47000000000E+01 0.  1.
        -11    1    3    3    0    0  0.14805664896E+03 -0.64563463553E+02  0.47291511840E+03  0.49973785261E+03  0.00000000000E+00 0.  1.
         11    1    3    3    0    0  0.45538105011E+02  0.30569206014E+02  0.19451650638E+03  0.20210112968E+03  0.00000000000E+00 0. -1.
<mgrwt>
<rscale>  0 0.22886158E+03</rscale>
<asrwt>0</asrwt>
<pdfrwt beam="1">  1        3 0.21603831E+00 0.23293805E+03</pdfrwt>
<pdfrwt beam="2">  1       -3 0.55467871E-02 0.23293805E+03</pdfrwt>
<totfact> 0.61705142E+01</totfact>
</mgrwt>
</event>
<event>
 7    1  0.1111284E-005  0.1745309E+03  0.7546771E-02  0.1178092E+00
         -4   -1    0    0    0  501 -0.00000000000E+00  0.00000000000E+00  0.22603920540E+03  0.22603920540E+03  0.00000000000E+00 0.  1.
          4   -1    0    0  501    0  0.00000000000E+00 -0.00000000000E+00 -0.15940868625E+03  0.15940868625E+03  0.00000000000E+00 0. -1.
         23    2    1    2    0    0  0.11766162439E+03  0.31496731571E+02 -0.62566968641E+02  0.16830044482E+03  0.97847392440E+02 0.  0.
          5    1    1    2  502    0 -0.10621539866E+03 -0.43448033160E+02  0.33109221056E+02  0.11953138925E+03  0.47000000000E+01 0.  1.
         -5    1    1    2    0  502 -0.11446225735E+02  0.11951301589E+02  0.96088266733E+02  0.97616057577E+02  0.47000000000E+01 0.  1.
        -11    1    3    3    0    0  0.97316858814E+02 -0.17290795337E+02 -0.59464839215E+02  0.11534994458E+03  0.00000000000E+00 0. -1.
         11    1    3    3    0    0  0.20344765578E+02  0.48787526907E+02 -0.31021294263E+01  0.52950500235E+02  0.00000000000E+00 0.  1.
<mgrwt>
<rscale>  0 0.16976614E+03</rscale>
<asrwt>0</asrwt>
<pdfrwt beam="2">  1        4 0.24524413E-01 0.17453086E+03</pdfrwt>
<pdfrwt beam="1">  1       -4 0.34775262E-01 0.17453086E+03</pdfrwt>
<totfact> 0.21631560E+02</totfact>
</mgrwt>
</event>
<event>
 7    1  0.1111284E-005  0.1641191E+03  0.7546771E-02  0.1191563E+00
         -3   -1    0    0    0  501 -0.00000000000E+00  0.00000000000E+00  0.88524232647E+03  0.88524232647E+03  0.00000000000E+00 0.  1.
          3   -1    0    0  501    0  0.00000000000E+00 -0.00000000000E+00 -0.25977268532E+02  0.25977268532E+02  0.00000000000E+00 0. -1.
         23    2    1    2    0    0  0.68978019117E+02  0.80942913025E+02  0.39004575284E+03  0.41412622184E+03  0.89750298134E+02 0.  0.
          5    1    1    2  502    0  0.90237647917E+01  0.26364923437E+02  0.12523861515E+03  0.12838745361E+03  0.47000000000E+01 0. -1.
         -5    1    1    2    0  502 -0.78001783909E+02 -0.10730783646E+03  0.34398068995E+03  0.36870591956E+03  0.47000000000E+01 0. -1.
        -11    1    3    3    0    0  0.63460960568E+02  0.85856135962E+01  0.22268297016E+03  0.23170824646E+03  0.00000000000E+00 0.  1.
         11    1    3    3    0    0  0.55170585491E+01  0.72357299429E+02  0.16736278268E+03  0.18241797538E+03  0.00000000000E+00 0. -1.
<mgrwt>
<rscale>  0 0.15748747E+03</rscale>
<asrwt>0</asrwt>
<pdfrwt beam="2">  1        3 0.39965035E-02 0.16411906E+03</pdfrwt>
<pdfrwt beam="1">  1       -3 0.13619110E+00 0.16411906E+03</pdfrwt>
<totfact> 0.33817344E+02</totfact>
</mgrwt>
</event>
<event>
 7    1  0.1111284E-005  0.3091291E+03  0.7546771E-02  0.1082373E+00
          1   -1    0    0  501    0  0.00000000000E+00  0.00000000000E+00  0.53902855006E+03  0.53902855006E+03  0.00000000000E+00 0. -1.
         -1   -1    0    0    0  501 -0.00000000000E+00 -0.00000000000E+00 -0.17425475569E+03  0.17425475569E+03  0.00000000000E+00 0.  1.
         23    2    1    2    0    0 -0.28262249506E+03  0.78056968345E+01  0.12195250815E+03  0.32018917121E+03  0.87819630490E+02 0.  0.
          5    1    1    2  502    0  0.10347628051E+03  0.45275259439E+02  0.47098730922E+02  0.12246456712E+03  0.47000000000E+01 0. -1.
         -5    1    1    2    0  502  0.17914621455E+03 -0.53080956273E+02  0.19572255529E+03  0.27062956741E+03  0.47000000000E+01 0. -1.
        -11    1    3    3    0    0 -0.95923247764E+02 -0.36273905765E+02  0.58882705193E+02  0.11825497314E+03  0.00000000000E+00 0.  1.
         11    1    3    3    0    0 -0.18669924729E+03  0.44079602600E+02  0.63069802960E+02  0.20193419807E+03  0.00000000000E+00 0. -1.
<mgrwt>
<rscale>  0 0.30580750E+03</rscale>
<asrwt>0</asrwt>
<pdfrwt beam="1">  1        1 0.82927469E-01 0.30912913E+03</pdfrwt>
<pdfrwt beam="2">  1       -1 0.26808424E-01 0.30912913E+03</pdfrwt>
<totfact> 0.50664878E+02</totfact>
</mgrwt>
</event>
<event>
 7    1  0.1111284E-005  0.1326929E+03  0.7546771E-02  0.1236023E+00
          1   -1    0    0  501    0  0.00000000000E+00  0.00000000000E+00  0.51529205870E+03  0.51529205870E+03  0.00000000000E+00 0. -1.
         -1   -1    0    0    0  501 -0.00000000000E+00 -0.00000000000E+00 -0.29113484983E+02  0.29113484983E+02  0.00000000000E+00 0.  1.
         23    2    1    2    0    0  0.33808754661E+02  0.28938444225E+02  0.28993008038E+03  0.30750711726E+03  0.92307693123E+02 0.  0.
          5    1    1    2  502    0 -0.74231806907E+02 -0.12293287768E+02  0.68744144929E+02  0.10202614147E+03  0.47000000000E+01 0. -1.
         -5    1    1    2    0  502  0.40423052246E+02 -0.16645156458E+02  0.12750434841E+03  0.13487228496E+03  0.47000000000E+01 0. -1.
        -11    1    3    3    0    0  0.20384746069E+02  0.46479009664E+02  0.27761894570E+03  0.28221997666E+03  0.00000000000E+00 0. -1.
         11    1    3    3    0    0  0.13424008592E+02 -0.17540565439E+02  0.12311134672E+02  0.25287140596E+02  0.00000000000E+00 0.  1.
<mgrwt>
<rscale>  0 0.12439141E+03</rscale>
<asrwt>0</asrwt>
<pdfrwt beam="1">  1        1 0.79275695E-01 0.13269285E+03</pdfrwt>
<pdfrwt beam="2">  1       -1 0.44789981E-02 0.13269285E+03</pdfrwt>
<totfact> 0.85880976E+03</totfact>
</mgrwt>
</event>
<event>
 7    1  0.1111284E-005  0.2170227E+03  0.7546771E-02  0.1140366E+00
          2   -1    0    0  501    0  0.00000000000E+00  0.00000000000E+00  0.11835615213E+04  0.11835615213E+04  0.00000000000E+00 0. -1.
         -2   -1    0    0    0  501 -0.00000000000E+00 -0.00000000000E+00 -0.36067784996E+02  0.36067784996E+02  0.00000000000E+00 0.  1.
         23    2    1    2    0    0  0.17347546654E+03  0.37158725963E+02  0.56965117184E+03  0.60237660662E+03  0.82949443745E+02 0.  0.
          5    1    1    2  502    0 -0.72011609400E+02 -0.73469462136E+02  0.35566323023E+03  0.37027267938E+03  0.47000000000E+01 0.  1.
         -5    1    1    2    0  502 -0.10146385714E+03  0.36310736174E+02  0.22217933424E+03  0.24698002031E+03  0.47000000000E+01 0.  1.
        -11    1    3    3    0    0  0.35889802621E+02  0.33346790242E+02  0.80553313328E+02  0.94281083149E+02  0.00000000000E+00 0.  1.
         11    1    3    3    0    0  0.13758566392E+03  0.38119357204E+01  0.48909785851E+03  0.50809552347E+03  0.00000000000E+00 0. -1.
<mgrwt>
<rscale>  0 0.21152263E+03</rscale>
<asrwt>0</asrwt>
<pdfrwt beam="1">  1        2 0.18208636E+00 0.21702273E+03</pdfrwt>
<pdfrwt beam="2">  1       -2 0.55488909E-02 0.21702273E+03</pdfrwt>
<totfact> 0.33943670E+03</totfact>
</mgrwt>
</event>
<event>
 7    1  0.1256888E-005  0.2413115E+03  0.7546771E-02  0.1121569E+00
         -1   -1    0    0    0  501 -0.00000000000E+00  0.00000000000E+00  0.61626958779E+03  0.61626958779E+03  0.00000000000E+00 0.  1.
          1   -1    0    0  501    0  0.00000000000E+00 -0.00000000000E+00 -0.10021461548E+03  0.10021461548E+03  0.00000000000E+00 0. -1.
         23    2    1    2    0    0  0.11449171145E+03  0.17174997103E+03  0.12826487201E+03  0.25974311630E+03  0.91696262358E+02 0.  0.
          5    1    1    2  502    0 -0.87742441988E+02 -0.48866528592E+02  0.25343845679E+03  0.27265328739E+03  0.47000000000E+01 0. -1.
         -5    1    1    2    0  502 -0.26749269460E+02 -0.12288344244E+03  0.13435164351E+03  0.18408779958E+03  0.47000000000E+01 0. -1.
        -11    1    3    3    0    0  0.70429714009E+02  0.29772599808E+02  0.53672012924E+02  0.93420754044E+02  0.00000000000E+00 0. -1.
         11    1    3    3    0    0  0.44061997439E+02  0.14197737122E+03  0.74592859089E+02  0.16632236225E+03  0.00000000000E+00 0.  1.
<mgrwt>
<rscale>  0 0.23735336E+03</rscale>
<asrwt>0</asrwt>
<pdfrwt beam="2">  1        1 0.15417634E-01 0.24131154E+03</pdfrwt>
<pdfrwt beam="1">  1       -1 0.94810703E-01 0.24131154E+03</pdfrwt>
<totfact> 0.40879993E+02</totfact>
</mgrwt>
</event>
<event>
 7    1  0.1111284E-005  0.3031609E+03  0.7546771E-02  0.1085241E+00
          1   -1    0    0  501    0  0.00000000000E+00  0.00000000000E+00  0.14959762609E+04  0.14959762609E+04  0.00000000000E+00 0. -1.
         -1   -1    0    0    0  501 -0.00000000000E+00 -0.00000000000E+00 -0.63965243314E+02  0.63965243314E+02  0.00000000000E+00 0.  1.
         23    2    1    2    0    0 -0.20828367091E+03  0.18138097462E+03  0.92077735813E+03  0.96557931536E+03  0.90726652529E+02 0.  0.
          5    1    1    2  502    0  0.80136199318E+02 -0.15089876231E+03  0.27282143443E+03  0.32194078958E+03  0.47000000000E+01 0. -1.
         -5    1    1    2    0  502  0.12814747159E+03 -0.30482212314E+02  0.23841222497E+03  0.27242139923E+03  0.47000000000E+01 0. -1.
        -11    1    3    3    0    0 -0.26607159932E+02  0.59806395381E+02  0.13613309861E+03  0.15105285970E+03  0.00000000000E+00 0. -1.
         11    1    3    3    0    0 -0.18167651098E+03  0.12157457924E+03  0.78464425953E+03  0.81452645566E+03  0.00000000000E+00 0.  1.
<mgrwt>
<rscale>  0 0.29999916E+03</rscale>
<asrwt>0</asrwt>
<pdfrwt beam="1">  1        1 0.23015017E+00 0.30316094E+03</pdfrwt>
<pdfrwt beam="2">  1       -1 0.98408078E-02 0.30316094E+03</pdfrwt>
<totfact> 0.44930845E+02</totfact>
</mgrwt>
</event>
<event>
 7    1  0.1111284E-005  0.1643397E+03  0.7546771E-02  0.1191032E+00
         -2   -1    0    0    0  501 -0.00000000000E+00  0.00000000000E+00  0.13971280347E+03  0.13971280347E+03  0.00000000000E+00 0. -1.
          2   -1    0    0  501    0  0.00000000000E+00 -0.00000000000E+00 -0.16805394606E+03  0.16805394606E+03  0.00000000000E+00 0.  1.
         23    2    1    2    0    0 -0.58554653153E+02 -0.89170267263E+02  0.39507277841E+01  0.14028452181E+03  0.91017332634E+02 0.  0.
          5    1    1    2  502    0  0.38782847328E+02  0.11927372632E+03 -0.37020076901E+02  0.13085452659E+03  0.47000000000E+01 0. -1.
         -5    1    1    2    0  502  0.19771805825E+02 -0.30103459053E+02  0.47282065221E+01  0.36627701122E+02  0.47000000000E+01 0. -1.
        -11    1    3    3    0    0 -0.14462492806E+02 -0.23357109882E+02  0.43727318538E+02  0.51641036654E+02  0.00000000000E+00 0. -1.
         11    1    3    3    0    0 -0.44092160346E+02 -0.65813157381E+02 -0.39776590754E+02  0.88643485155E+02  0.00000000000E+00 0.  1.
<mgrwt>
<rscale>  0 0.15794875E+03</rscale>
<asrwt>0</asrwt>
<pdfrwt beam="2">  1        2 0.25854453E-01 0.16433968E+03</pdfrwt>
<pdfrwt beam="1">  1       -2 0.21494278E-01 0.16433968E+03</pdfrwt>
<totfact> 0.37300180E+03</totfact>
</mgrwt>
</event>
<event>
 6    1  0.1111284E-005  0.2100538E+03  0.7546771E-02  0.1141997E+00
         -2   -1    0    0    0  501 -0.00000000000E+00  0.00000000000E+00  0.10256997558E+03  0.10256997558E+03  0.00000000000E+00 0.  1.
          2   -1    0    0  501    0  0.00000000000E+00 -0.00000000000E+00 -0.56743595691E+03  0.56743595691E+03  0.00000000000E+00 0. -1.
          5    1    1    2  502    0  0.33104148677E+02  0.87684540807E+02 -0.54520713616E+02  0.10853138518E+03  0.47000000000E+01 0. -1.
         -5    1    1    2    0  502 -0.89735757251E+02  0.60493518480E+02 -0.92659962779E+01  0.10871945821E+03  0.47000000000E+01 0.  1.
        -11    1    1    2    0    0 -0.25391019493E+02 -0.69796596613E+02 -0.67322108738E+02  0.10024238173E+03  0.00000000000E+00 0.  1.
         11    1    1    2    0    0  0.82022628067E+02 -0.78381462674E+02 -0.33375716270E+03  0.35251270737E+03  0.00000000000E+00 0. -1.
<mgrwt>
<rscale>  0 0.20945671E+03</rscale>
<asrwt>0</asrwt>
<pdfrwt beam="2">  1        2 0.87297840E-01 0.21005378E+03</pdfrwt>
<pdfrwt beam="1">  1       -2 0.15779996E-01 0.21005378E+03</pdfrwt>
<totfact> 0.16859759E+03</totfact>
</mgrwt>
</event>
<event>
 7    1  0.1111284E-005  0.4117037E+03  0.7546771E-02  0.1040564E+00
          3   -1    0    0  501    0  0.00000000000E+00  0.00000000000E+00  0.19618219298E+03  0.19618219298E+03  0.00000000000E+00 0. -1.
         -3   -1    0    0    0  501 -0.00000000000E+00 -0.00000000000E+00 -0.93913062175E+03  0.93913062175E+03  0.00000000000E+00 0.  1.
         23    2    1    2    0    0 -0.39192985528E+03 -0.16289442543E+02 -0.18817417990E+03  0.44446229299E+03  0.90900222831E+02 0.  0.
          5    1    1    2  502    0  0.27994289673E+03  0.26363603375E+02 -0.47810091121E+03  0.55467615444E+03  0.47000000000E+01 0. -1.
         -5    1    1    2    0  502  0.11198695855E+03 -0.10074160832E+02 -0.76673337662E+02  0.13617436730E+03  0.47000000000E+01 0. -1.
        -11    1    3    3    0    0 -0.18478442169E+03  0.37309649372E+02 -0.81478805282E+02  0.20536817705E+03  0.00000000000E+00 0.  1.
         11    1    3    3    0    0 -0.20714543359E+03 -0.53599091915E+02 -0.10669537462E+03  0.23909411594E+03  0.00000000000E+00 0. -1.
<mgrwt>
<rscale>  0 0.40942462E+03</rscale>
<asrwt>0</asrwt>
<pdfrwt beam="1">  1        3 0.30181876E-01 0.41170375E+03</pdfrwt>
<pdfrwt beam="2">  1       -3 0.14448163E+00 0.41170375E+03</pdfrwt>
<totfact> 0.99543927E+00</totfact>
</mgrwt>
</event>
<event>
 7    1  0.1111284E-005  0.1155108E+03  0.7546771E-02  0.1262330E+00
          4   -1    0    0  501    0  0.00000000000E+00  0.00000000000E+00  0.24959656702E+03  0.24959656702E+03  0.00000000000E+00 0. -1.
         -4   -1    0    0    0  501 -0.00000000000E+00 -0.00000000000E+00 -0.58941051302E+03  0.58941051302E+03  0.00000000000E+00 0.  1.
         23    2    1    2    0    0  0.47783257279E+01  0.96426948051E+01  0.23521861429E+03  0.25248751755E+03  0.91139102739E+02 0.  0.
          5    1    1    2  502    0 -0.45376539930E+02 -0.29614568064E+02 -0.45355766525E+03  0.45680706948E+03  0.47000000000E+01 0.  1.
         -5    1    1    2    0  502  0.40598214202E+02  0.19971873259E+02 -0.12147489504E+03  0.12971249301E+03  0.47000000000E+01 0. -1.
        -11    1    3    3    0    0  0.17159705351E+02 -0.27587983596E+02  0.32309450902E+02  0.45819787693E+02  0.00000000000E+00 0.  1.
         11    1    3    3    0    0 -0.12381379623E+02  0.37230678401E+02  0.20290916339E+03  0.20666772986E+03  0.00000000000E+00 0. -1.
<mgrwt>
<rscale>  0 0.10905483E+03</rscale>
<asrwt>0</asrwt>
<pdfrwt beam="1">  1        4 0.38399472E-01 0.11551083E+03</pdfrwt>
<pdfrwt beam="2">  1       -4 0.90678540E-01 0.11551083E+03</pdfrwt>
<totfact> 0.11806197E+01</totfact>
</mgrwt>
</event>
<event>
 7    1  0.1111284E-005  0.1394949E+03  0.7546771E-02  0.1225542E+00
         -1   -1    0    0    0  501 -0.00000000000E+00  0.00000000000E+00  0.24564182403E+03  0.24564182403E+03  0.00000000000E+00 0.  1.
          1   -1    0    0  501    0  0.00000000000E+00 -0.00000000000E+00 -0.74327814524E+02  0.74327814524E+02  0.00000000000E+00 0. -1.
         23    2    1    2    0    0  0.29443933874E+02 -0.54476761776E+02  0.15074651478E+02  0.11051898704E+03  0.90291409133E+02 0.  0.
          5    1    1    2  502    0 -0.26778870610E+02  0.46516913319E+02  0.17783026559E+03  0.18581341312E+03  0.47000000000E+01 0. -1.
         -5    1    1    2    0  502 -0.26650632639E+01  0.79598484578E+01 -0.21590907561E+02  0.23637238396E+02  0.47000000000E+01 0. -1.
        -11    1    3    3    0    0  0.29577624165E+01 -0.53053146832E+02  0.45642685314E+02  0.70047408732E+02  0.00000000000E+00 0.  1.
         11    1    3    3    0    0  0.26486171457E+02 -0.14236149441E+01 -0.30568033837E+02  0.40471578306E+02  0.00000000000E+00 0. -1.
<mgrwt>
<rscale>  0 0.13129814E+03</rscale>
<asrwt>0</asrwt>
<pdfrwt beam="2">  1        1 0.11435049E-01 0.13949494E+03</pdfrwt>
<pdfrwt beam="1">  1       -1 0.37791049E-01 0.13949494E+03</pdfrwt>
<totfact> 0.35206700E+03</totfact>
</mgrwt>
</event>
<event>
 7    1  0.1111284E-005  0.2403525E+03  0.7546771E-02  0.1121984E+00
          1   -1    0    0  501    0  0.00000000000E+00  0.00000000000E+00  0.58278450351E+03  0.58278450351E+03  0.00000000000E+00 0. -1.
         -1   -1    0    0    0  501 -0.00000000000E+00 -0.00000000000E+00 -0.11778382660E+03  0.11778382660E+03  0.00000000000E+00 0.  1.
         23    2    1    2    0    0  0.13283238083E+03  0.15652422572E+03  0.38628875342E+03  0.44765547377E+03  0.95037611194E+02 0.  0.
          5    1    1    2  502    0 -0.11187310919E+02  0.69247449567E+01  0.44014231042E+02  0.46178464164E+02  0.47000000000E+01 0. -1.
         -5    1    1    2    0  502 -0.12164506991E+03 -0.16344897068E+03  0.34697692447E+02  0.20673439218E+03  0.47000000000E+01 0. -1.
        -11    1    3    3    0    0  0.44136110056E+02  0.49960552711E+02  0.48262954271E+02  0.82300460466E+02  0.00000000000E+00 0.  1.
         11    1    3    3    0    0  0.88696270775E+02  0.10656367301E+03  0.33802579915E+03  0.36535501330E+03  0.00000000000E+00 0. -1.
<mgrwt>
<rscale>  0 0.23673926E+03</rscale>
<asrwt>0</asrwt>
<pdfrwt beam="1">  1        1 0.89659153E-01 0.24035255E+03</pdfrwt>
<pdfrwt beam="2">  1       -1 0.18120589E-01 0.24035255E+03</pdfrwt>
<totfact> 0.87031859E+02</totfact>
</mgrwt>
</event>
<event>
 7    1  0.1111284E-005  0.1869499E+03  0.7546771E-02  0.1168320E+00
         -2   -1    0    0    0  501 -0.00000000000E+00  0.00000000000E+00  0.88588574672E+02  0.88588574672E+02  0.00000000000E+00 0.  1.
          2   -1    0    0  501    0  0.00000000000E+00 -0.00000000000E+00 -0.33774831017E+03  0.33774831017E+03  0.00000000000E+00 0. -1.
         23    2    1    2    0    0  0.12583100092E+03 -0.59092584196E+02 -0.12222985746E+03  0.20036906038E+03  0.76695814768E+02 0.  0.
          5    1    1    2  502    0 -0.13509280916E+03  0.86845136847E+01 -0.93772038906E+02  0.16474456940E+03  0.47000000000E+01 0.  1.
         -5    1    1    2    0  502  0.92618082417E+01  0.50408070511E+02 -0.33157839132E+02  0.61223255062E+02  0.47000000000E+01 0.  1.
        -11    1    3    3    0    0  0.11319380327E+03 -0.52805340454E+02 -0.63794673031E+02  0.14025334715E+03  0.00000000000E+00 0.  1.
         11    1    3    3    0    0  0.12637197654E+02 -0.62872437413E+01 -0.58435184426E+02  0.60115713231E+02  0.00000000000E+00 0. -1.
<mgrwt>
<rscale>  0 0.17946733E+03</rscale>
<asrwt>0</asrwt>
<pdfrwt beam="2">  1        2 0.51961279E-01 0.18694990E+03</pdfrwt>
<pdfrwt beam="1">  1       -2 0.13629011E-01 0.18694990E+03</pdfrwt>
<totfact> 0.37784597E+03</totfact>
</mgrwt>
</event>
<event>
 7    1  0.1111284E-005  0.1328739E+03  0.7546771E-02  0.1237848E+00
         -2   -1    0    0    0  501 -0.00000000000E+00  0.00000000000E+00  0.42509493403E+02  0.42509493403E+02  0.00000000000E+00 0.  1.
          2   -1    0    0  501    0  0.00000000000E+00 -0.00000000000E+00 -0.37992880459E+03  0.37992880459E+03  0.00000000000E+00 0. -1.
         23    2    1    2    0    0  0.53072550357E+01  0.44745228307E+02 -0.23478053279E+03  0.25453898533E+03  0.87395045982E+02 0.  0.
          5    1    1    2  502    0 -0.54525346910E+02  0.27110314287E+01 -0.15315144367E+02  0.56894699174E+02  0.47000000000E+01 0.  1.
         -5    1    1    2    0  502  0.49218091875E+02 -0.47456259735E+02 -0.87323634021E+02  0.11100461348E+03  0.47000000000E+01 0.  1.
        -11    1    3    3    0    0 -0.32979524048E+02 -0.53091812387E+01 -0.58949577037E+02  0.67756099686E+02  0.00000000000E+00 0.  1.
         11    1    3    3    0    0  0.38286779083E+02  0.50054409545E+02 -0.17583095576E+03  0.18678288565E+03  0.00000000000E+00 0. -1.
<mgrwt>
<rscale>  0 0.12323890E+03</rscale>
<asrwt>0</asrwt>
<pdfrwt beam="2">  1        2 0.58450584E-01 0.13287385E+03</pdfrwt>
<pdfrwt beam="1">  1       -2 0.65399222E-02 0.13287385E+03</pdfrwt>
<totfact> 0.10358103E+04</totfact>
</mgrwt>
</event>
<event>
 7    1  0.1111284E-005  0.1495853E+03  0.7546771E-02  0.1212584E+00
         -3   -1    0    0    0  501 -0.00000000000E+00  0.00000000000E+00  0.22576081730E+03  0.22576081730E+03  0.00000000000E+00 0.  1.
          3   -1    0    0  501    0  0.00000000000E+00 -0.00000000000E+00 -0.82386294873E+02  0.82386294873E+02  0.00000000000E+00 0. -1.
         23    2    1    2    0    0 -0.47160448441E+02 -0.67279085953E+02  0.29865729007E+02  0.12037060857E+03  0.82743811453E+02 0.  0.
          5    1    1    2  502    0  0.24590369398E+02  0.10275386617E+03  0.92665037629E+02  0.14061273939E+03  0.47000000000E+01 0.  1.
         -5    1    1    2    0  502  0.22570079043E+02 -0.35474780217E+02  0.20843755788E+02  0.47163764214E+02  0.47000000000E+01 0.  1.
        -11    1    3    3    0    0 -0.39338804029E+02 -0.58867220348E+02  0.57006668425E+02  0.90899127492E+02  0.00000000000E+00 0.  1.
         11    1    3    3    0    0 -0.78216444121E+01 -0.84118656041E+01 -0.27140939418E+02  0.29471481074E+02  0.00000000000E+00 0. -1.
<mgrwt>
<rscale>  0 0.14055542E+03</rscale>
<asrwt>0</asrwt>
<pdfrwt beam="2">  1        3 0.12674815E-01 0.14958532E+03</pdfrwt>
<pdfrwt beam="1">  1       -3 0.34732433E-01 0.14958532E+03</pdfrwt>
<totfact> 0.94484283E+02</totfact>
</mgrwt>
</event>
<event>
 7    1  0.1111284E-005  0.1998917E+03  0.7546771E-02  0.1153960E+00
          2   -1    0    0  501    0  0.00000000000E+00  0.00000000000E+00  0.82154190249E+03  0.82154190249E+03  0.00000000000E+00 0. -1.
         -2   -1    0    0    0  501 -0.00000000000E+00 -0.00000000000E+00 -0.44224491365E+02  0.44224491365E+02  0.00000000000E+00 0.  1.
         23    2    1    2    0    0 -0.12651493796E+03  0.91242344193E+02  0.36640479015E+03  0.40881356053E+03  0.92438423449E+02 0.  0.
          5    1    1    2  502    0 -0.25365525606E+01 -0.61935600174E+02  0.86207558413E+02  0.10628398654E+03  0.47000000000E+01 0.  1.
         -5    1    1    2    0  502  0.12905149052E+03 -0.29306744019E+02  0.32470506256E+03  0.35066884678E+03  0.47000000000E+01 0.  1.
        -11    1    3    3    0    0 -0.84750003518E+02  0.10705795586E+03  0.28226949531E+03  0.31356026054E+03  0.00000000000E+00 0. -1.
         11    1    3    3    0    0 -0.41764934439E+02 -0.15815611666E+02  0.84135294846E+02  0.95253299995E+02  0.00000000000E+00 0.  1.
<mgrwt>
<rscale>  0 0.19507702E+03</rscale>
<asrwt>0</asrwt>
<pdfrwt beam="1">  1        2 0.12639105E+00 0.19989175E+03</pdfrwt>
<pdfrwt beam="2">  1       -2 0.68037685E-02 0.19989175E+03</pdfrwt>
<totfact> 0.41279580E+03</totfact>
</mgrwt>
</event>
<event>
 7    1  0.1111284E-005  0.1305245E+03  0.7546771E-02  0.1240219E+00
         -3   -1    0    0    0  501 -0.00000000000E+00  0.00000000000E+00  0.76683619507E+03  0.76683619507E+03  0.00000000000E+00 0.  1.
          3   -1    0    0  501    0  0.00000000000E+00 -0.00000000000E+00 -0.18434348259E+02  0.18434348259E+02  0.00000000000E+00 0. -1.
         23    2    1    2    0    0 -0.40623525353E+01  0.37346200099E+02  0.22349139613E+03  0.24437533127E+03  0.91431160008E+02 0.  0.
          5    1    1    2  502    0  0.21976261589E+02 -0.65657027409E+02  0.15976536876E+03  0.17418629216E+03  0.47000000000E+01 0.  1.
         -5    1    1    2    0  502 -0.17913909054E+02  0.28310827309E+02  0.36514508193E+03  0.36670891991E+03  0.47000000000E+01 0.  1.
        -11    1    3    3    0    0 -0.25261775028E+00 -0.25694268523E+02  0.12323223571E+03  0.12588265634E+03  0.00000000000E+00 0.  1.
         11    1    3    3    0    0 -0.38097347850E+01  0.63040468622E+02  0.10025916042E+03  0.11849267493E+03  0.00000000000E+00 0. -1.
<mgrwt>
<rscale>  0 0.12176175E+03</rscale>
<asrwt>0</asrwt>
<pdfrwt beam="2">  1        3 0.28360542E-02 0.13052452E+03</pdfrwt>
<pdfrwt beam="1">  1       -3 0.11797477E+00 0.13052452E+03</pdfrwt>
<totfact> 0.78768650E+02</totfact>
</mgrwt>
</event>
<event>
 7    1  0.1111284E-005  0.1846096E+03  0.7546771E-02  0.1168854E+00
         -2   -1    0    0    0  501 -0.00000000000E+00  0.00000000000E+00  0.67992590237E+02  0.67992590237E+02  0.00000000000E+00 0.  1.
          2   -1    0    0  501    0  0.00000000000E+00 -0.00000000000E+00 -0.48213439182E+03  0.48213439182E+03  0.00000000000E+00 0. -1.
         23    2    1    2    0    0 -0.11673218171E+02  0.13535133611E+03 -0.27239320952E+03  0.31737522360E+03  0.89848337509E+02 0.  0.
          5    1    1    2  502    0 -0.55838334814E+02 -0.76210420330E+02 -0.68148361268E+02  0.11658574932E+03  0.47000000000E+01 0.  1.
         -5    1    1    2    0  502  0.67511552986E+02 -0.59140915777E+02 -0.73600230798E+02  0.11616600914E+03  0.47000000000E+01 0.  1.
        -11    1    3    3    0    0  0.26926574134E+02  0.11671235883E+03 -0.20792353615E+03  0.23995627098E+03  0.00000000000E+00 0. -1.
         11    1    3    3    0    0 -0.38599792305E+02  0.18638977280E+02 -0.64469673367E+02  0.77418952615E+02  0.00000000000E+00 0.  1.
<mgrwt>
<rscale>  0 0.17891874E+03</rscale>
<asrwt>0</asrwt>
<pdfrwt beam="2">  1        2 0.74174523E-01 0.18460964E+03</pdfrwt>
<pdfrwt beam="1">  1       -2 0.10460398E-01 0.18460964E+03</pdfrwt>
<totfact> 0.39295453E+03</totfact>
</mgrwt>
</event>
<event>
 7    1  0.1111284E-005  0.3979182E+03  0.7546771E-02  0.1045336E+00
          2   -1    0    0  501    0  0.00000000000E+00  0.00000000000E+00  0.19092843019E+03  0.19092843019E+03  0.00000000000E+00 0. -1.
         -2   -1    0    0    0  501 -0.00000000000E+00 -0.00000000000E+00 -0.12078315660E+04  0.12078315660E+04  0.00000000000E+00 0.  1.
         23    2    1    2    0    0  0.68827205918E+02  0.37145150628E+03 -0.10286891464E+03  0.40186608170E+03  0.90558976491E+02 0.  0.
          5    1    1    2  502    0 -0.10064817792E+03 -0.31517596225E+03 -0.72191105630E+03  0.79413072356E+03  0.47000000000E+01 0.  1.
         -5    1    1    2    0  502  0.31820971998E+02 -0.56275544033E+02 -0.19212316484E+03  0.20276319090E+03  0.47000000000E+01 0.  1.
        -11    1    3    3    0    0  0.40664537585E+02  0.18146704882E+03 -0.96933079852E+02  0.20971389175E+03  0.00000000000E+00 0.  1.
         11    1    3    3    0    0  0.28162668333E+02  0.18998445746E+03 -0.59358347898E+01  0.19215218994E+03  0.00000000000E+00 0. -1.
<mgrwt>
<rscale>  0 0.39553661E+03</rscale>
<asrwt>0</asrwt>
<pdfrwt beam="1">  1        2 0.29373605E-01 0.39791823E+03</pdfrwt>
<pdfrwt beam="2">  1       -2 0.18582024E+00 0.39791823E+03</pdfrwt>
<totfact> 0.31574381E+01</totfact>
</mgrwt>
</event>
<event>
 7    1  0.1111284E-005  0.1311426E+03  0.7546771E-02  0.1236770E+00
         -2   -1    0    0    0  501 -0.00000000000E+00  0.00000000000E+00  0.12855733339E+03  0.12855733339E+03  0.00000000000E+00 0.  1.
          2   -1    0    0  501    0  0.00000000000E+00 -0.00000000000E+00 -0.19016298100E+03  0.19016298100E+03  0.00000000000E+00 0. -1.
         23    2    1    2    0    0  0.94299554360E+01  0.38466390833E+02 -0.13318369974E+03  0.16931548629E+03  0.96753546392E+02 0.  0.
          5    1    1    2  502    0 -0.50900416994E+02 -0.61592364191E+02  0.28035970955E+02  0.84809064634E+02  0.47000000000E+01 0.  1.
         -5    1    1    2    0  502  0.41470461558E+02  0.23125973358E+02  0.43542081173E+02  0.64595763472E+02  0.47000000000E+01 0.  1.
        -11    1    3    3    0    0 -0.17110121276E+02  0.24645703109E+02  0.27488086904E+01  0.30128439738E+02  0.00000000000E+00 0. -1.
         11    1    3    3    0    0  0.26540076712E+02  0.13820687724E+02 -0.13593250843E+03  0.13918704656E+03  0.00000000000E+00 0.  1.
<mgrwt>
<rscale>  0 0.12391805E+03</rscale>
<asrwt>0</asrwt>
<pdfrwt beam="2">  1        2 0.29255843E-01 0.13114261E+03</pdfrwt>
<pdfrwt beam="1">  1       -2 0.19778051E-01 0.13114261E+03</pdfrwt>
<totfact> 0.37089636E+03</totfact>
</mgrwt>
</event>
<event>
 7    1  0.1111284E-005  0.1286760E+03  0.7546771E-02  0.1243337E+00
          2   -1    0    0  501    0  0.00000000000E+00  0.00000000000E+00  0.21159471627E+03  0.21159471627E+03  0.00000000000E+00 0. -1.
         -2   -1    0    0    0  501 -0.00000000000E+00 -0.00000000000E+00 -0.10718747241E+03  0.10718747241E+03  0.00000000000E+00 0.  1.
         23    2    1    2    0    0  0.39055257730E+00 -0.30530148988E+02  0.15313020484E+03  0.18119058905E+03  0.91918047183E+02 0.  0.
          5    1    1    2  502    0 -0.53450542963E+01  0.56019194487E+02 -0.79205167208E+02  0.97274191175E+02  0.47000000000E+01 0. -1.
         -5    1    1    2    0  502  0.49545017190E+01 -0.25489045499E+02  0.30482206226E+02  0.40317408450E+02  0.47000000000E+01 0. -1.
        -11    1    3    3    0    0  0.35782149792E+02 -0.11758993030E+02  0.21006096197E+02  0.43126467955E+02  0.00000000000E+00 0.  1.
         11    1    3    3    0    0 -0.35391597215E+02 -0.18771155958E+02  0.13212410865E+03  0.13806412110E+03  0.00000000000E+00 0. -1.
<mgrwt>
<rscale>  0 0.11985478E+03</rscale>
<asrwt>0</asrwt>
<pdfrwt beam="1">  1        2 0.32553033E-01 0.12867603E+03</pdfrwt>
<pdfrwt beam="2">  1       -2 0.16490380E-01 0.12867603E+03</pdfrwt>
<totfact> 0.44712799E+03</totfact>
</mgrwt>
</event>
<event>
 7    1  0.1111284E-005  0.2392707E+03  0.7546771E-02  0.1123038E+00
          2   -1    0    0  501    0  0.00000000000E+00  0.00000000000E+00  0.11341691179E+04  0.11341691179E+04  0.00000000000E+00 0. -1.
         -2   -1    0    0    0  501 -0.00000000000E+00 -0.00000000000E+00 -0.60380665180E+02  0.60380665180E+02  0.00000000000E+00 0.  1.
         23    2    1    2    0    0  0.16785453132E+03 -0.11597545518E+03  0.80163054422E+03  0.83216820858E+03  0.90922758715E+02 0.  0.
          5    1    1    2  502    0 -0.12206400146E+03  0.21081861005E+02  0.94885377859E+02  0.15610698334E+03  0.47000000000E+01 0. -1.
         -5    1    1    2    0  502 -0.45790529850E+02  0.94893594180E+02  0.17727253067E+03  0.20627459119E+03  0.47000000000E+01 0. -1.
        -11    1    3    3    0    0  0.12011225341E+03 -0.12175515259E+03  0.68463474975E+03  0.70567415367E+03  0.00000000000E+00 0. -1.
         11    1    3    3    0    0  0.47742277909E+02  0.57796974028E+01  0.11699579448E+03  0.12649405491E+03  0.00000000000E+00 0.  1.
<mgrwt>
<rscale>  0 0.23519142E+03</rscale>
<asrwt>0</asrwt>
<pdfrwt beam="1">  1        2 0.17448754E+00 0.23927072E+03</pdfrwt>
<pdfrwt beam="2">  1       -2 0.92893340E-02 0.23927072E+03</pdfrwt>
<totfact> 0.16288592E+03</totfact>
</mgrwt>
</event>
<event>
 7    1  0.1111284E-005  0.1318103E+03  0.7546771E-02  0.1237908E+00
          1   -1    0    0  501    0  0.00000000000E+00  0.00000000000E+00  0.19824918899E+03  0.19824918899E+03  0.00000000000E+00 0. -1.
         -1   -1    0    0    0  501 -0.00000000000E+00 -0.00000000000E+00 -0.94055754262E+02  0.94055754262E+02  0.00000000000E+00 0.  1.
         23    2    1    2    0    0 -0.39705594929E+02 -0.13108686119E+02  0.12328174886E+03  0.15911961748E+03  0.91500224848E+02 0.  0.
          5    1    1    2  502    0 -0.32141583615E+02  0.36289975325E+02 -0.29330935375E+02  0.56854529075E+02  0.47000000000E+01 0.  1.
         -5    1    1    2    0  502  0.71847178544E+02 -0.23181289205E+02  0.10242621248E+02  0.76330796694E+02  0.47000000000E+01 0.  1.
        -11    1    3    3    0    0  0.68984775449E+01 -0.40494333407E+02  0.28463128800E+02  0.49975291211E+02  0.00000000000E+00 0.  1.
         11    1    3    3    0    0 -0.46604072474E+02  0.27385647288E+02  0.94818620056E+02  0.10914432627E+03  0.00000000000E+00 0. -1.
<mgrwt>
<rscale>  0 0.12320072E+03</rscale>
<asrwt>0</asrwt>
<pdfrwt beam="1">  1        1 0.30499875E-01 0.13181035E+03</pdfrwt>
<pdfrwt beam="2">  1       -1 0.14470116E-01 0.13181035E+03</pdfrwt>
<totfact> 0.48242622E+03</totfact>
</mgrwt>
</event>
<event>
 7    1  0.1111284E-005  0.1283536E+03  0.7546771E-02  0.1243188E+00
          2   -1    0    0  501    0  0.00000000000E+00  0.00000000000E+00  0.42553245266E+03  0.42553245266E+03  0.00000000000E+00 0.  1.
         -2   -1    0    0    0  501 -0.00000000000E+00 -0.00000000000E+00 -0.42392735643E+02  0.42392735643E+02  0.00000000000E+00 0. -1.
         23    2    1    2    0    0  0.14222321362E+02  0.25408674996E+02  0.29859531409E+03  0.31422938942E+03  0.93450908962E+02 0.  0.
          5    1    1    2  502    0  0.48743108543E+02 -0.35003665742E+02  0.60808062441E+02  0.85562010867E+02  0.47000000000E+01 0. -1.
         -5    1    1    2    0  502 -0.62965429904E+02  0.95949907461E+01  0.23736340487E+02  0.68133788022E+02  0.47000000000E+01 0. -1.
        -11    1    3    3    0    0  0.19436058176E+02 -0.28999476286E+02  0.18380238845E+03  0.18708834272E+03  0.00000000000E+00 0.  1.
         11    1    3    3    0    0 -0.52137368142E+01  0.54408151282E+02  0.11479292564E+03  0.12714104670E+03  0.00000000000E+00 0. -1.
<mgrwt>
<rscale>  0 0.11994497E+03</rscale>
<asrwt>0</asrwt>
<pdfrwt beam="1">  1        2 0.65466528E-01 0.12835358E+03</pdfrwt>
<pdfrwt beam="2">  1       -2 0.65219596E-02 0.12835358E+03</pdfrwt>
<totfact> 0.91922759E+03</totfact>
</mgrwt>
</event>
<event>
 7    1  0.1111284E-005  0.1277419E+03  0.7546771E-02  0.1246961E+00
         -2   -1    0    0    0  501 -0.00000000000E+00  0.00000000000E+00  0.78614524658E+02  0.78614524658E+02  0.00000000000E+00 0.  1.
          2   -1    0    0  501    0  0.00000000000E+00 -0.00000000000E+00 -0.16519455444E+03  0.16519455444E+03  0.00000000000E+00 0. -1.
         23    2    1    2    0    0  0.82392473711E+01  0.24987372583E+02 -0.68651563993E+02  0.11481517263E+03  0.88188619682E+02 0.  0.
          5    1    1    2  502    0  0.13862153057E+02 -0.73110658430E+02 -0.94466884749E+01  0.75157551761E+02  0.47000000000E+01 0. -1.
         -5    1    1    2    0  502 -0.22101400428E+02  0.48123285848E+02 -0.84817773119E+01  0.53836354706E+02  0.47000000000E+01 0. -1.
        -11    1    3    3    0    0  0.10688306013E+02  0.57964998880E+02 -0.45099317246E+02  0.74216773014E+02  0.00000000000E+00 0.  1.
         11    1    3    3    0    0 -0.24490586420E+01 -0.32977626298E+02 -0.23552246747E+02  0.40598399615E+02  0.00000000000E+00 0. -1.
<mgrwt>
<rscale>  0 0.11768801E+03</rscale>
<asrwt>0</asrwt>
<pdfrwt beam="2">  1        2 0.25414547E-01 0.12774192E+03</pdfrwt>
<pdfrwt beam="1">  1       -2 0.12094542E-01 0.12774192E+03</pdfrwt>
<totfact> 0.96664362E+03</totfact>
</mgrwt>
</event>
<event>
 6    1  0.1111284E-005  0.3026479E+03  0.7546771E-02  0.1083924E+00
          2   -1    0    0  501    0  0.00000000000E+00  0.00000000000E+00  0.25884550575E+03  0.25884550575E+03  0.00000000000E+00 0. -1.
         -2   -1    0    0    0  501 -0.00000000000E+00 -0.00000000000E+00 -0.88465663826E+02  0.88465663826E+02  0.00000000000E+00 0.  1.
          5    1    1    2  502    0 -0.32684740277E+02 -0.20326995436E+02  0.21644469038E+02  0.44407792451E+02  0.47000000000E+01 0. -1.
         -5    1    1    2    0  502  0.10647744874E+03  0.28593148121E+01  0.31957263888E+02  0.11130579269E+03  0.47000000000E+01 0. -1.
        -11    1    1    2    0    0 -0.31655245332E+02 -0.48363853323E+02  0.93708545260E+02  0.11010180889E+03  0.00000000000E+00 0. -1.
         11    1    1    2    0    0 -0.42137463133E+02  0.65831533947E+02  0.23069563742E+02  0.81495775549E+02  0.00000000000E+00 0.  1.
<mgrwt>
<rscale>  0 0.30264791E+03</rscale>
<asrwt>0</asrwt>
<pdfrwt beam="1">  1        2 0.39822385E-01 0.30264791E+03</pdfrwt>
<pdfrwt beam="2">  1       -2 0.13610102E-01 0.30264791E+03</pdfrwt>
<totfact> 0.51527161E+03</totfact>
</mgrwt>
</event>
<event>
 7    1  0.1111284E-005  0.1371468E+03  0.7546771E-02  0.1229548E+00
          4   -1    0    0  501    0  0.00000000000E+00  0.00000000000E+00  0.29913202767E+02  0.29913202767E+02  0.00000000000E+00 0. -1.
         -4   -1    0    0    0  501 -0.00000000000E+00 -0.00000000000E+00 -0.58945283311E+03  0.58945283311E+03  0.00000000000E+00 0.  1.
         23    2    1    2    0    0 -0.55150593077E+02  0.11924747904E+02 -0.12612041419E+03  0.16476570169E+03  0.89764079944E+02 0.  0.
          5    1    1    2  502    0  0.74737848644E+02  0.15280890776E+02 -0.14235619879E+03  0.16157545908E+03  0.47000000000E+01 0. -1.
         -5    1    1    2    0  502 -0.19587255567E+02 -0.27205638681E+02 -0.29106301736E+03  0.29302487511E+03  0.47000000000E+01 0. -1.
        -11    1    3    3    0    0 -0.27109374055E+01 -0.26097951442E+02 -0.82756799343E+02  0.86816703972E+02  0.00000000000E+00 0.  1.
         11    1    3    3    0    0 -0.52439655671E+02  0.38022699347E+02 -0.43363614851E+02  0.77948997720E+02  0.00000000000E+00 0. -1.
<mgrwt>
<rscale>  0 0.12860022E+03</rscale>
<asrwt>0</asrwt>
<pdfrwt beam="1">  1        4 0.46020309E-02 0.13714681E+03</pdfrwt>
<pdfrwt beam="2">  1       -4 0.90685056E-01 0.13714681E+03</pdfrwt>
<totfact> 0.48718293E+02</totfact>
</mgrwt>
</event>
<event>
 7    1  0.1111284E-005  0.1459496E+03  0.7546771E-02  0.1214549E+00
          1   -1    0    0  501    0  0.00000000000E+00  0.00000000000E+00  0.90948972228E+03  0.90948972228E+03  0.00000000000E+00 0. -1.
         -1   -1    0    0    0  501 -0.00000000000E+00 -0.00000000000E+00 -0.19536871635E+02  0.19536871635E+02  0.00000000000E+00 0.  1.
         23    2    1    2    0    0  0.23487201156E+02  0.71571196139E+02  0.42193816580E+03  0.43878274589E+03  0.93938264794E+02 0.  0.
          5    1    1    2  502    0 -0.40733843470E+02  0.24068626287E+02  0.12651210721E+03  0.13515157434E+03  0.47000000000E+01 0. -1.
         -5    1    1    2    0  502  0.17246642314E+02 -0.95639822427E+02  0.34150257763E+03  0.35509227369E+03  0.47000000000E+01 0. -1.
        -11    1    3    3    0    0 -0.30037806096E+02 -0.11246164330E+01  0.11226263502E+03  0.11621718366E+03  0.00000000000E+00 0.  1.
         11    1    3    3    0    0  0.53525007252E+02  0.72695812572E+02  0.30967553079E+03  0.32256556223E+03  0.00000000000E+00 0. -1.
<mgrwt>
<rscale>  0 0.13909691E+03</rscale>
<asrwt>0</asrwt>
<pdfrwt beam="1">  1        1 0.13992146E+00 0.14594960E+03</pdfrwt>
<pdfrwt beam="2">  1       -1 0.30056733E-02 0.14594960E+03</pdfrwt>
<totfact> 0.68667679E+03</totfact>
</mgrwt>
</event>
<event>
 7    1  0.1111284E-005  0.1350534E+03  0.7546771E-02  0.1232453E+00
          1   -1    0    0  501    0  0.00000000000E+00  0.00000000000E+00  0.43618085632E+03  0.43618085632E+03  0.00000000000E+00 0. -1.
         -1   -1    0    0    0  501 -0.00000000000E+00 -0.00000000000E+00 -0.35310305989E+02  0.35310305989E+02  0.00000000000E+00 0.  1.
         23    2    1    2    0    0  0.50470753336E+02  0.81756671514E+01  0.23764566884E+03  0.25963797020E+03  0.91226493823E+02 0.  0.
          5    1    1    2  502    0 -0.16259089309E+02 -0.63908331527E+02  0.58392716344E+02  0.88206757937E+02  0.47000000000E+01 0.  1.
         -5    1    1    2    0  502 -0.34211664027E+02  0.55732664376E+02  0.10483216514E+03  0.12364643417E+03  0.47000000000E+01 0.  1.
        -11    1    3    3    0    0  0.46783784569E+02  0.18883745203E+02  0.24222416034E+03  0.24742243671E+03  0.00000000000E+00 0. -1.
         11    1    3    3    0    0  0.36869687675E+01 -0.10708078052E+02 -0.45784914980E+01  0.12215533498E+02  0.00000000000E+00 0.  1.
<mgrwt>
<rscale>  0 0.12668886E+03</rscale>
<asrwt>0</asrwt>
<pdfrwt beam="1">  1        1 0.67104743E-01 0.13505337E+03</pdfrwt>
<pdfrwt beam="2">  1       -1 0.54323551E-02 0.13505337E+03</pdfrwt>
<totfact> 0.80166160E+03</totfact>
</mgrwt>
</event>
<event>
 7    1  0.1111284E-005  0.1464058E+03  0.7546771E-02  0.1215572E+00
         -1   -1    0    0    0  501 -0.00000000000E+00  0.00000000000E+00  0.39637265918E+02  0.39637265918E+02  0.00000000000E+00 0.  1.
          1   -1    0    0  501    0  0.00000000000E+00 -0.00000000000E+00 -0.49619346195E+03  0.49619346195E+03  0.00000000000E+00 0. -1.
         23    2    1    2    0    0 -0.27418103743E+02  0.71122674453E+02 -0.29785541937E+03  0.31991272647E+03  0.88408791840E+02 0.  0.
          5    1    1    2  502    0  0.54966096037E+02  0.10238770801E+02 -0.88944512917E+02  0.10516330405E+03  0.47000000000E+01 0. -1.
         -5    1    1    2    0  502 -0.27547992294E+02 -0.81361445253E+02 -0.69756263749E+02  0.11075469735E+03  0.47000000000E+01 0. -1.
        -11    1    3    3    0    0 -0.11539130896E+02 -0.14834035497E+02 -0.15576368694E+02  0.24409494313E+02  0.00000000000E+00 0.  1.
         11    1    3    3    0    0 -0.15878972848E+02  0.85956709949E+02 -0.28227905067E+03  0.29550323215E+03  0.00000000000E+00 0. -1.
<mgrwt>
<rscale>  0 0.13834577E+03</rscale>
<asrwt>0</asrwt>
<pdfrwt beam="2">  1        1 0.76337455E-01 0.14640576E+03</pdfrwt>
<pdfrwt beam="1">  1       -1 0.60980410E-02 0.14640576E+03</pdfrwt>
<totfact> 0.57435569E+03</totfact>
</mgrwt>
</event>
<event>
 7    1  0.1111284E-005  0.1405182E+03  0.7546771E-02  0.1223852E+00
          1   -1    0    0  501    0  0.00000000000E+00  0.00000000000E+00  0.23773144028E+03  0.23773144028E+03  0.00000000000E+00 0. -1.
         -1   -1    0    0    0  501 -0.00000000000E+00 -0.00000000000E+00 -0.11570577196E+03  0.11570577196E+03  0.00000000000E+00 0.  1.
         23    2    1    2    0    0  0.49877149118E+02 -0.40406411562E+02  0.17167333460E+03  0.20440614263E+03  0.90497122795E+02 0.  0.
          5    1    1    2  502    0 -0.12966152054E+02  0.70368490259E+02  0.10227451957E+02  0.72432977945E+02  0.47000000000E+01 0.  1.
         -5    1    1    2    0  502 -0.36910997064E+02 -0.29962078697E+02 -0.59875118232E+02  0.76598091670E+02  0.47000000000E+01 0.  1.
        -11    1    3    3    0    0  0.17522878050E+02 -0.64449608822E+02  0.79685851388E+02  0.10397421913E+03  0.00000000000E+00 0.  1.
         11    1    3    3    0    0  0.32354271068E+02  0.24043197259E+02  0.91987483208E+02  0.10043192350E+03  0.00000000000E+00 0. -1.
<mgrwt>
<rscale>  0 0.13245926E+03</rscale>
<asrwt>0</asrwt>
<pdfrwt beam="1">  1        1 0.36574068E-01 0.14051822E+03</pdfrwt>
<pdfrwt beam="2">  1       -1 0.17800888E-01 0.14051822E+03</pdfrwt>
<totfact> 0.27880337E+03</totfact>
</mgrwt>
</event>
<event>
 7    1  0.1111284E-005  0.1339020E+03  0.7546771E-02  0.1231682E+00
          1   -1    0    0  501    0  0.00000000000E+00  0.00000000000E+00  0.23281456637E+03  0.23281456637E+03  0.00000000000E+00 0. -1.
         -1   -1    0    0    0  501 -0.00000000000E+00 -0.00000000000E+00 -0.17445378775E+03  0.17445378775E+03  0.00000000000E+00 0.  1.
         23    2    1    2    0    0  0.57836185397E+02  0.27129555238E+01  0.19028183418E+03  0.21929783837E+03  0.92368723189E+02 0.  0.
          5    1    1    2  502    0  0.90491161628E+01 -0.49213569791E+02 -0.34845488796E+02  0.61156847894E+02  0.47000000000E+01 0. -1.
         -5    1    1    2    0  502 -0.66885301560E+02  0.46500614267E+02 -0.97075566772E+02  0.12681366786E+03  0.47000000000E+01 0.  1.
        -11    1    3    3    0    0  0.11148103989E+02  0.43701133392E+02  0.10005654627E+03  0.10975145435E+03  0.00000000000E+00 0.  1.
         11    1    3    3    0    0  0.46688081408E+02 -0.40988177868E+02  0.90225287915E+02  0.10954638401E+03  0.00000000000E+00 0. -1.
<mgrwt>
<rscale>  0 0.12719274E+03</rscale>
<asrwt>0</asrwt>
<pdfrwt beam="1">  1        1 0.35817626E-01 0.13390202E+03</pdfrwt>
<pdfrwt beam="2">  1       -1 0.26839044E-01 0.13390202E+03</pdfrwt>
<totfact> 0.14681162E+03</totfact>
</mgrwt>
</event>
<event>
 7    1  0.1111284E-005  0.2253798E+03  0.7546771E-02  0.1129935E+00
         -1   -1    0    0    0  501 -0.00000000000E+00  0.00000000000E+00  0.44167708208E+03  0.44167708208E+03  0.00000000000E+00 0.  1.
          1   -1    0    0  501    0  0.00000000000E+00 -0.00000000000E+00 -0.28751806491E+02  0.28751806491E+02  0.00000000000E+00 0. -1.
         23    2    1    2    0    0  0.16124123743E+02 -0.50179396512E+01  0.12244610877E+03  0.15374548363E+03  0.91430066705E+02 0.  0.
          5    1    1    2  502    0 -0.39192336807E+02  0.34651354639E+02  0.26706151341E+03  0.27217769487E+03  0.47000000000E+01 0.  1.
         -5    1    1    2    0  502  0.23068213064E+02 -0.29633414988E+02  0.23417653413E+02  0.44505710074E+02  0.47000000000E+01 0.  1.
        -11    1    3    3    0    0  0.22005647746E+01 -0.44509044327E+02  0.91177646143E+02  0.10148527316E+03  0.00000000000E+00 0.  1.
         11    1    3    3    0    0  0.13923558968E+02  0.39491104676E+02  0.31268462626E+02  0.52260210465E+02  0.00000000000E+00 0. -1.
<mgrwt>
<rscale>  0 0.22537980E+03</rscale>
<asrwt>0</asrwt>
<pdfrwt beam="2">  1        1 0.44233552E-02 0.22537980E+03</pdfrwt>
<pdfrwt beam="1">  1       -1 0.67950316E-01 0.22537980E+03</pdfrwt>
<totfact> 0.44350685E+03</totfact>
</mgrwt>
</event>
<event>
 7    1  0.1111284E-005  0.1879132E+03  0.7546771E-02  0.1165288E+00
          1   -1    0    0  501    0  0.00000000000E+00  0.00000000000E+00  0.40958429081E+03  0.40958429081E+03  0.00000000000E+00 0.  1.
         -1   -1    0    0    0  501 -0.00000000000E+00 -0.00000000000E+00 -0.78724722945E+02  0.78724722945E+02  0.00000000000E+00 0. -1.
         23    2    1    2    0    0 -0.13589962057E+03  0.34898617324E+02  0.19056599246E+03  0.25380170808E+03  0.91723983685E+02 0.  0.
          5    1    1    2  502    0  0.72318230289E+02  0.33549400258E+02  0.20369585353E+02  0.82416616633E+02  0.47000000000E+01 0.  1.
         -5    1    1    2    0  502  0.63581390282E+02 -0.68448017582E+02  0.11992399006E+03  0.15209068904E+03  0.47000000000E+01 0.  1.
        -11    1    3    3    0    0 -0.91367528325E+02 -0.22185949061E+02  0.92406232468E+02  0.13183001694E+03  0.00000000000E+00 0. -1.
         11    1    3    3    0    0 -0.44532092246E+02  0.57084566385E+02  0.98159759987E+02  0.12197169114E+03  0.00000000000E+00 0.  1.
<mgrwt>
<rscale>  0 0.18262329E+03</rscale>
<asrwt>0</asrwt>
<pdfrwt beam="1">  1        1 0.63012966E-01 0.18791325E+03</pdfrwt>
<pdfrwt beam="2">  1       -1 0.12111496E-01 0.18791325E+03</pdfrwt>
<totfact> 0.26155880E+03</totfact>
</mgrwt>
</event>
<event>
 7    1  0.1111284E-005  0.1633215E+03  0.7546771E-02  0.1192348E+00
          3   -1    0    0  501    0  0.00000000000E+00  0.00000000000E+00  0.70608306562E+02  0.70608306562E+02  0.00000000000E+00 0. -1.
         -3   -1    0    0    0  501 -0.00000000000E+00 -0.00000000000E+00 -0.32816085748E+03  0.32816085748E+03  0.00000000000E+00 0.  1.
         23    2    1    2    0    0 -0.98404920974E+02 -0.36963962537E+02 -0.93917406774E+02  0.16757578526E+03  0.90616232056E+02 0.  0.
          5    1    1    2  502    0 -0.17065716711E+02  0.32430856660E+01  0.94756280845E+01  0.20337989554E+02  0.47000000000E+01 0. -1.
         -5    1    1    2    0  502  0.11547063769E+03  0.33720876871E+02 -0.17311077222E+03  0.21085538922E+03  0.47000000000E+01 0. -1.
        -11    1    3    3    0    0  0.11210103964E+02  0.70996595021E+01 -0.31013159451E+02  0.33732590399E+02  0.00000000000E+00 0.  1.
         11    1    3    3    0    0 -0.10961502494E+03 -0.44063622039E+02 -0.62904247323E+02  0.13384319486E+03  0.00000000000E+00 0. -1.
<mgrwt>
<rscale>  0 0.15680788E+03</rscale>
<asrwt>0</asrwt>
<pdfrwt beam="1">  1        3 0.10862816E-01 0.16332152E+03</pdfrwt>
<pdfrwt beam="2">  1       -3 0.50486287E-01 0.16332152E+03</pdfrwt>
<totfact> 0.59856662E+02</totfact>
</mgrwt>
</event>
<event>
 7    1  0.1111284E-005  0.1367861E+03  0.7546771E-02  0.1229576E+00
         -2   -1    0    0    0  501 -0.00000000000E+00  0.00000000000E+00  0.38084539449E+03  0.38084539449E+03  0.00000000000E+00 0.  1.
          2   -1    0    0  501    0  0.00000000000E+00 -0.00000000000E+00 -0.41239142219E+02  0.41239142219E+02  0.00000000000E+00 0. -1.
         23    2    1    2    0    0  0.54955099843E+02 -0.80502194381E+01  0.10070409052E+03  0.14679437573E+03  0.91227221090E+02 0.  0.
          5    1    1    2  502    0 -0.46725057331E+02 -0.55316521431E+02  0.12037127780E+03  0.14055064228E+03  0.47000000000E+01 0.  1.
         -5    1    1    2    0  502 -0.82300425121E+01  0.63366740869E+02  0.11853088395E+03  0.13473951870E+03  0.47000000000E+01 0.  1.
        -11    1    3    3    0    0  0.77590917297E+02 -0.21164339921E+02  0.71836633323E+02  0.10783682867E+03  0.00000000000E+00 0. -1.
         11    1    3    3    0    0 -0.22635817454E+02  0.13114120483E+02  0.28867457193E+02  0.38957547057E+02  0.00000000000E+00 0.  1.
<mgrwt>
<rscale>  0 0.12858170E+03</rscale>
<asrwt>0</asrwt>
<pdfrwt beam="2">  1        2 0.63444837E-02 0.13678607E+03</pdfrwt>
<pdfrwt beam="1">  1       -2 0.58591597E-01 0.13678607E+03</pdfrwt>
<totfact> 0.30538875E+03</totfact>
</mgrwt>
</event>
<event>
 7    1  0.1111284E-005  0.3055103E+03  0.7546771E-02  0.1082518E+00
         -3   -1    0    0    0  501 -0.00000000000E+00  0.00000000000E+00  0.45498137797E+02  0.45498137797E+02  0.00000000000E+00 0.  1.
          3   -1    0    0  501    0  0.00000000000E+00 -0.00000000000E+00 -0.51285900495E+03  0.51285900495E+03  0.00000000000E+00 0. -1.
         23    2    1    2    0    0  0.16013457388E+02  0.24283761476E+02 -0.14941643906E+03  0.17742280330E+03  0.91145197236E+02 0.  0.
          5    1    1    2  502    0  0.29328796366E+02  0.80831741257E+02 -0.19339172883E+03  0.21169884145E+03  0.47000000000E+01 0. -1.
         -5    1    1    2    0  502 -0.45342253754E+02 -0.10511550273E+03 -0.12455269926E+03  0.16923549800E+03  0.47000000000E+01 0.  1.
        -11    1    3    3    0    0 -0.26830287334E+02 -0.20011344698E+02 -0.43550127723E+02  0.54926604299E+02  0.00000000000E+00 0.  1.
         11    1    3    3    0    0  0.42843744722E+02  0.44295106174E+02 -0.10586631134E+03  0.12249619900E+03  0.00000000000E+00 0. -1.
<mgrwt>
<rscale>  0 0.30551026E+03</rscale>
<asrwt>0</asrwt>
<pdfrwt beam="2">  1        3 0.78901382E-01 0.30551026E+03</pdfrwt>
<pdfrwt beam="1">  1       -3 0.69997138E-02 0.30551026E+03</pdfrwt>
<totfact> 0.52303707E+02</totfact>
</mgrwt>
</event>
<event>
 7    1  0.1111284E-005  0.1834685E+03  0.7546771E-02  0.1169979E+00
         -1   -1    0    0    0  501 -0.00000000000E+00  0.00000000000E+00  0.82842574232E+02  0.82842574232E+02  0.00000000000E+00 0.  1.
          1   -1    0    0  501    0  0.00000000000E+00 -0.00000000000E+00 -0.37162151896E+03  0.37162151896E+03  0.00000000000E+00 0. -1.
         23    2    1    2    0    0  0.11417134042E+03  0.70728232864E+02 -0.17642030667E+03  0.23932424941E+03  0.90079930342E+02 0.  0.
          5    1    1    2  502    0 -0.82304528543E+02 -0.38158560811E+02  0.31327376702E+01  0.90895628207E+02  0.47000000000E+01 0.  1.
         -5    1    1    2    0  502 -0.31866811879E+02 -0.32569672053E+02 -0.11549137573E+03  0.12424421558E+03  0.47000000000E+01 0.  1.
        -11    1    3    3    0    0  0.62575136212E+02  0.29498315092E+01 -0.12501557338E+03  0.13983291017E+03  0.00000000000E+00 0.  1.
         11    1    3    3    0    0  0.51596204211E+02  0.67778401355E+02 -0.51404733288E+02  0.99491339240E+02  0.00000000000E+00 0. -1.
<mgrwt>
<rscale>  0 0.17777029E+03</rscale>
<asrwt>0</asrwt>
<pdfrwt beam="2">  1        1 0.57172540E-01 0.18346850E+03</pdfrwt>
<pdfrwt beam="1">  1       -1 0.12745012E-01 0.18346850E+03</pdfrwt>
<totfact> 0.27314264E+03</totfact>
</mgrwt>
</event>
<event>
 7    1  0.1111284E-005  0.1421764E+03  0.7546771E-02  0.1220845E+00
         -1   -1    0    0    0  501 -0.00000000000E+00  0.00000000000E+00  0.16277752514E+03  0.16277752514E+03  0.00000000000E+00 0.  1.
          1   -1    0    0  501    0  0.00000000000E+00 -0.00000000000E+00 -0.14161666981E+03  0.14161666981E+03  0.00000000000E+00 0. -1.
         23    2    1    2    0    0 -0.27503428119E+02  0.61926953238E+02 -0.71560521861E+02  0.13465504100E+03  0.91758845250E+02 0.  0.
          5    1    1    2  502    0  0.44996146931E+02 -0.65455380525E+02  0.45946431592E+01  0.79701071662E+02  0.47000000000E+01 0. -1.
         -5    1    1    2    0  502 -0.17492718813E+02  0.35284272864E+01  0.88126734029E+02  0.90038082283E+02  0.47000000000E+01 0. -1.
        -11    1    3    3    0    0 -0.25452227114E+02  0.17029112955E+02 -0.82837851084E+02  0.88317133815E+02  0.00000000000E+00 0. -1.
         11    1    3    3    0    0 -0.20512010045E+01  0.44897840283E+02  0.11277329223E+02  0.46337907183E+02  0.00000000000E+00 0.  1.
<mgrwt>
<rscale>  0 0.13455807E+03</rscale>
<asrwt>0</asrwt>
<pdfrwt beam="2">  1        1 0.21787180E-01 0.14217639E+03</pdfrwt>
<pdfrwt beam="1">  1       -1 0.25042696E-01 0.14217639E+03</pdfrwt>
<totfact> 0.30701854E+03</totfact>
</mgrwt>
</event>
<event>
 7    1  0.1111284E-005  0.1414641E+03  0.7546771E-02  0.1222410E+00
         -2   -1    0    0    0  501 -0.00000000000E+00  0.00000000000E+00  0.26052555479E+03  0.26052555479E+03  0.00000000000E+00 0.  1.
          2   -1    0    0  501    0  0.00000000000E+00 -0.00000000000E+00 -0.62007516058E+02  0.62007516058E+02  0.00000000000E+00 0. -1.
         23    2    1    2    0    0 -0.63612405028E+02  0.18440350941E+02  0.99445961954E+02  0.14982705940E+03  0.90399467721E+02 0.  0.
          5    1    1    2  502    0  0.77144560152E+01 -0.48683736052E+02  0.97042936828E+02  0.10894512644E+03  0.47000000000E+01 0. -1.
         -5    1    1    2    0  502  0.55897949013E+02  0.30243385111E+02  0.20291399470E+01  0.63760884998E+02  0.47000000000E+01 0. -1.
        -11    1    3    3    0    0 -0.54532957696E+02 -0.22841901323E+02  0.88033177956E+02  0.10604450175E+03  0.00000000000E+00 0. -1.
         11    1    3    3    0    0 -0.90794473325E+01  0.41282252264E+02  0.11412783998E+02  0.43782557650E+02  0.00000000000E+00 0.  1.
<mgrwt>
<rscale>  0 0.13346043E+03</rscale>
<asrwt>0</asrwt>
<pdfrwt beam="2">  1        2 0.95396180E-02 0.14146409E+03</pdfrwt>
<pdfrwt beam="1">  1       -2 0.40080854E-01 0.14146409E+03</pdfrwt>
<totfact> 0.38648877E+03</totfact>
</mgrwt>
</event>
<event>
 7    1  0.1111284E-005  0.1935990E+03  0.7546771E-02  0.1160084E+00
          1   -1    0    0  501    0  0.00000000000E+00  0.00000000000E+00  0.14307608556E+04  0.14307608556E+04  0.00000000000E+00 0. -1.
         -1   -1    0    0    0  501 -0.00000000000E+00 -0.00000000000E+00 -0.23951038128E+02  0.23951038128E+02  0.00000000000E+00 0.  1.
         23    2    1    2    0    0 -0.86183622068E+02 -0.12012003717E+03  0.56210870885E+03  0.58810901959E+03  0.89719442282E+02 0.  0.
          5    1    1    2  502    0 -0.19993426001E+02  0.74246812279E+02  0.37691042144E+03  0.38470232909E+03  0.47000000000E+01 0. -1.
         -5    1    1    2    0  502  0.10617704807E+03  0.45873224888E+02  0.46779068723E+03  0.48190054509E+03  0.47000000000E+01 0. -1.
        -11    1    3    3    0    0 -0.89295138925E+02 -0.49285488601E+02  0.33757017562E+03  0.35264189299E+03  0.00000000000E+00 0.  1.
         11    1    3    3    0    0  0.31115168579E+01 -0.70834548567E+02  0.22453853322E+03  0.23546712660E+03  0.00000000000E+00 0. -1.
<mgrwt>
<rscale>  0 0.18821194E+03</rscale>
<asrwt>0</asrwt>
<pdfrwt beam="1">  1        1 0.22011699E+00 0.19359901E+03</pdfrwt>
<pdfrwt beam="2">  1       -1 0.36847762E-02 0.19359901E+03</pdfrwt>
<totfact> 0.22100633E+03</totfact>
</mgrwt>
</event>
<event>
 6    1  0.1111284E-005  0.4237717E+03  0.7546771E-02  0.1035846E+00
         -1   -1    0    0    0  501 -0.00000000000E+00  0.00000000000E+00  0.38543921557E+02  0.38543921557E+02  0.00000000000E+00 0.  1.
          1   -1    0    0  501    0  0.00000000000E+00 -0.00000000000E+00 -0.11647909025E+04  0.11647909025E+04  0.00000000000E+00 0. -1.
          5    1    1    2  502    0  0.33030972186E+02 -0.14235773485E+02 -0.47798023697E+02  0.60003695216E+02  0.47000000000E+01 0. -1.
         -5    1    1    2    0  502 -0.11692464839E+03 -0.50954764150E+02 -0.14704536100E+03  0.19471052766E+03  0.47000000000E+01 0. -1.
        -11    1    1    2    0    0 -0.96719921729E+01  0.81978780436E+02 -0.35823164017E+03  0.36761933558E+03  0.00000000000E+00 0.  1.
         11    1    1    2    0    0  0.93565668374E+02 -0.16788242801E+02 -0.57317195605E+03  0.58100126558E+03  0.00000000000E+00 0. -1.
<mgrwt>
<rscale>  0 0.42377168E+03</rscale>
<asrwt>0</asrwt>
<pdfrwt beam="2">  1        1 0.17919857E+00 0.42377168E+03</pdfrwt>
<pdfrwt beam="1">  1       -1 0.59298351E-02 0.42377168E+03</pdfrwt>
<totfact> 0.16463978E+03</totfact>
</mgrwt>
</event>
<event>
 7    1  0.1111284E-005  0.1865425E+03  0.7546771E-02  0.1166616E+00
         -2   -1    0    0    0  501 -0.00000000000E+00  0.00000000000E+00  0.60144377499E+02  0.60144377499E+02  0.00000000000E+00 0.  1.
          2   -1    0    0  501    0  0.00000000000E+00 -0.00000000000E+00 -0.58159045851E+03  0.58159045851E+03  0.00000000000E+00 0. -1.
         23    2    1    2    0    0 -0.11336762153E+03  0.79511698358E+02 -0.35397241466E+03  0.39104473596E+03  0.91897700727E+02 0.  0.
          5    1    1    2  502    0  0.83722394879E+02 -0.79507870827E+02 -0.18335625251E+03  0.21673150731E+03  0.47000000000E+01 0. -1.
         -5    1    1    2    0  502  0.29645226649E+02 -0.38275311105E-02  0.15882586153E+02  0.33958592737E+02  0.47000000000E+01 0. -1.
        -11    1    3    3    0    0 -0.24236253293E+02  0.70465743118E+02 -0.19188152784E+03  0.20584299272E+03  0.00000000000E+00 0.  1.
         11    1    3    3    0    0 -0.89131368236E+02  0.90459552399E+01 -0.16209088682E+03  0.18520174324E+03  0.00000000000E+00 0. -1.
<mgrwt>
<rscale>  0 0.18123218E+03</rscale>
<asrwt>0</asrwt>
<pdfrwt beam="2">  1        2 0.89475459E-01 0.18654248E+03</pdfrwt>
<pdfrwt beam="1">  1       -2 0.92529808E-02 0.18654248E+03</pdfrwt>
<totfact> 0.38663746E+03</totfact>
</mgrwt>
</event>
<event>
 7    1  0.1111284E-005  0.1527590E+03  0.7546771E-02  0.1205595E+00
         -1   -1    0    0    0  501 -0.00000000000E+00  0.00000000000E+00  0.39029132593E+02  0.39029132593E+02  0.00000000000E+00 0.  1.
          1   -1    0    0  501    0  0.00000000000E+00 -0.00000000000E+00 -0.50207908432E+03  0.50207908432E+03  0.00000000000E+00 0. -1.
         23    2    1    2    0    0 -0.57469606455E+02  0.66393132710E+02 -0.21642676264E+03  0.25100771480E+03  0.91943056114E+02 0.  0.
          5    1    1    2  502    0  0.30433306493E+02 -0.20935556174E+01 -0.20790654988E+03  0.21018513887E+03  0.47000000000E+01 0.  1.
         -5    1    1    2    0  502  0.27036299962E+02 -0.64299577093E+02 -0.38716639208E+02  0.79915363238E+02  0.47000000000E+01 0.  1.
        -11    1    3    3    0    0  0.82839894599E+01 -0.18169229412E+02 -0.31450892975E+02  0.37254584251E+02  0.00000000000E+00 0. -1.
         11    1    3    3    0    0 -0.65753595915E+02  0.84562362121E+02 -0.18497586967E+03  0.21375313055E+03  0.00000000000E+00 0.  1.
<mgrwt>
<rscale>  0 0.14590654E+03</rscale>
<asrwt>0</asrwt>
<pdfrwt beam="2">  1        1 0.77242934E-01 0.15275897E+03</pdfrwt>
<pdfrwt beam="1">  1       -1 0.60044821E-02 0.15275897E+03</pdfrwt>
<totfact> 0.58010543E+03</totfact>
</mgrwt>
</event>
<event>
 7    1  0.1111284E-005  0.1335834E+03  0.7546771E-02  0.1235234E+00
          2   -1    0    0  501    0  0.00000000000E+00  0.00000000000E+00  0.16982351741E+03  0.16982351741E+03  0.00000000000E+00 0. -1.
         -2   -1    0    0    0  501 -0.00000000000E+00 -0.00000000000E+00 -0.86807881583E+02  0.86807881583E+02  0.00000000000E+00 0.  1.
         23    2    1    2    0    0  0.12313144207E+02 -0.45172679093E+02  0.66980715626E+02  0.12208908098E+03  0.90703599554E+02 0.  0.
          5    1    1    2  502    0  0.35352329386E+01  0.27586488080E+02 -0.53750019063E+02  0.60701455879E+02  0.47000000000E+01 0.  1.
         -5    1    1    2    0  502 -0.15848377146E+02  0.17586191013E+02  0.69784939268E+02  0.73840862137E+02  0.47000000000E+01 0.  1.
        -11    1    3    3    0    0 -0.77641556703E+01  0.97939626745E+01 -0.16153693145E+02  0.20424143075E+02  0.00000000000E+00 0.  1.
         11    1    3    3    0    0  0.20077299878E+02 -0.54966641767E+02  0.83134408770E+02  0.10166493790E+03  0.00000000000E+00 0. -1.
<mgrwt>
<rscale>  0 0.12489477E+03</rscale>
<asrwt>0</asrwt>
<pdfrwt beam="1">  1        2 0.26126695E-01 0.13358337E+03</pdfrwt>
<pdfrwt beam="2">  1       -2 0.13355059E-01 0.13358337E+03</pdfrwt>
<totfact> 0.80264297E+03</totfact>
</mgrwt>
</event>
<event>
 7    1  0.1111284E-005  0.1619914E+03  0.7546771E-02  0.1203086E+00
          2   -1    0    0  501    0  0.00000000000E+00  0.00000000000E+00  0.31517320839E+03  0.31517320839E+03  0.00000000000E+00 0. -1.
         -2   -1    0    0    0  501 -0.00000000000E+00 -0.00000000000E+00 -0.59899653844E+02  0.59899653844E+02  0.00000000000E+00 0.  1.
         23    2    1    2    0    0  0.18965177490E+02 -0.59914125165E+02  0.96574440291E+02  0.14829844295E+03  0.93361797928E+02 0.  0.
          5    1    1    2  502    0 -0.16532482000E+02  0.68439228202E+01  0.17103526790E+03  0.17203288961E+03  0.47000000000E+01 0. -1.
         -5    1    1    2    0  502 -0.24326954901E+01  0.53070202345E+02 -0.12336153647E+02  0.54741529675E+02  0.47000000000E+01 0.  1.
        -11    1    3    3    0    0 -0.63456138314E+01  0.23717681081E+02  0.27887926391E+02  0.37155506309E+02  0.00000000000E+00 0. -1.
         11    1    3    3    0    0  0.25310791322E+02 -0.83631806246E+02  0.68686513900E+02  0.11114293664E+03  0.00000000000E+00 0.  1.
<mgrwt>
<rscale>  0 0.14789319E+03</rscale>
<asrwt>0</asrwt>
<pdfrwt beam="1">  1        2 0.48488185E-01 0.16199145E+03</pdfrwt>
<pdfrwt beam="2">  1       -2 0.92153316E-02 0.16199145E+03</pdfrwt>
<totfact> 0.75429276E+03</totfact>
</mgrwt>
</event>
<event>
 7    1  0.1111284E-005  0.1279714E+03  0.7546771E-02  0.1245542E+00
         -2   -1    0    0    0  501 -0.00000000000E+00  0.00000000000E+00  0.12504401269E+03  0.12504401269E+03  0.00000000000E+00 0.  1.
          2   -1    0    0  501    0  0.00000000000E+00 -0.00000000000E+00 -0.11117011344E+03  0.11117011344E+03  0.00000000000E+00 0. -1.
         23    2    1    2    0    0 -0.21481983353E+02  0.17008710373E+02 -0.33193038785E+02  0.99861766498E+02  0.90110059078E+02 0.  0.
          5    1    1    2  502    0  0.53123836505E+02  0.32259048310E+02  0.20809448431E+01  0.62363519259E+02  0.47000000000E+01 0. -1.
         -5    1    1    2    0  502 -0.31641853152E+02 -0.49267758683E+02  0.44985993188E+02  0.73988840372E+02  0.47000000000E+01 0. -1.
        -11    1    3    3    0    0  0.25333280774E+02  0.16872216862E+02  0.13897211818E+02  0.33460115256E+02  0.00000000000E+00 0.  1.
         11    1    3    3    0    0 -0.46815264127E+02  0.13649351064E+00 -0.47090250603E+02  0.66401651242E+02  0.00000000000E+00 0. -1.
<mgrwt>
<rscale>  0 0.11853011E+03</rscale>
<asrwt>0</asrwt>
<pdfrwt beam="2">  1        2 0.17103094E-01 0.12797136E+03</pdfrwt>
<pdfrwt beam="1">  1       -2 0.19237540E-01 0.12797136E+03</pdfrwt>
<totfact> 0.70618564E+03</totfact>
</mgrwt>
</event>
<event>
 7    1  0.1111284E-005  0.1922123E+03  0.7546771E-02  0.1161348E+00
         -2   -1    0    0    0  501 -0.00000000000E+00  0.00000000000E+00  0.30968127380E+03  0.30968127380E+03  0.00000000000E+00 0.  1.
          2   -1    0    0  501    0  0.00000000000E+00 -0.00000000000E+00 -0.16473899461E+03  0.16473899461E+03  0.00000000000E+00 0. -1.
         23    2    1    2    0    0  0.83983368282E+02 -0.11944326236E+03 -0.70671403055E+02  0.18556938369E+03  0.90120196865E+02 0.  0.
          5    1    1    2  502    0 -0.11185553568E+03  0.65231235674E+02  0.12904939769E+03  0.18287321295E+03  0.47000000000E+01 0. -1.
         -5    1    1    2    0  502  0.27872167402E+02  0.54212026688E+02  0.86564284548E+02  0.10597767176E+03  0.47000000000E+01 0. -1.
        -11    1    3    3    0    0 -0.10956808469E+02 -0.23665556000E+02  0.10559227295E+02  0.28135519787E+02  0.00000000000E+00 0.  1.
         11    1    3    3    0    0  0.94940176751E+02 -0.95777706363E+02 -0.81230630350E+02  0.15743386391E+03  0.00000000000E+00 0. -1.
<mgrwt>
<rscale>  0 0.18683403E+03</rscale>
<asrwt>0</asrwt>
<pdfrwt beam="2">  1        2 0.25344461E-01 0.19221231E+03</pdfrwt>
<pdfrwt beam="1">  1       -2 0.47643273E-01 0.19221231E+03</pdfrwt>
<totfact> 0.89146456E+02</totfact>
</mgrwt>
</event>
<event>
 7    1  0.1111284E-005  0.1308574E+03  0.7546771E-02  0.1239784E+00
         -2   -1    0    0    0  501 -0.00000000000E+00  0.00000000000E+00  0.25965151711E+02  0.25965151711E+02  0.00000000000E+00 0. -1.
          2   -1    0    0  501    0  0.00000000000E+00 -0.00000000000E+00 -0.51953672116E+03  0.51953672116E+03  0.00000000000E+00 0.  1.
         23    2    1    2    0    0  0.22298627404E+02 -0.31623937383E+02 -0.25254849196E+03  0.27124693661E+03  0.91087088140E+02 0.  0.
          5    1    1    2  502    0 -0.14838244389E+01  0.76664744724E+02 -0.11086462242E+03  0.13488046309E+03  0.47000000000E+01 0.  1.
         -5    1    1    2    0  502 -0.20814802965E+02 -0.45040807341E+02 -0.13015845506E+03  0.13937447317E+03  0.47000000000E+01 0.  1.
        -11    1    3    3    0    0  0.10492539036E+02 -0.62905557050E+02 -0.14009191333E+03  0.15392513331E+03  0.00000000000E+00 0. -1.
         11    1    3    3    0    0  0.11806088367E+02  0.31281619667E+02 -0.11245657863E+03  0.11732180330E+03  0.00000000000E+00 0.  1.
<mgrwt>
<rscale>  0 0.12203081E+03</rscale>
<asrwt>0</asrwt>
<pdfrwt beam="2">  1        2 0.79928727E-01 0.13085735E+03</pdfrwt>
<pdfrwt beam="1">  1       -2 0.39946387E-02 0.13085735E+03</pdfrwt>
<totfact> 0.15474121E+04</totfact>
</mgrwt>
</event>
<event>
 7    1  0.1111284E-005  0.4818000E+03  0.7546771E-02  0.1019215E+00
         -1   -1    0    0    0  501 -0.00000000000E+00  0.00000000000E+00  0.21634772275E+04  0.21634772275E+04  0.00000000000E+00 0.  1.
          1   -1    0    0  501    0  0.00000000000E+00 -0.00000000000E+00 -0.10581929118E+03  0.10581929118E+03  0.00000000000E+00 0. -1.
         23    2    1    2    0    0 -0.25467477786E+03  0.38941891479E+03  0.10867266515E+04  0.11853967153E+04  0.87659705557E+02 0.  0.
          5    1    1    2  502    0  0.22331031852E+03 -0.33450586029E+03  0.91436626623E+03  0.99892413513E+03  0.47000000000E+01 0. -1.
         -5    1    1    2    0  502  0.31364459339E+02 -0.54913054499E+02  0.56565018652E+02  0.84975668277E+02  0.47000000000E+01 0. -1.
        -11    1    3    3    0    0 -0.19798277986E+03  0.26304718649E+03  0.84388981689E+03  0.90583719646E+03  0.00000000000E+00 0. -1.
         11    1    3    3    0    0 -0.56691997999E+02  0.12637172829E+03  0.24283683458E+03  0.27955951885E+03  0.00000000000E+00 0.  1.
<mgrwt>
<rscale>  0 0.47970832E+03</rscale>
<asrwt>0</asrwt>
<pdfrwt beam="2">  1        1 0.16279893E-01 0.48179998E+03</pdfrwt>
<pdfrwt beam="1">  1       -1 0.33284262E+00 0.48179998E+03</pdfrwt>
<totfact> 0.76236566E+00</totfact>
</mgrwt>
</event>
<event>
 7    1  0.1111284E-005  0.2193856E+03  0.7546771E-02  0.1147182E+00
         -2   -1    0    0    0  501 -0.00000000000E+00  0.00000000000E+00  0.71590749531E+02  0.71590749531E+02  0.00000000000E+00 0.  1.
          2   -1    0    0  501    0  0.00000000000E+00 -0.00000000000E+00 -0.55348971399E+03  0.55348971399E+03  0.00000000000E+00 0. -1.
         23    2    1    2    0    0  0.10487147873E+03 -0.82078124842E+02 -0.29838826540E+03  0.33906260980E+03  0.90515472759E+02 0.  0.
          5    1    1    2  502    0 -0.12029028482E+03  0.44477090980E+02 -0.20342025478E+03  0.24051996653E+03  0.47000000000E+01 0. -1.
         -5    1    1    2    0  502  0.15418806092E+02  0.37601033862E+02  0.19909555730E+02  0.45497887184E+02  0.47000000000E+01 0.  1.
        -11    1    3    3    0    0  0.63406742475E+02  0.18916297073E+01 -0.85286350434E+02  0.10629089719E+03  0.00000000000E+00 0. -1.
         11    1    3    3    0    0  0.41464736251E+02 -0.83969754550E+02 -0.21310191497E+03  0.23277171262E+03  0.00000000000E+00 0.  1.
<mgrwt>
<rscale>  0 0.20306121E+03</rscale>
<asrwt>0</asrwt>
<pdfrwt beam="2">  1        2 0.85152263E-01 0.21938559E+03</pdfrwt>
<pdfrwt beam="1">  1       -2 0.11013962E-01 0.21938559E+03</pdfrwt>
<totfact> 0.31193391E+03</totfact>
</mgrwt>
</event>
<event>
 7    1  0.1111284E-005  0.2220862E+03  0.7546771E-02  0.1172812E+00
          1   -1    0    0  501    0  0.00000000000E+00  0.00000000000E+00  0.42442283455E+03  0.42442283455E+03  0.00000000000E+00 0. -1.
         -1   -1    0    0    0  501 -0.00000000000E+00 -0.00000000000E+00 -0.56037924875E+02  0.56037924875E+02  0.00000000000E+00 0.  1.
         23    2    1    2    0    0 -0.26341503838E+02  0.74596969231E+01  0.11917006148E+03  0.14664897474E+03  0.80962314309E+02 0.  0.
          5    1    1    2  502    0 -0.87840735044E+02 -0.32134980439E+02  0.59464976772E+02  0.11093613101E+03  0.47000000000E+01 0. -1.
         -5    1    1    2    0  502  0.11418223888E+03  0.24675283516E+02  0.18974987142E+03  0.22287565367E+03  0.47000000000E+01 0.  1.
        -11    1    3    3    0    0 -0.19266194521E+02  0.37572377051E+02  0.10390090832E+03  0.11215288012E+03  0.00000000000E+00 0. -1.
         11    1    3    3    0    0 -0.70753093171E+01 -0.30112680128E+02  0.15269153157E+02  0.34496094628E+02  0.00000000000E+00 0.  1.
<mgrwt>
<rscale>  0 0.17491995E+03</rscale>
<asrwt>0</asrwt>
<pdfrwt beam="1">  1        1 0.65295819E-01 0.22208617E+03</pdfrwt>
<pdfrwt beam="2">  1       -1 0.86212195E-02 0.22208617E+03</pdfrwt>
<totfact> 0.42485937E+03</totfact>
</mgrwt>
</event>
<event>
 7    1  0.1111284E-005  0.1363667E+03  0.7546771E-02  0.1230303E+00
         -2   -1    0    0    0  501 -0.00000000000E+00  0.00000000000E+00  0.76087126349E+02  0.76087126349E+02  0.00000000000E+00 0.  1.
          2   -1    0    0  501    0  0.00000000000E+00 -0.00000000000E+00 -0.31059561364E+03  0.31059561364E+03  0.00000000000E+00 0. -1.
         23    2    1    2    0    0 -0.21551419751E+02 -0.50070522593E+02 -0.22641192261E+03  0.25007586906E+03  0.91126618854E+02 0.  0.
          5    1    1    2  502    0  0.31454083859E+02 -0.34750653269E+02  0.12291051994E+02  0.48683952727E+02  0.47000000000E+01 0. -1.
         -5    1    1    2    0  502 -0.99026641086E+01  0.84821175862E+02 -0.20387616681E+02  0.87922918201E+02  0.47000000000E+01 0. -1.
        -11    1    3    3    0    0 -0.52114665165E+02 -0.49796951456E+02 -0.18546321050E+03  0.19897808208E+03  0.00000000000E+00 0.  1.
         11    1    3    3    0    0  0.30563245414E+02 -0.27357113666E+00 -0.40948712107E+02  0.51097786983E+02  0.00000000000E+00 0. -1.
<mgrwt>
<rscale>  0 0.12809986E+03</rscale>
<asrwt>0</asrwt>
<pdfrwt beam="2">  1        2 0.47783940E-01 0.13636672E+03</pdfrwt>
<pdfrwt beam="1">  1       -2 0.11705712E-01 0.13636672E+03</pdfrwt>
<totfact> 0.51954974E+03</totfact>
</mgrwt>
</event>
<event>
 7    1  0.1111284E-005  0.1275360E+03  0.7546771E-02  0.1246643E+00
         -3   -1    0    0    0  501 -0.00000000000E+00  0.00000000000E+00  0.76617363972E+02  0.76617363972E+02  0.00000000000E+00 0.  1.
          3   -1    0    0  501    0  0.00000000000E+00 -0.00000000000E+00 -0.21314886603E+03  0.21314886603E+03  0.00000000000E+00 0. -1.
         23    2    1    2    0    0 -0.23356544346E+02 -0.97844251181E+01 -0.13281356866E+03  0.16217607222E+03  0.89556525415E+02 0.  0.
          5    1    1    2  502    0  0.31513827673E+02  0.12386268864E+01  0.57130997414E+02  0.65427031086E+02  0.47000000000E+01 0. -1.
         -5    1    1    2    0  502 -0.81572833269E+01  0.85457982316E+01 -0.60848930816E+02  0.62163126692E+02  0.47000000000E+01 0. -1.
        -11    1    3    3    0    0 -0.48555489801E+02 -0.14466882272E+02 -0.36324544901E+02  0.62340988400E+02  0.00000000000E+00 0.  1.
         11    1    3    3    0    0  0.25198945454E+02  0.46824571536E+01 -0.96489023755E+02  0.99835083824E+02  0.00000000000E+00 0. -1.
<mgrwt>
<rscale>  0 0.11787576E+03</rscale>
<asrwt>0</asrwt>
<pdfrwt beam="2">  1        3 0.32792133E-01 0.12753598E+03</pdfrwt>
<pdfrwt beam="1">  1       -3 0.11787287E-01 0.12753598E+03</pdfrwt>
<totfact> 0.11598975E+03</totfact>
</mgrwt>
</event>
<event>
 7    1  0.1111284E-005  0.1521610E+03  0.7546771E-02  0.1207119E+00
         -3   -1    0    0    0  501 -0.00000000000E+00  0.00000000000E+00  0.33190491370E+03  0.33190491370E+03  0.00000000000E+00 0.  1.
          3   -1    0    0  501    0  0.00000000000E+00 -0.00000000000E+00 -0.58845650829E+02  0.58845650829E+02  0.00000000000E+00 0. -1.
         23    2    1    2    0    0  0.10963295013E+02 -0.86072739627E+02  0.95478764585E+02  0.15689633578E+03  0.89283567074E+02 0.  0.
          5    1    1    2  502    0 -0.20772371518E+02  0.11171068923E+02 -0.14025946130E+02  0.27840642310E+02  0.47000000000E+01 0. -1.
         -5    1    1    2    0  502  0.98090765054E+01  0.74901670703E+02  0.19160644441E+03  0.20601358644E+03  0.47000000000E+01 0. -1.
        -11    1    3    3    0    0  0.25571281968E+02 -0.34340286198E+02  0.93805890764E+02  0.10311494004E+03  0.00000000000E+00 0.  1.
         11    1    3    3    0    0 -0.14607986955E+02 -0.51732453429E+02  0.16728738213E+01  0.53781395737E+02  0.00000000000E+00 0. -1.
<mgrwt>
<rscale>  0 0.14471711E+03</rscale>
<asrwt>0</asrwt>
<pdfrwt beam="2">  1        3 0.90531772E-02 0.15216099E+03</pdfrwt>
<pdfrwt beam="1">  1       -3 0.51062293E-01 0.15216099E+03</pdfrwt>
<totfact> 0.78343929E+02</totfact>
</mgrwt>
</event>
<event>
 7    1  0.1111284E-005  0.1279637E+03  0.7546771E-02  0.1244885E+00
          2   -1    0    0  501    0  0.00000000000E+00  0.00000000000E+00  0.63468115484E+03  0.63468115484E+03  0.00000000000E+00 0. -1.
         -2   -1    0    0    0  501 -0.00000000000E+00 -0.00000000000E+00 -0.19813321021E+02  0.19813321021E+02  0.00000000000E+00 0.  1.
         23    2    1    2    0    0  0.24757682227E+01  0.27281076886E+02  0.29136825884E+03  0.30660557845E+03  0.91439225117E+02 0.  0.
          5    1    1    2  502    0 -0.10927669779E+02 -0.58131444009E+02  0.30483764269E+03  0.31055878211E+03  0.47000000000E+01 0.  1.
         -5    1    1    2    0  502  0.84519015567E+01  0.30850367123E+02  0.18661932292E+02  0.37330115301E+02  0.47000000000E+01 0.  1.
        -11    1    3    3    0    0  0.19582836793E+02 -0.29533676720E+02  0.12720359380E+03  0.13204726363E+03  0.00000000000E+00 0. -1.
         11    1    3    3    0    0 -0.17107068570E+02  0.56814753606E+02  0.16416466504E+03  0.17455831481E+03  0.00000000000E+00 0.  1.
<mgrwt>
<rscale>  0 0.11892248E+03</rscale>
<asrwt>0</asrwt>
<pdfrwt beam="1">  1        2 0.97643239E-01 0.12796371E+03</pdfrwt>
<pdfrwt beam="2">  1       -2 0.30482037E-02 0.12796371E+03</pdfrwt>
<totfact> 0.18378825E+04</totfact>
</mgrwt>
</event>
<event>
 7    1  0.1111284E-005  0.1522320E+03  0.7546771E-02  0.1206789E+00
          2   -1    0    0  501    0  0.00000000000E+00  0.00000000000E+00  0.32169892369E+03  0.32169892369E+03  0.00000000000E+00 0. -1.
         -2   -1    0    0    0  501 -0.00000000000E+00 -0.00000000000E+00 -0.59856182332E+02  0.59856182332E+02  0.00000000000E+00 0.  1.
         23    2    1    2    0    0 -0.35757507935E+02 -0.79170421298E+02  0.11336624856E+03  0.16890550909E+03  0.90169893572E+02 0.  0.
          5    1    1    2  502    0  0.45636670722E+02  0.52532727703E+02  0.16522063669E+03  0.17933862379E+03  0.47000000000E+01 0.  1.
         -5    1    1    2    0  502 -0.98791627863E+01  0.26637693596E+02 -0.16744143885E+02  0.33310973146E+02  0.47000000000E+01 0.  1.
        -11    1    3    3    0    0  0.18331552762E+02 -0.12715726349E+02  0.68793983928E+02  0.72321143160E+02  0.00000000000E+00 0. -1.
         11    1    3    3    0    0 -0.54089060698E+02 -0.66454694950E+02  0.44572264628E+02  0.96584365930E+02  0.00000000000E+00 0.  1.
<mgrwt>
<rscale>  0 0.14497326E+03</rscale>
<asrwt>0</asrwt>
<pdfrwt beam="1">  1        2 0.49492141E-01 0.15223200E+03</pdfrwt>
<pdfrwt beam="2">  1       -2 0.92086437E-02 0.15223200E+03</pdfrwt>
<totfact> 0.73592143E+03</totfact>
</mgrwt>
</event>
<event>
 7    1  0.1111284E-005  0.1353900E+03  0.7546771E-02  0.1231881E+00
          1   -1    0    0  501    0  0.00000000000E+00  0.00000000000E+00  0.10868625444E+03  0.10868625444E+03  0.00000000000E+00 0. -1.
         -1   -1    0    0    0  501 -0.00000000000E+00 -0.00000000000E+00 -0.15994496751E+03  0.15994496751E+03  0.00000000000E+00 0.  1.
         23    2    1    2    0    0 -0.37628113608E+02 -0.35885155740E+02  0.31869394755E+02  0.10975786796E+03  0.91255202161E+02 0.  0.
          5    1    1    2  502    0  0.80978996185E+02  0.17013423407E+02 -0.72659086399E+02  0.11022017617E+03  0.47000000000E+01 0. -1.
         -5    1    1    2    0  502 -0.43350882576E+02  0.18871732334E+02 -0.10469021422E+02  0.48653177810E+02  0.47000000000E+01 0. -1.
        -11    1    3    3    0    0 -0.91257258938E+01 -0.16422492161E+02 -0.32029930642E+02  0.37133456328E+02  0.00000000000E+00 0.  1.
         11    1    3    3    0    0 -0.28502387715E+02 -0.19462663579E+02  0.63899325398E+02  0.72624411635E+02  0.00000000000E+00 0. -1.
<mgrwt>
<rscale>  0 0.12706254E+03</rscale>
<asrwt>0</asrwt>
<pdfrwt beam="1">  1        1 0.16720962E-01 0.13539003E+03</pdfrwt>
<pdfrwt beam="2">  1       -1 0.24606918E-01 0.13539003E+03</pdfrwt>
<totfact> 0.44175665E+03</totfact>
</mgrwt>
</event>
<event>
 7    1  0.1111284E-005  0.2471746E+03  0.7546771E-02  0.1117701E+00
          2   -1    0    0  501    0  0.00000000000E+00  0.00000000000E+00  0.63131357478E+03  0.63131357478E+03  0.00000000000E+00 0.  1.
         -2   -1    0    0    0  501 -0.00000000000E+00 -0.00000000000E+00 -0.13596444825E+03  0.13596444825E+03  0.00000000000E+00 0. -1.
         23    2    1    2    0    0 -0.21076960069E+03 -0.32380325023E+02  0.46343365905E+03  0.51805149860E+03  0.90190292382E+02 0.  0.
          5    1    1    2  502    0  0.53249023116E+02 -0.94496316994E+01  0.63085249627E+02  0.83226154078E+02  0.47000000000E+01 0.  1.
         -5    1    1    2    0  502  0.15752057757E+03  0.41829956722E+02 -0.31169782144E+02  0.16600037035E+03  0.47000000000E+01 0.  1.
        -11    1    3    3    0    0 -0.12893325888E+03 -0.19689792817E+02  0.37434823387E+03  0.39641906285E+03  0.00000000000E+00 0.  1.
         11    1    3    3    0    0 -0.81836341806E+02 -0.12690532206E+02  0.89085425177E+02  0.12163243575E+03  0.00000000000E+00 0. -1.
<mgrwt>
<rscale>  0 0.24316726E+03</rscale>
<asrwt>0</asrwt>
<pdfrwt beam="1">  1        2 0.97125164E-01 0.24717456E+03</pdfrwt>
<pdfrwt beam="2">  1       -2 0.20917608E-01 0.24717456E+03</pdfrwt>
<totfact> 0.92623405E+02</totfact>
</mgrwt>
</event>
<event>
 7    1  0.1111284E-005  0.1466206E+03  0.7546771E-02  0.1215713E+00
         -1   -1    0    0    0  501 -0.00000000000E+00  0.00000000000E+00  0.67110666890E+02  0.67110666890E+02  0.00000000000E+00 0.  1.
          1   -1    0    0  501    0  0.00000000000E+00 -0.00000000000E+00 -0.30715643055E+03  0.30715643055E+03  0.00000000000E+00 0. -1.
         23    2    1    2    0    0 -0.98624354025E+01 -0.75994863631E+02 -0.18370016105E+03  0.21719246817E+03  0.86915661015E+02 0.  0.
          5    1    1    2  502    0  0.51758622381E+02 -0.48636848925E+01 -0.36656415805E+02  0.63783957553E+02  0.47000000000E+01 0.  1.
         -5    1    1    2    0  502 -0.41896186978E+02  0.80858548523E+02 -0.19689186808E+02  0.93290671719E+02  0.47000000000E+01 0.  1.
        -11    1    3    3    0    0 -0.11866591375E+01 -0.41031078268E+02 -0.17551373367E+03  0.18024990499E+03  0.00000000000E+00 0. -1.
         11    1    3    3    0    0 -0.86757762650E+01 -0.34963785363E+02 -0.81864273786E+01  0.36942563175E+02  0.00000000000E+00 0.  1.
<mgrwt>
<rscale>  0 0.13824294E+03</rscale>
<asrwt>0</asrwt>
<pdfrwt beam="2">  1        1 0.47254835E-01 0.14662064E+03</pdfrwt>
<pdfrwt beam="1">  1       -1 0.10324718E-01 0.14662064E+03</pdfrwt>
<totfact> 0.47547625E+03</totfact>
</mgrwt>
</event>
<event>
 7    1  0.1111284E-005  0.1571367E+03  0.7546771E-02  0.1196710E+00
         -1   -1    0    0    0  501 -0.00000000000E+00  0.00000000000E+00  0.10312954244E+03  0.10312954244E+03  0.00000000000E+00 0.  1.
          1   -1    0    0  501    0  0.00000000000E+00 -0.00000000000E+00 -0.23001715833E+03  0.23001715833E+03  0.00000000000E+00 0. -1.
         23    2    1    2    0    0  0.56770333435E+02 -0.76434113400E+02 -0.10087836574E+03  0.17387200253E+03  0.10483312521E+03 0.  0.
          5    1    1    2  502    0  0.23391034768E+02  0.53307997279E+02 -0.44821732747E+02  0.73620383101E+02  0.47000000000E+01 0. -1.
         -5    1    1    2    0  502 -0.80161368203E+02  0.23126116121E+02  0.18812482599E+02  0.85654315131E+02  0.47000000000E+01 0. -1.
        -11    1    3    3    0    0  0.31713751065E+02 -0.57978251065E+02  0.22773960878E+01  0.66124323332E+02  0.00000000000E+00 0.  1.
         11    1    3    3    0    0  0.25056582370E+02 -0.18455862335E+02 -0.10315576183E+03  0.10774767920E+03  0.00000000000E+00 0. -1.
<mgrwt>
<rscale>  0 0.15310387E+03</rscale>
<asrwt>0</asrwt>
<pdfrwt beam="2">  1        1 0.35387255E-01 0.15713672E+03</pdfrwt>
<pdfrwt beam="1">  1       -1 0.15866084E-01 0.15713672E+03</pdfrwt>
<totfact> 0.35033706E+03</totfact>
</mgrwt>
</event>
<event>
 7    1  0.1111284E-005  0.1578976E+03  0.7546771E-02  0.1199050E+00
         -1   -1    0    0    0  501 -0.00000000000E+00  0.00000000000E+00  0.51065456564E+02  0.51065456564E+02  0.00000000000E+00 0.  1.
          1   -1    0    0  501    0  0.00000000000E+00 -0.00000000000E+00 -0.61077715196E+03  0.61077715196E+03  0.00000000000E+00 0. -1.
         23    2    1    2    0    0 -0.93851913761E+02 -0.22331218345E+02 -0.45110244969E+03  0.47019808922E+03  0.91027237479E+02 0.  0.
          5    1    1    2  502    0 -0.17211098659E+02 -0.28372951720E+02 -0.37429403829E+02  0.50242378301E+02  0.47000000000E+01 0. -1.
         -5    1    1    2    0  502  0.11106301242E+03  0.50704170065E+02 -0.71179841875E+02  0.14140214100E+03  0.47000000000E+01 0. -1.
        -11    1    3    3    0    0 -0.95022078712E+02  0.82261250942E+01 -0.39447258347E+03  0.40583923379E+03  0.00000000000E+00 0. -1.
         11    1    3    3    0    0  0.11701649516E+01 -0.30557343439E+02 -0.56629866225E+02  0.64358855433E+02  0.00000000000E+00 0.  1.
<mgrwt>
<rscale>  0 0.15116408E+03</rscale>
<asrwt>0</asrwt>
<pdfrwt beam="2">  1        1 0.93965719E-01 0.15789760E+03</pdfrwt>
<pdfrwt beam="1">  1       -1 0.78562238E-02 0.15789760E+03</pdfrwt>
<totfact> 0.29819957E+03</totfact>
</mgrwt>
</event>
<event>
 7    1  0.1111284E-005  0.1636033E+03  0.7546771E-02  0.1191702E+00
          2   -1    0    0  501    0  0.00000000000E+00  0.00000000000E+00  0.20312504242E+03  0.20312504242E+03  0.00000000000E+00 0. -1.
         -2   -1    0    0    0  501 -0.00000000000E+00 -0.00000000000E+00 -0.11432856111E+03  0.11432856111E+03  0.00000000000E+00 0.  1.
         23    2    1    2    0    0 -0.92785504448E+02  0.50322745330E+02  0.27370908194E+02  0.14269911060E+03  0.92045320459E+02 0.  0.
          5    1    1    2  502    0  0.49024688357E+02  0.85532724395E+01  0.84095260701E+02  0.97829859502E+02  0.47000000000E+01 0. -1.
         -5    1    1    2    0  502  0.43760816091E+02 -0.58876017769E+02 -0.22669687581E+02  0.76924633430E+02  0.47000000000E+01 0. -1.
        -11    1    3    3    0    0 -0.85519089963E+02  0.20043598066E+02  0.52810159053E+02  0.10248987009E+03  0.00000000000E+00 0.  1.
         11    1    3    3    0    0 -0.72664144844E+01  0.30279147264E+02 -0.25439250859E+02  0.40209240514E+02  0.00000000000E+00 0. -1.
<mgrwt>
<rscale>  0 0.15736727E+03</rscale>
<asrwt>0</asrwt>
<pdfrwt beam="1">  1        2 0.31250007E-01 0.16360328E+03</pdfrwt>
<pdfrwt beam="2">  1       -2 0.17589009E-01 0.16360328E+03</pdfrwt>
<totfact> 0.42553892E+03</totfact>
</mgrwt>
</event>
<event>
 7    1  0.1111284E-005  0.1543163E+03  0.7546771E-02  0.1203841E+00
         -1   -1    0    0    0  501 -0.00000000000E+00  0.00000000000E+00  0.13390257579E+03  0.13390257579E+03  0.00000000000E+00 0.  1.
          1   -1    0    0  501    0  0.00000000000E+00 -0.00000000000E+00 -0.16751191325E+03  0.16751191325E+03  0.00000000000E+00 0. -1.
         23    2    1    2    0    0 -0.79551055685E+02  0.43154412024E+02 -0.65472749638E+02  0.14384294798E+03  0.90628025476E+02 0.  0.
          5    1    1    2  502    0  0.43167470174E+02 -0.32839131199E+02  0.79632552713E+02  0.96463840224E+02  0.47000000000E+01 0.  1.
         -5    1    1    2    0  502  0.36383585511E+02 -0.10315280825E+02 -0.47769140539E+02  0.61107700832E+02  0.47000000000E+01 0.  1.
        -11    1    3    3    0    0 -0.75897830251E+02  0.64645986976E+02 -0.69688628275E+02  0.12163917617E+03  0.00000000000E+00 0.  1.
         11    1    3    3    0    0 -0.36532254339E+01 -0.21491574952E+02  0.42158786370E+01  0.22203771812E+02  0.00000000000E+00 0. -1.
<mgrwt>
<rscale>  0 0.14729157E+03</rscale>
<asrwt>0</asrwt>
<pdfrwt beam="2">  1        1 0.25771063E-01 0.15431628E+03</pdfrwt>
<pdfrwt beam="1">  1       -1 0.20600396E-01 0.15431628E+03</pdfrwt>
<totfact> 0.34282565E+03</totfact>
</mgrwt>
</event>
<event>
 7    1  0.1111284E-005  0.1248561E+03  0.7546771E-02  0.1251588E+00
         -1   -1    0    0    0  501 -0.00000000000E+00  0.00000000000E+00  0.11479730228E+02  0.11479730228E+02  0.00000000000E+00 0.  1.
          1   -1    0    0  501    0  0.00000000000E+00 -0.00000000000E+00 -0.10102507897E+04  0.10102507897E+04  0.00000000000E+00 0. -1.
         23    2    1    2    0    0  0.35333981678E+02 -0.11545861596E+02 -0.37847489922E+03  0.38899331066E+03  0.81797000038E+02 0.  0.
          5    1    1    2  502    0 -0.49530730243E+02 -0.44398834598E+01 -0.60238671782E+03  0.60445417826E+03  0.47000000000E+01 0. -1.
         -5    1    1    2    0  502  0.14196748565E+02  0.15985745056E+02 -0.17909442408E+02  0.28283030993E+02  0.47000000000E+01 0.  1.
        -11    1    3    3    0    0  0.16750641637E+02 -0.46906997375E+02 -0.21874990472E+03  0.22434877137E+03  0.00000000000E+00 0.  1.
         11    1    3    3    0    0  0.18583340041E+02  0.35361135779E+02 -0.15972499450E+03  0.16464453929E+03  0.00000000000E+00 0. -1.
<mgrwt>
<rscale>  0 0.11499625E+03</rscale>
<asrwt>0</asrwt>
<pdfrwt beam="2">  1        1 0.15542325E+00 0.12485612E+03</pdfrwt>
<pdfrwt beam="1">  1       -1 0.17661118E-02 0.12485612E+03</pdfrwt>
<totfact> 0.12356888E+04</totfact>
</mgrwt>
</event>
<event>
 7    1  0.1111284E-005  0.1670771E+03  0.7546771E-02  0.1187877E+00
          2   -1    0    0  501    0  0.00000000000E+00  0.00000000000E+00  0.50244911560E+03  0.50244911560E+03  0.00000000000E+00 0. -1.
         -2   -1    0    0    0  501 -0.00000000000E+00 -0.00000000000E+00 -0.54050100552E+02  0.54050100552E+02  0.00000000000E+00 0.  1.
         23    2    1    2    0    0 -0.99814595294E+02 -0.48219364074E+02  0.30269505275E+03  0.33481386339E+03  0.90487389473E+02 0.  0.
          5    1    1    2  502    0 -0.24153875137E+02 -0.39590935281E+01  0.52088524861E+02  0.57744164449E+02  0.47000000000E+01 0. -1.
         -5    1    1    2    0  502  0.12396847043E+03  0.52178457602E+02  0.93615437434E+02  0.16394118831E+03  0.47000000000E+01 0. -1.
        -11    1    3    3    0    0 -0.40787887585E+02  0.16054862947E+02  0.17318878630E+03  0.17864984214E+03  0.00000000000E+00 0. -1.
         11    1    3    3    0    0 -0.59026707709E+02 -0.64274227020E+02  0.12950626645E+03  0.15616402125E+03  0.00000000000E+00 0.  1.
<mgrwt>
<rscale>  0 0.16072868E+03</rscale>
<asrwt>0</asrwt>
<pdfrwt beam="1">  1        2 0.77299861E-01 0.16707708E+03</pdfrwt>
<pdfrwt beam="2">  1       -2 0.83154004E-02 0.16707708E+03</pdfrwt>
<totfact> 0.53615720E+03</totfact>
</mgrwt>
</event>
<event>
 7    1  0.1111284E-005  0.1472533E+03  0.7546771E-02  0.1213660E+00
          4   -1    0    0  501    0  0.00000000000E+00  0.00000000000E+00  0.10342412198E+03  0.10342412198E+03  0.00000000000E+00 0. -1.
         -4   -1    0    0    0  501 -0.00000000000E+00 -0.00000000000E+00 -0.17393645254E+03  0.17393645254E+03  0.00000000000E+00 0.  1.
         23    2    1    2    0    0  0.25868275333E+02  0.73368432190E+02 -0.16948530586E+02  0.12066784112E+03  0.90671829591E+02 0.  0.
          5    1    1    2  502    0 -0.15305409385E+02 -0.10876700184E+03 -0.42178535817E+02  0.11775243152E+03  0.47000000000E+01 0. -1.
         -5    1    1    2    0  502 -0.10562865948E+02  0.35398569648E+02 -0.11385264160E+02  0.38940301876E+02  0.47000000000E+01 0. -1.
        -11    1    3    3    0    0  0.39133729408E+02  0.51630911319E+02 -0.47911945096E+02  0.80577628806E+02  0.00000000000E+00 0.  1.
         11    1    3    3    0    0 -0.13265454075E+02  0.21737520871E+02  0.30963414511E+02  0.40090212317E+02  0.00000000000E+00 0. -1.
<mgrwt>
<rscale>  0 0.13975423E+03</rscale>
<asrwt>0</asrwt>
<pdfrwt beam="1">  1        4 0.15911404E-01 0.14725329E+03</pdfrwt>
<pdfrwt beam="2">  1       -4 0.26759454E-01 0.14725329E+03</pdfrwt>
<totfact> 0.75358641E+02</totfact>
</mgrwt>
</event>
<event>
 7    1  0.1111284E-005  0.1039043E+04  0.7546771E-02  0.9266730E-01
          2   -1    0    0  501    0  0.00000000000E+00  0.00000000000E+00  0.13594305836E+04  0.13594305836E+04  0.00000000000E+00 0. -1.
         -2   -1    0    0    0  501 -0.00000000000E+00 -0.00000000000E+00 -0.19854097100E+03  0.19854097100E+03  0.00000000000E+00 0.  1.
         23    2    1    2    0    0  0.59076269903E+02 -0.30675991615E+03  0.93062533193E+03  0.98579951767E+03  0.90252583220E+02 0.  0.
          5    1    1    2  502    0 -0.74080103389E+02 -0.95651225288E+02  0.53073046177E+02  0.13219628152E+03  0.47000000000E+01 0. -1.
         -5    1    1    2    0  502  0.15003833486E+02  0.40241114144E+03  0.17719123449E+03  0.43997575542E+03  0.47000000000E+01 0.  1.
        -11    1    3    3    0    0 -0.22440588153E+02 -0.65651023485E+02  0.23728993759E+03  0.24722490037E+03  0.00000000000E+00 0.  1.
         11    1    3    3    0    0  0.81516858056E+02 -0.24110889267E+03  0.69333539435E+03  0.73857461730E+03  0.00000000000E+00 0. -1.
<mgrwt>
<rscale>  0 0.10390432E+04</rscale>
<asrwt>0</asrwt>
<pdfrwt beam="1">  1        2 0.20914316E+00 0.10390432E+04</pdfrwt>
<pdfrwt beam="2">  1       -2 0.30544766E-01 0.10390432E+04</pdfrwt>
<totfact> 0.15065748E+02</totfact>
</mgrwt>
</event>
<event>
 7    1  0.1111284E-005  0.1662671E+03  0.7546771E-02  0.1188471E+00
         -2   -1    0    0    0  501 -0.00000000000E+00  0.00000000000E+00  0.53973367655E+02  0.53973367655E+02  0.00000000000E+00 0.  1.
          2   -1    0    0  501    0  0.00000000000E+00 -0.00000000000E+00 -0.48215925719E+03  0.48215925719E+03  0.00000000000E+00 0. -1.
         23    2    1    2    0    0  0.77467471456E+02  0.77615478114E+02 -0.27481786974E+03  0.30993248938E+03  0.92238358988E+02 0.  0.
          5    1    1    2  502    0 -0.40066311773E+02 -0.73172040367E+01 -0.13929210305E+03  0.14520065697E+03  0.47000000000E+01 0.  1.
         -5    1    1    2    0  502 -0.37401159684E+02 -0.70298274077E+02 -0.14075916750E+02  0.80999478494E+02  0.47000000000E+01 0.  1.
        -11    1    3    3    0    0  0.86408903060E+02  0.66704009918E+02 -0.27494799874E+03  0.29582482228E+03  0.00000000000E+00 0. -1.
         11    1    3    3    0    0 -0.89414316031E+01  0.10911468195E+02  0.13012900498E+00  0.14107667094E+02  0.00000000000E+00 0.  1.
<mgrwt>
<rscale>  0 0.16019984E+03</rscale>
<asrwt>0</asrwt>
<pdfrwt beam="2">  1        2 0.74178347E-01 0.16626711E+03</pdfrwt>
<pdfrwt beam="1">  1       -2 0.83035951E-02 0.16626711E+03</pdfrwt>
<totfact> 0.56222242E+03</totfact>
</mgrwt>
</event>
<event>
 7    1  0.1111284E-005  0.1568467E+03  0.7546771E-02  0.1198865E+00
          4   -1    0    0  501    0  0.00000000000E+00  0.00000000000E+00  0.78412802383E+03  0.78412802383E+03  0.00000000000E+00 0. -1.
         -4   -1    0    0    0  501 -0.00000000000E+00 -0.00000000000E+00 -0.31389376791E+02  0.31389376791E+02  0.00000000000E+00 0.  1.
         23    2    1    2    0    0 -0.93987556794E+02 -0.11970964246E+02  0.49942989941E+03  0.51758083828E+03  0.97379335160E+02 0.  0.
          5    1    1    2  502    0  0.41709240321E+02 -0.56587936102E+02  0.11743664482E+03  0.13695003025E+03  0.47000000000E+01 0.  1.
         -5    1    1    2    0  502  0.52278316473E+02  0.68558900348E+02  0.13587210281E+03  0.16098653208E+03  0.47000000000E+01 0.  1.
        -11    1    3    3    0    0 -0.60902764511E+02  0.40986808410E+02  0.27346810956E+03  0.28314991107E+03  0.00000000000E+00 0.  1.
         11    1    3    3    0    0 -0.33084792283E+02 -0.52957772656E+02  0.22596178984E+03  0.23443092721E+03  0.00000000000E+00 0. -1.
<mgrwt>
<rscale>  0 0.15131589E+03</rscale>
<asrwt>0</asrwt>
<pdfrwt beam="1">  1        4 0.12063507E+00 0.15684666E+03</pdfrwt>
<pdfrwt beam="2">  1       -4 0.48291355E-02 0.15684666E+03</pdfrwt>
<totfact> 0.23704074E+02</totfact>
</mgrwt>
</event>
<event>
 7    1  0.1111284E-005  0.2254462E+03  0.7546771E-02  0.1133054E+00
          2   -1    0    0  501    0  0.00000000000E+00  0.00000000000E+00  0.80237418194E+03  0.80237418194E+03  0.00000000000E+00 0. -1.
         -2   -1    0    0    0  501 -0.00000000000E+00 -0.00000000000E+00 -0.74397370702E+02  0.74397370702E+02  0.00000000000E+00 0.  1.
         23    2    1    2    0    0 -0.10792164977E+03  0.15346631009E+03  0.55407547423E+03  0.59204768613E+03  0.91224123429E+02 0.  0.
          5    1    1    2  502    0 -0.12842826972E+02  0.25416259745E+01 -0.82438710849E+01  0.16169399422E+02  0.47000000000E+01 0. -1.
         -5    1    1    2    0  502  0.12076447675E+03 -0.15600793607E+03  0.18214520810E+03  0.26855446709E+03  0.47000000000E+01 0. -1.
        -11    1    3    3    0    0  0.43978104324E+00  0.61334536222E+02  0.11255292496E+03  0.12818065243E+03  0.00000000000E+00 0.  1.
         11    1    3    3    0    0 -0.10836143082E+03  0.92131773870E+02  0.44152254927E+03  0.46386703370E+03  0.00000000000E+00 0. -1.
<mgrwt>
<rscale>  0 0.22111560E+03</rscale>
<asrwt>0</asrwt>
<pdfrwt beam="1">  1        2 0.12344218E+00 0.22544624E+03</pdfrwt>
<pdfrwt beam="2">  1       -2 0.11445750E-01 0.22544624E+03</pdfrwt>
<totfact> 0.18815654E+03</totfact>
</mgrwt>
</event>
<event>
 7    1  0.1111284E-005  0.1387993E+03  0.7546771E-02  0.1226847E+00
          3   -1    0    0  501    0  0.00000000000E+00  0.00000000000E+00  0.74066097265E+02  0.74066097265E+02  0.00000000000E+00 0. -1.
         -3   -1    0    0    0  501 -0.00000000000E+00 -0.00000000000E+00 -0.20613005333E+03  0.20613005333E+03  0.00000000000E+00 0.  1.
         23    2    1    2    0    0  0.26534859358E+02 -0.54176814118E+02 -0.52935380704E+02  0.12042576523E+03  0.89782985311E+02 0.  0.
          5    1    1    2  502    0  0.30019717580E+02  0.65189408666E+02 -0.71578476241E+02  0.10147123093E+03  0.47000000000E+01 0.  1.
         -5    1    1    2    0  502 -0.56554576938E+02 -0.11012594548E+02 -0.75500991208E+01  0.58299154437E+02  0.47000000000E+01 0.  1.
        -11    1    3    3    0    0 -0.17561954358E+02 -0.22720778144E+01 -0.49116540781E+02  0.52211293384E+02  0.00000000000E+00 0.  1.
         11    1    3    3    0    0  0.44096813716E+02 -0.51904736303E+02 -0.38188399223E+01  0.68214471844E+02  0.00000000000E+00 0. -1.
<mgrwt>
<rscale>  0 0.13041113E+03</rscale>
<asrwt>0</asrwt>
<pdfrwt beam="1">  1        3 0.11394784E-01 0.13879930E+03</pdfrwt>
<pdfrwt beam="2">  1       -3 0.31712316E-01 0.13879930E+03</pdfrwt>
<totfact> 0.13245754E+03</totfact>
</mgrwt>
</event>
<event>
 7    1  0.1111284E-005  0.1417665E+03  0.7546771E-02  0.1221693E+00
         -2   -1    0    0    0  501 -0.00000000000E+00  0.00000000000E+00  0.58636506385E+03  0.58636506385E+03  0.00000000000E+00 0.  1.
          2   -1    0    0  501    0  0.00000000000E+00 -0.00000000000E+00 -0.44408550302E+02  0.44408550302E+02  0.00000000000E+00 0. -1.
         23    2    1    2    0    0 -0.59623790739E+02  0.30287788032E+02  0.59128696017E+02  0.12756347917E+03  0.91125693404E+02 0.  0.
          5    1    1    2  502    0  0.40396249386E+01 -0.27593271246E+02  0.14908244104E+02  0.31969562555E+02  0.47000000000E+01 0. -1.
         -5    1    1    2    0  502  0.55584165800E+02 -0.26945167861E+01  0.46791957343E+03  0.47124057243E+03  0.47000000000E+01 0. -1.
        -11    1    3    3    0    0 -0.12332978718E+02 -0.23706912332E+02 -0.93981957905E+01  0.28327480306E+02  0.00000000000E+00 0. -1.
         11    1    3    3    0    0 -0.47290812021E+02  0.53994700364E+02  0.68526891808E+02  0.99235998860E+02  0.00000000000E+00 0.  1.
<mgrwt>
<rscale>  0 0.13396168E+03</rscale>
<asrwt>0</asrwt>
<pdfrwt beam="2">  1        2 0.68320851E-02 0.14176649E+03</pdfrwt>
<pdfrwt beam="1">  1       -2 0.90210004E-01 0.14176649E+03</pdfrwt>
<totfact> 0.11036736E+03</totfact>
</mgrwt>
</event>
<event>
 7    1  0.1111284E-005  0.1505547E+03  0.7546771E-02  0.1210727E+00
         -2   -1    0    0    0  501 -0.00000000000E+00  0.00000000000E+00  0.12752390464E+03  0.12752390464E+03  0.00000000000E+00 0.  1.
          2   -1    0    0  501    0  0.00000000000E+00 -0.00000000000E+00 -0.14245365474E+03  0.14245365474E+03  0.00000000000E+00 0. -1.
         23    2    1    2    0    0  0.76650441477E+02 -0.34150973193E+02 -0.85446165400E+01  0.11928747237E+03  0.84349934469E+02 0.  0.
          5    1    1    2  502    0 -0.48220750683E+02  0.72564456414E+02  0.27992942352E+02  0.91632614023E+02  0.47000000000E+01 0.  1.
         -5    1    1    2    0  502 -0.28429690794E+02 -0.38413483221E+02 -0.34378075913E+02  0.59057472984E+02  0.47000000000E+01 0.  1.
        -11    1    3    3    0    0  0.11690388174E+02 -0.62007583269E+01  0.34189037214E+02  0.36660671640E+02  0.00000000000E+00 0.  1.
         11    1    3    3    0    0  0.64960053303E+02 -0.27950214866E+02 -0.42733653754E+02  0.82626800733E+02  0.00000000000E+00 0. -1.
<mgrwt>
<rscale>  0 0.14195160E+03</rscale>
<asrwt>0</asrwt>
<pdfrwt beam="2">  1        2 0.21915947E-01 0.15055475E+03</pdfrwt>
<pdfrwt beam="1">  1       -2 0.19619062E-01 0.15055475E+03</pdfrwt>
<totfact> 0.52122415E+03</totfact>
</mgrwt>
</event>
<event>
 7    1  0.1111284E-005  0.1411636E+03  0.7546771E-02  0.1224001E+00
         -2   -1    0    0    0  501 -0.00000000000E+00  0.00000000000E+00  0.37437074633E+03  0.37437074633E+03  0.00000000000E+00 0.  1.
          2   -1    0    0  501    0  0.00000000000E+00 -0.00000000000E+00 -0.51568627336E+03  0.51568627336E+03  0.00000000000E+00 0. -1.
         23    2    1    2    0    0  0.61190460448E+02  0.62811120815E+01 -0.49624000736E+03  0.50809033004E+03  0.90099465919E+02 0.  0.
          5    1    1    2  502    0  0.25842719850E+02 -0.32018803625E+02  0.18158515563E+03  0.18624797637E+03  0.47000000000E+01 0. -1.
         -5    1    1    2    0  502 -0.87033180298E+02  0.25737691543E+02  0.17333932470E+03  0.19571871328E+03  0.47000000000E+01 0.  1.
        -11    1    3    3    0    0 -0.12463903724E+02  0.23522928521E+02 -0.64569994708E+02  0.69842403157E+02  0.00000000000E+00 0.  1.
         11    1    3    3    0    0  0.73654364172E+02 -0.17241816439E+02 -0.43167001265E+03  0.43824792689E+03  0.00000000000E+00 0. -1.
<mgrwt>
<rscale>  0 0.13235578E+03</rscale>
<asrwt>0</asrwt>
<pdfrwt beam="2">  1        2 0.79336350E-01 0.14116361E+03</pdfrwt>
<pdfrwt beam="1">  1       -2 0.57595499E-01 0.14116361E+03</pdfrwt>
<totfact> 0.17764460E+02</totfact>
</mgrwt>
</event>
<event>
 7    1  0.1111284E-005  0.1847920E+03  0.7546771E-02  0.1168695E+00
          2   -1    0    0  501    0  0.00000000000E+00  0.00000000000E+00  0.26225655109E+03  0.26225655109E+03  0.00000000000E+00 0. -1.
         -2   -1    0    0    0  501 -0.00000000000E+00 -0.00000000000E+00 -0.12660034835E+03  0.12660034835E+03  0.00000000000E+00 0.  1.
         23    2    1    2    0    0 -0.12508731367E+03  0.53636206563E+02  0.59677166151E+01  0.16309776227E+03  0.89674900174E+02 0.  0.
          5    1    1    2  502    0  0.11639103037E+03  0.67380137184E+01  0.54373847771E+02  0.12872792277E+03  0.47000000000E+01 0.  1.
         -5    1    1    2    0  502  0.86962833033E+01 -0.60374220281E+02  0.75314638351E+02  0.97031214399E+02  0.47000000000E+01 0.  1.
        -11    1    3    3    0    0 -0.11419971255E+03  0.72293333651E+02  0.21000037045E+02  0.13678048835E+03  0.00000000000E+00 0. -1.
         11    1    3    3    0    0 -0.10887601120E+02 -0.18657127088E+02 -0.15032320430E+02  0.26317273925E+02  0.00000000000E+00 0.  1.
<mgrwt>
<rscale>  0 0.17908188E+03</rscale>
<asrwt>0</asrwt>
<pdfrwt beam="1">  1        2 0.40347162E-01 0.18479200E+03</pdfrwt>
<pdfrwt beam="2">  1       -2 0.19476977E-01 0.18479200E+03</pdfrwt>
<totfact> 0.27357539E+03</totfact>
</mgrwt>
</event>
<event>
 7    1  0.1111284E-005  0.2667167E+03  0.7546771E-02  0.1105261E+00
         -1   -1    0    0    0  501 -0.00000000000E+00  0.00000000000E+00  0.58385849215E+02  0.58385849215E+02  0.00000000000E+00 0.  1.
          1   -1    0    0  501    0  0.00000000000E+00 -0.00000000000E+00 -0.11573043672E+04  0.11573043672E+04  0.00000000000E+00 0. -1.
         23    2    1    2    0    0 -0.20855370322E+03  0.10961836245E+03 -0.55877807186E+03  0.61328713165E+03  0.91527808592E+02 0.  0.
          5    1    1    2  502    0  0.93102484389E+02  0.11231657219E+02 -0.13826315179E+03  0.16713172011E+03  0.47000000000E+01 0.  1.
         -5    1    1    2    0  502  0.11545121884E+03 -0.12085001967E+03 -0.40187729433E+03  0.43527136465E+03  0.47000000000E+01 0.  1.
        -11    1    3    3    0    0 -0.11739435980E+03  0.75693463450E+02 -0.42858039103E+03  0.45076833040E+03  0.00000000000E+00 0. -1.
         11    1    3    3    0    0 -0.91159343422E+02  0.33924899001E+02 -0.13019768083E+03  0.16251880125E+03  0.00000000000E+00 0.  1.
<mgrwt>
<rscale>  0 0.26315714E+03</rscale>
<asrwt>0</asrwt>
<pdfrwt beam="2">  1        1 0.17804683E+00 0.26671666E+03</pdfrwt>
<pdfrwt beam="1">  1       -1 0.89824383E-02 0.26671666E+03</pdfrwt>
<totfact> 0.88545489E+02</totfact>
</mgrwt>
</event>
<event>
 7    1  0.1111284E-005  0.1344300E+03  0.7546771E-02  0.1233261E+00
          2   -1    0    0  501    0  0.00000000000E+00  0.00000000000E+00  0.74789719724E+02  0.74789719724E+02  0.00000000000E+00 0.  1.
         -2   -1    0    0    0  501 -0.00000000000E+00 -0.00000000000E+00 -0.19630832077E+03  0.19630832077E+03  0.00000000000E+00 0. -1.
         23    2    1    2    0    0  0.47470119919E+02  0.16110074823E+02 -0.30173463194E+02  0.10857000460E+03  0.91455241636E+02 0.  0.
          5    1    1    2  502    0 -0.61396056175E+02  0.41561311386E+02 -0.42883820567E+02  0.85778379469E+02  0.47000000000E+01 0. -1.
         -5    1    1    2    0  502  0.13925936256E+02 -0.57671386209E+02 -0.48461317287E+02  0.76749656423E+02  0.47000000000E+01 0. -1.
        -11    1    3    3    0    0 -0.92708898701E+00  0.46671264923E+02 -0.89973672824E+01  0.47539657987E+02  0.00000000000E+00 0.  1.
         11    1    3    3    0    0  0.48397208906E+02 -0.30561190099E+02 -0.21176095912E+02  0.61030346618E+02  0.00000000000E+00 0. -1.
<mgrwt>
<rscale>  0 0.12616412E+03</rscale>
<asrwt>0</asrwt>
<pdfrwt beam="1">  1        2 0.11506111E-01 0.13443001E+03</pdfrwt>
<pdfrwt beam="2">  1       -2 0.30201280E-01 0.13443001E+03</pdfrwt>
<totfact> 0.51658820E+03</totfact>
</mgrwt>
</event>
<event>
 7    1  0.1111284E-005  0.1562377E+03  0.7546771E-02  0.1202280E+00
          2   -1    0    0  501    0  0.00000000000E+00  0.00000000000E+00  0.83784292816E+02  0.83784292816E+02  0.00000000000E+00 0. -1.
         -2   -1    0    0    0  501 -0.00000000000E+00 -0.00000000000E+00 -0.26314916002E+03  0.26314916002E+03  0.00000000000E+00 0.  1.
         23    2    1    2    0    0 -0.90248270122E+02  0.25114954574E+02 -0.30735048062E+02  0.13129248536E+03  0.86703877248E+02 0.  0.
          5    1    1    2  502    0  0.64332041980E+02  0.93389978173E+01 -0.47293884256E+01  0.65347422447E+02  0.47000000000E+01 0.  1.
         -5    1    1    2    0  502  0.25916228142E+02 -0.34453952391E+02 -0.14390043071E+03  0.15029354502E+03  0.47000000000E+01 0.  1.
        -11    1    3    3    0    0 -0.43107674080E+02  0.13463430024E+02 -0.59618591813E+02  0.74792459529E+02  0.00000000000E+00 0.  1.
         11    1    3    3    0    0 -0.47140596042E+02  0.11651524550E+02  0.28883543751E+02  0.56500025833E+02  0.00000000000E+00 0. -1.
<mgrwt>
<rscale>  0 0.14853871E+03</rscale>
<asrwt>0</asrwt>
<pdfrwt beam="1">  1        2 0.12889891E-01 0.15623765E+03</pdfrwt>
<pdfrwt beam="2">  1       -2 0.40484486E-01 0.15623765E+03</pdfrwt>
<totfact> 0.26450651E+03</totfact>
</mgrwt>
</event>
<event>
 7    1  0.1111284E-005  0.1506807E+03  0.7546771E-02  0.1208634E+00
          1   -1    0    0  501    0  0.00000000000E+00  0.00000000000E+00  0.45140018464E+03  0.45140018464E+03  0.00000000000E+00 0. -1.
         -1   -1    0    0    0  501 -0.00000000000E+00 -0.00000000000E+00 -0.41823833386E+02  0.41823833386E+02  0.00000000000E+00 0.  1.
         23    2    1    2    0    0 -0.60340006579E+02 -0.58627231572E+02  0.18736481334E+03  0.22474192030E+03  0.91243020485E+02 0.  0.
          5    1    1    2  502    0  0.16930354332E+02  0.91345159391E+02  0.11268922794E+03  0.14612161762E+03  0.47000000000E+01 0.  1.
         -5    1    1    2    0  502  0.43409652248E+02 -0.32717927819E+02  0.10952230997E+03  0.12236048010E+03  0.47000000000E+01 0.  1.
        -11    1    3    3    0    0  0.53289633878E+01 -0.31174544260E+02  0.12862868873E+03  0.13245976606E+03  0.00000000000E+00 0. -1.
         11    1    3    3    0    0 -0.65668969967E+02 -0.27452687312E+02  0.58736124613E+02  0.92282154243E+02  0.00000000000E+00 0.  1.
<mgrwt>
<rscale>  0 0.14354733E+03</rscale>
<asrwt>0</asrwt>
<pdfrwt beam="1">  1        1 0.69446179E-01 0.15068069E+03</pdfrwt>
<pdfrwt beam="2">  1       -1 0.64344362E-02 0.15068069E+03</pdfrwt>
<totfact> 0.60008058E+03</totfact>
</mgrwt>
</event>
<event>
 7    1  0.1111284E-005  0.1713544E+03  0.7546771E-02  0.1182061E+00
          1   -1    0    0  501    0  0.00000000000E+00  0.00000000000E+00  0.40239917391E+03  0.40239917391E+03  0.00000000000E+00 0. -1.
         -1   -1    0    0    0  501 -0.00000000000E+00 -0.00000000000E+00 -0.65039296303E+02  0.65039296303E+02  0.00000000000E+00 0.  1.
         23    2    1    2    0    0 -0.11488678954E+03  0.23187166274E+02  0.17816613756E+03  0.23354748813E+03  0.95208390112E+02 0.  0.
          5    1    1    2  502    0  0.16483473487E+02  0.13830011522E+02 -0.17567576217E+02  0.28172395195E+02  0.47000000000E+01 0.  1.
         -5    1    1    2    0  502  0.98403316058E+02 -0.37017177796E+02  0.17676131626E+03  0.20571858688E+03  0.47000000000E+01 0.  1.
        -11    1    3    3    0    0 -0.56802409165E+02  0.37877519614E+02  0.15489409879E+03  0.16927315800E+03  0.00000000000E+00 0. -1.
         11    1    3    3    0    0 -0.58084380380E+02 -0.14690353340E+02  0.23272038769E+02  0.64274330131E+02  0.00000000000E+00 0.  1.
<mgrwt>
<rscale>  0 0.16602228E+03</rscale>
<asrwt>0</asrwt>
<pdfrwt beam="1">  1        1 0.61907564E-01 0.17135444E+03</pdfrwt>
<pdfrwt beam="2">  1       -1 0.10006046E-01 0.17135444E+03</pdfrwt>
<totfact> 0.35815071E+03</totfact>
</mgrwt>
</event>
<event>
 7    1  0.1111284E-005  0.1349507E+03  0.7546771E-02  0.1237661E+00
          4   -1    0    0  501    0  0.00000000000E+00  0.00000000000E+00  0.66411615234E+02  0.66411615234E+02  0.00000000000E+00 0. -1.
         -4   -1    0    0    0  501 -0.00000000000E+00 -0.00000000000E+00 -0.21184555045E+03  0.21184555045E+03  0.00000000000E+00 0.  1.
         23    2    1    2    0    0 -0.14495875493E+02 -0.48777653811E+02 -0.25230362076E+02  0.97534756952E+02  0.79291031810E+02 0.  0.
          5    1    1    2  502    0 -0.49933826779E+02  0.45718349423E+02 -0.44492992951E+02  0.81149682393E+02  0.47000000000E+01 0.  1.
         -5    1    1    2    0  502  0.64429702272E+02  0.30593043877E+01 -0.75710580189E+02  0.99572726340E+02  0.47000000000E+01 0.  1.
        -11    1    3    3    0    0 -0.13128776738E+02  0.55205076971E+01  0.21563411853E+02  0.25842242833E+02  0.00000000000E+00 0. -1.
         11    1    3    3    0    0 -0.13670987555E+01 -0.54298161508E+02 -0.46793773930E+02  0.71692514119E+02  0.00000000000E+00 0.  1.
<mgrwt>
<rscale>  0 0.12335629E+03</rscale>
<asrwt>0</asrwt>
<pdfrwt beam="1">  1        4 0.10217172E-01 0.13495069E+03</pdfrwt>
<pdfrwt beam="2">  1       -4 0.32591623E-01 0.13495069E+03</pdfrwt>
<totfact> 0.10941318E+03</totfact>
</mgrwt>
</event>
<event>
 7    1  0.1111284E-005  0.1323435E+03  0.7546771E-02  0.1236074E+00
         -1   -1    0    0    0  501 -0.00000000000E+00  0.00000000000E+00  0.42911056346E+02  0.42911056346E+02  0.00000000000E+00 0.  1.
          1   -1    0    0  501    0  0.00000000000E+00 -0.00000000000E+00 -0.32727668116E+03  0.32727668116E+03  0.00000000000E+00 0. -1.
         23    2    1    2    0    0  0.25762960789E+02 -0.35020236865E+02 -0.10424672130E+03  0.14667574933E+03  0.93574833150E+02 0.  0.
          5    1    1    2  502    0 -0.42439919889E+02 -0.35934699001E+02 -0.10394149704E+03  0.11797615945E+03  0.47000000000E+01 0. -1.
         -5    1    1    2    0  502  0.16676959100E+02  0.70954935866E+02 -0.76177406475E+02  0.10553582873E+03  0.47000000000E+01 0. -1.
        -11    1    3    3    0    0  0.60101766360E+02 -0.11029373339E+02 -0.57480842787E+02  0.83892292157E+02  0.00000000000E+00 0.  1.
         11    1    3    3    0    0 -0.34338805570E+02 -0.23990863525E+02 -0.46765878515E+02  0.62783457168E+02  0.00000000000E+00 0. -1.
<mgrwt>
<rscale>  0 0.12435899E+03</rscale>
<asrwt>0</asrwt>
<pdfrwt beam="2">  1        1 0.50350258E-01 0.13234345E+03</pdfrwt>
<pdfrwt beam="1">  1       -1 0.66017010E-02 0.13234345E+03</pdfrwt>
<totfact> 0.85879472E+03</totfact>
</mgrwt>
</event>
<event>
 7    1  0.1111284E-005  0.1326525E+03  0.7546771E-02  0.1236688E+00
         -1   -1    0    0    0  501 -0.00000000000E+00  0.00000000000E+00  0.14405824740E+03  0.14405824740E+03  0.00000000000E+00 0.  1.
          1   -1    0    0  501    0  0.00000000000E+00 -0.00000000000E+00 -0.10506295903E+03  0.10506295903E+03  0.00000000000E+00 0. -1.
         23    2    1    2    0    0 -0.28892134502E+02 -0.33641945667E+02 -0.21307149306E+02  0.10340546726E+03  0.90951416173E+02 0.  0.
          5    1    1    2  502    0 -0.41542372065E+02 -0.17590117980E+02  0.22925604553E+02  0.50821789337E+02  0.47000000000E+01 0.  1.
         -5    1    1    2    0  502  0.70434506567E+02  0.51232063646E+02  0.37376833117E+02  0.94893949832E+02  0.47000000000E+01 0.  1.
        -11    1    3    3    0    0 -0.49688355541E+01 -0.51407305291E+02  0.17451958455E+02  0.54515788704E+02  0.00000000000E+00 0.  1.
         11    1    3    3    0    0 -0.23923298948E+02  0.17765359624E+02 -0.38759107761E+02  0.48889678559E+02  0.00000000000E+00 0. -1.
<mgrwt>
<rscale>  0 0.12397018E+03</rscale>
<asrwt>0</asrwt>
<pdfrwt beam="2">  1        1 0.16163532E-01 0.13265253E+03</pdfrwt>
<pdfrwt beam="1">  1       -1 0.22162807E-01 0.13265253E+03</pdfrwt>
<totfact> 0.54656273E+03</totfact>
</mgrwt>
</event>
<event>
 7    1  0.1111284E-005  0.2250874E+03  0.7546771E-02  0.1130146E+00
          1   -1    0    0  501    0  0.00000000000E+00  0.00000000000E+00  0.32603427394E+03  0.32603427394E+03  0.00000000000E+00 0. -1.
         -1   -1    0    0    0  501 -0.00000000000E+00 -0.00000000000E+00 -0.38848948692E+02  0.38848948692E+02  0.00000000000E+00 0.  1.
         23    2    1    2    0    0  0.28964760169E+02 -0.67256677023E+01  0.15112249308E+03  0.17774106940E+03  0.88711261411E+02 0.  0.
          5    1    1    2  502    0  0.47933280946E+02 -0.55219339799E+01  0.68644511014E+02  0.84037194560E+02  0.47000000000E+01 0. -1.
         -5    1    1    2    0  502 -0.76898041115E+02  0.12247601682E+02  0.67418321153E+02  0.10310495866E+03  0.47000000000E+01 0. -1.
        -11    1    3    3    0    0  0.42684332041E+02  0.31139650103E+02  0.94304297437E+02  0.10809685715E+03  0.00000000000E+00 0. -1.
         11    1    3    3    0    0 -0.13719571872E+02 -0.37865317805E+02  0.56818195641E+02  0.69644212256E+02  0.00000000000E+00 0.  1.
<mgrwt>
<rscale>  0 0.22508744E+03</rscale>
<asrwt>0</asrwt>
<pdfrwt beam="1">  1        1 0.50159117E-01 0.22508744E+03</pdfrwt>
<pdfrwt beam="2">  1       -1 0.59767616E-02 0.22508744E+03</pdfrwt>
<totfact> 0.10381487E+04</totfact>
</mgrwt>
</event>
<event>
 7    1  0.1111284E-005  0.1364799E+03  0.7546771E-02  0.1229634E+00
          2   -1    0    0  501    0  0.00000000000E+00  0.00000000000E+00  0.49128197860E+03  0.49128197860E+03  0.00000000000E+00 0. -1.
         -2   -1    0    0    0  501 -0.00000000000E+00 -0.00000000000E+00 -0.30270736403E+02  0.30270736403E+02  0.00000000000E+00 0.  1.
         23    2    1    2    0    0 -0.23904887879E+02 -0.49311921106E+02  0.20644440750E+03  0.23270841954E+03  0.92362361975E+02 0.  0.
          5    1    1    2  502    0  0.67588980897E+02  0.37493535556E+02  0.21510152953E+03  0.22861494604E+03  0.47000000000E+01 0.  1.
         -5    1    1    2    0  502 -0.43684093018E+02  0.11818385550E+02  0.39465305169E+02  0.60229349422E+02  0.47000000000E+01 0.  1.
        -11    1    3    3    0    0  0.30256633152E+02 -0.22767833650E+02  0.12960580434E+03  0.13502408162E+03  0.00000000000E+00 0. -1.
         11    1    3    3    0    0 -0.54161521031E+02 -0.26544087456E+02  0.76838603157E+02  0.97684337918E+02  0.00000000000E+00 0.  1.
<mgrwt>
<rscale>  0 0.12854303E+03</rscale>
<asrwt>0</asrwt>
<pdfrwt beam="1">  1        2 0.75581837E-01 0.13647987E+03</pdfrwt>
<pdfrwt beam="2">  1       -2 0.46570367E-02 0.13647987E+03</pdfrwt>
<totfact> 0.13134454E+04</totfact>
</mgrwt>
</event>
<event>
 7    1  0.1111284E-005  0.1365471E+03  0.7546771E-02  0.1229608E+00
         -2   -1    0    0    0  501 -0.00000000000E+00  0.00000000000E+00  0.31898222806E+03  0.31898222806E+03  0.00000000000E+00 0.  1.
          2   -1    0    0  501    0  0.00000000000E+00 -0.00000000000E+00 -0.51116282311E+02  0.51116282311E+02  0.00000000000E+00 0. -1.
         23    2    1    2    0    0  0.21643020205E+02 -0.50515544712E+02  0.64644998056E+02  0.12526413892E+03  0.92151441355E+02 0.  0.
          5    1    1    2  502    0 -0.15295948425E+02  0.35656629921E+02  0.21858293619E+03  0.22204943433E+03  0.47000000000E+01 0. -1.
         -5    1    1    2    0  502 -0.63470717793E+01  0.14858914792E+02 -0.15361988496E+02  0.22784937119E+02  0.47000000000E+01 0. -1.
        -11    1    3    3    0    0  0.24708091705E+02 -0.68620886768E+02  0.74639957691E+02  0.10435726702E+03  0.00000000000E+00 0.  1.
         11    1    3    3    0    0 -0.30650715003E+01  0.18105342056E+02 -0.99949596353E+01  0.20906871893E+02  0.00000000000E+00 0. -1.
<mgrwt>
<rscale>  0 0.12856015E+03</rscale>
<asrwt>0</asrwt>
<pdfrwt beam="2">  1        2 0.78640436E-02 0.13654712E+03</pdfrwt>
<pdfrwt beam="1">  1       -2 0.49074188E-01 0.13654712E+03</pdfrwt>
<totfact> 0.33178910E+03</totfact>
</mgrwt>
</event>
<event>
 7    1  0.1111284E-005  0.1564476E+03  0.7546771E-02  0.1197795E+00
          2   -1    0    0  501    0  0.00000000000E+00  0.00000000000E+00  0.14291342787E+03  0.14291342787E+03  0.00000000000E+00 0. -1.
         -2   -1    0    0    0  501 -0.00000000000E+00 -0.00000000000E+00 -0.15910070927E+03  0.15910070927E+03  0.00000000000E+00 0.  1.
         23    2    1    2    0    0  0.18116150958E+02  0.10375760972E+03  0.19661023111E+02  0.14151191851E+03  0.92440417300E+02 0.  0.
          5    1    1    2  502    0  0.47203481335E+01 -0.11605622058E+02 -0.60776498596E+02  0.62232185656E+02  0.47000000000E+01 0. -1.
         -5    1    1    2    0  502 -0.22836499092E+02 -0.92151987657E+02  0.24928194083E+02  0.98270032971E+02  0.47000000000E+01 0.  1.
        -11    1    3    3    0    0 -0.28391091381E+02  0.81261658064E+01  0.19100731963E+02  0.35169967330E+02  0.00000000000E+00 0.  1.
         11    1    3    3    0    0  0.46507242339E+02  0.95631443909E+02  0.56029114820E+00  0.10634195118E+03  0.00000000000E+00 0. -1.
<mgrwt>
<rscale>  0 0.15220077E+03</rscale>
<asrwt>0</asrwt>
<pdfrwt beam="1">  1        2 0.21986681E-01 0.15644763E+03</pdfrwt>
<pdfrwt beam="2">  1       -2 0.24477032E-01 0.15644763E+03</pdfrwt>
<totfact> 0.35589689E+03</totfact>
</mgrwt>
</event>
<event>
 7    1  0.1111284E-005  0.1369190E+03  0.7546771E-02  0.1233075E+00
          3   -1    0    0  501    0  0.00000000000E+00  0.00000000000E+00  0.28286779754E+03  0.28286779754E+03  0.00000000000E+00 0. -1.
         -3   -1    0    0    0  501 -0.00000000000E+00 -0.00000000000E+00 -0.10965794495E+03  0.10965794495E+03  0.00000000000E+00 0.  1.
         23    2    1    2    0    0  0.11728004433E+02  0.37803533627E+02  0.22522667224E+03  0.24605880061E+03  0.90836260527E+02 0.  0.
          5    1    1    2  502    0  0.22905728354E+02  0.27479458644E+02  0.21597680940E+02  0.42051668942E+02  0.47000000000E+01 0. -1.
         -5    1    1    2    0  502 -0.34633732787E+02 -0.65282992271E+02 -0.73614500586E+02  0.10441527294E+03  0.47000000000E+01 0.  1.
        -11    1    3    3    0    0 -0.29401421705E+02  0.31950286350E+02  0.17773105866E+03  0.18295790119E+03  0.00000000000E+00 0. -1.
         11    1    3    3    0    0  0.41129426137E+02  0.58532472767E+01  0.47495613580E+02  0.63100899418E+02  0.00000000000E+00 0.  1.
<mgrwt>
<rscale>  0 0.12628449E+03</rscale>
<asrwt>0</asrwt>
<pdfrwt beam="1">  1        3 0.43518122E-01 0.13691901E+03</pdfrwt>
<pdfrwt beam="2">  1       -3 0.16870453E-01 0.13691901E+03</pdfrwt>
<totfact> 0.37135244E+02</totfact>
</mgrwt>
</event>
<event>
 7    1  0.1111284E-005  0.1543358E+03  0.7546771E-02  0.1202041E+00
          1   -1    0    0  501    0  0.00000000000E+00  0.00000000000E+00  0.13628939206E+03  0.13628939206E+03  0.00000000000E+00 0. -1.
         -1   -1    0    0    0  501 -0.00000000000E+00 -0.00000000000E+00 -0.15331935242E+03  0.15331935242E+03  0.00000000000E+00 0.  1.
         23    2    1    2    0    0 -0.66290148707E+02 -0.61643679382E+02  0.75679048610E+01  0.13332506366E+03  0.97590841749E+02 0.  0.
          5    1    1    2  502    0  0.55072292403E+02  0.62752796095E+02  0.38466994764E+02  0.92047110191E+02  0.47000000000E+01 0. -1.
         -5    1    1    2    0  502  0.11217856304E+02 -0.11091167130E+01 -0.63064859990E+02  0.64236570624E+02  0.47000000000E+01 0. -1.
        -11    1    3    3    0    0  0.20044029584E+01  0.14673379604E+02 -0.22188309826E+02  0.26676708814E+02  0.00000000000E+00 0. -1.
         11    1    3    3    0    0 -0.68294551666E+02 -0.76317058986E+02  0.29756214687E+02  0.10664835485E+03  0.00000000000E+00 0.  1.
<mgrwt>
<rscale>  0 0.14873142E+03</rscale>
<asrwt>0</asrwt>
<pdfrwt beam="1">  1        1 0.20967599E-01 0.15433578E+03</pdfrwt>
<pdfrwt beam="2">  1       -1 0.23587593E-01 0.15433578E+03</pdfrwt>
<totfact> 0.35706801E+03</totfact>
</mgrwt>
</event>
<event>
 7    1  0.1111284E-005  0.1362435E+03  0.7546771E-02  0.1230046E+00
         -1   -1    0    0    0  501 -0.00000000000E+00  0.00000000000E+00  0.17773024015E+03  0.17773024015E+03  0.00000000000E+00 0.  1.
          1   -1    0    0  501    0  0.00000000000E+00 -0.00000000000E+00 -0.83573426945E+02  0.83573426945E+02  0.00000000000E+00 0. -1.
         23    2    1    2    0    0 -0.43041757090E+02  0.32960880989E+02  0.33435025316E+02  0.11214122182E+03  0.92297021534E+02 0.  0.
          5    1    1    2  502    0 -0.36248299401E+02 -0.38927652370E+02  0.88985250523E+01  0.54134786197E+02  0.47000000000E+01 0. -1.
         -5    1    1    2    0  502  0.79290056491E+02  0.59667713804E+01  0.51823262838E+02  0.95027659080E+02  0.47000000000E+01 0. -1.
        -11    1    3    3    0    0 -0.66680895406E+02  0.45066661843E+02  0.25261512763E+02  0.84353362997E+02  0.00000000000E+00 0. -1.
         11    1    3    3    0    0  0.23639138316E+02 -0.12105780853E+02  0.81735125522E+01  0.27787858821E+02  0.00000000000E+00 0.  1.
<mgrwt>
<rscale>  0 0.12826978E+03</rscale>
<asrwt>0</asrwt>
<pdfrwt beam="2">  1        1 0.12857450E-01 0.13624353E+03</pdfrwt>
<pdfrwt beam="1">  1       -1 0.27343114E-01 0.13624353E+03</pdfrwt>
<totfact> 0.52205005E+03</totfact>
</mgrwt>
</event>
<event>
 7    1  0.1111284E-005  0.1741031E+03  0.7546771E-02  0.1186809E+00
          1   -1    0    0  501    0  0.00000000000E+00  0.00000000000E+00  0.14162184151E+03  0.14162184151E+03  0.00000000000E+00 0. -1.
         -1   -1    0    0    0  501 -0.00000000000E+00 -0.00000000000E+00 -0.24234606109E+03  0.24234606109E+03  0.00000000000E+00 0.  1.
         23    2    1    2    0    0  0.41413105250E+02  0.90961912334E+02  0.63861322114E+02  0.14438431660E+03  0.82337401199E+02 0.  0.
          5    1    1    2  502    0 -0.39693116214E+02  0.27580637921E+02 -0.19928479552E+02  0.52492564808E+02  0.47000000000E+01 0. -1.
         -5    1    1    2    0  502 -0.17199890365E+01 -0.11854255026E+03 -0.14465706214E+03  0.18709102119E+03  0.47000000000E+01 0.  1.
        -11    1    3    3    0    0  0.61664226993E+02  0.44791815358E+02  0.23360368229E+02  0.79715057659E+02  0.00000000000E+00 0. -1.
         11    1    3    3    0    0 -0.20251121743E+02  0.46170096976E+02  0.40500953885E+02  0.64669258942E+02  0.00000000000E+00 0.  1.
<mgrwt>
<rscale>  0 0.16168394E+03</rscale>
<asrwt>0</asrwt>
<pdfrwt beam="1">  1        1 0.21787976E-01 0.17410311E+03</pdfrwt>
<pdfrwt beam="2">  1       -1 0.37284010E-01 0.17410311E+03</pdfrwt>
<totfact> 0.15783060E+03</totfact>
</mgrwt>
</event>
<event>
 7    1  0.1111284E-005  0.2246333E+03  0.7546771E-02  0.1133474E+00
          2   -1    0    0  501    0  0.00000000000E+00  0.00000000000E+00  0.62003206784E+03  0.62003206784E+03  0.00000000000E+00 0. -1.
         -2   -1    0    0    0  501 -0.00000000000E+00 -0.00000000000E+00 -0.84658188552E+02  0.84658188552E+02  0.00000000000E+00 0.  1.
         23    2    1    2    0    0 -0.10514502833E+03 -0.15420864307E+03  0.37328191842E+03  0.42768134220E+03  0.93467412857E+02 0.  0.
          5    1    1    2  502    0  0.18334676917E+02 -0.20929874152E+02  0.12722670533E+02  0.30954423838E+02  0.47000000000E+01 0. -1.
         -5    1    1    2    0  502  0.86810351409E+02  0.17513851723E+03  0.14936929034E+03  0.24605449035E+03  0.47000000000E+01 0. -1.
        -11    1    3    3    0    0 -0.84530951211E+01 -0.66634677785E+02  0.19867646248E+03  0.20972356054E+03  0.00000000000E+00 0. -1.
         11    1    3    3    0    0 -0.96691933205E+02 -0.87573965290E+02  0.17460545594E+03  0.21795778166E+03  0.00000000000E+00 0.  1.
<mgrwt>
<rscale>  0 0.22054972E+03</rscale>
<asrwt>0</asrwt>
<pdfrwt beam="1">  1        2 0.95389546E-01 0.22463333E+03</pdfrwt>
<pdfrwt beam="2">  1       -2 0.13024337E-01 0.22463333E+03</pdfrwt>
<totfact> 0.20887445E+03</totfact>
</mgrwt>
</event>
<event>
 7    1  0.1111284E-005  0.1477886E+03  0.7546771E-02  0.1212864E+00
         -1   -1    0    0    0  501 -0.00000000000E+00  0.00000000000E+00  0.38370510232E+02  0.38370510232E+02  0.00000000000E+00 0.  1.
          1   -1    0    0  501    0  0.00000000000E+00 -0.00000000000E+00 -0.53623747744E+03  0.53623747744E+03  0.00000000000E+00 0. -1.
         23    2    1    2    0    0 -0.50030241250E+02  0.60936234087E+02 -0.32865502401E+03  0.34994348522E+03  0.90719724297E+02 0.  0.
          5    1    1    2  502    0  0.65291060195E+02  0.14219575299E+02 -0.10491964523E+03  0.12448028285E+03  0.47000000000E+01 0. -1.
         -5    1    1    2    0  502 -0.15260818945E+02 -0.75155809386E+02 -0.64292297967E+02  0.10018421960E+03  0.47000000000E+01 0. -1.
        -11    1    3    3    0    0 -0.97066526338E+01  0.52150925122E+02 -0.28489991524E+03  0.28979630743E+03  0.00000000000E+00 0. -1.
         11    1    3    3    0    0 -0.40323588616E+02  0.87853089654E+01 -0.43755108767E+02  0.60147177787E+02  0.00000000000E+00 0.  1.
<mgrwt>
<rscale>  0 0.14034607E+03</rscale>
<asrwt>0</asrwt>
<pdfrwt beam="2">  1        1 0.82498073E-01 0.14778855E+03</pdfrwt>
<pdfrwt beam="1">  1       -1 0.59031554E-02 0.14778855E+03</pdfrwt>
<totfact> 0.54461089E+03</totfact>
</mgrwt>
</event>
<event>
 7    1  0.1111284E-005  0.1399011E+03  0.7546771E-02  0.1225064E+00
         -1   -1    0    0    0  501 -0.00000000000E+00  0.00000000000E+00  0.90829164357E+02  0.90829164357E+02  0.00000000000E+00 0.  1.
          1   -1    0    0  501    0  0.00000000000E+00 -0.00000000000E+00 -0.22848951496E+03  0.22848951496E+03  0.00000000000E+00 0. -1.
         23    2    1    2    0    0  0.10442309799E+02  0.61966030308E+02 -0.14195159650E+03  0.17935180772E+03  0.89821959670E+02 0.  0.
          5    1    1    2  502    0 -0.61299058729E+01 -0.78405073387E+02 -0.42816152589E+02  0.89667408802E+02  0.47000000000E+01 0.  1.
         -5    1    1    2    0  502 -0.43124039263E+01  0.16439043078E+02  0.47107398486E+02  0.50299462791E+02  0.47000000000E+01 0.  1.
        -11    1    3    3    0    0 -0.18463464762E+02 -0.10075060385E+02 -0.71480273026E+02  0.74510642224E+02  0.00000000000E+00 0. -1.
         11    1    3    3    0    0  0.28905774561E+02  0.72041090693E+02 -0.70471323474E+02  0.10484116550E+03  0.00000000000E+00 0.  1.
<mgrwt>
<rscale>  0 0.13162533E+03</rscale>
<asrwt>0</asrwt>
<pdfrwt beam="2">  1        1 0.35152233E-01 0.13990107E+03</pdfrwt>
<pdfrwt beam="1">  1       -1 0.13973718E-01 0.13990107E+03</pdfrwt>
<totfact> 0.42862493E+03</totfact>
</mgrwt>
</event>
<event>
 7    1  0.1111284E-005  0.1470081E+03  0.7546771E-02  0.1213796E+00
         -1   -1    0    0    0  501 -0.00000000000E+00  0.00000000000E+00  0.10986733769E+03  0.10986733769E+03  0.00000000000E+00 0.  1.
          1   -1    0    0  501    0  0.00000000000E+00 -0.00000000000E+00 -0.20301346289E+03  0.20301346289E+03  0.00000000000E+00 0. -1.
         23    2    1    2    0    0  0.67778377214E+01 -0.77065524853E+02 -0.11288813346E+03  0.16455298466E+03  0.91372424072E+02 0.  0.
          5    1    1    2  502    0 -0.49852382006E+01  0.88808557395E+02 -0.32294443791E+02  0.94746153306E+02  0.47000000000E+01 0. -1.
         -5    1    1    2    0  502 -0.17925995207E+01 -0.11743032542E+02  0.52036452051E+02  0.53581662613E+02  0.47000000000E+01 0. -1.
        -11    1    3    3    0    0  0.20860233442E+02 -0.21166179269E+02  0.78690413121E+01  0.30742125744E+02  0.00000000000E+00 0.  1.
         11    1    3    3    0    0 -0.14082395721E+02 -0.55899345583E+02 -0.12075717477E+03  0.13381085892E+03  0.00000000000E+00 0. -1.
<mgrwt>
<rscale>  0 0.13965349E+03</rscale>
<asrwt>0</asrwt>
<pdfrwt beam="2">  1        1 0.31232840E-01 0.14700814E+03</pdfrwt>
<pdfrwt beam="1">  1       -1 0.16902667E-01 0.14700814E+03</pdfrwt>
<totfact> 0.36900835E+03</totfact>
</mgrwt>
</event>
<event>
 7    1  0.1111284E-005  0.1334563E+03  0.7546771E-02  0.1241552E+00
          2   -1    0    0  501    0  0.00000000000E+00  0.00000000000E+00  0.33307848810E+03  0.33307848810E+03  0.00000000000E+00 0. -1.
         -2   -1    0    0    0  501 -0.00000000000E+00 -0.00000000000E+00 -0.37614422373E+02  0.37614422373E+02  0.00000000000E+00 0.  1.
         23    2    1    2    0    0  0.46563937096E+02 -0.41835180350E+01  0.12993455032E+03  0.15806502957E+03  0.76914654938E+02 0.  0.
          5    1    1    2  502    0 -0.62120706203E+01 -0.56548717980E+02  0.49747335800E+02  0.75718126929E+02  0.47000000000E+01 0.  1.
         -5    1    1    2    0  502 -0.40351866476E+02  0.60732236015E+02  0.11578217961E+03  0.13690975398E+03  0.47000000000E+01 0.  1.
        -11    1    3    3    0    0 -0.52040002258E+00  0.30992500445E+02  0.50442440935E+02  0.59205115890E+02  0.00000000000E+00 0.  1.
         11    1    3    3    0    0  0.47084337119E+02 -0.35176018480E+02  0.79492109384E+02  0.98859913677E+02  0.00000000000E+00 0. -1.
<mgrwt>
<rscale>  0 0.12094155E+03</rscale>
<asrwt>0</asrwt>
<pdfrwt beam="1">  1        2 0.51242843E-01 0.13345634E+03</pdfrwt>
<pdfrwt beam="2">  1       -2 0.57868344E-02 0.13345634E+03</pdfrwt>
<totfact> 0.14347824E+04</totfact>
</mgrwt>
</event>
<event>
 7    1  0.1111284E-005  0.2319670E+03  0.7546771E-02  0.1128145E+00
          2   -1    0    0  501    0  0.00000000000E+00  0.00000000000E+00  0.54424855936E+03  0.54424855936E+03  0.00000000000E+00 0. -1.
         -2   -1    0    0    0  501 -0.00000000000E+00 -0.00000000000E+00 -0.92198317812E+02  0.92198317812E+02  0.00000000000E+00 0.  1.
         23    2    1    2    0    0 -0.10024122166E+03 -0.16773593154E+03  0.22098154272E+03  0.30903057863E+03  0.92105434442E+02 0.  0.
          5    1    1    2  502    0  0.36803484320E+02  0.10235676420E+03  0.20569949631E+03  0.23273542150E+03  0.47000000000E+01 0. -1.
         -5    1    1    2    0  502  0.63437737343E+02  0.65379167339E+02  0.25369202506E+02  0.94680877039E+02  0.47000000000E+01 0. -1.
        -11    1    3    3    0    0 -0.10202722571E+03 -0.99020677420E+02  0.17858036937E+03  0.22826650579E+03  0.00000000000E+00 0.  1.
         11    1    3    3    0    0  0.17860040496E+01 -0.68715254120E+02  0.42401173355E+02  0.80764072836E+02  0.00000000000E+00 0. -1.
<mgrwt>
<rscale>  0 0.22787462E+03</rscale>
<asrwt>0</asrwt>
<pdfrwt beam="1">  1        2 0.83730545E-01 0.23196700E+03</pdfrwt>
<pdfrwt beam="2">  1       -2 0.14184357E-01 0.23196700E+03</pdfrwt>
<totfact> 0.21124292E+03</totfact>
</mgrwt>
</event>
<event>
 7    1  0.1111284E-005  0.1329358E+03  0.7546771E-02  0.1241213E+00
          1   -1    0    0  501    0  0.00000000000E+00  0.00000000000E+00  0.44767573191E+03  0.44767573191E+03  0.00000000000E+00 0. -1.
         -1   -1    0    0    0  501 -0.00000000000E+00 -0.00000000000E+00 -0.31556812257E+02  0.31556812257E+02  0.00000000000E+00 0.  1.
         23    2    1    2    0    0 -0.18571679167E+02  0.41227788213E+02  0.25116022721E+03  0.26737577093E+03  0.79772835983E+02 0.  0.
          5    1    1    2  502    0  0.15481806501E+01 -0.50170846661E+02  0.49818747511E+01  0.50659844000E+02  0.47000000000E+01 0.  1.
         -5    1    1    2    0  502  0.17023498517E+02  0.89430584479E+01  0.15997681769E+03  0.16119692923E+03  0.47000000000E+01 0.  1.
        -11    1    3    3    0    0 -0.39775720459E+02  0.52571369015E+02  0.15888035138E+03  0.17201401929E+03  0.00000000000E+00 0.  1.
         11    1    3    3    0    0  0.21204041293E+02 -0.11343580802E+02  0.92279875831E+02  0.95361751641E+02  0.00000000000E+00 0. -1.
<mgrwt>
<rscale>  0 0.12114911E+03</rscale>
<asrwt>0</asrwt>
<pdfrwt beam="1">  1        1 0.68873185E-01 0.13293578E+03</pdfrwt>
<pdfrwt beam="2">  1       -1 0.48548945E-02 0.13293578E+03</pdfrwt>
<totfact> 0.91488144E+03</totfact>
</mgrwt>
</event>
<event>
 7    1  0.1111284E-005  0.1330666E+03  0.7546771E-02  0.1235255E+00
         -2   -1    0    0    0  501 -0.00000000000E+00  0.00000000000E+00  0.20033704695E+02  0.20033704695E+02  0.00000000000E+00 0.  1.
          2   -1    0    0  501    0  0.00000000000E+00 -0.00000000000E+00 -0.69815401945E+03  0.69815401945E+03  0.00000000000E+00 0. -1.
         23    2    1    2    0    0  0.37248033731E+02  0.26348547375E+02 -0.31231898939E+03  0.32893546283E+03  0.92594414583E+02 0.  0.
          5    1    1    2  502    0 -0.33181439402E+02  0.21445284851E+02 -0.32097726447E+03  0.32343376829E+03  0.47000000000E+01 0. -1.
         -5    1    1    2    0  502 -0.40665943299E+01 -0.47793832225E+02 -0.44824060897E+02  0.65818493021E+02  0.47000000000E+01 0. -1.
        -11    1    3    3    0    0  0.20341321373E+02  0.59894519117E+02 -0.15993176543E+03  0.17198631448E+03  0.00000000000E+00 0.  1.
         11    1    3    3    0    0  0.16906712359E+02 -0.33545971742E+02 -0.15238722396E+03  0.15694914835E+03  0.00000000000E+00 0. -1.
<mgrwt>
<rscale>  0 0.12488144E+03</rscale>
<asrwt>0</asrwt>
<pdfrwt beam="2">  1        2 0.10740829E+00 0.13306657E+03</pdfrwt>
<pdfrwt beam="1">  1       -2 0.30821090E-02 0.13306657E+03</pdfrwt>
<totfact> 0.16228417E+04</totfact>
</mgrwt>
</event>
<event>
 7    1  0.1111284E-005  0.1291711E+03  0.7546771E-02  0.1244104E+00
         -1   -1    0    0    0  501 -0.00000000000E+00  0.00000000000E+00  0.21241662667E+02  0.21241662667E+02  0.00000000000E+00 0.  1.
          1   -1    0    0  501    0  0.00000000000E+00 -0.00000000000E+00 -0.58763611497E+03  0.58763611497E+03  0.00000000000E+00 0. -1.
         23    2    1    2    0    0  0.21437338354E+02  0.24486878146E+02 -0.24005952328E+03  0.25790818864E+03  0.88481028322E+02 0.  0.
          5    1    1    2  502    0 -0.11837219658E+02 -0.11416531674E+02  0.60602143478E+01  0.18145885556E+02  0.47000000000E+01 0. -1.
         -5    1    1    2    0  502 -0.96001186965E+01 -0.13070346472E+02 -0.33239514337E+03  0.33282370344E+03  0.47000000000E+01 0. -1.
        -11    1    3    3    0    0 -0.30917237169E+02  0.27236603568E+02 -0.90869410323E+02  0.99774535130E+02  0.00000000000E+00 0.  1.
         11    1    3    3    0    0  0.52354575523E+02 -0.27497254221E+01 -0.14919011295E+03  0.15813365351E+03  0.00000000000E+00 0. -1.
<mgrwt>
<rscale>  0 0.11939189E+03</rscale>
<asrwt>0</asrwt>
<pdfrwt beam="2">  1        1 0.90405540E-01 0.12917107E+03</pdfrwt>
<pdfrwt beam="1">  1       -1 0.32679487E-02 0.12917107E+03</pdfrwt>
<totfact> 0.11422139E+04</totfact>
</mgrwt>
</event>
<event>
 7    1  0.1111284E-005  0.1803626E+03  0.7546771E-02  0.1172865E+00
          3   -1    0    0  501    0  0.00000000000E+00  0.00000000000E+00  0.17729980387E+03  0.17729980387E+03  0.00000000000E+00 0. -1.
         -3   -1    0    0    0  501 -0.00000000000E+00 -0.00000000000E+00 -0.20660756468E+03  0.20660756468E+03  0.00000000000E+00 0.  1.
         23    2    1    2    0    0  0.19621528987E+02 -0.12851936603E+03  0.74376639559E+02  0.17586620270E+03  0.92167265862E+02 0.  0.
          5    1    1    2  502    0 -0.39752319850E+02  0.12083451916E+03 -0.12425410519E+03  0.17788310940E+03  0.47000000000E+01 0.  1.
         -5    1    1    2    0  502  0.20130790863E+02  0.76848468722E+01  0.20569704821E+02  0.30158056446E+02  0.47000000000E+01 0.  1.
        -11    1    3    3    0    0 -0.35236438642E+02 -0.60832877420E+02  0.19715208821E+02  0.73013252511E+02  0.00000000000E+00 0.  1.
         11    1    3    3    0    0  0.54857967630E+02 -0.67686488608E+02  0.54661430738E+02  0.10285295019E+03  0.00000000000E+00 0. -1.
<mgrwt>
<rscale>  0 0.17486696E+03</rscale>
<asrwt>0</asrwt>
<pdfrwt beam="1">  1        3 0.27276893E-01 0.18036261E+03</pdfrwt>
<pdfrwt beam="2">  1       -3 0.31785779E-01 0.18036261E+03</pdfrwt>
<totfact> 0.29775599E+02</totfact>
</mgrwt>
</event>
<event>
 7    1  0.1111284E-005  0.1749409E+03  0.7546771E-02  0.1178719E+00
          1   -1    0    0  501    0  0.00000000000E+00  0.00000000000E+00  0.63138655554E+02  0.63138655554E+02  0.00000000000E+00 0. -1.
         -1   -1    0    0    0  501 -0.00000000000E+00 -0.00000000000E+00 -0.63288272618E+03  0.63288272618E+03  0.00000000000E+00 0.  1.
         23    2    1    2    0    0 -0.12020015670E+03  0.23032278896E+02 -0.73231991674E+02  0.16959137476E+03  0.91759175268E+02 0.  0.
          5    1    1    2  502    0  0.11768836370E+03 -0.58063704847E+02 -0.44452461725E+03  0.46351501605E+03  0.47000000000E+01 0. -1.
         -5    1    1    2    0  502  0.25117929978E+01  0.35031425951E+02 -0.51987461705E+02  0.62914990922E+02  0.47000000000E+01 0. -1.
        -11    1    3    3    0    0 -0.61465301670E+02  0.91804707938E+01  0.13822957858E+02  0.63665834773E+02  0.00000000000E+00 0. -1.
         11    1    3    3    0    0 -0.58734855027E+02  0.13851808103E+02 -0.87054949531E+02  0.10592553998E+03  0.00000000000E+00 0.  1.
<mgrwt>
<rscale>  0 0.16916734E+03</rscale>
<asrwt>0</asrwt>
<pdfrwt beam="1">  1        1 0.97136392E-02 0.17494087E+03</pdfrwt>
<pdfrwt beam="2">  1       -1 0.97366574E-01 0.17494087E+03</pdfrwt>
<totfact> 0.71060159E+02</totfact>
</mgrwt>
</event>
<event>
 7    1  0.1111284E-005  0.1489090E+03  0.7546771E-02  0.1212339E+00
          1   -1    0    0  501    0  0.00000000000E+00  0.00000000000E+00  0.72666573216E+03  0.72666573216E+03  0.00000000000E+00 0. -1.
         -1   -1    0    0    0  501 -0.00000000000E+00 -0.00000000000E+00 -0.26784885289E+02  0.26784885289E+02  0.00000000000E+00 0.  1.
         23    2    1    2    0    0 -0.86225213609E+02 -0.20210750828E+02  0.41922288034E+03  0.43573567577E+03  0.79211702629E+02 0.  0.
          5    1    1    2  502    0  0.51579982202E+02  0.69742792848E+02  0.14336420546E+03  0.16763035861E+03  0.47000000000E+01 0. -1.
         -5    1    1    2    0  502  0.34645231406E+02 -0.49532042021E+02  0.13729376107E+03  0.15008458307E+03  0.47000000000E+01 0.  1.
        -11    1    3    3    0    0 -0.85871659395E+01 -0.33211787499E+02  0.19741679709E+03  0.20037503343E+03  0.00000000000E+00 0. -1.
         11    1    3    3    0    0 -0.77638047669E+02  0.13001036672E+02  0.22180608325E+03  0.23536064235E+03  0.00000000000E+00 0.  1.
<mgrwt>
<rscale>  0 0.14073801E+03</rscale>
<asrwt>0</asrwt>
<pdfrwt beam="1">  1        1 0.11179471E+00 0.14890900E+03</pdfrwt>
<pdfrwt beam="2">  1       -1 0.41207521E-02 0.14890900E+03</pdfrwt>
<totfact> 0.60939609E+03</totfact>
</mgrwt>
</event>
<event>
 7    1  0.1111284E-005  0.1735434E+03  0.7546771E-02  0.1180001E+00
         -1   -1    0    0    0  501 -0.00000000000E+00  0.00000000000E+00  0.90821851007E+02  0.90821851007E+02  0.00000000000E+00 0.  1.
          1   -1    0    0  501    0  0.00000000000E+00 -0.00000000000E+00 -0.29676818820E+03  0.29676818820E+03  0.00000000000E+00 0. -1.
         23    2    1    2    0    0  0.77924773358E+02  0.91759489690E+02 -0.72194862111E+02  0.16848560662E+03  0.93183835897E+02 0.  0.
          5    1    1    2  502    0 -0.10889673102E+03 -0.61653535678E+02 -0.74778443128E+02  0.14585459213E+03  0.47000000000E+01 0. -1.
         -5    1    1    2    0  502  0.30971957667E+02 -0.30105954012E+02 -0.58973031958E+02  0.73249840457E+02  0.47000000000E+01 0. -1.
        -11    1    3    3    0    0  0.77862387443E+02  0.10440961280E+03 -0.43821557495E+02  0.13741996770E+03  0.00000000000E+00 0. -1.
         11    1    3    3    0    0  0.62385914823E-01 -0.12650123105E+02 -0.28373304616E+02  0.31065638918E+02  0.00000000000E+00 0.  1.
<mgrwt>
<rscale>  0 0.16795161E+03</rscale>
<asrwt>0</asrwt>
<pdfrwt beam="2">  1        1 0.45656644E-01 0.17354335E+03</pdfrwt>
<pdfrwt beam="1">  1       -1 0.13972593E-01 0.17354335E+03</pdfrwt>
<totfact> 0.31302442E+03</totfact>
</mgrwt>
</event>
<event>
 7    1  0.1111284E-005  0.1286337E+03  0.7546771E-02  0.1243180E+00
         -1   -1    0    0    0  501 -0.00000000000E+00  0.00000000000E+00  0.86616819906E+02  0.86616819906E+02  0.00000000000E+00 0.  1.
          1   -1    0    0  501    0  0.00000000000E+00 -0.00000000000E+00 -0.30018575240E+03  0.30018575240E+03  0.00000000000E+00 0. -1.
         23    2    1    2    0    0 -0.29838491965E+00  0.57292637616E+02 -0.23688392662E+03  0.25607306030E+03  0.78593143201E+02 0.  0.
          5    1    1    2  502    0 -0.36426331935E+02  0.14632872590E+01 -0.26455988936E+02  0.45288279040E+02  0.47000000000E+01 0. -1.
         -5    1    1    2    0  502  0.36724716855E+02 -0.58755924875E+02  0.49770983066E+02  0.85441232969E+02  0.47000000000E+01 0.  1.
        -11    1    3    3    0    0 -0.22423728744E+02  0.68761394520E+02 -0.17799541552E+03  0.19212839700E+03  0.00000000000E+00 0. -1.
         11    1    3    3    0    0  0.22125343825E+02 -0.11468756903E+02 -0.58888511100E+02  0.63944663294E+02  0.00000000000E+00 0.  1.
<mgrwt>
<rscale>  0 0.11994965E+03</rscale>
<asrwt>0</asrwt>
<pdfrwt beam="2">  1        1 0.46182422E-01 0.12863365E+03</pdfrwt>
<pdfrwt beam="1">  1       -1 0.13325665E-01 0.12863365E+03</pdfrwt>
<totfact> 0.32794705E+03</totfact>
</mgrwt>
</event>
<event>
 7    1  0.1111284E-005  0.1846456E+03  0.7546771E-02  0.1168546E+00
          1   -1    0    0  501    0  0.00000000000E+00  0.00000000000E+00  0.24592800813E+03  0.24592800813E+03  0.00000000000E+00 0. -1.
         -1   -1    0    0    0  501 -0.00000000000E+00 -0.00000000000E+00 -0.12455732011E+03  0.12455732011E+03  0.00000000000E+00 0.  1.
         23    2    1    2    0    0 -0.11001683873E+03  0.79793490761E+02  0.73990835373E+02  0.17985781821E+03  0.91670524594E+02 0.  0.
          5    1    1    2  502    0  0.13069020428E+03 -0.62616218886E+02  0.11356389072E+02  0.14543650826E+03  0.47000000000E+01 0. -1.
         -5    1    1    2    0  502 -0.20673365551E+02 -0.17177271876E+02  0.36023463582E+02  0.45191001767E+02  0.47000000000E+01 0. -1.
        -11    1    3    3    0    0 -0.72354988528E+02  0.77826367904E+02  0.11521791069E+02  0.10688750898E+03  0.00000000000E+00 0.  1.
         11    1    3    3    0    0 -0.37661850203E+02  0.19671228571E+01  0.62469044303E+02  0.72970309230E+02  0.00000000000E+00 0. -1.
<mgrwt>
<rscale>  0 0.17923431E+03</rscale>
<asrwt>0</asrwt>
<pdfrwt beam="1">  1        1 0.37835078E-01 0.18464560E+03</pdfrwt>
<pdfrwt beam="2">  1       -1 0.19162665E-01 0.18464560E+03</pdfrwt>
<totfact> 0.24008352E+03</totfact>
</mgrwt>
</event>
<event>
 7    1  0.1111284E-005  0.1327817E+03  0.7546771E-02  0.1235897E+00
          1   -1    0    0  501    0  0.00000000000E+00  0.00000000000E+00  0.38303934886E+03  0.38303934886E+03  0.00000000000E+00 0. -1.
         -1   -1    0    0    0  501 -0.00000000000E+00 -0.00000000000E+00 -0.37860092687E+02  0.37860092687E+02  0.00000000000E+00 0.  1.
         23    2    1    2    0    0  0.18807283611E+02  0.40652117608E+02  0.19590314064E+03  0.22111374311E+03  0.92233065095E+02 0.  0.
          5    1    1    2  502    0 -0.75896135264E+01 -0.72566122519E+02  0.36043974462E+02  0.81515044415E+02  0.47000000000E+01 0.  1.
         -5    1    1    2    0  502 -0.11217670085E+02  0.31914004911E+02  0.11323214107E+03  0.11827065402E+03  0.47000000000E+01 0.  1.
        -11    1    3    3    0    0  0.39200276037E+02  0.49930556133E+02  0.75485266416E+02  0.98629344128E+02  0.00000000000E+00 0.  1.
         11    1    3    3    0    0 -0.20392992425E+02 -0.92784385248E+01  0.12041787423E+03  0.12248439899E+03  0.00000000000E+00 0. -1.
<mgrwt>
<rscale>  0 0.12447171E+03</rscale>
<asrwt>0</asrwt>
<pdfrwt beam="1">  1        1 0.58929128E-01 0.13278165E+03</pdfrwt>
<pdfrwt beam="2">  1       -1 0.58246299E-02 0.13278165E+03</pdfrwt>
<totfact> 0.85079287E+03</totfact>
</mgrwt>
</event>
<event>
 7    1  0.1111284E-005  0.1541317E+03  0.7546771E-02  0.1203275E+00
          2   -1    0    0  501    0  0.00000000000E+00  0.00000000000E+00  0.61639775300E+03  0.61639775300E+03  0.00000000000E+00 0. -1.
         -2   -1    0    0    0  501 -0.00000000000E+00 -0.00000000000E+00 -0.43434239643E+02  0.43434239643E+02  0.00000000000E+00 0.  1.
         23    2    1    2    0    0  0.73424845151E+02 -0.52353708786E+02  0.43125371340E+03  0.45045613236E+03  0.93802148945E+02 0.  0.
          5    1    1    2  502    0 -0.27946357252E+02 -0.37414541202E+02  0.19062354964E+02  0.50658761866E+02  0.47000000000E+01 0.  1.
         -5    1    1    2    0  502 -0.45478487899E+02  0.89768249988E+02  0.12264744499E+03  0.15871709841E+03  0.47000000000E+01 0.  1.
        -11    1    3    3    0    0  0.44716773520E+02 -0.75060725958E+02  0.23280686761E+03  0.24866189902E+03  0.00000000000E+00 0.  1.
         11    1    3    3    0    0  0.28708071631E+02  0.22707017172E+02  0.19844684579E+03  0.20179423334E+03  0.00000000000E+00 0. -1.
<mgrwt>
<rscale>  0 0.14774208E+03</rscale>
<asrwt>0</asrwt>
<pdfrwt beam="1">  1        2 0.94830417E-01 0.15413171E+03</pdfrwt>
<pdfrwt beam="2">  1       -2 0.66821912E-02 0.15413171E+03</pdfrwt>
<totfact> 0.59435749E+03</totfact>
</mgrwt>
</event>
<event>
 7    1  0.1111284E-005  0.1259847E+03  0.7546771E-02  0.1243728E+00
         -1   -1    0    0    0  501 -0.00000000000E+00  0.00000000000E+00  0.17112567147E+03  0.17112567147E+03  0.00000000000E+00 0.  1.
          1   -1    0    0  501    0  0.00000000000E+00 -0.00000000000E+00 -0.12174947702E+03  0.12174947702E+03  0.00000000000E+00 0. -1.
         23    2    1    2    0    0  0.46848858477E+02  0.14625265470E+02 -0.66187042725E+02  0.12191607477E+03  0.89855944332E+02 0.  0.
          5    1    1    2  502    0  0.69262576682E+01  0.20760621115E+02 -0.13864245753E+02  0.26330281894E+02  0.47000000000E+01 0. -1.
         -5    1    1    2    0  502 -0.53775116146E+02 -0.35385886584E+02  0.12942748293E+03  0.14462879182E+03  0.47000000000E+01 0.  1.
        -11    1    3    3    0    0  0.69103391722E+02 -0.50335130323E+01 -0.31087794648E+02  0.75941200787E+02  0.00000000000E+00 0. -1.
         11    1    3    3    0    0 -0.22254533244E+02  0.19658778502E+02 -0.35099248078E+02  0.45974873983E+02  0.00000000000E+00 0.  1.
<mgrwt>
<rscale>  0 0.11961841E+03</rscale>
<asrwt>0</asrwt>
<pdfrwt beam="2">  1        1 0.18730689E-01 0.12598469E+03</pdfrwt>
<pdfrwt beam="1">  1       -1 0.26327026E-01 0.12598469E+03</pdfrwt>
<totfact> 0.34043709E+03</totfact>
</mgrwt>
</event>
<event>
 6    1  0.1111284E-005  0.1407243E+03  0.7546771E-02  0.1247974E+00
          2   -1    0    0  501    0  0.00000000000E+00  0.00000000000E+00  0.47555049837E+03  0.47555049837E+03  0.00000000000E+00 0. -1.
         -2   -1    0    0    0  501 -0.00000000000E+00 -0.00000000000E+00 -0.25869547696E+02  0.25869547696E+02  0.00000000000E+00 0.  1.
          5    1    1    2  502    0  0.16875270609E+02 -0.82223150317E+02  0.82538308069E+02  0.11781376620E+03  0.47000000000E+01 0. -1.
         -5    1    1    2    0  502 -0.37703487198E+02  0.21023203383E+02  0.13025510111E+03  0.13730261976E+03  0.47000000000E+01 0. -1.
        -11    1    1    2    0    0  0.15029772553E+01  0.31753607364E+02  0.12650488214E+03  0.13043786155E+03  0.00000000000E+00 0.  1.
         11    1    1    2    0    0  0.19325239333E+02  0.29446339570E+02  0.11038265934E+03  0.11586579855E+03  0.00000000000E+00 0. -1.
<mgrwt>
<rscale>  0 0.11709160E+03</rscale>
<asrwt>0</asrwt>
<pdfrwt beam="1">  1        2 0.73161608E-01 0.14072432E+03</pdfrwt>
<pdfrwt beam="2">  1       -2 0.39799308E-02 0.14072432E+03</pdfrwt>
<totfact> 0.17246010E+04</totfact>
</mgrwt>
</event>
<event>
 7    1  0.1111284E-005  0.1303608E+03  0.7546771E-02  0.1241070E+00
         -1   -1    0    0    0  501 -0.00000000000E+00  0.00000000000E+00  0.59347657415E+02  0.59347657415E+02  0.00000000000E+00 0.  1.
          1   -1    0    0  501    0  0.00000000000E+00 -0.00000000000E+00 -0.24640605115E+03  0.24640605115E+03  0.00000000000E+00 0. -1.
         23    2    1    2    0    0  0.37061474476E+02 -0.98968433297E+00 -0.13230232745E+03  0.16436004812E+03  0.90198598682E+02 0.  0.
          5    1    1    2  502    0 -0.54753194879E+02  0.37844635645E+02 -0.70743588244E+02  0.97246460471E+02  0.47000000000E+01 0.  1.
         -5    1    1    2    0  502  0.17691720403E+02 -0.36854951312E+02  0.15987521960E+02  0.44147199973E+02  0.47000000000E+01 0.  1.
        -11    1    3    3    0    0  0.61235761110E+02 -0.19981415682E+02 -0.10532096003E+03  0.12345679419E+03  0.00000000000E+00 0.  1.
         11    1    3    3    0    0 -0.24174286635E+02  0.18991731349E+02 -0.26981367428E+02  0.40903253932E+02  0.00000000000E+00 0. -1.
<mgrwt>
<rscale>  0 0.12123686E+03</rscale>
<asrwt>0</asrwt>
<pdfrwt beam="2">  1        1 0.37908623E-01 0.13036081E+03</pdfrwt>
<pdfrwt beam="1">  1       -1 0.91304090E-02 0.13036081E+03</pdfrwt>
<totfact> 0.74776541E+03</totfact>
</mgrwt>
</event>
<event>
 7    1  0.1111284E-005  0.1517114E+03  0.7546771E-02  0.1207443E+00
          1   -1    0    0  501    0  0.00000000000E+00  0.00000000000E+00  0.40081699720E+03  0.40081699720E+03  0.00000000000E+00 0. -1.
         -1   -1    0    0    0  501 -0.00000000000E+00 -0.00000000000E+00 -0.48827678208E+02  0.48827678208E+02  0.00000000000E+00 0.  1.
         23    2    1    2    0    0 -0.72986740224E+01 -0.85663757885E+02  0.19370407537E+03  0.23039465759E+03  0.90381853118E+02 0.  0.
          5    1    1    2  502    0  0.11077457427E+02  0.10272257652E+03  0.16906332047E+03  0.19818964180E+03  0.47000000000E+01 0. -1.
         -5    1    1    2    0  502 -0.37787834049E+01 -0.17058818638E+02 -0.10778076846E+02  0.21060376014E+02  0.47000000000E+01 0. -1.
        -11    1    3    3    0    0 -0.46131695459E+02 -0.47262164469E+02  0.76326524647E+02  0.10093356172E+03  0.00000000000E+00 0.  1.
         11    1    3    3    0    0  0.38833021436E+02 -0.38401593417E+02  0.11737755072E+03  0.12946109587E+03  0.00000000000E+00 0. -1.
<mgrwt>
<rscale>  0 0.14446624E+03</rscale>
<asrwt>0</asrwt>
<pdfrwt beam="1">  1        1 0.61664151E-01 0.15171141E+03</pdfrwt>
<pdfrwt beam="2">  1       -1 0.75119507E-02 0.15171141E+03</pdfrwt>
<totfact> 0.55350707E+03</totfact>
</mgrwt>
</event>
<event>
 7    1  0.1111284E-005  0.2577133E+03  0.7546771E-02  0.1110895E+00
          1   -1    0    0  501    0  0.00000000000E+00  0.00000000000E+00  0.51255920057E+03  0.51255920057E+03  0.00000000000E+00 0. -1.
         -1   -1    0    0    0  501 -0.00000000000E+00 -0.00000000000E+00 -0.13749001812E+03  0.13749001812E+03  0.00000000000E+00 0.  1.
         23    2    1    2    0    0  0.96415217259E+02  0.20370284915E+03  0.29122379140E+03  0.37903964189E+03  0.89827660424E+02 0.  0.
          5    1    1    2  502    0  0.16197811330E+02 -0.64970236025E+02  0.61197346256E+02  0.90833396115E+02  0.47000000000E+01 0. -1.
         -5    1    1    2    0  502 -0.11261302859E+03 -0.13873261313E+03  0.22648044800E+02  0.18017618069E+03  0.47000000000E+01 0. -1.
        -11    1    3    3    0    0  0.23572030056E+02  0.32959960439E+02  0.94408380766E+01  0.41606838580E+02  0.00000000000E+00 0.  1.
         11    1    3    3    0    0  0.72843187204E+02  0.17074288871E+03  0.28178295332E+03  0.33743280331E+03  0.00000000000E+00 0. -1.
<mgrwt>
<rscale>  0 0.25385161E+03</rscale>
<asrwt>0</asrwt>
<pdfrwt beam="1">  1        1 0.78855261E-01 0.25771329E+03</pdfrwt>
<pdfrwt beam="2">  1       -1 0.21152311E-01 0.25771329E+03</pdfrwt>
<totfact> 0.80553192E+02</totfact>
</mgrwt>
</event>
<event>
 7    1  0.1111284E-005  0.1351454E+03  0.7546771E-02  0.1232382E+00
          2   -1    0    0  501    0  0.00000000000E+00  0.00000000000E+00  0.58742844777E+02  0.58742844777E+02  0.00000000000E+00 0.  1.
         -2   -1    0    0    0  501 -0.00000000000E+00 -0.00000000000E+00 -0.25142648582E+03  0.25142648582E+03  0.00000000000E+00 0. -1.
         23    2    1    2    0    0 -0.50255387456E+02  0.10684364197E+02 -0.58734351678E+02  0.11988874666E+03  0.91015536595E+02 0.  0.
          5    1    1    2  502    0  0.21724164195E+02 -0.66539209800E+02 -0.87183435298E+02  0.11190374051E+03  0.47000000000E+01 0. -1.
         -5    1    1    2    0  502  0.28531223261E+02  0.55854845603E+02 -0.46765854064E+02  0.78376843420E+02  0.47000000000E+01 0. -1.
        -11    1    3    3    0    0 -0.27287673515E+02  0.15005029795E+02  0.20497801171E+02  0.37281736787E+02  0.00000000000E+00 0.  1.
         11    1    3    3    0    0 -0.22967713941E+02 -0.43206655977E+01 -0.79232152849E+02  0.82607009872E+02  0.00000000000E+00 0. -1.
<mgrwt>
<rscale>  0 0.12673504E+03</rscale>
<asrwt>0</asrwt>
<pdfrwt beam="1">  1        2 0.90373610E-02 0.13514543E+03</pdfrwt>
<pdfrwt beam="2">  1       -2 0.38680997E-01 0.13514543E+03</pdfrwt>
<totfact> 0.44058995E+03</totfact>
</mgrwt>
</event>
<event>
 7    1  0.1111284E-005  0.1741053E+03  0.7546771E-02  0.1178737E+00
         -2   -1    0    0    0  501 -0.00000000000E+00  0.00000000000E+00  0.59602277722E+03  0.59602277722E+03  0.00000000000E+00 0.  1.
          2   -1    0    0  501    0  0.00000000000E+00 -0.00000000000E+00 -0.45474694670E+02  0.45474694670E+02  0.00000000000E+00 0. -1.
         23    2    1    2    0    0 -0.87443302902E+02 -0.83940136898E+02  0.26471468911E+03  0.30681344028E+03  0.96790199418E+02 0.  0.
          5    1    1    2  502    0  0.84750572357E+02  0.49535636488E+02  0.82283701024E+02  0.12817619222E+03  0.47000000000E+01 0.  1.
         -5    1    1    2    0  502  0.26927305454E+01  0.34404500409E+02  0.20354969242E+03  0.20650783939E+03  0.47000000000E+01 0.  1.
        -11    1    3    3    0    0 -0.74706103032E+02 -0.22064890210E+02  0.80282611541E+02  0.11186223190E+03  0.00000000000E+00 0. -1.
         11    1    3    3    0    0 -0.12737199870E+02 -0.61875246688E+02  0.18443207757E+03  0.19495120838E+03  0.00000000000E+00 0.  1.
<mgrwt>
<rscale>  0 0.16915017E+03</rscale>
<asrwt>0</asrwt>
<pdfrwt beam="2">  1        2 0.69961073E-02 0.17410535E+03</pdfrwt>
<pdfrwt beam="1">  1       -2 0.91695806E-01 0.17410535E+03</pdfrwt>
<totfact> 0.10410593E+03</totfact>
</mgrwt>
</event>
<event>
 7    1  0.1111284E-005  0.1569227E+03  0.7546771E-02  0.1200516E+00
         -2   -1    0    0    0  501 -0.00000000000E+00  0.00000000000E+00  0.55267548036E+02  0.55267548036E+02  0.00000000000E+00 0.  1.
          2   -1    0    0  501    0  0.00000000000E+00 -0.00000000000E+00 -0.41914433135E+03  0.41914433135E+03  0.00000000000E+00 0. -1.
         23    2    1    2    0    0  0.92340637314E+02 -0.21748410093E+02 -0.24418504748E+03  0.27705221960E+03  0.90176539833E+02 0.  0.
          5    1    1    2  502    0 -0.96746923766E+02 -0.31253565731E+02 -0.92081792301E+02  0.13725122623E+03  0.47000000000E+01 0. -1.
         -5    1    1    2    0  502  0.44062864522E+01  0.53001975823E+02 -0.27609943537E+02  0.60108433548E+02  0.47000000000E+01 0. -1.
        -11    1    3    3    0    0  0.67075802886E+02 -0.55721401050E+02 -0.18214518587E+03  0.20194283004E+03  0.00000000000E+00 0.  1.
         11    1    3    3    0    0  0.25264834429E+02  0.33972990957E+02 -0.62039861607E+02  0.75109389570E+02  0.00000000000E+00 0. -1.
<mgrwt>
<rscale>  0 0.14996468E+03</rscale>
<asrwt>0</asrwt>
<pdfrwt beam="2">  1        2 0.64483742E-01 0.15692267E+03</pdfrwt>
<pdfrwt beam="1">  1       -2 0.85026999E-02 0.15692267E+03</pdfrwt>
<totfact> 0.62919936E+03</totfact>
</mgrwt>
</event>
<event>
 7    1  0.1111284E-005  0.1294816E+03  0.7546771E-02  0.1241847E+00
          1   -1    0    0  501    0  0.00000000000E+00  0.00000000000E+00  0.12717958443E+03  0.12717958443E+03  0.00000000000E+00 0. -1.
         -1   -1    0    0    0  501 -0.00000000000E+00 -0.00000000000E+00 -0.11030227297E+03  0.11030227297E+03  0.00000000000E+00 0.  1.
         23    2    1    2    0    0  0.15304314624E+02  0.30112503509E+02  0.40240163767E+02  0.10590936579E+03  0.91959437084E+02 0.  0.
          5    1    1    2  502    0 -0.26910902301E+02 -0.66976243399E+02  0.18236426557E+02  0.74596723092E+02  0.47000000000E+01 0. -1.
         -5    1    1    2    0  502  0.11606587676E+02  0.36863739891E+02 -0.41599278858E+02  0.56975768513E+02  0.47000000000E+01 0. -1.
        -11    1    3    3    0    0 -0.26442794335E+02  0.41768361840E+02  0.43333213753E+01  0.49624541279E+02  0.00000000000E+00 0.  1.
         11    1    3    3    0    0  0.41747108959E+02 -0.11655858331E+02  0.35906842391E+02  0.56284824513E+02  0.00000000000E+00 0. -1.
<mgrwt>
<rscale>  0 0.12076082E+03</rscale>
<asrwt>0</asrwt>
<pdfrwt beam="1">  1        1 0.19566090E-01 0.12948165E+03</pdfrwt>
<pdfrwt beam="2">  1       -1 0.16969580E-01 0.12948165E+03</pdfrwt>
<totfact> 0.65504030E+03</totfact>
</mgrwt>
</event>
<event>
 7    1  0.1111284E-005  0.1919690E+03  0.7546771E-02  0.1161234E+00
         -2   -1    0    0    0  501 -0.00000000000E+00  0.00000000000E+00  0.16994651130E+03  0.16994651130E+03  0.00000000000E+00 0. -1.
          2   -1    0    0  501    0  0.00000000000E+00 -0.00000000000E+00 -0.30615809440E+03  0.30615809440E+03  0.00000000000E+00 0.  1.
         23    2    1    2    0    0  0.10184030013E+03 -0.10419162453E+03 -0.20871730940E+03  0.27089943918E+03  0.92715961686E+02 0.  0.
          5    1    1    2  502    0 -0.12712196909E+03  0.94679383711E+02  0.78798092572E+02  0.17707458914E+03  0.47000000000E+01 0. -1.
         -5    1    1    2    0  502  0.25281668954E+02  0.95122408151E+01 -0.62923662787E+01  0.28130577381E+02  0.47000000000E+01 0. -1.
        -11    1    3    3    0    0  0.72877223958E+02 -0.17107457757E+02 -0.12989856901E+03  0.14992462478E+03  0.00000000000E+00 0.  1.
         11    1    3    3    0    0  0.28963076176E+02 -0.87084166769E+02 -0.78818740384E+02  0.12097481440E+03  0.00000000000E+00 0. -1.
<mgrwt>
<rscale>  0 0.18695765E+03</rscale>
<asrwt>0</asrwt>
<pdfrwt beam="2">  1        2 0.47101245E-01 0.19196896E+03</pdfrwt>
<pdfrwt beam="1">  1       -2 0.26145617E-01 0.19196896E+03</pdfrwt>
<totfact> 0.13929480E+03</totfact>
</mgrwt>
</event>
<event>
 7    1  0.1111284E-005  0.1282571E+03  0.7546771E-02  0.1243710E+00
         -2   -1    0    0    0  501 -0.00000000000E+00  0.00000000000E+00  0.51468594350E+02  0.51468594350E+02  0.00000000000E+00 0. -1.
          2   -1    0    0  501    0  0.00000000000E+00 -0.00000000000E+00 -0.24787887427E+03  0.24787887427E+03  0.00000000000E+00 0.  1.
         23    2    1    2    0    0 -0.28336801216E+02  0.47516288041E+01 -0.95213112301E+02  0.13597442842E+03  0.92725164604E+02 0.  0.
          5    1    1    2  502    0  0.65154499220E+02  0.33546434186E+02 -0.70699815445E+02  0.10193638173E+03  0.47000000000E+01 0.  1.
         -5    1    1    2    0  502 -0.36817698004E+02 -0.38298062991E+02 -0.30497352176E+02  0.61436658478E+02  0.47000000000E+01 0.  1.
        -11    1    3    3    0    0 -0.25350645512E+02 -0.15754308801E+02  0.78390691016E+01  0.30859430942E+02  0.00000000000E+00 0. -1.
         11    1    3    3    0    0 -0.29861557031E+01  0.20505937605E+02 -0.10305218140E+03  0.10511499748E+03  0.00000000000E+00 0.  1.
<mgrwt>
<rscale>  0 0.11962932E+03</rscale>
<asrwt>0</asrwt>
<pdfrwt beam="2">  1        2 0.38135212E-01 0.12825710E+03</pdfrwt>
<pdfrwt beam="1">  1       -2 0.79182452E-02 0.12825710E+03</pdfrwt>
<totfact> 0.12118299E+04</totfact>
</mgrwt>
</event>
<event>
 7    1  0.1111284E-005  0.1867766E+03  0.7546771E-02  0.1164384E+00
         -1   -1    0    0    0  501 -0.00000000000E+00  0.00000000000E+00  0.70234432459E+03  0.70234432459E+03  0.00000000000E+00 0.  1.
          1   -1    0    0  501    0  0.00000000000E+00 -0.00000000000E+00 -0.73831173409E+02  0.73831173409E+02  0.00000000000E+00 0. -1.
         23    2    1    2    0    0 -0.12624219109E+03 -0.78423400078E+02  0.71012905902E+02  0.18821968815E+03  0.91085112451E+02 0.  0.
          5    1    1    2  502    0  0.12754878439E+02  0.33727154883E+02  0.31914100139E+02  0.48381894218E+02  0.47000000000E+01 0. -1.
         -5    1    1    2    0  502  0.11348731265E+03  0.44696245195E+02  0.52558614514E+03  0.53957391563E+03  0.47000000000E+01 0.  1.
        -11    1    3    3    0    0 -0.13006858940E+03 -0.64549253655E+02  0.84913726906E+02  0.16821053805E+03  0.00000000000E+00 0. -1.
         11    1    3    3    0    0  0.38263983046E+01 -0.13874146423E+02 -0.13900821003E+02  0.20009150095E+02  0.00000000000E+00 0.  1.
<mgrwt>
<rscale>  0 0.18357866E+03</rscale>
<asrwt>0</asrwt>
<pdfrwt beam="2">  1        1 0.11358643E-01 0.18677663E+03</pdfrwt>
<pdfrwt beam="1">  1       -1 0.10805297E+00 0.18677663E+03</pdfrwt>
<totfact> 0.45731579E+02</totfact>
</mgrwt>
</event>
<event>
 7    1  0.1111284E-005  0.1340934E+03  0.7546771E-02  0.1234225E+00
         -2   -1    0    0    0  501 -0.00000000000E+00  0.00000000000E+00  0.47230854447E+02  0.47230854447E+02  0.00000000000E+00 0. -1.
          2   -1    0    0  501    0  0.00000000000E+00 -0.00000000000E+00 -0.48300572693E+03  0.48300572693E+03  0.00000000000E+00 0.  1.
         23    2    1    2    0    0 -0.38041711585E+02 -0.30115541059E+02 -0.36368170396E+03  0.37799183930E+03  0.90880862395E+02 0.  0.
          5    1    1    2  502    0  0.12775664059E+02  0.77477307735E+02 -0.53951780246E+02  0.95387815772E+02  0.47000000000E+01 0. -1.
         -5    1    1    2    0  502  0.25266047527E+02 -0.47361766676E+02 -0.18141388280E+02  0.56856926306E+02  0.47000000000E+01 0. -1.
        -11    1    3    3    0    0 -0.18672418522E+02  0.28802913815E+02 -0.20058529429E+03  0.20350117283E+03  0.00000000000E+00 0.  1.
         11    1    3    3    0    0 -0.19369293063E+02 -0.58918454874E+02 -0.16309640967E+03  0.17449066647E+03  0.00000000000E+00 0. -1.
<mgrwt>
<rscale>  0 0.12554158E+03</rscale>
<asrwt>0</asrwt>
<pdfrwt beam="2">  1        2 0.74308578E-01 0.13409339E+03</pdfrwt>
<pdfrwt beam="1">  1       -2 0.72662848E-02 0.13409339E+03</pdfrwt>
<totfact> 0.68148954E+03</totfact>
</mgrwt>
</event>
<event>
 7    1  0.1111284E-005  0.1319466E+03  0.7546771E-02  0.1237987E+00
         -2   -1    0    0    0  501 -0.00000000000E+00  0.00000000000E+00  0.66830875503E+03  0.66830875503E+03  0.00000000000E+00 0.  1.
          2   -1    0    0  501    0  0.00000000000E+00 -0.00000000000E+00 -0.20278492340E+02  0.20278492340E+02  0.00000000000E+00 0. -1.
         23    2    1    2    0    0 -0.42200635373E+02  0.19592861841E+01  0.30727919116E+03  0.32318171209E+03  0.90780974224E+02 0.  0.
          5    1    1    2  502    0  0.14132920050E+02 -0.61733378687E+02  0.13344224926E+03  0.14778252049E+03  0.47000000000E+01 0.  1.
         -5    1    1    2    0  502  0.28067715323E+02  0.59774092503E+02  0.20730882227E+03  0.21762301480E+03  0.47000000000E+01 0.  1.
        -11    1    3    3    0    0  0.11284546713E+02 -0.20210587920E+02  0.21485090669E+02  0.31581924888E+02  0.00000000000E+00 0. -1.
         11    1    3    3    0    0 -0.53485182086E+02  0.22169874104E+02  0.28579410049E+03  0.29159978720E+03  0.00000000000E+00 0.  1.
<mgrwt>
<rscale>  0 0.12315137E+03</rscale>
<asrwt>0</asrwt>
<pdfrwt beam="2">  1        2 0.31197686E-02 0.13194663E+03</pdfrwt>
<pdfrwt beam="1">  1       -2 0.10281671E+00 0.13194663E+03</pdfrwt>
<totfact> 0.22790822E+03</totfact>
</mgrwt>
</event>
<event>
 7    1  0.1111284E-005  0.1338917E+03  0.7546771E-02  0.1234503E+00
          2   -1    0    0  501    0  0.00000000000E+00  0.00000000000E+00  0.10825418283E+03  0.10825418283E+03  0.00000000000E+00 0. -1.
         -2   -1    0    0    0  501 -0.00000000000E+00 -0.00000000000E+00 -0.13096740548E+03  0.13096740548E+03  0.00000000000E+00 0.  1.
         23    2    1    2    0    0 -0.16772795601E+02  0.44966301754E+02 -0.22494440547E+02  0.10532970184E+03  0.91022256992E+02 0.  0.
          5    1    1    2  502    0  0.15999138473E+02 -0.53545541609E+02  0.54558833824E+02  0.78242276336E+02  0.47000000000E+01 0.  1.
         -5    1    1    2    0  502  0.77365712794E+00  0.85792398553E+01 -0.54777615929E+02  0.55649610140E+02  0.47000000000E+01 0.  1.
        -11    1    3    3    0    0 -0.16778859164E+02 -0.41981773389E+01  0.29232259727E+02  0.33965862517E+02  0.00000000000E+00 0. -1.
         11    1    3    3    0    0  0.60635632969E-02  0.49164479092E+02 -0.51726700274E+02  0.71363839320E+02  0.00000000000E+00 0.  1.
<mgrwt>
<rscale>  0 0.12536283E+03</rscale>
<asrwt>0</asrwt>
<pdfrwt beam="1">  1        2 0.16654490E-01 0.13389171E+03</pdfrwt>
<pdfrwt beam="2">  1       -2 0.20148832E-01 0.13389171E+03</pdfrwt>
<totfact> 0.67574167E+03</totfact>
</mgrwt>
</event>
<event>
 7    1  0.1111284E-005  0.2707338E+03  0.7546771E-02  0.1100951E+00
          1   -1    0    0  501    0  0.00000000000E+00  0.00000000000E+00  0.22157088242E+03  0.22157088242E+03  0.00000000000E+00 0. -1.
         -1   -1    0    0    0  501 -0.00000000000E+00 -0.00000000000E+00 -0.33694874293E+03  0.33694874293E+03  0.00000000000E+00 0.  1.
         23    2    1    2    0    0  0.20052662877E+03 -0.13084956677E+03 -0.17748684610E+02  0.27131494821E+03  0.12634970259E+03 0.  0.
          5    1    1    2  502    0 -0.47019950184E+02  0.91425775670E+02 -0.38457115894E+01  0.10298751220E+03  0.47000000000E+01 0.  1.
         -5    1    1    2    0  502 -0.15350667859E+03  0.39423791104E+02 -0.93783464314E+02  0.18421716493E+03  0.47000000000E+01 0.  1.
        -11    1    3    3    0    0  0.88816493902E+02 -0.73389400050E+02  0.53351929015E+02  0.12696772014E+03  0.00000000000E+00 0. -1.
         11    1    3    3    0    0  0.11171013487E+03 -0.57460166725E+02 -0.71100613625E+02  0.14434722807E+03  0.00000000000E+00 0.  1.
<mgrwt>
<rscale>  0 0.27057570E+03</rscale>
<asrwt>0</asrwt>
<pdfrwt beam="1">  1        1 0.34087828E-01 0.27073379E+03</pdfrwt>
<pdfrwt beam="2">  1       -1 0.51838268E-01 0.27073379E+03</pdfrwt>
<totfact> 0.49640493E+02</totfact>
</mgrwt>
</event>
<event>
 7    1  0.1111284E-005  0.1313977E+03  0.7546771E-02  0.1233479E+00
         -2   -1    0    0    0  501 -0.00000000000E+00  0.00000000000E+00  0.16314890230E+03  0.16314890230E+03  0.00000000000E+00 0.  1.
          2   -1    0    0  501    0  0.00000000000E+00 -0.00000000000E+00 -0.12535054166E+03  0.12535054166E+03  0.00000000000E+00 0. -1.
         23    2    1    2    0    0 -0.46453775551E+02  0.42369909421E+02 -0.58459928880E+02  0.12561598030E+03  0.91698684477E+02 0.  0.
          5    1    1    2  502    0 -0.30766121873E+02 -0.34373120066E+02  0.63171285487E+02  0.78363045808E+02  0.47000000000E+01 0. -1.
         -5    1    1    2    0  502  0.77219897424E+02 -0.79967893547E+01  0.33087004034E+02  0.84520417854E+02  0.47000000000E+01 0.  1.
        -11    1    3    3    0    0 -0.14826012758E+02  0.51975905469E+01  0.24652184502E+02  0.29232786430E+02  0.00000000000E+00 0.  1.
         11    1    3    3    0    0 -0.31627762794E+02  0.37172318874E+02 -0.83112113381E+02  0.96383193869E+02  0.00000000000E+00 0. -1.
<mgrwt>
<rscale>  0 0.12602339E+03</rscale>
<asrwt>0</asrwt>
<pdfrwt beam="2">  1        2 0.19284699E-01 0.13139773E+03</pdfrwt>
<pdfrwt beam="1">  1       -2 0.25099831E-01 0.13139773E+03</pdfrwt>
<totfact> 0.39109870E+03</totfact>
</mgrwt>
</event>
<event>
 7    1  0.1111284E-005  0.1401908E+03  0.7546771E-02  0.1224206E+00
         -2   -1    0    0    0  501 -0.00000000000E+00  0.00000000000E+00  0.47530822967E+02  0.47530822967E+02  0.00000000000E+00 0.  1.
          2   -1    0    0  501    0  0.00000000000E+00 -0.00000000000E+00 -0.34194894927E+03  0.34194894927E+03  0.00000000000E+00 0. -1.
         23    2    1    2    0    0 -0.63363609814E+02  0.36271285644E+01 -0.16416340413E+03  0.19811688237E+03  0.90953684447E+02 0.  0.
          5    1    1    2  502    0  0.71412415950E+02 -0.53227814107E+02 -0.75051387887E+02  0.11656643672E+03  0.47000000000E+01 0.  1.
         -5    1    1    2    0  502 -0.80488061353E+01  0.49600685542E+02 -0.55203334285E+02  0.74796453142E+02  0.47000000000E+01 0.  1.
        -11    1    3    3    0    0 -0.37759003719E+02  0.14795037426E+02 -0.10440438153E+02  0.41876464072E+02  0.00000000000E+00 0.  1.
         11    1    3    3    0    0 -0.25604606095E+02 -0.11167908861E+02 -0.15372296597E+03  0.15624041830E+03  0.00000000000E+00 0. -1.
<mgrwt>
<rscale>  0 0.13221501E+03</rscale>
<asrwt>0</asrwt>
<pdfrwt beam="2">  1        2 0.52607532E-01 0.14019081E+03</pdfrwt>
<pdfrwt beam="1">  1       -2 0.73124341E-02 0.14019081E+03</pdfrwt>
<totfact> 0.98046800E+03</totfact>
</mgrwt>
</event>
<event>
 7    1  0.1111284E-005  0.1516434E+03  0.7546771E-02  0.1207293E+00
         -2   -1    0    0    0  501 -0.00000000000E+00  0.00000000000E+00  0.37856396365E+02  0.37856396365E+02  0.00000000000E+00 0.  1.
          2   -1    0    0  501    0  0.00000000000E+00 -0.00000000000E+00 -0.50828477503E+03  0.50828477503E+03  0.00000000000E+00 0. -1.
         23    2    1    2    0    0 -0.59895772640E+02 -0.61511797897E+02 -0.19702203710E+03  0.23349641143E+03  0.91278070680E+02 0.  0.
          5    1    1    2  502    0  0.19200622892E+02  0.28783663946E+02 -0.25453401404E+03  0.25691791983E+03  0.47000000000E+01 0.  1.
         -5    1    1    2    0  502  0.40695149748E+02  0.32728133950E+02 -0.18872327529E+02  0.55726840133E+02  0.47000000000E+01 0.  1.
        -11    1    3    3    0    0  0.11935287328E+02 -0.38306394511E+02 -0.29650519636E+02  0.49889720972E+02  0.00000000000E+00 0.  1.
         11    1    3    3    0    0 -0.71831059968E+02 -0.23205403386E+02 -0.16737151746E+03  0.18360669046E+03  0.00000000000E+00 0. -1.
<mgrwt>
<rscale>  0 0.14458228E+03</rscale>
<asrwt>0</asrwt>
<pdfrwt beam="2">  1        2 0.78197654E-01 0.15164339E+03</pdfrwt>
<pdfrwt beam="1">  1       -2 0.58240612E-02 0.15164339E+03</pdfrwt>
<totfact> 0.90988321E+03</totfact>
</mgrwt>
</event>
<event>
 7    1  0.1111284E-005  0.1391913E+03  0.7546771E-02  0.1226783E+00
          1   -1    0    0  501    0  0.00000000000E+00  0.00000000000E+00  0.13013006643E+02  0.13013006643E+02  0.00000000000E+00 0. -1.
         -1   -1    0    0    0  501 -0.00000000000E+00 -0.00000000000E+00 -0.12732408332E+04  0.12732408332E+04  0.00000000000E+00 0.  1.
         23    2    1    2    0    0  0.34170540234E+02  0.50814932253E+02 -0.37225890459E+03  0.38744183910E+03  0.88230966667E+02 0.  0.
          5    1    1    2  502    0 -0.43237198455E+02  0.27779246914E+02 -0.21098907948E+03  0.21720870966E+03  0.47000000000E+01 0. -1.
         -5    1    1    2    0  502  0.90666582209E+01 -0.78594179166E+02 -0.67697984251E+03  0.68160329111E+03  0.47000000000E+01 0. -1.
        -11    1    3    3    0    0  0.27309807555E+02  0.75357992650E+02 -0.30939336936E+03  0.31960743053E+03  0.00000000000E+00 0. -1.
         11    1    3    3    0    0  0.68607326787E+01 -0.24543060397E+02 -0.62865535228E+02  0.67834408570E+02  0.00000000000E+00 0.  1.
<mgrwt>
<rscale>  0 0.13045441E+03</rscale>
<asrwt>0</asrwt>
<pdfrwt beam="1">  1        1 0.20020000E-02 0.13919126E+03</pdfrwt>
<pdfrwt beam="2">  1       -1 0.19588330E+00 0.13919126E+03</pdfrwt>
<totfact> 0.10545784E+03</totfact>
</mgrwt>
</event>
<event>
 7    1  0.1111284E-005  0.1254716E+03  0.7546771E-02  0.1249916E+00
         -3   -1    0    0    0  501 -0.00000000000E+00  0.00000000000E+00  0.12327477887E+03  0.12327477887E+03  0.00000000000E+00 0.  1.
          3   -1    0    0  501    0  0.00000000000E+00 -0.00000000000E+00 -0.10810168625E+03  0.10810168625E+03  0.00000000000E+00 0. -1.
         23    2    1    2    0    0 -0.99258987229E+01 -0.33334489609E+01 -0.32529066859E+02  0.97143034814E+02  0.90934007251E+02 0.  0.
          5    1    1    2  502    0  0.36716830327E+02 -0.42595997233E+02 -0.81005808960E+01  0.57010999118E+02  0.47000000000E+01 0.  1.
         -5    1    1    2    0  502 -0.26790931604E+02  0.45929446194E+02  0.55802740377E+02  0.77222431181E+02  0.47000000000E+01 0.  1.
        -11    1    3    3    0    0 -0.13615426859E+02 -0.45943366770E+02 -0.10588719825E+02  0.49074369953E+02  0.00000000000E+00 0.  1.
         11    1    3    3    0    0  0.36895281357E+01  0.42609917809E+02 -0.21940347034E+02  0.48068664861E+02  0.00000000000E+00 0. -1.
<mgrwt>
<rscale>  0 0.11595932E+03</rscale>
<asrwt>0</asrwt>
<pdfrwt beam="2">  1        3 0.16631029E-01 0.12547158E+03</pdfrwt>
<pdfrwt beam="1">  1       -3 0.18965351E-01 0.12547158E+03</pdfrwt>
<totfact> 0.17324136E+03</totfact>
</mgrwt>
</event>
<event>
 7    1  0.1111284E-005  0.1712595E+03  0.7546771E-02  0.1182876E+00
          1   -1    0    0  501    0  0.00000000000E+00  0.00000000000E+00  0.65985450713E+03  0.65985450713E+03  0.00000000000E+00 0. -1.
         -1   -1    0    0    0  501 -0.00000000000E+00 -0.00000000000E+00 -0.41120708641E+02  0.41120708641E+02  0.00000000000E+00 0.  1.
         23    2    1    2    0    0  0.81837637018E+02 -0.83708768712E+02  0.37273225100E+03  0.40123102303E+03  0.91391717979E+02 0.  0.
          5    1    1    2  502    0 -0.54986760335E+02 -0.22379060948E+02  0.64793770002E+02  0.88003913618E+02  0.47000000000E+01 0. -1.
         -5    1    1    2    0  502 -0.26850876683E+02  0.10608782966E+03  0.18120777749E+03  0.21174027912E+03  0.47000000000E+01 0. -1.
        -11    1    3    3    0    0  0.56336422194E+02 -0.23998864366E+01  0.21122630239E+03  0.21862319808E+03  0.00000000000E+00 0. -1.
         11    1    3    3    0    0  0.25501214824E+02 -0.81308882276E+02  0.16150594861E+03  0.18260782495E+03  0.00000000000E+00 0.  1.
<mgrwt>
<rscale>  0 0.16526631E+03</rscale>
<asrwt>0</asrwt>
<pdfrwt beam="1">  1        1 0.10151607E+00 0.17125951E+03</pdfrwt>
<pdfrwt beam="2">  1       -1 0.63262633E-02 0.17125951E+03</pdfrwt>
<totfact> 0.37212826E+03</totfact>
</mgrwt>
</event>
<event>
 7    1  0.1111284E-005  0.6379207E+03  0.7546771E-02  0.9829713E-01
          2   -1    0    0  501    0  0.00000000000E+00  0.00000000000E+00  0.35311652389E+03  0.35311652389E+03  0.00000000000E+00 0. -1.
         -2   -1    0    0    0  501 -0.00000000000E+00 -0.00000000000E+00 -0.28810800232E+03  0.28810800232E+03  0.00000000000E+00 0.  1.
         23    2    1    2    0    0 -0.91183433402E+02  0.20360610613E+03  0.13462249848E+02  0.24200816991E+03  0.92827028127E+02 0.  0.
          5    1    1    2  502    0  0.84716673932E+02  0.70672578565E+02  0.58030953761E+02  0.12474457823E+03  0.47000000000E+01 0. -1.
         -5    1    1    2    0  502  0.64667594701E+01 -0.27427868470E+03 -0.64846820400E+01  0.27447177807E+03  0.47000000000E+01 0.  1.
        -11    1    3    3    0    0 -0.94779629749E+02  0.10009518027E+03  0.26743647134E+01  0.13787449204E+03  0.00000000000E+00 0. -1.
         11    1    3    3    0    0  0.35961963468E+01  0.10351092586E+03  0.10787885134E+02  0.10413367787E+03  0.00000000000E+00 0.  1.
<mgrwt>
<rscale>  0 0.63792067E+03</rscale>
<asrwt>0</asrwt>
<pdfrwt beam="1">  1        2 0.54325619E-01 0.63792067E+03</pdfrwt>
<pdfrwt beam="2">  1       -2 0.44324308E-01 0.63792067E+03</pdfrwt>
<totfact> 0.44549582E+02</totfact>
</mgrwt>
</event>
<event>
 7    1  0.1111284E-005  0.3066219E+03  0.7546771E-02  0.1113337E+00
          1   -1    0    0  501    0  0.00000000000E+00  0.00000000000E+00  0.11476795911E+03  0.11476795911E+03  0.00000000000E+00 0. -1.
         -1   -1    0    0    0  501 -0.00000000000E+00 -0.00000000000E+00 -0.57967480425E+03  0.57967480425E+03  0.00000000000E+00 0.  1.
         23    2    1    2    0    0  0.96086560572E+02  0.25619057948E+02  0.25267288095E+01  0.13541579609E+03  0.91880847944E+02 0.  0.
          5    1    1    2  502    0  0.10459591889E+02 -0.13252006286E+03 -0.32616400208E+03  0.35224425670E+03  0.47000000000E+01 0. -1.
         -5    1    1    2    0  502 -0.10654615246E+03  0.10690100491E+03 -0.14126957187E+03  0.20678271057E+03  0.47000000000E+01 0.  1.
        -11    1    3    3    0    0 -0.25213591156E+01  0.35459916087E+02  0.69370176007E+01  0.36219954637E+02  0.00000000000E+00 0.  1.
         11    1    3    3    0    0  0.98607919687E+02 -0.98408581391E+01 -0.44102887912E+01  0.99195841451E+02  0.00000000000E+00 0. -1.
<mgrwt>
<rscale>  0 0.24994867E+03</rscale>
<asrwt>0</asrwt>
<pdfrwt beam="1">  1        1 0.17656609E-01 0.30662192E+03</pdfrwt>
<pdfrwt beam="2">  1       -1 0.89180738E-01 0.30662192E+03</pdfrwt>
<totfact> 0.39013109E+02</totfact>
</mgrwt>
</event>
<event>
 7    1  0.1111284E-005  0.4181534E+03  0.7546771E-02  0.1038407E+00
          1   -1    0    0  501    0  0.00000000000E+00  0.00000000000E+00  0.15328459135E+04  0.15328459135E+04  0.00000000000E+00 0.  1.
         -1   -1    0    0    0  501 -0.00000000000E+00 -0.00000000000E+00 -0.13018900275E+03  0.13018900275E+03  0.00000000000E+00 0. -1.
         23    2    1    2    0    0 -0.95120126213E+02  0.38752231560E+03  0.10086085429E+04  0.10884686319E+04  0.90837141346E+02 0.  0.
          5    1    1    2  502    0 -0.17050875782E+02 -0.18524856606E+03  0.19249818873E+03  0.26774130473E+03  0.47000000000E+01 0. -1.
         -5    1    1    2    0  502  0.11217100199E+03 -0.20227374954E+03  0.20155017910E+03  0.30682497965E+03  0.47000000000E+01 0. -1.
        -11    1    3    3    0    0 -0.25377596217E+02  0.25616227292E+03  0.70160802710E+03  0.74733992008E+03  0.00000000000E+00 0.  1.
         11    1    3    3    0    0 -0.69742529995E+02  0.13136004267E+03  0.30700051584E+03  0.34112871182E+03  0.00000000000E+00 0. -1.
<mgrwt>
<rscale>  0 0.41590561E+03</rscale>
<asrwt>0</asrwt>
<pdfrwt beam="1">  1        1 0.23582243E+00 0.41815344E+03</pdfrwt>
<pdfrwt beam="2">  1       -1 0.20029079E-01 0.41815344E+03</pdfrwt>
<totfact> 0.13425865E+02</totfact>
</mgrwt>
</event>
<event>
 7    1  0.1111284E-005  0.1438242E+03  0.7546771E-02  0.1218090E+00
          2   -1    0    0  501    0  0.00000000000E+00  0.00000000000E+00  0.28180124463E+02  0.28180124463E+02  0.00000000000E+00 0.  1.
         -2   -1    0    0    0  501 -0.00000000000E+00 -0.00000000000E+00 -0.62229793924E+03  0.62229793924E+03  0.00000000000E+00 0. -1.
         23    2    1    2    0    0  0.33603802664E+02 -0.62697685568E+02 -0.20934743963E+03  0.23970606967E+03  0.92587439912E+02 0.  0.
          5    1    1    2  502    0  0.31681119062E+02  0.29416082337E+02 -0.27681975901E+03  0.28021468231E+03  0.47000000000E+01 0.  1.
         -5    1    1    2    0  502 -0.65284921726E+02  0.33281603232E+02 -0.10795061614E+03  0.13055731172E+03  0.47000000000E+01 0.  1.
        -11    1    3    3    0    0  0.42425467657E+02 -0.32298422450E+02 -0.19957996636E+03  0.20657993942E+03  0.00000000000E+00 0. -1.
         11    1    3    3    0    0 -0.88216649927E+01 -0.30399263118E+02 -0.97674732683E+01  0.33126130251E+02  0.00000000000E+00 0.  1.
<mgrwt>
<rscale>  0 0.13652004E+03</rscale>
<asrwt>0</asrwt>
<pdfrwt beam="1">  1        2 0.43354042E-02 0.14382416E+03</pdfrwt>
<pdfrwt beam="2">  1       -2 0.95738134E-01 0.14382416E+03</pdfrwt>
<totfact> 0.17427829E+03</totfact>
</mgrwt>
</event>
<event>
 7    1  0.1111284E-005  0.1249666E+03  0.7546771E-02  0.1252426E+00
         -1   -1    0    0    0  501 -0.00000000000E+00  0.00000000000E+00  0.98128234100E+02  0.98128234100E+02  0.00000000000E+00 0.  1.
          1   -1    0    0  501    0  0.00000000000E+00 -0.00000000000E+00 -0.27790716352E+03  0.27790716352E+03  0.00000000000E+00 0. -1.
         23    2    1    2    0    0 -0.15154819402E+01 -0.13206849143E+02 -0.22617278092E+03  0.24273485874E+03  0.87116974623E+02 0.  0.
          5    1    1    2  502    0 -0.15117481248E+02  0.53834285130E+02 -0.14620569445E+02  0.57987236058E+02  0.47000000000E+01 0. -1.
         -5    1    1    2    0  502  0.16632963188E+02 -0.40627435987E+02  0.61014420944E+02  0.75313302825E+02  0.47000000000E+01 0.  1.
        -11    1    3    3    0    0 -0.35938542728E+02  0.15739131541E+02 -0.14174590024E+03  0.14707548861E+03  0.00000000000E+00 0. -1.
         11    1    3    3    0    0  0.34423060788E+02 -0.28945980685E+02 -0.84426880679E+02  0.95659370127E+02  0.00000000000E+00 0.  1.
<mgrwt>
<rscale>  0 0.11451718E+03</rscale>
<asrwt>0</asrwt>
<pdfrwt beam="2">  1        1 0.42754948E-01 0.12496657E+03</pdfrwt>
<pdfrwt beam="1">  1       -1 0.15096652E-01 0.12496657E+03</pdfrwt>
<totfact> 0.29655058E+03</totfact>
</mgrwt>
</event>
<event>
 7    1  0.1111284E-005  0.2159018E+03  0.7546771E-02  0.1138949E+00
         -2   -1    0    0    0  501 -0.00000000000E+00  0.00000000000E+00  0.20169577370E+03  0.20169577370E+03  0.00000000000E+00 0.  1.
          2   -1    0    0  501    0  0.00000000000E+00 -0.00000000000E+00 -0.23244282006E+03  0.23244282006E+03  0.00000000000E+00 0. -1.
         23    2    1    2    0    0  0.11212094091E+03  0.14515498470E+03 -0.64307997234E+02  0.21564394032E+03  0.93411538443E+02 0.  0.
          5    1    1    2  502    0 -0.68716347055E+02 -0.56426438862E+02 -0.37611790616E+02  0.96657209501E+02  0.47000000000E+01 0. -1.
         -5    1    1    2    0  502 -0.43404593859E+02 -0.88728545837E+02  0.71172741496E+02  0.12183744394E+03  0.47000000000E+01 0.  1.
        -11    1    3    3    0    0  0.84291751828E+02  0.36480588750E+02 -0.14832838421E+02  0.93037335932E+02  0.00000000000E+00 0. -1.
         11    1    3    3    0    0  0.27829189087E+02  0.10867439595E+03 -0.49475158814E+02  0.12260660439E+03  0.00000000000E+00 0.  1.
<mgrwt>
<rscale>  0 0.21333905E+03</rscale>
<asrwt>0</asrwt>
<pdfrwt beam="2">  1        2 0.35760434E-01 0.21590177E+03</pdfrwt>
<pdfrwt beam="1">  1       -2 0.31030119E-01 0.21590177E+03</pdfrwt>
<totfact> 0.13806238E+03</totfact>
</mgrwt>
</event>
<event>
 7    1  0.1111284E-005  0.1435204E+03  0.7546771E-02  0.1213606E+00
          1   -1    0    0  501    0  0.00000000000E+00  0.00000000000E+00  0.37957314576E+03  0.37957314576E+03  0.00000000000E+00 0. -1.
         -1   -1    0    0    0  501 -0.00000000000E+00 -0.00000000000E+00 -0.82757791047E+02  0.82757791047E+02  0.00000000000E+00 0.  1.
         23    2    1    2    0    0  0.66331802844E+02 -0.62132694659E+02  0.29135034823E+03  0.31870648031E+03  0.91806401521E+02 0.  0.
          5    1    1    2  502    0  0.13865113761E+02 -0.13947639021E+02  0.24061448443E+02  0.31429624799E+02  0.47000000000E+01 0. -1.
         -5    1    1    2    0  502 -0.80196916604E+02  0.76080333680E+02 -0.18596441967E+02  0.11219483170E+03  0.47000000000E+01 0.  1.
        -11    1    3    3    0    0  0.87616161619E+02 -0.58026947512E+02  0.21453430835E+03  0.23889053533E+03  0.00000000000E+00 0. -1.
         11    1    3    3    0    0 -0.21284358775E+02 -0.41057471463E+01  0.76816039887E+02  0.79815944974E+02  0.00000000000E+00 0.  1.
<mgrwt>
<rscale>  0 0.13979397E+03</rscale>
<asrwt>0</asrwt>
<pdfrwt beam="1">  1        1 0.58395868E-01 0.14352045E+03</pdfrwt>
<pdfrwt beam="2">  1       -1 0.12731968E-01 0.14352045E+03</pdfrwt>
<totfact> 0.26402320E+03</totfact>
</mgrwt>
</event>
<event>
 7    1  0.1111284E-005  0.1268828E+03  0.7546771E-02  0.1246083E+00
         -2   -1    0    0    0  501 -0.00000000000E+00  0.00000000000E+00  0.70771110780E+02  0.70771110780E+02  0.00000000000E+00 0.  1.
          2   -1    0    0  501    0  0.00000000000E+00 -0.00000000000E+00 -0.20512118574E+03  0.20512118574E+03  0.00000000000E+00 0. -1.
         23    2    1    2    0    0 -0.20519887452E+02  0.71492559777E+01 -0.11168281997E+03  0.14700069629E+03  0.93080474807E+02 0.  0.
          5    1    1    2  502    0 -0.41718959379E+01 -0.51180880561E+01  0.50683383133E+02  0.51327330604E+02  0.47000000000E+01 0. -1.
         -5    1    1    2    0  502  0.24691783390E+02 -0.20311679216E+01 -0.73350638128E+02  0.77564269634E+02  0.47000000000E+01 0. -1.
        -11    1    3    3    0    0 -0.35007281156E+02 -0.65596888557E+01 -0.21659103956E+01  0.35682354458E+02  0.00000000000E+00 0.  1.
         11    1    3    3    0    0  0.14487393704E+02  0.13708944833E+02 -0.10951690957E+03  0.11131834183E+03  0.00000000000E+00 0. -1.
<mgrwt>
<rscale>  0 0.11820815E+03</rscale>
<asrwt>0</asrwt>
<pdfrwt beam="2">  1        2 0.31557104E-01 0.12688278E+03</pdfrwt>
<pdfrwt beam="1">  1       -2 0.10887864E-01 0.12688278E+03</pdfrwt>
<totfact> 0.90220500E+03</totfact>
</mgrwt>
</event>
<event>
 7    1  0.1111284E-005  0.1935086E+03  0.7546771E-02  0.1160775E+00
          1   -1    0    0  501    0  0.00000000000E+00  0.00000000000E+00  0.62977982196E+02  0.62977982196E+02  0.00000000000E+00 0. -1.
         -1   -1    0    0    0  501 -0.00000000000E+00 -0.00000000000E+00 -0.60180678684E+03  0.60180678684E+03  0.00000000000E+00 0.  1.
         23    2    1    2    0    0  0.13682271491E+03 -0.55685715640E+02 -0.13651313321E+03  0.21835060665E+03  0.84969392391E+02 0.  0.
          5    1    1    2  502    0 -0.12339269057E+03  0.60367763641E+02 -0.40790970437E+03  0.43044446784E+03  0.47000000000E+01 0. -1.
         -5    1    1    2    0  502 -0.13430024343E+02 -0.46820480015E+01  0.55940329333E+01  0.15989694550E+02  0.47000000000E+01 0. -1.
        -11    1    3    3    0    0  0.68454305768E+02 -0.57257142011E+01 -0.15112797208E+02  0.70336138796E+02  0.00000000000E+00 0.  1.
         11    1    3    3    0    0  0.68368409146E+02 -0.49960001438E+02 -0.12140033600E+03  0.14801446786E+03  0.00000000000E+00 0. -1.
<mgrwt>
<rscale>  0 0.18745709E+03</rscale>
<asrwt>0</asrwt>
<pdfrwt beam="1">  1        1 0.96889204E-02 0.19350856E+03</pdfrwt>
<pdfrwt beam="2">  1       -1 0.92585659E-01 0.19350856E+03</pdfrwt>
<totfact> 0.79668921E+02</totfact>
</mgrwt>
</event>
<event>
 7    1  0.1111284E-005  0.1309859E+03  0.7546771E-02  0.1245073E+00
         -3   -1    0    0    0  501 -0.00000000000E+00  0.00000000000E+00  0.65181144557E+02  0.65181144557E+02  0.00000000000E+00 0.  1.
          3   -1    0    0  501    0  0.00000000000E+00 -0.00000000000E+00 -0.19229666156E+03  0.19229666156E+03  0.00000000000E+00 0. -1.
         23    2    1    2    0    0 -0.35423256974E+02  0.16677201683E+02 -0.76323204297E+02  0.11698877498E+03  0.79550020535E+02 0.  0.
          5    1    1    2  502    0 -0.34995430013E+02 -0.40989715910E+02 -0.34253656906E+02  0.64033115992E+02  0.47000000000E+01 0. -1.
         -5    1    1    2    0  502  0.70418686987E+02  0.24312514227E+02 -0.16538655803E+02  0.76455915146E+02  0.47000000000E+01 0. -1.
        -11    1    3    3    0    0 -0.27587940492E+02  0.48454662675E+02 -0.51610696042E+02  0.75977712137E+02  0.00000000000E+00 0. -1.
         11    1    3    3    0    0 -0.78353164816E+01 -0.31777460992E+02 -0.24712508255E+02  0.41011062846E+02  0.00000000000E+00 0.  1.
<mgrwt>
<rscale>  0 0.11881031E+03</rscale>
<asrwt>0</asrwt>
<pdfrwt beam="2">  1        3 0.29584102E-01 0.13098591E+03</pdfrwt>
<pdfrwt beam="1">  1       -3 0.10027868E-01 0.13098591E+03</pdfrwt>
<totfact> 0.18452794E+03</totfact>
</mgrwt>
</event>
<event>
 7    1  0.1111284E-005  0.1434236E+03  0.7546771E-02  0.1219244E+00
          4   -1    0    0  501    0  0.00000000000E+00  0.00000000000E+00  0.27073603056E+03  0.27073603056E+03  0.00000000000E+00 0. -1.
         -4   -1    0    0    0  501 -0.00000000000E+00 -0.00000000000E+00 -0.70472410353E+02  0.70472410353E+02  0.00000000000E+00 0.  1.
         23    2    1    2    0    0 -0.35901765500E+02  0.60469252619E+02  0.15058775437E+03  0.18942563977E+03  0.90884178795E+02 0.  0.
          5    1    1    2  502    0  0.31339064444E+02  0.34215057074E+02  0.50628802308E+01  0.46909805447E+02  0.47000000000E+01 0.  1.
         -5    1    1    2    0  502  0.45627010562E+01 -0.94684309693E+02  0.44612985604E+02  0.10487299570E+03  0.47000000000E+01 0.  1.
        -11    1    3    3    0    0  0.12085973621E+02  0.29430500519E+02  0.39690073113E+01  0.32062098156E+02  0.00000000000E+00 0.  1.
         11    1    3    3    0    0 -0.47987739121E+02  0.31038752100E+02  0.14661874706E+03  0.15736354161E+03  0.00000000000E+00 0. -1.
<mgrwt>
<rscale>  0 0.13569361E+03</rscale>
<asrwt>0</asrwt>
<pdfrwt beam="1">  1        4 0.41651697E-01 0.14342359E+03</pdfrwt>
<pdfrwt beam="2">  1       -4 0.10841909E-01 0.14342359E+03</pdfrwt>
<totfact> 0.62157831E+02</totfact>
</mgrwt>
</event>
<event>
 7    1  0.1111284E-005  0.1539745E+03  0.7546771E-02  0.1205650E+00
          1   -1    0    0  501    0  0.00000000000E+00  0.00000000000E+00  0.31721587946E+02  0.31721587946E+02  0.00000000000E+00 0.  1.
         -1   -1    0    0    0  501 -0.00000000000E+00 -0.00000000000E+00 -0.61656724477E+03  0.61656724477E+03  0.00000000000E+00 0. -1.
         23    2    1    2    0    0  0.76593573117E+02  0.47100922502E+02 -0.22556648191E+03  0.25740562641E+03  0.85395236403E+02 0.  0.
          5    1    1    2  502    0 -0.91510174388E+01 -0.62057715142E+02 -0.73066608574E+02  0.96414316454E+02  0.47000000000E+01 0.  1.
         -5    1    1    2    0  502 -0.67442555678E+02  0.14956792640E+02 -0.28621256634E+03  0.29446888985E+03  0.47000000000E+01 0.  1.
        -11    1    3    3    0    0  0.28665695802E+02  0.40912867422E+02 -0.35482274172E+02  0.61274600096E+02  0.00000000000E+00 0.  1.
         11    1    3    3    0    0  0.47927877315E+02  0.61880550797E+01 -0.19008420774E+03  0.19613102631E+03  0.00000000000E+00 0. -1.
<mgrwt>
<rscale>  0 0.14586366E+03</rscale>
<asrwt>0</asrwt>
<pdfrwt beam="1">  1        1 0.48802442E-02 0.15397453E+03</pdfrwt>
<pdfrwt beam="2">  1       -1 0.94856500E-01 0.15397453E+03</pdfrwt>
<totfact> 0.19068916E+03</totfact>
</mgrwt>
</event>
<event>
 7    1  0.1111284E-005  0.1408749E+03  0.7546771E-02  0.1223885E+00
          2   -1    0    0  501    0  0.00000000000E+00  0.00000000000E+00  0.51739986375E+03  0.51739986375E+03  0.00000000000E+00 0. -1.
         -2   -1    0    0    0  501 -0.00000000000E+00 -0.00000000000E+00 -0.32273896534E+02  0.32273896534E+02  0.00000000000E+00 0.  1.
         23    2    1    2    0    0 -0.61391643319E+02 -0.21308982468E+02  0.27987833111E+03  0.30073132847E+03  0.88794397880E+02 0.  0.
          5    1    1    2  502    0 -0.12598259437E+02 -0.29692363917E+02  0.10227370022E+02  0.34161992234E+02  0.47000000000E+01 0. -1.
         -5    1    1    2    0  502  0.73989902756E+02  0.51001346386E+02  0.19502026609E+03  0.21478043958E+03  0.47000000000E+01 0. -1.
        -11    1    3    3    0    0  0.14523318872E+02  0.17511733049E+02  0.38301243971E+02  0.44548545152E+02  0.00000000000E+00 0.  1.
         11    1    3    3    0    0 -0.75914962191E+02 -0.38820715518E+02  0.24157708713E+03  0.25618278331E+03  0.00000000000E+00 0. -1.
<mgrwt>
<rscale>  0 0.13243624E+03</rscale>
<asrwt>0</asrwt>
<pdfrwt beam="1">  1        2 0.79599973E-01 0.14087492E+03</pdfrwt>
<pdfrwt beam="2">  1       -2 0.49652152E-02 0.14087492E+03</pdfrwt>
<totfact> 0.11295983E+04</totfact>
</mgrwt>
</event>
<event>
 7    1  0.1111284E-005  0.1270462E+03  0.7546771E-02  0.1247592E+00
         -1   -1    0    0    0  501 -0.00000000000E+00  0.00000000000E+00  0.17382377284E+03  0.17382377284E+03  0.00000000000E+00 0.  1.
          1   -1    0    0  501    0  0.00000000000E+00 -0.00000000000E+00 -0.69326766653E+02  0.69326766653E+02  0.00000000000E+00 0. -1.
         23    2    1    2    0    0  0.18117299902E+02 -0.13678456943E+02  0.48167599635E+02  0.10417667116E+03  0.89539513172E+02 0.  0.
          5    1    1    2  502    0  0.10286128576E+02  0.31813101553E+01 -0.38009074649E+02  0.39783224242E+02  0.47000000000E+01 0. -1.
         -5    1    1    2    0  502 -0.28403428478E+02  0.10497146788E+02  0.94338481204E+02  0.99190644094E+02  0.47000000000E+01 0. -1.
        -11    1    3    3    0    0  0.28476663659E+01 -0.19892603256E+02 -0.23336709876E+02  0.30796540323E+02  0.00000000000E+00 0. -1.
         11    1    3    3    0    0  0.15269633536E+02  0.62141463133E+01  0.71504309512E+02  0.73380130836E+02  0.00000000000E+00 0.  1.
<mgrwt>
<rscale>  0 0.11731588E+03</rscale>
<asrwt>0</asrwt>
<pdfrwt beam="2">  1        1 0.10665656E-01 0.12704619E+03</pdfrwt>
<pdfrwt beam="1">  1       -1 0.26742119E-01 0.12704619E+03</pdfrwt>
<totfact> 0.68882302E+03</totfact>
</mgrwt>
</event>
<event>
 7    1  0.1111284E-005  0.1620694E+03  0.7546771E-02  0.1194089E+00
         -1   -1    0    0    0  501 -0.00000000000E+00  0.00000000000E+00  0.45976544207E+03  0.45976544207E+03  0.00000000000E+00 0.  1.
          1   -1    0    0  501    0  0.00000000000E+00 -0.00000000000E+00 -0.53197697158E+02  0.53197697158E+02  0.00000000000E+00 0. -1.
         23    2    1    2    0    0  0.40593346528E+02  0.94831738313E+02  0.11185842558E+03  0.17662987318E+03  0.89693513434E+02 0.  0.
          5    1    1    2  502    0 -0.71379223847E+02 -0.55054575006E+02  0.97984506820E+02  0.13322557338E+03  0.47000000000E+01 0. -1.
         -5    1    1    2    0  502  0.30785877319E+02 -0.39777163307E+02  0.19672481251E+03  0.20310769267E+03  0.47000000000E+01 0. -1.
        -11    1    3    3    0    0  0.58587858185E+02  0.41102261362E+02  0.31235863069E+02  0.78087208668E+02  0.00000000000E+00 0.  1.
         11    1    3    3    0    0 -0.17994511657E+02  0.53729476950E+02  0.80622562510E+02  0.98542664510E+02  0.00000000000E+00 0. -1.
<mgrwt>
<rscale>  0 0.15531546E+03</rscale>
<asrwt>0</asrwt>
<pdfrwt beam="2">  1        1 0.81842614E-02 0.16206938E+03</pdfrwt>
<pdfrwt beam="1">  1       -1 0.70733142E-01 0.16206938E+03</pdfrwt>
<totfact> 0.17365078E+03</totfact>
</mgrwt>
</event>
<event>
 7    1  0.1111284E-005  0.1407015E+03  0.7546771E-02  0.1222659E+00
          1   -1    0    0  501    0  0.00000000000E+00  0.00000000000E+00  0.47401229529E+03  0.47401229529E+03  0.00000000000E+00 0. -1.
         -1   -1    0    0    0  501 -0.00000000000E+00 -0.00000000000E+00 -0.35075588512E+02  0.35075588512E+02  0.00000000000E+00 0.  1.
         23    2    1    2    0    0 -0.47773825245E+02  0.43462446188E+02  0.24023574680E+03  0.26561514645E+03  0.93096022358E+02 0.  0.
          5    1    1    2  502    0  0.72534784482E+02 -0.36262853799E+02  0.20135975312E+03  0.21712698980E+03  0.47000000000E+01 0. -1.
         -5    1    1    2    0  502 -0.24760959237E+02 -0.71995923884E+01 -0.26587931345E+01  0.26345747548E+02  0.47000000000E+01 0. -1.
        -11    1    3    3    0    0 -0.95292511760E+01  0.48904573446E+02  0.46790980682E+02  0.68351004419E+02  0.00000000000E+00 0.  1.
         11    1    3    3    0    0 -0.38244574069E+02 -0.54421272587E+01  0.19344476612E+03  0.19726414204E+03  0.00000000000E+00 0. -1.
<mgrwt>
<rscale>  0 0.13328674E+03</rscale>
<asrwt>0</asrwt>
<pdfrwt beam="1">  1        1 0.72924964E-01 0.14070147E+03</pdfrwt>
<pdfrwt beam="2">  1       -1 0.53962447E-02 0.14070147E+03</pdfrwt>
<totfact> 0.72954911E+03</totfact>
</mgrwt>
</event>
<event>
 7    1  0.1111284E-005  0.1388043E+03  0.7546771E-02  0.1228958E+00
          3   -1    0    0  501    0  0.00000000000E+00  0.00000000000E+00  0.29988876546E+03  0.29988876546E+03  0.00000000000E+00 0. -1.
         -3   -1    0    0    0  501 -0.00000000000E+00 -0.00000000000E+00 -0.50304476258E+02  0.50304476258E+02  0.00000000000E+00 0.  1.
         23    2    1    2    0    0  0.54655615619E+02 -0.25608994579E+02  0.13549232497E+03  0.17051680375E+03  0.84111552780E+02 0.  0.
          5    1    1    2  502    0 -0.18946786382E+02 -0.10937564345E+02 -0.23727896196E+02  0.32614629937E+02  0.47000000000E+01 0.  1.
         -5    1    1    2    0  502 -0.35708829237E+02  0.36546558924E+02  0.13781986042E+03  0.14706180803E+03  0.47000000000E+01 0.  1.
        -11    1    3    3    0    0  0.56087823516E+02  0.15003482777E+02  0.10398407839E+03  0.11909507547E+03  0.00000000000E+00 0. -1.
         11    1    3    3    0    0 -0.14322078962E+01 -0.40612477356E+02  0.31508246588E+02  0.51421728282E+02  0.00000000000E+00 0.  1.
<mgrwt>
<rscale>  0 0.12899282E+03</rscale>
<asrwt>0</asrwt>
<pdfrwt beam="1">  1        3 0.46136732E-01 0.13880434E+03</pdfrwt>
<pdfrwt beam="2">  1       -3 0.77391504E-02 0.13880434E+03</pdfrwt>
<totfact> 0.12217352E+03</totfact>
</mgrwt>
</event>
<event>
 7    1  0.1111284E-005  0.1317937E+03  0.7546771E-02  0.1238911E+00
         -1   -1    0    0    0  501 -0.00000000000E+00  0.00000000000E+00  0.11914517292E+03  0.11914517292E+03  0.00000000000E+00 0.  1.
          1   -1    0    0  501    0  0.00000000000E+00 -0.00000000000E+00 -0.13631259312E+03  0.13631259312E+03  0.00000000000E+00 0. -1.
         23    2    1    2    0    0 -0.96641455596E+01 -0.40631388061E+02 -0.61730477007E+02  0.11633387299E+03  0.89323081048E+02 0.  0.
          5    1    1    2  502    0  0.28516740653E+02 -0.18758593441E+02 -0.27251166325E+02  0.43929550321E+02  0.47000000000E+01 0.  1.
         -5    1    1    2    0  502 -0.18852595094E+02  0.59389981502E+02  0.71814223134E+02  0.95194342736E+02  0.47000000000E+01 0.  1.
        -11    1    3    3    0    0  0.16112752069E+02 -0.22145255167E+02  0.16461123556E+02  0.31953117130E+02  0.00000000000E+00 0.  1.
         11    1    3    3    0    0 -0.25776897628E+02 -0.18486132894E+02 -0.78191600562E+02  0.84380755858E+02  0.00000000000E+00 0. -1.
<mgrwt>
<rscale>  0 0.12257324E+03</rscale>
<asrwt>0</asrwt>
<pdfrwt beam="2">  1        1 0.20971168E-01 0.13179375E+03</pdfrwt>
<pdfrwt beam="1">  1       -1 0.18330027E-01 0.13179375E+03</pdfrwt>
<totfact> 0.53147300E+03</totfact>
</mgrwt>
</event>
<event>
 7    1  0.1111284E-005  0.1250827E+03  0.7546771E-02  0.1250635E+00
          1   -1    0    0  501    0  0.00000000000E+00  0.00000000000E+00  0.10442333143E+03  0.10442333143E+03  0.00000000000E+00 0. -1.
         -1   -1    0    0    0  501 -0.00000000000E+00 -0.00000000000E+00 -0.12358573365E+03  0.12358573365E+03  0.00000000000E+00 0.  1.
         23    2    1    2    0    0  0.43920000081E+01  0.13062325282E+01  0.26503476889E+02  0.94851023208E+02  0.90957607757E+02 0.  0.
          5    1    1    2  502    0 -0.47701698871E+02  0.41280585030E+02 -0.15273957341E+02  0.65076282534E+02  0.47000000000E+01 0.  1.
         -5    1    1    2    0  502  0.43309698863E+02 -0.42586817558E+02 -0.30391921777E+02  0.68081759338E+02  0.47000000000E+01 0.  1.
        -11    1    3    3    0    0  0.21503444399E+02 -0.37158612056E+02 -0.36202071772E+01  0.43084410997E+02  0.00000000000E+00 0.  1.
         11    1    3    3    0    0 -0.17111444391E+02  0.38464844584E+02  0.30123684066E+02  0.51766612211E+02  0.00000000000E+00 0. -1.
<mgrwt>
<rscale>  0 0.11554347E+03</rscale>
<asrwt>0</asrwt>
<pdfrwt beam="1">  1        1 0.16065128E-01 0.12508274E+03</pdfrwt>
<pdfrwt beam="2">  1       -1 0.19013190E-01 0.12508274E+03</pdfrwt>
<totfact> 0.70183392E+03</totfact>
</mgrwt>
</event>
<event>
 7    1  0.1111284E-005  0.1302363E+03  0.7546771E-02  0.1235246E+00
         -4   -1    0    0    0  501 -0.00000000000E+00  0.00000000000E+00  0.89437019290E+02  0.89437019290E+02  0.00000000000E+00 0.  1.
          4   -1    0    0  501    0  0.00000000000E+00 -0.00000000000E+00 -0.17671481913E+03  0.17671481913E+03  0.00000000000E+00 0. -1.
         23    2    1    2    0    0 -0.22593720304E+01 -0.62005122544E+02 -0.79239168072E+02  0.13566773437E+03  0.90978834941E+02 0.  0.
          5    1    1    2  502    0  0.53468141423E+02  0.34266660745E+02 -0.26840401050E+02  0.69105305979E+02  0.47000000000E+01 0. -1.
         -5    1    1    2    0  502 -0.51208769393E+02  0.27738461799E+02  0.18801769279E+02  0.61378798080E+02  0.47000000000E+01 0.  1.
        -11    1    3    3    0    0 -0.35171379778E+02 -0.88853541412E+01 -0.20216439384E+01  0.36332664614E+02  0.00000000000E+00 0.  1.
         11    1    3    3    0    0  0.32912007748E+02 -0.53119768403E+02 -0.77217524134E+02  0.99335069752E+02  0.00000000000E+00 0. -1.
<mgrwt>
<rscale>  0 0.12488710E+03</rscale>
<asrwt>0</asrwt>
<pdfrwt beam="2">  1        4 0.27186895E-01 0.13023625E+03</pdfrwt>
<pdfrwt beam="1">  1       -4 0.13759541E-01 0.13023625E+03</pdfrwt>
<totfact> 0.91957113E+02</totfact>
</mgrwt>
</event>
<event>
 7    1  0.1111284E-005  0.1300664E+03  0.7546771E-02  0.1241358E+00
         -2   -1    0    0    0  501 -0.00000000000E+00  0.00000000000E+00  0.21974499376E+03  0.21974499376E+03  0.00000000000E+00 0.  1.
          2   -1    0    0  501    0  0.00000000000E+00 -0.00000000000E+00 -0.60849161958E+02  0.60849161958E+02  0.00000000000E+00 0. -1.
         23    2    1    2    0    0 -0.35608370375E+02  0.49696018221E+01  0.44098295615E+02  0.10711291854E+03  0.90751664777E+02 0.  0.
          5    1    1    2  502    0 -0.10070634135E+02 -0.50204921138E+02  0.13076835291E+02  0.53057001419E+02  0.47000000000E+01 0.  1.
         -5    1    1    2    0  502  0.45679004510E+02  0.45235319316E+02  0.10172070090E+03  0.12042423576E+03  0.47000000000E+01 0.  1.
        -11    1    3    3    0    0 -0.64482849351E+02  0.14637012756E+02  0.22759842458E+02  0.69930611549E+02  0.00000000000E+00 0. -1.
         11    1    3    3    0    0  0.28874478976E+02 -0.96674109341E+01  0.21338453158E+02  0.37182306995E+02  0.00000000000E+00 0.  1.
<mgrwt>
<rscale>  0 0.12106036E+03</rscale>
<asrwt>0</asrwt>
<pdfrwt beam="2">  1        2 0.93614096E-02 0.13006639E+03</pdfrwt>
<pdfrwt beam="1">  1       -2 0.33806922E-01 0.13006639E+03</pdfrwt>
<totfact> 0.54015095E+03</totfact>
</mgrwt>
</event>
<event>
 7    1  0.1111284E-005  0.1373054E+03  0.7546771E-02  0.1228633E+00
         -2   -1    0    0    0  501 -0.00000000000E+00  0.00000000000E+00  0.13696285761E+03  0.13696285761E+03  0.00000000000E+00 0. -1.
          2   -1    0    0  501    0  0.00000000000E+00 -0.00000000000E+00 -0.11079173660E+03  0.11079173660E+03  0.00000000000E+00 0.  1.
         23    2    1    2    0    0 -0.42760042897E+02  0.37412365251E+02 -0.15100512963E+01  0.10768664239E+03  0.91465984675E+02 0.  0.
          5    1    1    2  502    0  0.38689980852E+01 -0.28601792421E+02 -0.46955183203E+02  0.55316461433E+02  0.47000000000E+01 0. -1.
         -5    1    1    2    0  502  0.38891044812E+02 -0.88105728296E+01  0.74636355510E+02  0.84751490394E+02  0.47000000000E+01 0. -1.
        -11    1    3    3    0    0 -0.62759159978E+02  0.24063801862E+02 -0.27191169736E+02  0.72506126864E+02  0.00000000000E+00 0.  1.
         11    1    3    3    0    0  0.19999117081E+02  0.13348563389E+02  0.25681118439E+02  0.35180515528E+02  0.00000000000E+00 0. -1.
<mgrwt>
<rscale>  0 0.12920984E+03</rscale>
<asrwt>0</asrwt>
<pdfrwt beam="2">  1        2 0.17044883E-01 0.13730544E+03</pdfrwt>
<pdfrwt beam="1">  1       -2 0.21071209E-01 0.13730544E+03</pdfrwt>
<totfact> 0.61080017E+03</totfact>
</mgrwt>
</event>
<event>
 7    1  0.1111284E-005  0.1487589E+03  0.7546771E-02  0.1213786E+00
         -4   -1    0    0    0  501 -0.00000000000E+00  0.00000000000E+00  0.54513992576E+03  0.54513992576E+03  0.00000000000E+00 0.  1.
          4   -1    0    0  501    0  0.00000000000E+00 -0.00000000000E+00 -0.39269310682E+02  0.39269310682E+02  0.00000000000E+00 0. -1.
         23    2    1    2    0    0  0.75485292295E+02 -0.28390760809E+02  0.10247762123E+03  0.15446143807E+03  0.82780482868E+02 0.  0.
          5    1    1    2  502    0  0.66794303545E+01 -0.22569392178E+01  0.27065839061E+03  0.27079099500E+03  0.47000000000E+01 0. -1.
         -5    1    1    2    0  502 -0.82164722649E+02  0.30647700027E+02  0.13273460324E+03  0.15915680338E+03  0.47000000000E+01 0. -1.
        -11    1    3    3    0    0  0.46659641607E+02  0.26436150481E+02  0.47588394300E+02  0.71698308761E+02  0.00000000000E+00 0. -1.
         11    1    3    3    0    0  0.28825650688E+02 -0.54826911290E+02  0.54889226932E+02  0.82763129305E+02  0.00000000000E+00 0.  1.
<mgrwt>
<rscale>  0 0.13966077E+03</rscale>
<asrwt>0</asrwt>
<pdfrwt beam="2">  1        4 0.60414328E-02 0.14875887E+03</pdfrwt>
<pdfrwt beam="1">  1       -4 0.83867675E-01 0.14875887E+03</pdfrwt>
<totfact> 0.37997429E+02</totfact>
</mgrwt>
</event>
<event>
 7    1  0.1111284E-005  0.1303348E+03  0.7546771E-02  0.1234385E+00
          4   -1    0    0  501    0  0.00000000000E+00  0.00000000000E+00  0.16817722940E+03  0.16817722940E+03  0.00000000000E+00 0. -1.
         -4   -1    0    0    0  501 -0.00000000000E+00 -0.00000000000E+00 -0.93719464536E+02  0.93719464536E+02  0.00000000000E+00 0.  1.
         23    2    1    2    0    0 -0.34785976480E+02  0.53118068163E+02  0.69096912878E+02  0.13145173553E+03  0.92052061791E+02 0.  0.
          5    1    1    2  502    0  0.27344314409E+02 -0.63426185964E+02  0.48956695870E+02  0.84790569446E+02  0.47000000000E+01 0. -1.
         -5    1    1    2    0  502  0.74416620707E+01  0.10308117801E+02 -0.43595843885E+02  0.45654388957E+02  0.47000000000E+01 0.  1.
        -11    1    3    3    0    0 -0.66562486409E+02  0.37856059547E+02  0.47496227477E+02  0.90108476104E+02  0.00000000000E+00 0.  1.
         11    1    3    3    0    0  0.31776509929E+02  0.15262008617E+02  0.21600685402E+02  0.41343259428E+02  0.00000000000E+00 0. -1.
<mgrwt>
<rscale>  0 0.12543866E+03</rscale>
<asrwt>0</asrwt>
<pdfrwt beam="1">  1        4 0.25873420E-01 0.13033476E+03</pdfrwt>
<pdfrwt beam="2">  1       -4 0.14418379E-01 0.13033476E+03</pdfrwt>
<totfact> 0.92979841E+02</totfact>
</mgrwt>
</event>
<event>
 7    1  0.1111284E-005  0.1514253E+03  0.7546771E-02  0.1207846E+00
          2   -1    0    0  501    0  0.00000000000E+00  0.00000000000E+00  0.46592875699E+03  0.46592875699E+03  0.00000000000E+00 0. -1.
         -2   -1    0    0    0  501 -0.00000000000E+00 -0.00000000000E+00 -0.41285133506E+02  0.41285133506E+02  0.00000000000E+00 0.  1.
         23    2    1    2    0    0 -0.78838270903E+02  0.32731049835E+02  0.21872845469E+03  0.25161520404E+03  0.90450425271E+02 0.  0.
          5    1    1    2  502    0 -0.13622289858E+02  0.19158464716E+02  0.34398551348E-01  0.23973000115E+02  0.47000000000E+01 0. -1.
         -5    1    1    2    0  502  0.92460560761E+02 -0.51889514551E+02  0.20588077025E+03  0.23162568635E+03  0.47000000000E+01 0. -1.
        -11    1    3    3    0    0 -0.74966672010E+01  0.36617085616E+02  0.14172659299E+03  0.14657229662E+03  0.00000000000E+00 0. -1.
         11    1    3    3    0    0 -0.71341603702E+02 -0.38860357811E+01  0.77001861700E+02  0.10504290742E+03  0.00000000000E+00 0.  1.
<mgrwt>
<rscale>  0 0.14415458E+03</rscale>
<asrwt>0</asrwt>
<pdfrwt beam="1">  1        2 0.71681344E-01 0.15142533E+03</pdfrwt>
<pdfrwt beam="2">  1       -2 0.63515593E-02 0.15142533E+03</pdfrwt>
<totfact> 0.87729414E+03</totfact>
</mgrwt>
</event>
<event>
 7    1  0.1111284E-005  0.1586638E+03  0.7546771E-02  0.1200732E+00
         -2   -1    0    0    0  501 -0.00000000000E+00  0.00000000000E+00  0.70422482110E+02  0.70422482110E+02  0.00000000000E+00 0.  1.
          2   -1    0    0  501    0  0.00000000000E+00 -0.00000000000E+00 -0.28790182197E+03  0.28790182197E+03  0.00000000000E+00 0. -1.
         23    2    1    2    0    0 -0.39856719074E+02 -0.89224108130E+02 -0.10052140126E+03  0.16121172094E+03  0.79593764397E+02 0.  0.
          5    1    1    2  502    0  0.55992125002E+02  0.22116152180E+02 -0.11263106994E+03  0.12779706634E+03  0.47000000000E+01 0.  1.
         -5    1    1    2    0  502 -0.16135405927E+02  0.67107955950E+02 -0.43268686589E+01  0.69315516796E+02  0.47000000000E+01 0.  1.
        -11    1    3    3    0    0 -0.43332748379E+02 -0.47761701896E+02 -0.15156713699E+02  0.66246760074E+02  0.00000000000E+00 0.  1.
         11    1    3    3    0    0  0.34760293048E+01 -0.41462406234E+02 -0.85364687560E+02  0.94964960868E+02  0.00000000000E+00 0. -1.
<mgrwt>
<rscale>  0 0.14978927E+03</rscale>
<asrwt>0</asrwt>
<pdfrwt beam="2">  1        2 0.44292588E-01 0.15866383E+03</pdfrwt>
<pdfrwt beam="1">  1       -2 0.10834228E-01 0.15866383E+03</pdfrwt>
<totfact> 0.64264630E+03</totfact>
</mgrwt>
</event>
<event>
 7    1  0.1111284E-005  0.1267134E+03  0.7546771E-02  0.1242577E+00
          2   -1    0    0  501    0  0.00000000000E+00  0.00000000000E+00  0.61207876898E+03  0.61207876898E+03  0.00000000000E+00 0. -1.
         -2   -1    0    0    0  501 -0.00000000000E+00 -0.00000000000E+00 -0.21587670607E+02  0.21587670607E+02  0.00000000000E+00 0.  1.
         23    2    1    2    0    0  0.32939432388E+01 -0.20537073200E+02  0.27758563624E+03  0.29607775904E+03  0.10087434022E+03 0.  0.
          5    1    1    2  502    0 -0.78900459946E+01 -0.28113945249E+02  0.27223656247E+03  0.27383842442E+03  0.47000000000E+01 0.  1.
         -5    1    1    2    0  502  0.45961027558E+01  0.48651018449E+02  0.40668899668E+02  0.63750256132E+02  0.47000000000E+01 0.  1.
        -11    1    3    3    0    0  0.37304471728E+02 -0.46787330608E+02  0.15251057570E+03  0.16382964817E+03  0.00000000000E+00 0.  1.
         11    1    3    3    0    0 -0.34010528489E+02  0.26250257407E+02  0.12507506054E+03  0.13224811088E+03  0.00000000000E+00 0. -1.
<mgrwt>
<rscale>  0 0.12031574E+03</rscale>
<asrwt>0</asrwt>
<pdfrwt beam="1">  1        2 0.94165951E-01 0.12671341E+03</pdfrwt>
<pdfrwt beam="2">  1       -2 0.33211806E-02 0.12671341E+03</pdfrwt>
<totfact> 0.16874811E+04</totfact>
</mgrwt>
</event>
<event>
 7    1  0.1111284E-005  0.2125066E+03  0.7546771E-02  0.1143204E+00
         -1   -1    0    0    0  501 -0.00000000000E+00  0.00000000000E+00  0.87343965770E+03  0.87343965770E+03  0.00000000000E+00 0.  1.
          1   -1    0    0  501    0  0.00000000000E+00 -0.00000000000E+00 -0.66961522305E+02  0.66961522305E+02  0.00000000000E+00 0. -1.
         23    2    1    2    0    0 -0.15759863862E+03 -0.68532802720E+02  0.13746732827E+03  0.23845067939E+03  0.91800785467E+02 0.  0.
          5    1    1    2  502    0  0.13594928786E+03  0.18196227432E+01  0.51482523017E+03  0.53249659860E+03  0.47000000000E+01 0.  1.
         -5    1    1    2    0  502  0.21649350763E+02  0.66713179977E+02  0.15418557695E+03  0.16945390203E+03  0.47000000000E+01 0.  1.
        -11    1    3    3    0    0 -0.65232367579E+02 -0.13342222604E+02  0.10802496275E+03  0.12689629333E+03  0.00000000000E+00 0.  1.
         11    1    3    3    0    0 -0.92366271044E+02 -0.55190580116E+02  0.29442365520E+02  0.11155438605E+03  0.00000000000E+00 0. -1.
<mgrwt>
<rscale>  0 0.20794436E+03</rscale>
<asrwt>0</asrwt>
<pdfrwt beam="2">  1        1 0.10301773E-01 0.21250658E+03</pdfrwt>
<pdfrwt beam="1">  1       -1 0.13437532E+00 0.21250658E+03</pdfrwt>
<totfact> 0.31014977E+02</totfact>
</mgrwt>
</event>
<event>
 7    1  0.1111284E-005  0.1340980E+03  0.7546771E-02  0.1234933E+00
          2   -1    0    0  501    0  0.00000000000E+00  0.00000000000E+00  0.23028651735E+03  0.23028651735E+03  0.00000000000E+00 0. -1.
         -2   -1    0    0    0  501 -0.00000000000E+00 -0.00000000000E+00 -0.63308685371E+02  0.63308685371E+02  0.00000000000E+00 0.  1.
         23    2    1    2    0    0  0.48460901954E+02 -0.29878245226E+01  0.10435542876E+03  0.14559577819E+03  0.89166636148E+02 0.  0.
          5    1    1    2  502    0 -0.80385944877E+02  0.51953892993E+01  0.77962684509E+02  0.11220143662E+03  0.47000000000E+01 0.  1.
         -5    1    1    2    0  502  0.31925042923E+02 -0.22075647767E+01 -0.15340281294E+02  0.35797987905E+02  0.47000000000E+01 0.  1.
        -11    1    3    3    0    0  0.67822135511E+02  0.50649273940E+00  0.10601249150E+03  0.12585208363E+03  0.00000000000E+00 0. -1.
         11    1    3    3    0    0 -0.19361233557E+02 -0.34943172620E+01 -0.16570627397E+01  0.19743694561E+02  0.00000000000E+00 0.  1.
<mgrwt>
<rscale>  0 0.12508748E+03</rscale>
<asrwt>0</asrwt>
<pdfrwt beam="1">  1        2 0.35428695E-01 0.13409797E+03</pdfrwt>
<pdfrwt beam="2">  1       -2 0.97397979E-02 0.13409797E+03</pdfrwt>
<totfact> 0.95363665E+03</totfact>
</mgrwt>
</event>
<event>
 7    1  0.1111284E-005  0.1364571E+03  0.7546771E-02  0.1230082E+00
         -3   -1    0    0    0  501 -0.00000000000E+00  0.00000000000E+00  0.41972600841E+03  0.41972600841E+03  0.00000000000E+00 0.  1.
          3   -1    0    0  501    0  0.00000000000E+00 -0.00000000000E+00 -0.56136563217E+02  0.56136563217E+02  0.00000000000E+00 0. -1.
         23    2    1    2    0    0 -0.51330752042E+02  0.18997544892E+02  0.22945675014E+02  0.10890383741E+03  0.91311494258E+02 0.  0.
          5    1    1    2  502    0 -0.28096323439E+02 -0.30124028870E+01  0.17033303165E+02  0.33327186780E+02  0.47000000000E+01 0.  1.
         -5    1    1    2    0  502  0.79427075482E+02 -0.15985142005E+02  0.32361046701E+03  0.33363154743E+03  0.47000000000E+01 0.  1.
        -11    1    3    3    0    0 -0.21096596873E+02  0.37433532954E+02  0.48827525027E+02  0.65042009420E+02  0.00000000000E+00 0.  1.
         11    1    3    3    0    0 -0.30234155169E+02 -0.18435988062E+02 -0.25881850013E+02  0.43861827991E+02  0.00000000000E+00 0. -1.
<mgrwt>
<rscale>  0 0.12824568E+03</rscale>
<asrwt>0</asrwt>
<pdfrwt beam="2">  1        3 0.86363946E-02 0.13645708E+03</pdfrwt>
<pdfrwt beam="1">  1       -3 0.64573230E-01 0.13645708E+03</pdfrwt>
<totfact> 0.51537052E+02</totfact>
</mgrwt>
</event>
<event>
 7    1  0.1111284E-005  0.1448922E+03  0.7546771E-02  0.1212960E+00
         -1   -1    0    0    0  501 -0.00000000000E+00  0.00000000000E+00  0.15950751602E+02  0.15950751602E+02  0.00000000000E+00 0.  1.
          1   -1    0    0  501    0  0.00000000000E+00 -0.00000000000E+00 -0.12187420398E+04  0.12187420398E+04  0.00000000000E+00 0. -1.
         23    2    1    2    0    0  0.47823045081E+02 -0.75126609405E+02 -0.69833125884E+03  0.70983693780E+03  0.90944379204E+02 0.  0.
          5    1    1    2  502    0 -0.80113641935E+02  0.24352029261E+02 -0.31786680728E+03  0.32874399481E+03  0.47000000000E+01 0. -1.
         -5    1    1    2    0  502  0.32290596854E+02  0.50774580144E+02 -0.18659322207E+03  0.19611185879E+03  0.47000000000E+01 0. -1.
        -11    1    3    3    0    0  0.58575710173E+02 -0.90275066912E+02 -0.62452123933E+03  0.63372508228E+03  0.00000000000E+00 0.  1.
         11    1    3    3    0    0 -0.10752665092E+02  0.15148457507E+02 -0.73810019507E+02  0.76111855522E+02  0.00000000000E+00 0. -1.
<mgrwt>
<rscale>  0 0.14027477E+03</rscale>
<asrwt>0</asrwt>
<pdfrwt beam="2">  1        1 0.18749876E+00 0.14489219E+03</pdfrwt>
<pdfrwt beam="1">  1       -1 0.24539620E-02 0.14489219E+03</pdfrwt>
<totfact> 0.55284927E+03</totfact>
</mgrwt>
</event>
<event>
 7    1  0.1111284E-005  0.1752617E+03  0.7546771E-02  0.1178466E+00
          2   -1    0    0  501    0  0.00000000000E+00  0.00000000000E+00  0.18370883879E+02  0.18370883879E+02  0.00000000000E+00 0.  1.
         -2   -1    0    0    0  501 -0.00000000000E+00 -0.00000000000E+00 -0.14665285432E+04  0.14665285432E+04  0.00000000000E+00 0. -1.
         23    2    1    2    0    0  0.34263390748E+02 -0.11797584349E+03 -0.68318524939E+03  0.70010680705E+03  0.91187590752E+02 0.  0.
          5    1    1    2  502    0 -0.40310434923E+02  0.10366301680E+03 -0.75956934772E+03  0.76768394291E+03  0.47000000000E+01 0. -1.
         -5    1    1    2    0  502  0.60470441744E+01  0.14312826691E+02 -0.54030622136E+01  0.17108677109E+02  0.47000000000E+01 0. -1.
        -11    1    3    3    0    0 -0.31188518971E+02 -0.46913216512E+02 -0.26020734119E+03  0.26623567381E+03  0.00000000000E+00 0. -1.
         11    1    3    3    0    0  0.65451909719E+02 -0.71062626982E+02 -0.42297790820E+03  0.43387113324E+03  0.00000000000E+00 0.  1.
<mgrwt>
<rscale>  0 0.16940826E+03</rscale>
<asrwt>0</asrwt>
<pdfrwt beam="1">  1        2 0.28262903E-02 0.17526171E+03</pdfrwt>
<pdfrwt beam="2">  1       -2 0.22561974E+00 0.17526171E+03</pdfrwt>
<totfact> 0.33783801E+02</totfact>
</mgrwt>
</event>
<event>
 7    1  0.1111284E-005  0.2438291E+03  0.7546771E-02  0.1120047E+00
          2   -1    0    0  501    0  0.00000000000E+00  0.00000000000E+00  0.86261861994E+03  0.86261861994E+03  0.00000000000E+00 0.  1.
         -2   -1    0    0    0  501 -0.00000000000E+00 -0.00000000000E+00 -0.64365132029E+02  0.64365132029E+02  0.00000000000E+00 0. -1.
         23    2    1    2    0    0 -0.17590103216E+03  0.11351896623E+03  0.38928910657E+03  0.45084878176E+03  0.88830663120E+02 0.  0.
          5    1    1    2  502    0  0.15864935398E+03 -0.11484161717E+03  0.25719559153E+03  0.32331080535E+03  0.47000000000E+01 0.  1.
         -5    1    1    2    0  502  0.17251678174E+02  0.13226509370E+01  0.15176878981E+03  0.15282416487E+03  0.47000000000E+01 0.  1.
        -11    1    3    3    0    0 -0.15373245962E+02  0.52979066871E+02  0.80260915331E+02  0.97390619403E+02  0.00000000000E+00 0. -1.
         11    1    3    3    0    0 -0.16052778619E+03  0.60539899363E+02  0.30902819124E+03  0.35345816235E+03  0.00000000000E+00 0.  1.
<mgrwt>
<rscale>  0 0.23961834E+03</rscale>
<asrwt>0</asrwt>
<pdfrwt beam="1">  1        2 0.13271055E+00 0.24382913E+03</pdfrwt>
<pdfrwt beam="2">  1       -2 0.99023286E-02 0.24382913E+03</pdfrwt>
<totfact> 0.21623137E+03</totfact>
</mgrwt>
</event>
<event>
 7    1  0.1231452E-005  0.3097399E+03  0.7546771E-02  0.1082245E+00
          1   -1    0    0  501    0  0.00000000000E+00  0.00000000000E+00  0.16872173531E+04  0.16872173531E+04  0.00000000000E+00 0. -1.
         -1   -1    0    0    0  501 -0.00000000000E+00 -0.00000000000E+00 -0.55793088903E+02  0.55793088903E+02  0.00000000000E+00 0.  1.
         23    2    1    2    0    0 -0.24943153293E+03  0.13452786776E+03  0.65174174307E+03  0.71552970759E+03  0.83076025203E+02 0.  0.
          5    1    1    2  502    0  0.14296405676E+03 -0.10621233086E+03  0.77252902182E+03  0.79280701328E+03  0.47000000000E+01 0. -1.
         -5    1    1    2    0  502  0.10646747618E+03 -0.28315536895E+02  0.20715349929E+03  0.23467372112E+03  0.47000000000E+01 0. -1.
        -11    1    3    3    0    0 -0.10879022140E+03  0.10415871189E+03  0.30653491316E+03  0.34153770293E+03  0.00000000000E+00 0. -1.
         11    1    3    3    0    0 -0.14064131153E+03  0.30369155868E+02  0.34520682991E+03  0.37399200466E+03  0.00000000000E+00 0.  1.
<mgrwt>
<rscale>  0 0.30607092E+03</rscale>
<asrwt>0</asrwt>
<pdfrwt beam="1">  1        1 0.25957186E+00 0.30973992E+03</pdfrwt>
<pdfrwt beam="2">  1       -1 0.85835534E-02 0.30973992E+03</pdfrwt>
<totfact> 0.41469001E+02</totfact>
</mgrwt>
</event>
<event>
 7    1  0.1111284E-005  0.1358670E+03  0.7546771E-02  0.1231461E+00
         -1   -1    0    0    0  501 -0.00000000000E+00  0.00000000000E+00  0.35647656322E+02  0.35647656322E+02  0.00000000000E+00 0.  1.
          1   -1    0    0  501    0  0.00000000000E+00 -0.00000000000E+00 -0.45013780688E+03  0.45013780688E+03  0.00000000000E+00 0. -1.
         23    2    1    2    0    0  0.51631907410E+02  0.13031245048E+02 -0.25835132429E+03  0.27880920211E+03  0.90296717604E+02 0.  0.
          5    1    1    2  502    0 -0.71268932034E+02  0.37485722036E+02 -0.82059665462E+02  0.11506658388E+03  0.47000000000E+01 0. -1.
         -5    1    1    2    0  502  0.19637024625E+02 -0.50516967084E+02 -0.74079160814E+02  0.91909677219E+02  0.47000000000E+01 0. -1.
        -11    1    3    3    0    0  0.61996743980E+02 -0.15726374921E+02 -0.22340220208E+03  0.23237783678E+03  0.00000000000E+00 0. -1.
         11    1    3    3    0    0 -0.10364836570E+02  0.28757619970E+02 -0.34949122211E+02  0.46431365334E+02  0.00000000000E+00 0.  1.
<mgrwt>
<rscale>  0 0.12733742E+03</rscale>
<asrwt>0</asrwt>
<pdfrwt beam="2">  1        1 0.69251970E-01 0.13586699E+03</pdfrwt>
<pdfrwt beam="1">  1       -1 0.54842548E-02 0.13586699E+03</pdfrwt>
<totfact> 0.75955174E+03</totfact>
</mgrwt>
</event>
<event>
 7    1  0.1111284E-005  0.1419731E+03  0.7546771E-02  0.1221295E+00
         -1   -1    0    0    0  501 -0.00000000000E+00  0.00000000000E+00  0.41717986359E+02  0.41717986359E+02  0.00000000000E+00 0.  1.
          1   -1    0    0  501    0  0.00000000000E+00 -0.00000000000E+00 -0.42351595588E+03  0.42351595588E+03  0.00000000000E+00 0. -1.
         23    2    1    2    0    0 -0.53345241750E+02  0.41041144261E+02 -0.23526608859E+03  0.26120467622E+03  0.91365530156E+02 0.  0.
          5    1    1    2  502    0  0.11080854035E+02  0.29503553766E+02  0.43178874278E+01  0.32155546377E+02  0.47000000000E+01 0. -1.
         -5    1    1    2    0  502  0.42264387715E+02 -0.70544698027E+02 -0.15084976836E+03  0.17187371964E+03  0.47000000000E+01 0. -1.
        -11    1    3    3    0    0 -0.21597057950E+02  0.13548417523E+02 -0.35825572306E+01  0.25745431552E+02  0.00000000000E+00 0.  1.
         11    1    3    3    0    0 -0.31748183800E+02  0.27492726739E+02 -0.23168353136E+03  0.23545924467E+03  0.00000000000E+00 0. -1.
<mgrwt>
<rscale>  0 0.13424078E+03</rscale>
<asrwt>0</asrwt>
<pdfrwt beam="2">  1        1 0.65156302E-01 0.14197306E+03</pdfrwt>
<pdfrwt beam="1">  1       -1 0.64181516E-02 0.14197306E+03</pdfrwt>
<totfact> 0.65127164E+03</totfact>
</mgrwt>
</event>
<event>
 7    1  0.1111284E-005  0.1681274E+03  0.7546771E-02  0.1186536E+00
         -2   -1    0    0    0  501 -0.00000000000E+00  0.00000000000E+00  0.33689821207E+02  0.33689821207E+02  0.00000000000E+00 0.  1.
          2   -1    0    0  501    0  0.00000000000E+00 -0.00000000000E+00 -0.77542038991E+03  0.77542038991E+03  0.00000000000E+00 0. -1.
         23    2    1    2    0    0 -0.92884103532E+02  0.63358324345E+02 -0.44662804817E+03  0.46947462970E+03  0.91038895890E+02 0.  0.
          5    1    1    2  502    0  0.13785854256E+02  0.23044183066E+01  0.98859214798E+01  0.17753353621E+02  0.47000000000E+01 0. -1.
         -5    1    1    2    0  502  0.79098249276E+02 -0.65662742651E+02 -0.30498844201E+03  0.32188222780E+03  0.47000000000E+01 0. -1.
        -11    1    3    3    0    0 -0.55697264759E+02  0.85015820994E+02 -0.31275969719E+03  0.32885939748E+03  0.00000000000E+00 0.  1.
         11    1    3    3    0    0 -0.37186838772E+02 -0.21657496649E+02 -0.13386835098E+03  0.14061523222E+03  0.00000000000E+00 0. -1.
<mgrwt>
<rscale>  0 0.16192898E+03</rscale>
<asrwt>0</asrwt>
<pdfrwt beam="2">  1        2 0.11929545E+00 0.16812742E+03</pdfrwt>
<pdfrwt beam="1">  1       -2 0.51830494E-02 0.16812742E+03</pdfrwt>
<totfact> 0.66807983E+03</totfact>
</mgrwt>
</event>
<event>
 7    1  0.1111284E-005  0.1836987E+03  0.7546771E-02  0.1169062E+00
          2   -1    0    0  501    0  0.00000000000E+00  0.00000000000E+00  0.46640726563E+03  0.46640726563E+03  0.00000000000E+00 0. -1.
         -2   -1    0    0    0  501 -0.00000000000E+00 -0.00000000000E+00 -0.10476733057E+03  0.10476733057E+03  0.00000000000E+00 0.  1.
         23    2    1    2    0    0  0.13049345912E+03  0.33030816819E+02  0.35043537531E+03  0.38713449650E+03  0.94596978712E+02 0.  0.
          5    1    1    2  502    0 -0.35626477737E+02  0.23269596267E+02  0.51077102380E+02  0.66645933214E+02  0.47000000000E+01 0.  1.
         -5    1    1    2    0  502 -0.94866981387E+02 -0.56300413085E+02 -0.39872542625E+02  0.11739416649E+03  0.47000000000E+01 0.  1.
        -11    1    3    3    0    0  0.65403289493E+02  0.37944315762E+02  0.28440871518E+03  0.29428842765E+03  0.00000000000E+00 0. -1.
         11    1    3    3    0    0  0.65090169632E+02 -0.49134989434E+01  0.66026660122E+02  0.92846068853E+02  0.00000000000E+00 0.  1.
<mgrwt>
<rscale>  0 0.17870509E+03</rscale>
<asrwt>0</asrwt>
<pdfrwt beam="1">  1        2 0.71754963E-01 0.18369871E+03</pdfrwt>
<pdfrwt beam="2">  1       -2 0.16118051E-01 0.18369871E+03</pdfrwt>
<totfact> 0.20213731E+03</totfact>
</mgrwt>
</event>
<event>
 7    1  0.1111284E-005  0.1808214E+03  0.7546771E-02  0.1195890E+00
          4   -1    0    0  501    0  0.00000000000E+00  0.00000000000E+00  0.14513829078E+03  0.14513829078E+03  0.00000000000E+00 0. -1.
         -4   -1    0    0    0  501 -0.00000000000E+00 -0.00000000000E+00 -0.20889933224E+03  0.20889933224E+03  0.00000000000E+00 0.  1.
         23    2    1    2    0    0 -0.15157297067E+02 -0.59911265587E+01  0.79308463103E+02  0.12346169419E+03  0.93205795753E+02 0.  0.
          5    1    1    2  502    0 -0.35223477294E+02  0.68028262563E+02 -0.12999205983E+02  0.77843478958E+02  0.47000000000E+01 0. -1.
         -5    1    1    2    0  502  0.50380774361E+02 -0.62037136005E+02 -0.13007029858E+03  0.15273244987E+03  0.47000000000E+01 0.  1.
        -11    1    3    3    0    0 -0.29171922749E+02  0.32727330090E+02  0.13573126252E+02  0.45894541810E+02  0.00000000000E+00 0. -1.
         11    1    3    3    0    0  0.14014625682E+02 -0.38718456649E+02  0.65735336851E+02  0.77567152385E+02  0.00000000000E+00 0.  1.
<mgrwt>
<rscale>  0 0.15379180E+03</rscale>
<asrwt>0</asrwt>
<pdfrwt beam="1">  1        4 0.22328968E-01 0.18082139E+03</pdfrwt>
<pdfrwt beam="2">  1       -4 0.32138359E-01 0.18082139E+03</pdfrwt>
<totfact> 0.30104411E+02</totfact>
</mgrwt>
</event>
<event>
 7    1  0.1111284E-005  0.1547681E+03  0.7546771E-02  0.1203065E+00
          2   -1    0    0  501    0  0.00000000000E+00  0.00000000000E+00  0.36340215150E+03  0.36340215150E+03  0.00000000000E+00 0. -1.
         -2   -1    0    0    0  501 -0.00000000000E+00 -0.00000000000E+00 -0.85054904151E+02  0.85054904151E+02  0.00000000000E+00 0.  1.
         23    2    1    2    0    0  0.87201348444E+02  0.26844189487E+02  0.26293786904E+03  0.29292373685E+03  0.91341704358E+02 0.  0.
          5    1    1    2  502    0 -0.63048870497E+02  0.43214176563E+02 -0.96006060421E+01  0.77180870450E+02  0.47000000000E+01 0.  1.
         -5    1    1    2    0  502 -0.24152477947E+02 -0.70058366051E+02  0.25009984345E+02  0.78352448344E+02  0.47000000000E+01 0.  1.
        -11    1    3    3    0    0  0.39278167511E+02 -0.29086559323E+02  0.15280945645E+03  0.16043544607E+03  0.00000000000E+00 0. -1.
         11    1    3    3    0    0  0.47923180933E+02  0.55930748810E+02  0.11012841259E+03  0.13248829078E+03  0.00000000000E+00 0.  1.
<mgrwt>
<rscale>  0 0.14790965E+03</rscale>
<asrwt>0</asrwt>
<pdfrwt beam="1">  1        2 0.55908023E-01 0.15476810E+03</pdfrwt>
<pdfrwt beam="2">  1       -2 0.13085370E-01 0.15476810E+03</pdfrwt>
<totfact> 0.37009616E+03</totfact>
</mgrwt>
</event>
<event>
 7    1  0.1111284E-005  0.1908884E+03  0.7546771E-02  0.1162558E+00
          2   -1    0    0  501    0  0.00000000000E+00  0.00000000000E+00  0.78568967270E+03  0.78568967270E+03  0.00000000000E+00 0. -1.
         -2   -1    0    0    0  501 -0.00000000000E+00 -0.00000000000E+00 -0.41519172506E+02  0.41519172506E+02  0.00000000000E+00 0.  1.
         23    2    1    2    0    0 -0.12731164774E+02 -0.14370524631E+03  0.35358474868E+03  0.39247258685E+03  0.90549856731E+02 0.  0.
          5    1    1    2  502    0 -0.18422287612E+02  0.93424638479E+02  0.35023617627E+03  0.36298073354E+03  0.47000000000E+01 0. -1.
         -5    1    1    2    0  502  0.31153452386E+02  0.50280607832E+02  0.40349575249E+02  0.71755524821E+02  0.47000000000E+01 0. -1.
        -11    1    3    3    0    0 -0.29110746408E+02 -0.41134546837E+02  0.20551601910E+03  0.21160416018E+03  0.00000000000E+00 0.  1.
         11    1    3    3    0    0  0.16379581634E+02 -0.10257069947E+03  0.14806872959E+03  0.18086842667E+03  0.00000000000E+00 0. -1.
<mgrwt>
<rscale>  0 0.18552734E+03</rscale>
<asrwt>0</asrwt>
<pdfrwt beam="1">  1        2 0.12087532E+00 0.19088841E+03</pdfrwt>
<pdfrwt beam="2">  1       -2 0.63875656E-02 0.19088841E+03</pdfrwt>
<totfact> 0.48057913E+03</totfact>
</mgrwt>
</event>
<event>
 7    1  0.1111284E-005  0.1333557E+03  0.7546771E-02  0.1235162E+00
          1   -1    0    0  501    0  0.00000000000E+00  0.00000000000E+00  0.19574257368E+03  0.19574257368E+03  0.00000000000E+00 0. -1.
         -1   -1    0    0    0  501 -0.00000000000E+00 -0.00000000000E+00 -0.76237833564E+02  0.76237833564E+02  0.00000000000E+00 0.  1.
         23    2    1    2    0    0  0.45333346765E+02  0.10184993113E+02  0.87208930189E+02  0.13476972143E+03  0.91644060885E+02 0.  0.
          5    1    1    2  502    0 -0.50158296811E+02  0.26811863620E+02  0.65620358119E+02  0.86964660464E+02  0.47000000000E+01 0. -1.
         -5    1    1    2    0  502  0.48249500461E+01 -0.36996856733E+02 -0.33324548195E+02  0.50246025350E+02  0.47000000000E+01 0. -1.
        -11    1    3    3    0    0  0.71167714293E+02  0.26648670808E+01  0.43526663450E+02  0.83465654645E+02  0.00000000000E+00 0.  1.
         11    1    3    3    0    0 -0.25834367527E+02  0.75201260322E+01  0.43682266739E+02  0.51304066783E+02  0.00000000000E+00 0. -1.
<mgrwt>
<rscale>  0 0.12494067E+03</rscale>
<asrwt>0</asrwt>
<pdfrwt beam="1">  1        1 0.30114242E-01 0.13335574E+03</pdfrwt>
<pdfrwt beam="2">  1       -1 0.11728897E-01 0.13335574E+03</pdfrwt>
<totfact> 0.67928485E+03</totfact>
</mgrwt>
</event>
<event>
 7    1  0.1111284E-005  0.1402737E+03  0.7546771E-02  0.1225234E+00
          2   -1    0    0  501    0  0.00000000000E+00  0.00000000000E+00  0.42031912735E+03  0.42031912735E+03  0.00000000000E+00 0. -1.
         -2   -1    0    0    0  501 -0.00000000000E+00 -0.00000000000E+00 -0.36796105615E+02  0.36796105615E+02  0.00000000000E+00 0.  1.
         23    2    1    2    0    0  0.26176560716E+02 -0.58022673115E+02  0.16119626417E+03  0.19423524205E+03  0.87699776205E+02 0.  0.
          5    1    1    2  502    0  0.11701452663E+02  0.79630479872E+02  0.19548567151E+03  0.21145844766E+03  0.47000000000E+01 0. -1.
         -5    1    1    2    0  502 -0.37878013379E+02 -0.21607806757E+02  0.26841086055E+02  0.51421543258E+02  0.47000000000E+01 0. -1.
        -11    1    3    3    0    0  0.49238146343E+02 -0.10098556573E+02  0.10743975236E+03  0.11861566628E+03  0.00000000000E+00 0.  1.
         11    1    3    3    0    0 -0.23061585626E+02 -0.47924116543E+02  0.53756511815E+02  0.75619575776E+02  0.00000000000E+00 0. -1.
<mgrwt>
<rscale>  0 0.13150884E+03</rscale>
<asrwt>0</asrwt>
<pdfrwt beam="1">  1        2 0.64664478E-01 0.14027367E+03</pdfrwt>
<pdfrwt beam="2">  1       -2 0.56609396E-02 0.14027367E+03</pdfrwt>
<totfact> 0.11620365E+04</totfact>
</mgrwt>
</event>
<event>
 7    1  0.1111284E-005  0.1330118E+03  0.7546771E-02  0.1234106E+00
          1   -1    0    0  501    0  0.00000000000E+00  0.00000000000E+00  0.53015175000E+03  0.53015175000E+03  0.00000000000E+00 0. -1.
         -1   -1    0    0    0  501 -0.00000000000E+00 -0.00000000000E+00 -0.27824752347E+02  0.27824752347E+02  0.00000000000E+00 0.  1.
         23    2    1    2    0    0  0.26625861304E+02 -0.36888342770E+02  0.27414133427E+03  0.29385375132E+03  0.95534651747E+02 0.  0.
          5    1    1    2  502    0 -0.73554946602E+01  0.80552390515E+01  0.22881213645E+03  0.22912021728E+03  0.47000000000E+01 0.  1.
         -5    1    1    2    0  502 -0.19270366644E+02  0.28833103718E+02 -0.62647306964E+00  0.35002533753E+02  0.47000000000E+01 0.  1.
        -11    1    3    3    0    0  0.57611255057E+02 -0.59339698095E+01  0.11451093706E+03  0.12832390040E+03  0.00000000000E+00 0.  1.
         11    1    3    3    0    0 -0.30985393753E+02 -0.30954372960E+02  0.15963039721E+03  0.16552985092E+03  0.00000000000E+00 0. -1.
<mgrwt>
<rscale>  0 0.12561836E+03</rscale>
<asrwt>0</asrwt>
<pdfrwt beam="1">  1        1 0.81561800E-01 0.13301177E+03</pdfrwt>
<pdfrwt beam="2">  1       -1 0.42807315E-02 0.13301177E+03</pdfrwt>
<totfact> 0.88444288E+03</totfact>
</mgrwt>
</event>
<event>
 7    1  0.1111284E-005  0.1293327E+03  0.7546771E-02  0.1242897E+00
          1   -1    0    0  501    0  0.00000000000E+00  0.00000000000E+00  0.62947222816E+02  0.62947222816E+02  0.00000000000E+00 0. -1.
         -1   -1    0    0    0  501 -0.00000000000E+00 -0.00000000000E+00 -0.20960459053E+03  0.20960459053E+03  0.00000000000E+00 0.  1.
         23    2    1    2    0    0  0.32596344877E+02 -0.62975369015E+01 -0.37414579642E+02  0.10325641769E+03  0.90331923223E+02 0.  0.
          5    1    1    2  502    0  0.11358818682E+02 -0.66876990795E+01 -0.12095074518E+03  0.12175763155E+03  0.47000000000E+01 0. -1.
         -5    1    1    2    0  502 -0.43955163560E+02  0.12985235981E+02  0.11707957107E+02  0.47537764111E+02  0.47000000000E+01 0. -1.
        -11    1    3    3    0    0  0.43736389567E+01 -0.42548793394E+02  0.18622642529E+01  0.42813509143E+02  0.00000000000E+00 0.  1.
         11    1    3    3    0    0  0.28222705921E+02  0.36251256493E+02 -0.39276843895E+02  0.60442908543E+02  0.00000000000E+00 0. -1.
<mgrwt>
<rscale>  0 0.12012117E+03</rscale>
<asrwt>0</asrwt>
<pdfrwt beam="1">  1        1 0.96841879E-02 0.12933269E+03</pdfrwt>
<pdfrwt beam="2">  1       -1 0.32246861E-01 0.12933269E+03</pdfrwt>
<totfact> 0.57296000E+03</totfact>
</mgrwt>
</event>
<event>
 7    1  0.1111284E-005  0.1379184E+03  0.7546771E-02  0.1228658E+00
          2   -1    0    0  501    0  0.00000000000E+00  0.00000000000E+00  0.94201792935E+03  0.94201792935E+03  0.00000000000E+00 0. -1.
         -2   -1    0    0    0  501 -0.00000000000E+00 -0.00000000000E+00 -0.16000495898E+02  0.16000495898E+02  0.00000000000E+00 0.  1.
         23    2    1    2    0    0 -0.46919234547E+02  0.34594339770E+02  0.45474680089E+03  0.46698126166E+03  0.88761832498E+02 0.  0.
          5    1    1    2  502    0  0.60478346683E+02 -0.68127514241E+02  0.23708966413E+03  0.25403265036E+03  0.47000000000E+01 0.  1.
         -5    1    1    2    0  502 -0.13559112135E+02  0.33533174472E+02  0.23418096844E+03  0.23700451323E+03  0.47000000000E+01 0.  1.
        -11    1    3    3    0    0  0.11311994085E+02  0.41677562297E+02  0.13018260422E+03  0.13715863389E+03  0.00000000000E+00 0. -1.
         11    1    3    3    0    0 -0.58231228632E+02 -0.70832225277E+01  0.32456419667E+03  0.32982262777E+03  0.00000000000E+00 0.  1.
<mgrwt>
<rscale>  0 0.12919334E+03</rscale>
<asrwt>0</asrwt>
<pdfrwt beam="1">  1        2 0.14492579E+00 0.13791841E+03</pdfrwt>
<pdfrwt beam="2">  1       -2 0.24616155E-02 0.13791841E+03</pdfrwt>
<totfact> 0.15536365E+04</totfact>
</mgrwt>
</event>
<event>
 7    1  0.1111284E-005  0.1357573E+03  0.7546771E-02  0.1237887E+00
          1   -1    0    0  501    0  0.00000000000E+00  0.00000000000E+00  0.39069730084E+03  0.39069730084E+03  0.00000000000E+00 0. -1.
         -1   -1    0    0    0  501 -0.00000000000E+00 -0.00000000000E+00 -0.68821397436E+02  0.68821397436E+02  0.00000000000E+00 0.  1.
         23    2    1    2    0    0  0.12628248116E+02  0.23389319442E+01  0.30982217895E+03  0.32322735118E+03  0.91220582821E+02 0.  0.
          5    1    1    2  502    0  0.34330075377E+02  0.11353620446E+01  0.59765283389E+02  0.69092852170E+02  0.47000000000E+01 0. -1.
         -5    1    1    2    0  502 -0.46958323493E+02 -0.34742939888E+01 -0.47711558935E+02  0.67198494923E+02  0.47000000000E+01 0.  1.
        -11    1    3    3    0    0 -0.32221622859E+02 -0.23510917537E+02  0.11892198490E+03  0.12543298894E+03  0.00000000000E+00 0.  1.
         11    1    3    3    0    0  0.44849870976E+02  0.25849849481E+02  0.19090019405E+03  0.19779436224E+03  0.00000000000E+00 0. -1.
<mgrwt>
<rscale>  0 0.12321430E+03</rscale>
<asrwt>0</asrwt>
<pdfrwt beam="1">  1        1 0.60107276E-01 0.13575728E+03</pdfrwt>
<pdfrwt beam="2">  1       -1 0.10587908E-01 0.13575728E+03</pdfrwt>
<totfact> 0.33751430E+03</totfact>
</mgrwt>
</event>
<event>
 7    1  0.1310740E-005  0.1557597E+03  0.7546771E-02  0.1202563E+00
          2   -1    0    0  501    0  0.00000000000E+00  0.00000000000E+00  0.57669052859E+03  0.57669052859E+03  0.00000000000E+00 0.  1.
         -2   -1    0    0    0  501 -0.00000000000E+00 -0.00000000000E+00 -0.39779154088E+02  0.39779154088E+02  0.00000000000E+00 0. -1.
         23    2    1    2    0    0  0.41536006728E+02 -0.83129299649E+02  0.35277222086E+03  0.37528859078E+03  0.88077047193E+02 0.  0.
          5    1    1    2  502    0 -0.60231870376E+02  0.46430569734E+01  0.13134077410E+03  0.14464413272E+03  0.47000000000E+01 0.  1.
         -5    1    1    2    0  502  0.18695863648E+02  0.78486242676E+02  0.52798379539E+02  0.96536959186E+02  0.47000000000E+01 0.  1.
        -11    1    3    3    0    0  0.20784092048E+02 -0.59802566640E+02  0.33154185582E+03  0.33753270600E+03  0.00000000000E+00 0.  1.
         11    1    3    3    0    0  0.20751914680E+02 -0.23326733009E+02  0.21230365044E+02  0.37755884782E+02  0.00000000000E+00 0. -1.
<mgrwt>
<rscale>  0 0.14831143E+03</rscale>
<asrwt>0</asrwt>
<pdfrwt beam="1">  1        2 0.88721614E-01 0.15575972E+03</pdfrwt>
<pdfrwt beam="2">  1       -2 0.61198703E-02 0.15575972E+03</pdfrwt>
<totfact> 0.73387579E+03</totfact>
</mgrwt>
</event>
<event>
 7    1  0.1111284E-005  0.1828362E+03  0.7546771E-02  0.1170182E+00
         -2   -1    0    0    0  501 -0.00000000000E+00  0.00000000000E+00  0.48126369548E+02  0.48126369548E+02  0.00000000000E+00 0.  1.
          2   -1    0    0  501    0  0.00000000000E+00 -0.00000000000E+00 -0.69632850376E+03  0.69632850376E+03  0.00000000000E+00 0. -1.
         23    2    1    2    0    0  0.87720785416E+02 -0.10054736269E+03 -0.43027538946E+03  0.45998846590E+03  0.92993384944E+02 0.  0.
          5    1    1    2  502    0 -0.10354870858E+03  0.26527204768E+02 -0.12706197756E+03  0.16611099838E+03  0.47000000000E+01 0.  1.
         -5    1    1    2    0  502  0.15827923162E+02  0.74020157925E+02 -0.90864767193E+02  0.11835540903E+03  0.47000000000E+01 0.  1.
        -11    1    3    3    0    0  0.33471128915E+02  0.12407414656E+02 -0.70622419520E+02  0.79131451068E+02  0.00000000000E+00 0.  1.
         11    1    3    3    0    0  0.54249656501E+02 -0.11295477735E+03 -0.35965296994E+03  0.38085701483E+03  0.00000000000E+00 0. -1.
<mgrwt>
<rscale>  0 0.17756400E+03</rscale>
<asrwt>0</asrwt>
<pdfrwt beam="2">  1        2 0.10712746E+00 0.18283619E+03</pdfrwt>
<pdfrwt beam="1">  1       -2 0.74040573E-02 0.18283619E+03</pdfrwt>
<totfact> 0.44309043E+03</totfact>
</mgrwt>
</event>
<event>
 7    1  0.1111284E-005  0.1432766E+03  0.7546771E-02  0.1220779E+00
         -1   -1    0    0    0  501 -0.00000000000E+00  0.00000000000E+00  0.36120538789E+03  0.36120538789E+03  0.00000000000E+00 0.  1.
          1   -1    0    0  501    0  0.00000000000E+00 -0.00000000000E+00 -0.52205618559E+02  0.52205618559E+02  0.00000000000E+00 0. -1.
         23    2    1    2    0    0  0.68685469535E+02  0.13626296332E+02  0.61510788732E+02  0.12744075760E+03  0.86914900285E+02 0.  0.
          5    1    1    2  502    0 -0.21511067569E+01  0.38525645558E+02  0.21017282805E+02  0.44189012237E+02  0.47000000000E+01 0. -1.
         -5    1    1    2    0  502 -0.66534362778E+02 -0.52151941891E+02  0.22647169780E+03  0.24178123661E+03  0.47000000000E+01 0. -1.
        -11    1    3    3    0    0  0.78498013285E+02  0.13490796548E+01  0.73598934406E+02  0.10761301618E+03  0.00000000000E+00 0.  1.
         11    1    3    3    0    0 -0.98125437499E+01  0.12277216677E+02 -0.12088145674E+02  0.19827741425E+02  0.00000000000E+00 0. -1.
<mgrwt>
<rscale>  0 0.13460483E+03</rscale>
<asrwt>0</asrwt>
<pdfrwt beam="2">  1        1 0.80316339E-02 0.14327661E+03</pdfrwt>
<pdfrwt beam="1">  1       -1 0.55570058E-01 0.14327661E+03</pdfrwt>
<totfact> 0.28189675E+03</totfact>
</mgrwt>
</event>
<event>
 7    1  0.1145974E-005  0.2319668E+03  0.7546771E-02  0.1128081E+00
         -1   -1    0    0    0  501 -0.00000000000E+00  0.00000000000E+00  0.15838094178E+03  0.15838094178E+03  0.00000000000E+00 0.  1.
          1   -1    0    0  501    0  0.00000000000E+00 -0.00000000000E+00 -0.39300652828E+03  0.39300652828E+03  0.00000000000E+00 0. -1.
         23    2    1    2    0    0  0.15874901657E+03  0.11393756860E+03 -0.23497874134E+03  0.31942044826E+03  0.92905296320E+02 0.  0.
          5    1    1    2  502    0 -0.33710902356E+02 -0.91446919241E+02  0.28708673277E+02  0.10171156226E+03  0.47000000000E+01 0.  1.
         -5    1    1    2    0  502 -0.12503811421E+03 -0.22490649359E+02 -0.28355518428E+02  0.13025545954E+03  0.47000000000E+01 0.  1.
        -11    1    3    3    0    0  0.14244754993E+03  0.10144503309E+03 -0.24123196230E+03  0.29795177270E+03  0.00000000000E+00 0. -1.
         11    1    3    3    0    0  0.16301466636E+02  0.12492535514E+02  0.62532209571E+01  0.21468675562E+02  0.00000000000E+00 0.  1.
<mgrwt>
<rscale>  0 0.22796426E+03</rscale>
<asrwt>0</asrwt>
<pdfrwt beam="2">  1        1 0.60462542E-01 0.23196675E+03</pdfrwt>
<pdfrwt beam="1">  1       -1 0.24366299E-01 0.23196675E+03</pdfrwt>
<totfact> 0.90255586E+02</totfact>
</mgrwt>
</event>
<event>
 7    1  0.1111284E-005  0.2041202E+03  0.7546771E-02  0.1150050E+00
         -1   -1    0    0    0  501 -0.00000000000E+00  0.00000000000E+00  0.40393709095E+02  0.40393709095E+02  0.00000000000E+00 0.  1.
          1   -1    0    0  501    0  0.00000000000E+00 -0.00000000000E+00 -0.10088638526E+04  0.10088638526E+04  0.00000000000E+00 0. -1.
         23    2    1    2    0    0  0.14622778135E+03 -0.68231016780E+02 -0.59536347367E+03  0.62396512747E+03  0.94004142626E+02 0.  0.
          5    1    1    2  502    0 -0.40224448531E+02  0.57772742170E+02 -0.54007397705E+02  0.88851477221E+02  0.47000000000E+01 0. -1.
         -5    1    1    2    0  502 -0.10600333282E+03  0.10458274610E+02 -0.31909927215E+03  0.33644095702E+03  0.47000000000E+01 0. -1.
        -11    1    3    3    0    0  0.91219107695E+02 -0.69268497854E+02 -0.50775449400E+03  0.52051289761E+03  0.00000000000E+00 0. -1.
         11    1    3    3    0    0  0.55008673654E+02  0.10374810741E+01 -0.87608979677E+02  0.10345222987E+03  0.00000000000E+00 0.  1.
<mgrwt>
<rscale>  0 0.19963125E+03</rscale>
<asrwt>0</asrwt>
<pdfrwt beam="2">  1        1 0.15520982E+00 0.20412023E+03</pdfrwt>
<pdfrwt beam="1">  1       -1 0.62144168E-02 0.20412023E+03</pdfrwt>
<totfact> 0.19895604E+03</totfact>
</mgrwt>
</event>
<event>
 7    1  0.1111284E-005  0.3256139E+03  0.7546771E-02  0.1118942E+00
         -2   -1    0    0    0  501 -0.00000000000E+00  0.00000000000E+00  0.27864372523E+03  0.27864372523E+03  0.00000000000E+00 0.  1.
          2   -1    0    0  501    0  0.00000000000E+00 -0.00000000000E+00 -0.17714384396E+03  0.17714384396E+03  0.00000000000E+00 0. -1.
         23    2    1    2    0    0  0.24450400558E+02 -0.26669972324E+02 -0.32884271449E+02  0.10353263571E+03  0.91260735460E+02 0.  0.
          5    1    1    2  502    0 -0.11638493134E+02  0.32006065927E+02 -0.10599426522E+03  0.11143032369E+03  0.47000000000E+01 0. -1.
         -5    1    1    2    0  502 -0.12811907424E+02 -0.53360936031E+01  0.24037841794E+03  0.24082460978E+03  0.47000000000E+01 0.  1.
        -11    1    3    3    0    0 -0.31337342601E+02 -0.29690270179E+01  0.52621787585E+01  0.31914490252E+02  0.00000000000E+00 0. -1.
         11    1    3    3    0    0  0.55787743160E+02 -0.23700945306E+02 -0.38146450208E+02  0.71618145457E+02  0.00000000000E+00 0.  1.
<mgrwt>
<rscale>  0 0.24128123E+03</rscale>
<asrwt>0</asrwt>
<pdfrwt beam="2">  1        2 0.27252899E-01 0.32561394E+03</pdfrwt>
<pdfrwt beam="1">  1       -2 0.42868265E-01 0.32561394E+03</pdfrwt>
<totfact> 0.10203022E+03</totfact>
</mgrwt>
</event>
<event>
 7    1  0.1111284E-005  0.1589591E+03  0.7546771E-02  0.1191940E+00
         -1   -1    0    0    0  501 -0.00000000000E+00  0.00000000000E+00  0.14653033841E+03  0.14653033841E+03  0.00000000000E+00 0.  1.
          1   -1    0    0  501    0  0.00000000000E+00 -0.00000000000E+00 -0.42409944202E+03  0.42409944202E+03  0.00000000000E+00 0. -1.
         23    2    1    2    0    0 -0.96094818360E+02  0.34772608872E+02 -0.36060678397E+03  0.39128861046E+03  0.11236625643E+03 0.  0.
          5    1    1    2  502    0  0.15405892783E+02  0.38181646652E+02 -0.15419905102E+01  0.41468631617E+02  0.47000000000E+01 0. -1.
         -5    1    1    2    0  502  0.80688925577E+02 -0.72954255524E+02  0.84579670867E+02  0.13787253836E+03  0.47000000000E+01 0.  1.
        -11    1    3    3    0    0 -0.68296532403E+02  0.74202410005E+02 -0.20655738821E+03  0.22986162928E+03  0.00000000000E+00 0.  1.
         11    1    3    3    0    0 -0.27798285957E+02 -0.39429801133E+02 -0.15404939576E+03  0.16142698118E+03  0.00000000000E+00 0. -1.
<mgrwt>
<rscale>  0 0.15716068E+03</rscale>
<asrwt>0</asrwt>
<pdfrwt beam="2">  1        1 0.65246067E-01 0.15895911E+03</pdfrwt>
<pdfrwt beam="1">  1       -1 0.22543129E-01 0.15895911E+03</pdfrwt>
<totfact> 0.92832412E+02</totfact>
</mgrwt>
</event>
<event>
 7    1  0.1111284E-005  0.1452749E+03  0.7546771E-02  0.1216602E+00
         -2   -1    0    0    0  501 -0.00000000000E+00  0.00000000000E+00  0.81892616161E+03  0.81892616161E+03  0.00000000000E+00 0.  1.
          2   -1    0    0  501    0  0.00000000000E+00 -0.00000000000E+00 -0.28320169411E+02  0.28320169411E+02  0.00000000000E+00 0. -1.
         23    2    1    2    0    0 -0.47700580655E+02 -0.56615272815E+02  0.14895080389E+03  0.18935105693E+03  0.90481192912E+02 0.  0.
          5    1    1    2  502    0 -0.33090634864E+02 -0.88266781621E+01  0.88066358032E+02  0.94608000613E+02  0.47000000000E+01 0. -1.
         -5    1    1    2    0  502  0.80791215519E+02  0.65441950977E+02  0.55358883028E+03  0.56328727348E+03  0.47000000000E+01 0. -1.
        -11    1    3    3    0    0  0.12075656044E+02 -0.28161829255E+02  0.10623026404E+03  0.11056120067E+03  0.00000000000E+00 0.  1.
         11    1    3    3    0    0 -0.59776236699E+02 -0.28453443560E+02  0.42720539849E+02  0.78789856259E+02  0.00000000000E+00 0. -1.
<mgrwt>
<rscale>  0 0.13759546E+03</rscale>
<asrwt>0</asrwt>
<pdfrwt beam="2">  1        2 0.43569498E-02 0.14527495E+03</pdfrwt>
<pdfrwt beam="1">  1       -2 0.12598862E+00 0.14527495E+03</pdfrwt>
<totfact> 0.90698529E+02</totfact>
</mgrwt>
</event>
<event>
 7    1  0.1111284E-005  0.1358444E+03  0.7546771E-02  0.1233686E+00
          1   -1    0    0  501    0  0.00000000000E+00  0.00000000000E+00  0.22901875306E+02  0.22901875306E+02  0.00000000000E+00 0. -1.
         -1   -1    0    0    0  501 -0.00000000000E+00 -0.00000000000E+00 -0.61217044143E+03  0.61217044143E+03  0.00000000000E+00 0.  1.
         23    2    1    2    0    0  0.51235430965E+02 -0.14232276515E+02 -0.22505319758E+03  0.24634808836E+03  0.84916499099E+02 0.  0.
          5    1    1    2  502    0 -0.85334802892E+02 -0.19200638087E+02 -0.24669525418E+03  0.26178489552E+03  0.47000000000E+01 0.  1.
         -5    1    1    2    0  502  0.34099371928E+02  0.33432914602E+02 -0.11752011437E+03  0.12693933285E+03  0.47000000000E+01 0.  1.
        -11    1    3    3    0    0  0.38819853678E+02  0.28092689556E+01 -0.22158845254E+03  0.22498069990E+03  0.00000000000E+00 0.  1.
         11    1    3    3    0    0  0.12415577287E+02 -0.17041545470E+02 -0.34647450415E+01  0.21367388459E+02  0.00000000000E+00 0. -1.
<mgrwt>
<rscale>  0 0.12588949E+03</rscale>
<asrwt>0</asrwt>
<pdfrwt beam="1">  1        1 0.35233662E-02 0.13584436E+03</pdfrwt>
<pdfrwt beam="2">  1       -1 0.94180047E-01 0.13584436E+03</pdfrwt>
<totfact> 0.30137546E+03</totfact>
</mgrwt>
</event>
<event>
 7    1  0.1111284E-005  0.1352993E+03  0.7546771E-02  0.1231864E+00
          3   -1    0    0  501    0  0.00000000000E+00  0.00000000000E+00  0.36735724171E+03  0.36735724171E+03  0.00000000000E+00 0. -1.
         -3   -1    0    0    0  501 -0.00000000000E+00 -0.00000000000E+00 -0.95954786794E+02  0.95954786794E+02  0.00000000000E+00 0.  1.
         23    2    1    2    0    0 -0.49370743117E+02 -0.15588671158E+02  0.30604665946E+03  0.32364771090E+03  0.91666820917E+02 0.  0.
          5    1    1    2  502    0  0.60807116106E+02  0.24031928185E+02  0.30872545598E+02  0.72458560661E+02  0.47000000000E+01 0.  1.
         -5    1    1    2    0  502 -0.11436372989E+02 -0.84432570271E+01 -0.65516750147E+02  0.67205756942E+02  0.47000000000E+01 0.  1.
        -11    1    3    3    0    0  0.39060398120E+01  0.31691901059E+02  0.67111126442E+02  0.74320502097E+02  0.00000000000E+00 0.  1.
         11    1    3    3    0    0 -0.53276782929E+02 -0.47280572217E+02  0.23893553302E+03  0.24932720880E+03  0.00000000000E+00 0. -1.
<mgrwt>
<rscale>  0 0.12707357E+03</rscale>
<asrwt>0</asrwt>
<pdfrwt beam="1">  1        3 0.56516498E-01 0.13529930E+03</pdfrwt>
<pdfrwt beam="2">  1       -3 0.14762275E-01 0.13529930E+03</pdfrwt>
<totfact> 0.27707096E+02</totfact>
</mgrwt>
</event>
<event>
 7    1  0.1111284E-005  0.1604367E+03  0.7546771E-02  0.1195902E+00
         -1   -1    0    0    0  501 -0.00000000000E+00  0.00000000000E+00  0.64904801272E+02  0.64904801272E+02  0.00000000000E+00 0.  1.
          1   -1    0    0  501    0  0.00000000000E+00 -0.00000000000E+00 -0.33752324056E+03  0.33752324056E+03  0.00000000000E+00 0. -1.
         23    2    1    2    0    0 -0.10045900904E+03 -0.48104258982E+01 -0.13130919016E+03  0.18863316937E+03  0.90692979162E+02 0.  0.
          5    1    1    2  502    0  0.44475489697E+02  0.58061468196E+02 -0.32283974906E+02  0.80084632163E+02  0.47000000000E+01 0. -1.
         -5    1    1    2    0  502  0.55983519341E+02 -0.53251042298E+02 -0.10902527421E+03  0.13371024030E+03  0.47000000000E+01 0. -1.
        -11    1    3    3    0    0 -0.79210611492E+02 -0.38228543268E+02 -0.11733235481E+03  0.14663773041E+03  0.00000000000E+00 0. -1.
         11    1    3    3    0    0 -0.21248397547E+02  0.33418117370E+02 -0.13976835350E+02  0.41995438958E+02  0.00000000000E+00 0.  1.
<mgrwt>
<rscale>  0 0.15378142E+03</rscale>
<asrwt>0</asrwt>
<pdfrwt beam="2">  1        1 0.51926653E-01 0.16043673E+03</pdfrwt>
<pdfrwt beam="1">  1       -1 0.99853540E-02 0.16043673E+03</pdfrwt>
<totfact> 0.44709934E+03</totfact>
</mgrwt>
</event>
<event>
 7    1  0.1111284E-005  0.1597926E+03  0.7546771E-02  0.1194765E+00
          1   -1    0    0  501    0  0.00000000000E+00  0.00000000000E+00  0.13501702624E+03  0.13501702624E+03  0.00000000000E+00 0. -1.
         -1   -1    0    0    0  501 -0.00000000000E+00 -0.00000000000E+00 -0.17657427577E+03  0.17657427577E+03  0.00000000000E+00 0.  1.
         23    2    1    2    0    0 -0.56743245197E+02  0.81784676207E+02  0.16689467481E+02  0.14151377439E+03  0.99192141220E+02 0.  0.
          5    1    1    2  502    0 -0.11630967636E+02 -0.89730802913E+02 -0.28900839556E+02  0.95101235148E+02  0.47000000000E+01 0.  1.
         -5    1    1    2    0  502  0.68374212833E+02  0.79461267060E+01 -0.29345877451E+02  0.74976292476E+02  0.47000000000E+01 0.  1.
        -11    1    3    3    0    0  0.10089598805E+02  0.65160112253E+02 -0.11800068138E+02  0.66984190977E+02  0.00000000000E+00 0.  1.
         11    1    3    3    0    0 -0.66832844002E+02  0.16624563954E+02  0.28489535619E+02  0.74529583414E+02  0.00000000000E+00 0. -1.
<mgrwt>
<rscale>  0 0.15474153E+03</rscale>
<asrwt>0</asrwt>
<pdfrwt beam="1">  1        1 0.20771850E-01 0.15979263E+03</pdfrwt>
<pdfrwt beam="2">  1       -1 0.27165273E-01 0.15979263E+03</pdfrwt>
<totfact> 0.28669126E+03</totfact>
</mgrwt>
</event>
<event>
 7    1  0.1111284E-005  0.1835104E+03  0.7546771E-02  0.1170506E+00
          1   -1    0    0  501    0  0.00000000000E+00  0.00000000000E+00  0.54686289360E+03  0.54686289360E+03  0.00000000000E+00 0. -1.
         -1   -1    0    0    0  501 -0.00000000000E+00 -0.00000000000E+00 -0.54179037837E+02  0.54179037837E+02  0.00000000000E+00 0.  1.
         23    2    1    2    0    0  0.40034390115E+02  0.12823972993E+03  0.25305440341E+03  0.29921688631E+03  0.86290400649E+02 0.  0.
          5    1    1    2  502    0 -0.12525057800E+02 -0.45023572581E+02  0.36582483888E+00  0.46970448036E+02  0.47000000000E+01 0. -1.
         -5    1    1    2    0  502 -0.27509332315E+02 -0.83216157346E+02  0.23926362752E+03  0.25485459710E+03  0.47000000000E+01 0. -1.
        -11    1    3    3    0    0 -0.14286667889E+01  0.50251469519E+02  0.28209257221E+02  0.57645585006E+02  0.00000000000E+00 0.  1.
         11    1    3    3    0    0  0.41463056904E+02  0.77988260407E+02  0.22484514619E+03  0.24157130130E+03  0.00000000000E+00 0. -1.
<mgrwt>
<rscale>  0 0.17723553E+03</rscale>
<asrwt>0</asrwt>
<pdfrwt beam="1">  1        1 0.84132749E-01 0.18351045E+03</pdfrwt>
<pdfrwt beam="2">  1       -1 0.83352370E-02 0.18351045E+03</pdfrwt>
<totfact> 0.31834280E+03</totfact>
</mgrwt>
</event>
<event>
 7    1  0.1111284E-005  0.1274305E+03  0.7546771E-02  0.1246514E+00
          2   -1    0    0  501    0  0.00000000000E+00  0.00000000000E+00  0.43299062778E+03  0.43299062778E+03  0.00000000000E+00 0. -1.
         -2   -1    0    0    0  501 -0.00000000000E+00 -0.00000000000E+00 -0.53358423853E+02  0.53358423853E+02  0.00000000000E+00 0.  1.
         23    2    1    2    0    0  0.51923640462E+01  0.24198015862E+02  0.34039586192E+03  0.35301475802E+03  0.90208491581E+02 0.  0.
          5    1    1    2  502    0 -0.57056453913E+02  0.11665693638E+02 -0.91311181323E+00  0.58433304839E+02  0.47000000000E+01 0.  1.
         -5    1    1    2    0  502  0.51864089867E+02 -0.35863709501E+02  0.40149453822E+02  0.74900988772E+02  0.47000000000E+01 0.  1.
        -11    1    3    3    0    0  0.46696722706E+02  0.28627582519E+01  0.17817349380E+03  0.18421339036E+03  0.00000000000E+00 0.  1.
         11    1    3    3    0    0 -0.41504358660E+02  0.21335257610E+02  0.16222236812E+03  0.16880136766E+03  0.00000000000E+00 0. -1.
<mgrwt>
<rscale>  0 0.11795236E+03</rscale>
<asrwt>0</asrwt>
<pdfrwt beam="1">  1        2 0.66613941E-01 0.12743054E+03</pdfrwt>
<pdfrwt beam="2">  1       -2 0.82089885E-02 0.12743054E+03</pdfrwt>
<totfact> 0.63382212E+03</totfact>
</mgrwt>
</event>
<event>
 7    1  0.1111284E-005  0.1929103E+03  0.7546771E-02  0.1160707E+00
          1   -1    0    0  501    0  0.00000000000E+00  0.00000000000E+00  0.31428382772E+03  0.31428382772E+03  0.00000000000E+00 0. -1.
         -1   -1    0    0    0  501 -0.00000000000E+00 -0.00000000000E+00 -0.12210535399E+03  0.12210535399E+03  0.00000000000E+00 0.  1.
         23    2    1    2    0    0 -0.69020389224E+02 -0.12972696668E+03  0.17030039012E+03  0.24224223049E+03  0.89923163542E+02 0.  0.
          5    1    1    2  502    0  0.10473639222E+03  0.10406593054E+03  0.86151312007E+01  0.14797209277E+03  0.47000000000E+01 0.  1.
         -5    1    1    2    0  502 -0.35716002996E+02  0.25661036143E+02  0.13262952406E+02  0.46174858446E+02  0.47000000000E+01 0.  1.
        -11    1    3    3    0    0 -0.64824073157E+02 -0.10846417423E+03  0.17881618376E+03  0.21895630872E+03  0.00000000000E+00 0. -1.
         11    1    3    3    0    0 -0.41963160667E+01 -0.21262792448E+02 -0.85157936383E+01  0.23285921766E+02  0.00000000000E+00 0.  1.
<mgrwt>
<rscale>  0 0.18753092E+03</rscale>
<asrwt>0</asrwt>
<pdfrwt beam="1">  1        1 0.48351358E-01 0.19291031E+03</pdfrwt>
<pdfrwt beam="2">  1       -1 0.18785439E-01 0.19291031E+03</pdfrwt>
<totfact> 0.18272207E+03</totfact>
</mgrwt>
</event>
<event>
 7    1  0.1111284E-005  0.1299879E+03  0.7546771E-02  0.1241710E+00
          2   -1    0    0  501    0  0.00000000000E+00  0.00000000000E+00  0.20753878932E+03  0.20753878932E+03  0.00000000000E+00 0. -1.
         -2   -1    0    0    0  501 -0.00000000000E+00 -0.00000000000E+00 -0.63532750096E+02  0.63532750096E+02  0.00000000000E+00 0.  1.
         23    2    1    2    0    0 -0.16329234226E+02  0.31745429905E+02  0.81827618815E+02  0.12697775837E+03  0.90294937343E+02 0.  0.
          5    1    1    2  502    0  0.68060941676E+02 -0.15095461563E+02  0.13884565598E+02  0.71239286236E+02  0.47000000000E+01 0.  1.
         -5    1    1    2    0  502 -0.51731707449E+02 -0.16649968343E+02  0.48293854809E+02  0.72854494808E+02  0.47000000000E+01 0.  1.
        -11    1    3    3    0    0 -0.25354160760E+02  0.15662190766E+02  0.98010979719E+02  0.10244164111E+03  0.00000000000E+00 0. -1.
         11    1    3    3    0    0  0.90249265337E+01  0.16083239140E+02 -0.16183360904E+02  0.24536117263E+02  0.00000000000E+00 0.  1.
<mgrwt>
<rscale>  0 0.12084463E+03</rscale>
<asrwt>0</asrwt>
<pdfrwt beam="1">  1        2 0.31929044E-01 0.12998793E+03</pdfrwt>
<pdfrwt beam="2">  1       -2 0.97742693E-02 0.12998793E+03</pdfrwt>
<totfact> 0.10577528E+04</totfact>
</mgrwt>
</event>
<event>
 7    1  0.1111284E-005  0.2062245E+03  0.7546771E-02  0.1148662E+00
         -3   -1    0    0    0  501 -0.00000000000E+00  0.00000000000E+00  0.18146468664E+03  0.18146468664E+03  0.00000000000E+00 0.  1.
          3   -1    0    0  501    0  0.00000000000E+00 -0.00000000000E+00 -0.21683180821E+03  0.21683180821E+03  0.00000000000E+00 0. -1.
         23    2    1    2    0    0 -0.11051486816E+03 -0.12119679870E+03 -0.42613461521E+02  0.19194474799E+03  0.90137001703E+02 0.  0.
          5    1    1    2  502    0  0.64831333902E+02  0.13072189158E+03 -0.26753934203E+02  0.14842229546E+03  0.47000000000E+01 0. -1.
         -5    1    1    2    0  502  0.45683534261E+02 -0.95250928824E+01  0.34000274159E+02  0.57929451403E+02  0.47000000000E+01 0. -1.
        -11    1    3    3    0    0 -0.92475539432E+02 -0.11895917015E+03 -0.64149681219E+02  0.16376260610E+03  0.00000000000E+00 0. -1.
         11    1    3    3    0    0 -0.18039328731E+02 -0.22376285556E+01  0.21536219697E+02  0.28182141889E+02  0.00000000000E+00 0.  1.
<mgrwt>
<rscale>  0 0.20128218E+03</rscale>
<asrwt>0</asrwt>
<pdfrwt beam="2">  1        3 0.33358740E-01 0.20622447E+03</pdfrwt>
<pdfrwt beam="1">  1       -3 0.27917644E-01 0.20622447E+03</pdfrwt>
<totfact> 0.26442054E+02</totfact>
</mgrwt>
</event>
<event>
 7    1  0.1111284E-005  0.1412956E+03  0.7546771E-02  0.1222140E+00
         -2   -1    0    0    0  501 -0.00000000000E+00  0.00000000000E+00  0.17040499931E+03  0.17040499931E+03  0.00000000000E+00 0.  1.
          2   -1    0    0  501    0  0.00000000000E+00 -0.00000000000E+00 -0.10200378424E+03  0.10200378424E+03  0.00000000000E+00 0. -1.
         23    2    1    2    0    0 -0.39733637527E+02 -0.52542152096E+02 -0.49423641111E+01  0.11321163476E+03  0.91940239197E+02 0.  0.
          5    1    1    2  502    0  0.11363101279E+02 -0.41297208745E+02  0.20257651617E+02  0.47613464165E+02  0.47000000000E+01 0.  1.
         -5    1    1    2    0  502  0.28370536249E+02  0.93839360841E+02  0.53085927566E+02  0.11158368463E+03  0.47000000000E+01 0.  1.
        -11    1    3    3    0    0 -0.11234209555E+01 -0.50954899146E+02  0.31648090655E+02  0.59993878552E+02  0.00000000000E+00 0.  1.
         11    1    3    3    0    0 -0.38610216572E+02 -0.15872529502E+01 -0.36590454766E+02  0.53217756206E+02  0.00000000000E+00 0. -1.
<mgrwt>
<rscale>  0 0.13364900E+03</rscale>
<asrwt>0</asrwt>
<pdfrwt beam="2">  1        2 0.15692890E-01 0.14129562E+03</pdfrwt>
<pdfrwt beam="1">  1       -2 0.26216154E-01 0.14129562E+03</pdfrwt>
<totfact> 0.46134097E+03</totfact>
</mgrwt>
</event>
<event>
 7    1  0.1111284E-005  0.2693256E+03  0.7546771E-02  0.1103586E+00
         -1   -1    0    0    0  501 -0.00000000000E+00  0.00000000000E+00  0.73593763521E+02  0.73593763521E+02  0.00000000000E+00 0.  1.
          1   -1    0    0  501    0  0.00000000000E+00 -0.00000000000E+00 -0.11059388230E+04  0.11059388230E+04  0.00000000000E+00 0. -1.
         23    2    1    2    0    0  0.16101087789E+03 -0.17602916432E+03 -0.73470886422E+03  0.77813054482E+03  0.93697706104E+02 0.  0.
          5    1    1    2  502    0 -0.24588340035E+02 -0.37561579988E+01  0.29580836187E+01  0.25485985311E+02  0.47000000000E+01 0.  1.
         -5    1    1    2    0  502 -0.13642253786E+03  0.17978532232E+03 -0.30059427887E+03  0.37591605638E+03  0.47000000000E+01 0.  1.
        -11    1    3    3    0    0  0.62430815659E+02 -0.70280504454E+02 -0.16051489684E+03  0.18601609650E+03  0.00000000000E+00 0.  1.
         11    1    3    3    0    0  0.98580062236E+02 -0.10574865986E+03 -0.57419396738E+03  0.59211444832E+03  0.00000000000E+00 0. -1.
<mgrwt>
<rscale>  0 0.26600861E+03</rscale>
<asrwt>0</asrwt>
<pdfrwt beam="2">  1        1 0.17014443E+00 0.26932563E+03</pdfrwt>
<pdfrwt beam="1">  1       -1 0.11322118E-01 0.26932563E+03</pdfrwt>
<totfact> 0.67260668E+02</totfact>
</mgrwt>
</event>
<event>
 7    1  0.1111284E-005  0.2092479E+03  0.7546771E-02  0.1145815E+00
          2   -1    0    0  501    0  0.00000000000E+00  0.00000000000E+00  0.92850228946E+03  0.92850228946E+03  0.00000000000E+00 0. -1.
         -2   -1    0    0    0  501 -0.00000000000E+00 -0.00000000000E+00 -0.43377589339E+02  0.43377589339E+02  0.00000000000E+00 0.  1.
         23    2    1    2    0    0  0.13519288074E+03  0.99398099748E+02  0.40134846193E+03  0.44478963059E+03  0.92736887750E+02 0.  0.
          5    1    1    2  502    0 -0.36470128155E+02 -0.78199605378E+01  0.17005559694E+02  0.41261375291E+02  0.47000000000E+01 0. -1.
         -5    1    1    2    0  502 -0.98722752582E+02 -0.91578139210E+02  0.46677067850E+03  0.48582887292E+03  0.47000000000E+01 0. -1.
        -11    1    3    3    0    0  0.10763425818E+03  0.26200911596E+02  0.27113470916E+03  0.29289187734E+03  0.00000000000E+00 0. -1.
         11    1    3    3    0    0  0.27558622560E+02  0.73197188151E+02  0.13021375277E+03  0.15189775325E+03  0.00000000000E+00 0.  1.
<mgrwt>
<rscale>  0 0.20472160E+03</rscale>
<asrwt>0</asrwt>
<pdfrwt beam="1">  1        2 0.14284649E+00 0.20924789E+03</pdfrwt>
<pdfrwt beam="2">  1       -2 0.66734759E-02 0.20924789E+03</pdfrwt>
<totfact> 0.36262743E+03</totfact>
</mgrwt>
</event>
<event>
 7    1  0.1111284E-005  0.2392173E+03  0.7546771E-02  0.1126195E+00
         -1   -1    0    0    0  501 -0.00000000000E+00  0.00000000000E+00  0.53988017339E+02  0.53988017339E+02  0.00000000000E+00 0.  1.
          1   -1    0    0  501    0  0.00000000000E+00 -0.00000000000E+00 -0.11060597883E+04  0.11060597883E+04  0.00000000000E+00 0. -1.
         23    2    1    2    0    0  0.11300575108E+03 -0.14698210756E+03 -0.73099898645E+03  0.75965721321E+03  0.91353837741E+02 0.  0.
          5    1    1    2  502    0 -0.26783997226E+02  0.64271774098E+02 -0.14435764110E+02  0.71265171989E+02  0.47000000000E+01 0. -1.
         -5    1    1    2    0  502 -0.86221753853E+02  0.82710333461E+02 -0.30663702037E+03  0.32912542041E+03  0.47000000000E+01 0.  1.
        -11    1    3    3    0    0  0.10270406059E+03 -0.15864621863E+03 -0.63938014221E+03  0.66672611543E+03  0.00000000000E+00 0. -1.
         11    1    3    3    0    0  0.10301690490E+02  0.11664111072E+02 -0.91618844237E+02  0.92931097773E+02  0.00000000000E+00 0.  1.
<mgrwt>
<rscale>  0 0.23063368E+03</rscale>
<asrwt>0</asrwt>
<pdfrwt beam="2">  1        1 0.17016304E+00 0.23921725E+03</pdfrwt>
<pdfrwt beam="1">  1       -1 0.83058490E-02 0.23921725E+03</pdfrwt>
<totfact> 0.10878468E+03</totfact>
</mgrwt>
</event>
<event>
 7    1  0.1111284E-005  0.1588724E+03  0.7546771E-02  0.1198160E+00
          1   -1    0    0  501    0  0.00000000000E+00  0.00000000000E+00  0.11548801695E+03  0.11548801695E+03  0.00000000000E+00 0. -1.
         -1   -1    0    0    0  501 -0.00000000000E+00 -0.00000000000E+00 -0.18439540920E+03  0.18439540920E+03  0.00000000000E+00 0.  1.
         23    2    1    2    0    0  0.93478944470E+02 -0.29616449821E+02 -0.25460761328E+02  0.13517744011E+03  0.89494372945E+02 0.  0.
          5    1    1    2  502    0 -0.12253562245E+03  0.31781418818E+02 -0.46704796666E+02  0.13501283414E+03  0.47000000000E+01 0. -1.
         -5    1    1    2    0  502  0.29056677978E+02 -0.21649689967E+01  0.32581657489E+01  0.29693151903E+02  0.47000000000E+01 0. -1.
        -11    1    3    3    0    0  0.81927122872E+02 -0.58660297699E+02 -0.13292141131E+02  0.10163545151E+03  0.00000000000E+00 0.  1.
         11    1    3    3    0    0  0.11551821597E+02  0.29043847878E+02 -0.12168620197E+02  0.33541988600E+02  0.00000000000E+00 0. -1.
<mgrwt>
<rscale>  0 0.15189784E+03</rscale>
<asrwt>0</asrwt>
<pdfrwt beam="1">  1        1 0.17767387E-01 0.15887244E+03</pdfrwt>
<pdfrwt beam="2">  1       -1 0.28368524E-01 0.15887244E+03</pdfrwt>
<totfact> 0.32562809E+03</totfact>
</mgrwt>
</event>
<event>
 7    1  0.1111284E-005  0.1398017E+03  0.7546771E-02  0.1224897E+00
         -1   -1    0    0    0  501 -0.00000000000E+00  0.00000000000E+00  0.28966908040E+03  0.28966908040E+03  0.00000000000E+00 0.  1.
          1   -1    0    0  501    0  0.00000000000E+00 -0.00000000000E+00 -0.61792905881E+02  0.61792905881E+02  0.00000000000E+00 0. -1.
         23    2    1    2    0    0  0.72839366371E+01  0.62175255294E+02  0.39980700734E+02  0.11726288993E+03  0.90737593202E+02 0.  0.
          5    1    1    2  502    0  0.50605566280E+01 -0.75155915040E+02  0.19884396980E+03  0.21268529598E+03  0.47000000000E+01 0. -1.
         -5    1    1    2    0  502 -0.12344493265E+02  0.12980659746E+02 -0.10948496017E+02  0.21513800372E+02  0.47000000000E+01 0. -1.
        -11    1    3    3    0    0 -0.39239374757E+02  0.22482067742E+02  0.32416207107E+02  0.55641552678E+02  0.00000000000E+00 0.  1.
         11    1    3    3    0    0  0.46523311394E+02  0.39693187553E+02  0.75644936277E+01  0.61621337254E+02  0.00000000000E+00 0. -1.
<mgrwt>
<rscale>  0 0.13173944E+03</rscale>
<asrwt>0</asrwt>
<pdfrwt beam="2">  1        1 0.95066011E-02 0.13980167E+03</pdfrwt>
<pdfrwt beam="1">  1       -1 0.44564473E-01 0.13980167E+03</pdfrwt>
<totfact> 0.33628159E+03</totfact>
</mgrwt>
</event>
<event>
 7    1  0.1111284E-005  0.1568981E+03  0.7546771E-02  0.1200290E+00
         -1   -1    0    0    0  501 -0.00000000000E+00  0.00000000000E+00  0.47021709247E+02  0.47021709247E+02  0.00000000000E+00 0.  1.
          1   -1    0    0  501    0  0.00000000000E+00 -0.00000000000E+00 -0.55874128340E+03  0.55874128340E+03  0.00000000000E+00 0. -1.
         23    2    1    2    0    0 -0.66953854838E+02 -0.67151870804E+02 -0.37581659639E+03  0.39818979462E+03  0.91240374763E+02 0.  0.
          5    1    1    2  502    0 -0.25876436316E+02  0.52639352009E+02 -0.30447395904E+02  0.66254247062E+02  0.47000000000E+01 0. -1.
         -5    1    1    2    0  502  0.92830291154E+02  0.14512518795E+02 -0.10545558186E+03  0.14131895097E+03  0.47000000000E+01 0. -1.
        -11    1    3    3    0    0 -0.16012698008E+02 -0.85256271801E+00 -0.32559936418E+01  0.16362605394E+02  0.00000000000E+00 0.  1.
         11    1    3    3    0    0 -0.50941156830E+02 -0.66299308086E+02 -0.37256060275E+03  0.38182718922E+03  0.00000000000E+00 0. -1.
<mgrwt>
<rscale>  0 0.15014896E+03</rscale>
<asrwt>0</asrwt>
<pdfrwt beam="2">  1        1 0.85960194E-01 0.15689810E+03</pdfrwt>
<pdfrwt beam="1">  1       -1 0.72341094E-02 0.15689810E+03</pdfrwt>
<totfact> 0.38112052E+03</totfact>
</mgrwt>
</event>
<event>
 7    1  0.1111284E-005  0.1258292E+03  0.7546771E-02  0.1249910E+00
          1   -1    0    0  501    0  0.00000000000E+00  0.00000000000E+00  0.24635026686E+03  0.24635026686E+03  0.00000000000E+00 0. -1.
         -1   -1    0    0    0  501 -0.00000000000E+00 -0.00000000000E+00 -0.16626184635E+03  0.16626184635E+03  0.00000000000E+00 0.  1.
         23    2    1    2    0    0  0.50088326820E+01  0.13568779291E+02  0.21181559408E+03  0.23044451182E+03  0.89608185776E+02 0.  0.
          5    1    1    2  502    0  0.86297216198E+01 -0.67145051470E+02 -0.54290266668E+02  0.86904850768E+02  0.47000000000E+01 0. -1.
         -5    1    1    2    0  502 -0.13638554302E+02  0.53576272179E+02 -0.77436906899E+02  0.95262750612E+02  0.47000000000E+01 0. -1.
        -11    1    3    3    0    0  0.26229670651E+02 -0.13126253083E+02  0.19715879106E+02  0.35341336015E+02  0.00000000000E+00 0.  1.
         11    1    3    3    0    0 -0.21220837969E+02  0.26695032374E+02  0.19209971497E+03  0.19510317581E+03  0.00000000000E+00 0. -1.
<mgrwt>
<rscale>  0 0.11596295E+03</rscale>
<asrwt>0</asrwt>
<pdfrwt beam="1">  1        1 0.37900041E-01 0.12582920E+03</pdfrwt>
<pdfrwt beam="2">  1       -1 0.25578746E-01 0.12582920E+03</pdfrwt>
<totfact> 0.14794460E+03</totfact>
</mgrwt>
</event>
<event>
 7    1  0.1111284E-005  0.1493195E+03  0.7546771E-02  0.1210898E+00
         -2   -1    0    0    0  501 -0.00000000000E+00  0.00000000000E+00  0.63239990248E+02  0.63239990248E+02  0.00000000000E+00 0. -1.
          2   -1    0    0  501    0  0.00000000000E+00 -0.00000000000E+00 -0.47024737943E+03  0.47024737943E+03  0.00000000000E+00 0.  1.
         23    2    1    2    0    0  0.93966160403E+01  0.80893006410E+02 -0.35524111896E+03  0.37544921190E+03  0.90188043754E+02 0.  0.
          5    1    1    2  502    0 -0.42260275298E+02  0.12749625589E+02  0.31772653144E+01  0.44504705771E+02  0.47000000000E+01 0. -1.
         -5    1    1    2    0  502  0.32863659258E+02 -0.93642631999E+02 -0.54943535537E+02  0.11353345201E+03  0.47000000000E+01 0. -1.
        -11    1    3    3    0    0  0.11175764652E+02  0.57246500989E+01 -0.22548744173E+00  0.12558669472E+02  0.00000000000E+00 0. -1.
         11    1    3    3    0    0 -0.17791486121E+01  0.75168356311E+02 -0.35501563152E+03  0.36289054242E+03  0.00000000000E+00 0.  1.
<mgrwt>
<rscale>  0 0.14182237E+03</rscale>
<asrwt>0</asrwt>
<pdfrwt beam="2">  1        2 0.72345751E-01 0.14931950E+03</pdfrwt>
<pdfrwt beam="1">  1       -2 0.97292292E-02 0.14931950E+03</pdfrwt>
<totfact> 0.44866684E+03</totfact>
</mgrwt>
</event>
<event>
 7    1  0.2275290E-005  0.1506948E+03  0.7546771E-02  0.1208271E+00
         -2   -1    0    0    0  501 -0.00000000000E+00  0.00000000000E+00  0.91706828507E+02  0.91706828507E+02  0.00000000000E+00 0.  1.
          2   -1    0    0  501    0  0.00000000000E+00 -0.00000000000E+00 -0.21157863763E+03  0.21157863763E+03  0.00000000000E+00 0. -1.
         23    2    1    2    0    0 -0.81841065005E+02  0.19642595563E+02 -0.76026816329E+02  0.14634179978E+03  0.92477316575E+02 0.  0.
          5    1    1    2  502    0  0.86212358050E+02  0.36617323008E+02 -0.31998562850E+02  0.99092870830E+02  0.47000000000E+01 0. -1.
         -5    1    1    2    0  502 -0.43712930447E+01 -0.56259918571E+02 -0.11846429945E+02  0.57850795526E+02  0.47000000000E+01 0. -1.
        -11    1    3    3    0    0 -0.43676032504E+02  0.11971657464E+02 -0.93333049588E+02  0.10373993707E+03  0.00000000000E+00 0. -1.
         11    1    3    3    0    0 -0.38165032501E+02  0.76709380989E+01  0.17306233258E+02  0.42601862714E+02  0.00000000000E+00 0.  1.
<mgrwt>
<rscale>  0 0.14382651E+03</rscale>
<asrwt>0</asrwt>
<pdfrwt beam="2">  1        2 0.32550559E-01 0.15069483E+03</pdfrwt>
<pdfrwt beam="1">  1       -2 0.14108743E-01 0.15069483E+03</pdfrwt>
<totfact> 0.58286216E+03</totfact>
</mgrwt>
</event>
<event>
 7    1  0.1111284E-005  0.1353748E+03  0.7546771E-02  0.1227881E+00
         -2   -1    0    0    0  501 -0.00000000000E+00  0.00000000000E+00  0.19899459659E+02  0.19899459659E+02  0.00000000000E+00 0.  1.
          2   -1    0    0  501    0  0.00000000000E+00 -0.00000000000E+00 -0.78915160767E+03  0.78915160767E+03  0.00000000000E+00 0. -1.
         23    2    1    2    0    0  0.49029717365E+02  0.17237015311E+02 -0.31370427918E+03  0.33381407440E+03  0.10158953495E+03 0.  0.
          5    1    1    2  502    0  0.78337268890E+01  0.31292440319E+02 -0.34063952981E+02  0.47148987166E+02  0.47000000000E+01 0.  1.
         -5    1    1    2    0  502 -0.56863444254E+02 -0.48529455631E+02 -0.42148391586E+03  0.42808800577E+03  0.47000000000E+01 0.  1.
        -11    1    3    3    0    0  0.79404695986E+01  0.51393499038E+02 -0.91205347390E+02  0.10498932419E+03  0.00000000000E+00 0.  1.
         11    1    3    3    0    0  0.41089247767E+02 -0.34156483727E+02 -0.22249893179E+03  0.22882475021E+03  0.00000000000E+00 0. -1.
<mgrwt>
<rscale>  0 0.12971370E+03</rscale>
<asrwt>0</asrwt>
<pdfrwt beam="2">  1        2 0.12140795E+00 0.13537481E+03</pdfrwt>
<pdfrwt beam="1">  1       -2 0.30614550E-02 0.13537481E+03</pdfrwt>
<totfact> 0.14148765E+04</totfact>
</mgrwt>
</event>
<event>
 7    1  0.1111284E-005  0.1674667E+03  0.7546771E-02  0.1192594E+00
         -1   -1    0    0    0  501 -0.00000000000E+00  0.00000000000E+00  0.21994388592E+03  0.21994388592E+03  0.00000000000E+00 0.  1.
          1   -1    0    0  501    0  0.00000000000E+00 -0.00000000000E+00 -0.11308582564E+03  0.11308582564E+03  0.00000000000E+00 0. -1.
         23    2    1    2    0    0  0.43958876314E+02 -0.78939497639E+02 -0.10602361683E+02  0.12847640707E+03  0.90719071903E+02 0.  0.
          5    1    1    2  502    0  0.38197116610E+02  0.47319849036E+02  0.43532684126E+01  0.61149233649E+02  0.47000000000E+01 0. -1.
         -5    1    1    2    0  502 -0.82155992924E+02  0.31619648603E+02  0.11310715355E+03  0.14340407085E+03  0.47000000000E+01 0.  1.
        -11    1    3    3    0    0 -0.14432562199E+02 -0.46719588198E+02  0.22726191461E+02  0.53921225425E+02  0.00000000000E+00 0. -1.
         11    1    3    3    0    0  0.58391438513E+02 -0.32219909441E+02 -0.33328553144E+02  0.74555181649E+02  0.00000000000E+00 0.  1.
<mgrwt>
<rscale>  0 0.15659622E+03</rscale>
<asrwt>0</asrwt>
<pdfrwt beam="2">  1        1 0.17397819E-01 0.16746672E+03</pdfrwt>
<pdfrwt beam="1">  1       -1 0.33837521E-01 0.16746672E+03</pdfrwt>
<totfact> 0.24872628E+03</totfact>
</mgrwt>
</event>
<event>
 7    1  0.1111284E-005  0.1507803E+03  0.7546771E-02  0.1202737E+00
         -2   -1    0    0    0  501 -0.00000000000E+00  0.00000000000E+00  0.41995827346E+02  0.41995827346E+02  0.00000000000E+00 0.  1.
          2   -1    0    0  501    0  0.00000000000E+00 -0.00000000000E+00 -0.51315600032E+03  0.51315600032E+03  0.00000000000E+00 0. -1.
         23    2    1    2    0    0  0.79308620139E+02 -0.28618092667E+02 -0.26142921150E+03  0.29684625251E+03  0.11253271766E+03 0.  0.
          5    1    1    2  502    0 -0.24750898398E+02 -0.34241617335E+02 -0.14958174259E+03  0.15550525086E+03  0.47000000000E+01 0.  1.
         -5    1    1    2    0  502 -0.54557721741E+02  0.62859710002E+02 -0.60149218879E+02  0.10280032429E+03  0.47000000000E+01 0.  1.
        -11    1    3    3    0    0  0.90710677004E+02 -0.53641331740E+02 -0.15872256607E+03  0.19052210468E+03  0.00000000000E+00 0.  1.
         11    1    3    3    0    0 -0.11402056864E+02  0.25023239073E+02 -0.10270664543E+03  0.10632414782E+03  0.00000000000E+00 0. -1.
<mgrwt>
<rscale>  0 0.14817196E+03</rscale>
<asrwt>0</asrwt>
<pdfrwt beam="2">  1        2 0.78947071E-01 0.15078028E+03</pdfrwt>
<pdfrwt beam="1">  1       -2 0.64608970E-02 0.15078028E+03</pdfrwt>
<totfact> 0.76850055E+03</totfact>
</mgrwt>
</event>
<event>
 7    1  0.1111284E-005  0.1652749E+03  0.7546771E-02  0.1187372E+00
         -1   -1    0    0    0  501 -0.00000000000E+00  0.00000000000E+00  0.35509779422E+02  0.35509779422E+02  0.00000000000E+00 0.  1.
          1   -1    0    0  501    0  0.00000000000E+00 -0.00000000000E+00 -0.71968902210E+03  0.71968902210E+03  0.00000000000E+00 0. -1.
         23    2    1    2    0    0 -0.22837921232E+02 -0.10568559176E+03 -0.39162707897E+03  0.41918902738E+03  0.10323108419E+03 0.  0.
          5    1    1    2  502    0 -0.20534934764E+02  0.11710082928E+03 -0.19312529354E+03  0.22683420547E+03  0.47000000000E+01 0.  1.
         -5    1    1    2    0  502  0.43372855996E+02 -0.11415237521E+02 -0.99426870165E+02  0.10917556868E+03  0.47000000000E+01 0.  1.
        -11    1    3    3    0    0 -0.67038929268E+01  0.10648138079E+02 -0.26380813929E+01  0.12856301893E+02  0.00000000000E+00 0.  1.
         11    1    3    3    0    0 -0.16134028305E+02 -0.11633372983E+03 -0.38898899757E+03  0.40633272548E+03  0.00000000000E+00 0. -1.
<mgrwt>
<rscale>  0 0.16117930E+03</rscale>
<asrwt>0</asrwt>
<pdfrwt beam="2">  1        1 0.11072138E+00 0.16527492E+03</pdfrwt>
<pdfrwt beam="1">  1       -1 0.54630432E-02 0.16527492E+03</pdfrwt>
<totfact> 0.40874253E+03</totfact>
</mgrwt>
</event>
<event>
 7    1  0.1111284E-005  0.2004375E+03  0.7546771E-02  0.1156263E+00
          2   -1    0    0  501    0  0.00000000000E+00  0.00000000000E+00  0.14230909170E+03  0.14230909170E+03  0.00000000000E+00 0. -1.
         -2   -1    0    0    0  501 -0.00000000000E+00 -0.00000000000E+00 -0.48711509820E+03  0.48711509820E+03  0.00000000000E+00 0.  1.
         23    2    1    2    0    0 -0.83358698687E+02  0.11703749915E+03  0.57613121255E+02  0.17985067357E+03  0.91545312210E+02 0.  0.
          5    1    1    2  502    0  0.23039608013E+02 -0.10706239628E+03 -0.12862075422E+03  0.16899280651E+03  0.47000000000E+01 0. -1.
         -5    1    1    2    0  502  0.60319090674E+02 -0.99751028636E+01 -0.27379837354E+03  0.28058070983E+03  0.47000000000E+01 0.  1.
        -11    1    3    3    0    0 -0.99375955136E+02  0.72728401781E+02  0.38741491358E+02  0.12909649119E+03  0.00000000000E+00 0. -1.
         11    1    3    3    0    0  0.16017256450E+02  0.44309097368E+02  0.18871629897E+02  0.50754182376E+02  0.00000000000E+00 0.  1.
<mgrwt>
<rscale>  0 0.19245735E+03</rscale>
<asrwt>0</asrwt>
<pdfrwt beam="1">  1        2 0.21893706E-01 0.20043750E+03</pdfrwt>
<pdfrwt beam="2">  1       -2 0.74940785E-01 0.20043750E+03</pdfrwt>
<totfact> 0.41202252E+02</totfact>
</mgrwt>
</event>
<event>
 7    1  0.1111284E-005  0.1201773E+03  0.7546771E-02  0.1246344E+00
          2   -1    0    0  501    0  0.00000000000E+00  0.00000000000E+00  0.34777815064E+03  0.34777815064E+03  0.00000000000E+00 0. -1.
         -2   -1    0    0    0  501 -0.00000000000E+00 -0.00000000000E+00 -0.41466496240E+02  0.41466496240E+02  0.00000000000E+00 0.  1.
         23    2    1    2    0    0 -0.19385670808E+02  0.42390954302E+01  0.20833248635E+03  0.24050989832E+03  0.11852768520E+03 0.  0.
          5    1    1    2  502    0 -0.26729548702E+02 -0.42674377819E+02  0.34387081134E+02  0.61156623884E+02  0.47000000000E+01 0. -1.
         -5    1    1    2    0  502  0.46115219509E+02  0.38435282389E+02  0.63592086918E+02  0.87578124673E+02  0.47000000000E+01 0.  1.
        -11    1    3    3    0    0 -0.47270491244E+02  0.33153077327E+02  0.18555864693E+03  0.19433382961E+03  0.00000000000E+00 0.  1.
         11    1    3    3    0    0  0.27884820436E+02 -0.28913981897E+02  0.22773839411E+02  0.46176068709E+02  0.00000000000E+00 0. -1.
<mgrwt>
<rscale>  0 0.11805287E+03</rscale>
<asrwt>0</asrwt>
<pdfrwt beam="1">  1        2 0.53504329E-01 0.12017731E+03</pdfrwt>
<pdfrwt beam="2">  1       -2 0.63794612E-02 0.12017731E+03</pdfrwt>
<totfact> 0.11722871E+04</totfact>
</mgrwt>
</event>
<event>
 7    1  0.1111284E-005  0.1350324E+03  0.7546771E-02  0.1232619E+00
          2   -1    0    0  501    0  0.00000000000E+00  0.00000000000E+00  0.36707462654E+03  0.36707462654E+03  0.00000000000E+00 0. -1.
         -2   -1    0    0    0  501 -0.00000000000E+00 -0.00000000000E+00 -0.48605791016E+02  0.48605791016E+02  0.00000000000E+00 0.  1.
         23    2    1    2    0    0 -0.19382719522E+01 -0.51036314335E+02  0.23458379109E+03  0.25671355567E+03  0.90905623285E+02 0.  0.
          5    1    1    2  502    0 -0.44073501063E+02  0.15633690693E+02 -0.10404864021E+02  0.48137687687E+02  0.47000000000E+01 0. -1.
         -5    1    1    2    0  502  0.46011773015E+02  0.35402623643E+02  0.94289908462E+02  0.11082917420E+03  0.47000000000E+01 0. -1.
        -11    1    3    3    0    0 -0.37492123964E+02 -0.33354516788E+02  0.19216691338E+03  0.19861094065E+03  0.00000000000E+00 0. -1.
         11    1    3    3    0    0  0.35553852011E+02 -0.17681797548E+02  0.42416877710E+02  0.58102615019E+02  0.00000000000E+00 0.  1.
<mgrwt>
<rscale>  0 0.12658107E+03</rscale>
<asrwt>0</asrwt>
<pdfrwt beam="1">  1        2 0.56473018E-01 0.13503245E+03</pdfrwt>
<pdfrwt beam="2">  1       -2 0.74778142E-02 0.13503245E+03</pdfrwt>
<totfact> 0.87624441E+03</totfact>
</mgrwt>
</event>
<event>
 7    1  0.1111284E-005  0.1369922E+03  0.7546771E-02  0.1229168E+00
         -1   -1    0    0    0  501 -0.00000000000E+00  0.00000000000E+00  0.18289391772E+03  0.18289391772E+03  0.00000000000E+00 0.  1.
          1   -1    0    0  501    0  0.00000000000E+00 -0.00000000000E+00 -0.84375729817E+02  0.84375729817E+02  0.00000000000E+00 0. -1.
         23    2    1    2    0    0 -0.50113790209E+02  0.25104678276E+02  0.19067652294E+02  0.10890537305E+03  0.91406608490E+02 0.  0.
          5    1    1    2  502    0  0.13486773853E+02 -0.23685984870E+02  0.10811430555E+03  0.11159620071E+03  0.47000000000E+01 0. -1.
         -5    1    1    2    0  502  0.36627016356E+02 -0.14186934052E+01 -0.28663769935E+02  0.46768073779E+02  0.47000000000E+01 0. -1.
        -11    1    3    3    0    0  0.64471630078E+01  0.45690266311E+02  0.15234843529E+02  0.48592867828E+02  0.00000000000E+00 0.  1.
         11    1    3    3    0    0 -0.56560953217E+02 -0.20585588036E+02  0.38328087651E+01  0.60312505226E+02  0.00000000000E+00 0. -1.
<mgrwt>
<rscale>  0 0.12885283E+03</rscale>
<asrwt>0</asrwt>
<pdfrwt beam="2">  1        1 0.12980882E-01 0.13699217E+03</pdfrwt>
<pdfrwt beam="1">  1       -1 0.28137526E-01 0.13699217E+03</pdfrwt>
<totfact> 0.49175638E+03</totfact>
</mgrwt>
</event>
<event>
 7    1  0.1111284E-005  0.1352502E+03  0.7546771E-02  0.1228537E+00
          1   -1    0    0  501    0  0.00000000000E+00  0.00000000000E+00  0.22328771993E+03  0.22328771993E+03  0.00000000000E+00 0. -1.
         -1   -1    0    0    0  501 -0.00000000000E+00 -0.00000000000E+00 -0.70316099175E+02  0.70316099175E+02  0.00000000000E+00 0.  1.
         23    2    1    2    0    0  0.26769415114E+02 -0.60819314340E+02  0.49239625725E+02  0.12315456820E+03  0.91251938858E+02 0.  0.
          5    1    1    2  502    0  0.21490320230E+02  0.57283111752E+02  0.64556361528E+01  0.61700518585E+02  0.47000000000E+01 0. -1.
         -5    1    1    2    0  502 -0.48259735344E+02  0.35362025888E+01  0.97276358877E+02  0.10874873232E+03  0.47000000000E+01 0.  1.
        -11    1    3    3    0    0 -0.20160947343E+02  0.23857107002E+01 -0.11851644638E+02  0.23507804958E+02  0.00000000000E+00 0.  1.
         11    1    3    3    0    0  0.46930362457E+02 -0.63205025041E+02  0.61091270363E+02  0.99646763245E+02  0.00000000000E+00 0. -1.
<mgrwt>
<rscale>  0 0.12927374E+03</rscale>
<asrwt>0</asrwt>
<pdfrwt beam="1">  1        1 0.34351957E-01 0.13525021E+03</pdfrwt>
<pdfrwt beam="2">  1       -1 0.10817862E-01 0.13525021E+03</pdfrwt>
<totfact> 0.65383947E+03</totfact>
</mgrwt>
</event>
<event>
 7    1  0.1111284E-005  0.1550763E+03  0.7546771E-02  0.1202309E+00
          1   -1    0    0  501    0  0.00000000000E+00  0.00000000000E+00  0.19206933857E+03  0.19206933857E+03  0.00000000000E+00 0. -1.
         -1   -1    0    0    0  501 -0.00000000000E+00 -0.00000000000E+00 -0.22949257402E+03  0.22949257402E+03  0.00000000000E+00 0.  1.
         23    2    1    2    0    0 -0.68522236343E+02 -0.61041785586E+02  0.13631700241E+03  0.18867927612E+03  0.92715412044E+02 0.  0.
          5    1    1    2  502    0  0.74278019584E+02  0.44887521072E+01 -0.15640315408E+03  0.17326687420E+03  0.47000000000E+01 0. -1.
         -5    1    1    2    0  502 -0.57557832418E+01  0.56553033479E+02 -0.17337083786E+02  0.59615762267E+02  0.47000000000E+01 0. -1.
        -11    1    3    3    0    0 -0.78000204547E+02 -0.10923375352E+02  0.92005681059E+02  0.12111315942E+03  0.00000000000E+00 0.  1.
         11    1    3    3    0    0  0.94779682042E+01 -0.50118410235E+02  0.44311321356E+02  0.67566116701E+02  0.00000000000E+00 0. -1.
<mgrwt>
<rscale>  0 0.14851528E+03</rscale>
<asrwt>0</asrwt>
<pdfrwt beam="1">  1        1 0.29549129E-01 0.15507628E+03</pdfrwt>
<pdfrwt beam="2">  1       -1 0.35306550E-01 0.15507628E+03</pdfrwt>
<totfact> 0.11778208E+03</totfact>
</mgrwt>
</event>
<event>
 7    1  0.1111284E-005  0.1505260E+03  0.7546771E-02  0.1209049E+00
          2   -1    0    0  501    0  0.00000000000E+00  0.00000000000E+00  0.13975603315E+03  0.13975603315E+03  0.00000000000E+00 0. -1.
         -2   -1    0    0    0  501 -0.00000000000E+00 -0.00000000000E+00 -0.19141840746E+03  0.19141840746E+03  0.00000000000E+00 0.  1.
         23    2    1    2    0    0  0.73737503525E+02  0.39940931309E+02  0.66168881158E+02  0.14001411602E+03  0.90515934682E+02 0.  0.
          5    1    1    2  502    0  0.24835593939E+02  0.12876604308E+02  0.37336187779E+00  0.28369756148E+02  0.47000000000E+01 0. -1.
         -5    1    1    2    0  502 -0.98573097464E+02 -0.52817535617E+02 -0.11820461735E+03  0.16279056844E+03  0.47000000000E+01 0. -1.
        -11    1    3    3    0    0  0.72803296102E+02 -0.75813582913E+01  0.53968803848E+02  0.90941897416E+02  0.00000000000E+00 0.  1.
         11    1    3    3    0    0  0.93420742292E+00  0.47522289600E+02  0.12200077310E+02  0.49072218604E+02  0.00000000000E+00 0. -1.
<mgrwt>
<rscale>  0 0.14322884E+03</rscale>
<asrwt>0</asrwt>
<pdfrwt beam="1">  1        2 0.21500928E-01 0.15052596E+03</pdfrwt>
<pdfrwt beam="2">  1       -2 0.29448986E-01 0.15052596E+03</pdfrwt>
<totfact> 0.26252007E+03</totfact>
</mgrwt>
</event>
<event>
 7    1  0.1111284E-005  0.1880563E+03  0.7546771E-02  0.1165097E+00
          2   -1    0    0  501    0  0.00000000000E+00  0.00000000000E+00  0.10169128845E+04  0.10169128845E+04  0.00000000000E+00 0. -1.
         -2   -1    0    0    0  501 -0.00000000000E+00 -0.00000000000E+00 -0.37506469779E+02  0.37506469779E+02  0.00000000000E+00 0.  1.
         23    2    1    2    0    0  0.10726485114E+03  0.90740029729E+02  0.68326793726E+03  0.70361573381E+03  0.92089768638E+02 0.  0.
          5    1    1    2  502    0  0.20668875418E+02 -0.34196792752E+02  0.30264840786E+02  0.50345542339E+02  0.47000000000E+01 0.  1.
         -5    1    1    2    0  502 -0.12793372656E+03 -0.56543236977E+02  0.26587363672E+03  0.30045807818E+03  0.47000000000E+01 0.  1.
        -11    1    3    3    0    0  0.12763443220E+02  0.66426703782E+02  0.21917743644E+03  0.22937776941E+03  0.00000000000E+00 0. -1.
         11    1    3    3    0    0  0.94501407923E+02  0.24313325947E+02  0.46409050082E+03  0.47423796439E+03  0.00000000000E+00 0.  1.
<mgrwt>
<rscale>  0 0.18282502E+03</rscale>
<asrwt>0</asrwt>
<pdfrwt beam="1">  1        2 0.15644812E+00 0.18805633E+03</pdfrwt>
<pdfrwt beam="2">  1       -2 0.57702269E-02 0.18805633E+03</pdfrwt>
<totfact> 0.39877662E+03</totfact>
</mgrwt>
</event>
<event>
 7    1  0.1111284E-005  0.2553230E+03  0.7546771E-02  0.1112303E+00
          2   -1    0    0  501    0  0.00000000000E+00  0.00000000000E+00  0.16239807629E+04  0.16239807629E+04  0.00000000000E+00 0. -1.
         -2   -1    0    0    0  501 -0.00000000000E+00 -0.00000000000E+00 -0.42443565423E+02  0.42443565423E+02  0.00000000000E+00 0.  1.
         23    2    1    2    0    0  0.13072076950E+03  0.18023784906E+03  0.10431242144E+04  0.10705397870E+04  0.91507962649E+02 0.  0.
          5    1    1    2  502    0 -0.10872551611E+03 -0.18003419352E+03  0.53261648233E+03  0.57265692692E+03  0.47000000000E+01 0.  1.
         -5    1    1    2    0  502 -0.21995253395E+02 -0.20365553119E+00  0.57965007660E+01  0.23227614355E+02  0.47000000000E+01 0.  1.
        -11    1    3    3    0    0  0.44957993880E+02  0.63706151128E+01  0.15570609676E+03  0.16219184480E+03  0.00000000000E+00 0.  1.
         11    1    3    3    0    0  0.85762775625E+02  0.17386723394E+03  0.88741811760E+03  0.90834794224E+03  0.00000000000E+00 0. -1.
<mgrwt>
<rscale>  0 0.25159189E+03</rscale>
<asrwt>0</asrwt>
<pdfrwt beam="1">  1        2 0.24984315E+00 0.25532302E+03</pdfrwt>
<pdfrwt beam="2">  1       -2 0.65297806E-02 0.25532302E+03</pdfrwt>
<totfact> 0.15235617E+03</totfact>
</mgrwt>
</event>
<event>
 7    1  0.1111284E-005  0.1334047E+03  0.7546771E-02  0.1235631E+00
          1   -1    0    0  501    0  0.00000000000E+00  0.00000000000E+00  0.93962014362E+02  0.93962014362E+02  0.00000000000E+00 0. -1.
         -1   -1    0    0    0  501 -0.00000000000E+00 -0.00000000000E+00 -0.18001319161E+03  0.18001319161E+03  0.00000000000E+00 0.  1.
         23    2    1    2    0    0  0.45420529721E+02 -0.10415285667E+02  0.19935596949E+02  0.10359323181E+03  0.90347257595E+02 0.  0.
          5    1    1    2  502    0 -0.21210731694E+02 -0.25792817768E+02  0.18462945787E+02  0.38446520708E+02  0.47000000000E+01 0.  1.
         -5    1    1    2    0  502 -0.24209798027E+02  0.36208103435E+02 -0.12444971998E+03  0.13193545345E+03  0.47000000000E+01 0.  1.
        -11    1    3    3    0    0  0.18288667710E+02  0.20217919843E+02  0.47139210589E+02  0.54454979793E+02  0.00000000000E+00 0. -1.
         11    1    3    3    0    0  0.27131862011E+02 -0.30633205509E+02 -0.27203613639E+02  0.49138252014E+02  0.00000000000E+00 0.  1.
<mgrwt>
<rscale>  0 0.12464149E+03</rscale>
<asrwt>0</asrwt>
<pdfrwt beam="1">  1        1 0.14455695E-01 0.13340473E+03</pdfrwt>
<pdfrwt beam="2">  1       -1 0.27694337E-01 0.13340473E+03</pdfrwt>
<totfact> 0.43823015E+03</totfact>
</mgrwt>
</event>
<event>
 7    1  0.1111284E-005  0.1409874E+03  0.7546771E-02  0.1223289E+00
         -2   -1    0    0    0  501 -0.00000000000E+00  0.00000000000E+00  0.13349290715E+03  0.13349290715E+03  0.00000000000E+00 0.  1.
          2   -1    0    0  501    0  0.00000000000E+00 -0.00000000000E+00 -0.24315029274E+03  0.24315029274E+03  0.00000000000E+00 0. -1.
         23    2    1    2    0    0  0.41998369220E+02 -0.49888877615E+02 -0.18572749377E+03  0.21644294306E+03  0.90000458519E+02 0.  0.
          5    1    1    2  502    0 -0.65150069640E+02 -0.15364174283E+02  0.57481375483E+02  0.88356029523E+02  0.47000000000E+01 0.  1.
         -5    1    1    2    0  502  0.23151700420E+02  0.65253051898E+02  0.18588732691E+02  0.71844227308E+02  0.47000000000E+01 0.  1.
        -11    1    3    3    0    0  0.50372045033E+02 -0.27460674771E+01 -0.44323640715E+02  0.67152579501E+02  0.00000000000E+00 0. -1.
         11    1    3    3    0    0 -0.83736758131E+01 -0.47142810138E+02 -0.14140385305E+03  0.14929036356E+03  0.00000000000E+00 0.  1.
<mgrwt>
<rscale>  0 0.13284837E+03</rscale>
<asrwt>0</asrwt>
<pdfrwt beam="2">  1        2 0.37407737E-01 0.14098745E+03</pdfrwt>
<pdfrwt beam="1">  1       -2 0.20537371E-01 0.14098745E+03</pdfrwt>
<totfact> 0.26808026E+03</totfact>
</mgrwt>
</event>
<event>
 7    1  0.1111284E-005  0.1372580E+03  0.7546771E-02  0.1228596E+00
         -1   -1    0    0    0  501 -0.00000000000E+00  0.00000000000E+00  0.11087489771E+03  0.11087489771E+03  0.00000000000E+00 0.  1.
          1   -1    0    0  501    0  0.00000000000E+00 -0.00000000000E+00 -0.13679415753E+03  0.13679415753E+03  0.00000000000E+00 0. -1.
         23    2    1    2    0    0 -0.42448899686E+02 -0.37530619573E+02 -0.23440517030E+02  0.11038867534E+03  0.91791858645E+02 0.  0.
          5    1    1    2  502    0  0.73535218780E+02  0.46684796466E+02 -0.32273833273E+02  0.93008542276E+02  0.47000000000E+01 0. -1.
         -5    1    1    2    0  502 -0.31086319095E+02 -0.91541768932E+01  0.29795090490E+02  0.44271837626E+02  0.47000000000E+01 0. -1.
        -11    1    3    3    0    0  0.26011675768E+02 -0.21509590961E+02  0.57870095310E+01  0.34245572836E+02  0.00000000000E+00 0. -1.
         11    1    3    3    0    0 -0.68460575454E+02 -0.16021028612E+02 -0.29227526561E+02  0.76143102499E+02  0.00000000000E+00 0.  1.
<mgrwt>
<rscale>  0 0.12923485E+03</rscale>
<asrwt>0</asrwt>
<pdfrwt beam="2">  1        1 0.21045255E-01 0.13725800E+03</pdfrwt>
<pdfrwt beam="1">  1       -1 0.17057677E-01 0.13725800E+03</pdfrwt>
<totfact> 0.59466290E+03</totfact>
</mgrwt>
</event>
<event>
 7    1  0.1111284E-005  0.1306263E+03  0.7546771E-02  0.1240750E+00
         -2   -1    0    0    0  501 -0.00000000000E+00  0.00000000000E+00  0.28518747174E+02  0.28518747174E+02  0.00000000000E+00 0.  1.
          2   -1    0    0  501    0  0.00000000000E+00 -0.00000000000E+00 -0.54417826482E+03  0.54417826482E+03  0.00000000000E+00 0. -1.
         23    2    1    2    0    0  0.34821858459E+02  0.15082912977E+02 -0.34044951403E+03  0.35415232274E+03  0.89877360924E+02 0.  0.
          5    1    1    2  502    0  0.19049792504E+01 -0.38110634179E+02 -0.17039272836E+03  0.17467633286E+03  0.47000000000E+01 0.  1.
         -5    1    1    2    0  502 -0.36726837710E+02  0.23027721202E+02 -0.48172752548E+01  0.43868356395E+02  0.47000000000E+01 0.  1.
        -11    1    3    3    0    0  0.28238853853E+02  0.45096185139E+02 -0.29180295182E+03  0.29661433120E+03  0.00000000000E+00 0. -1.
         11    1    3    3    0    0  0.65830046061E+01 -0.30013272162E+02 -0.48646562205E+02  0.57537991535E+02  0.00000000000E+00 0.  1.
<mgrwt>
<rscale>  0 0.12143426E+03</rscale>
<asrwt>0</asrwt>
<pdfrwt beam="2">  1        2 0.83719731E-01 0.13062632E+03</pdfrwt>
<pdfrwt beam="1">  1       -2 0.43874997E-02 0.13062632E+03</pdfrwt>
<totfact> 0.12783296E+04</totfact>
</mgrwt>
</event>
<event>
 7    1  0.1111284E-005  0.1463087E+03  0.7546771E-02  0.1214928E+00
          2   -1    0    0  501    0  0.00000000000E+00  0.00000000000E+00  0.23891558766E+03  0.23891558766E+03  0.00000000000E+00 0. -1.
         -2   -1    0    0    0  501 -0.00000000000E+00 -0.00000000000E+00 -0.85225657960E+02  0.85225657960E+02  0.00000000000E+00 0.  1.
         23    2    1    2    0    0  0.49398892604E+02 -0.57813320916E+02  0.12995689825E+03  0.17592011708E+03  0.90975059914E+02 0.  0.
          5    1    1    2  502    0 -0.74339175273E+02 -0.30613004973E+01 -0.80967528180E+01  0.74988878823E+02  0.47000000000E+01 0.  1.
         -5    1    1    2    0  502  0.24940282668E+02  0.60874621413E+02  0.31829784275E+02  0.73232249718E+02  0.47000000000E+01 0.  1.
        -11    1    3    3    0    0  0.70184949812E+02 -0.48902945103E+02  0.65882984579E+02  0.10797218566E+03  0.00000000000E+00 0.  1.
         11    1    3    3    0    0 -0.20786057207E+02 -0.89103758122E+01  0.64073913667E+02  0.67947931418E+02  0.00000000000E+00 0. -1.
<mgrwt>
<rscale>  0 0.13881850E+03</rscale>
<asrwt>0</asrwt>
<pdfrwt beam="1">  1        2 0.36756244E-01 0.14630874E+03</pdfrwt>
<pdfrwt beam="2">  1       -2 0.13111640E-01 0.14630874E+03</pdfrwt>
<totfact> 0.57494550E+03</totfact>
</mgrwt>
</event>
<event>
 7    1  0.1111284E-005  0.1495284E+03  0.7546771E-02  0.1210105E+00
         -1   -1    0    0    0  501 -0.00000000000E+00  0.00000000000E+00  0.25035171111E+02  0.25035171111E+02  0.00000000000E+00 0.  1.
          1   -1    0    0  501    0  0.00000000000E+00 -0.00000000000E+00 -0.76595348134E+03  0.76595348134E+03  0.00000000000E+00 0. -1.
         23    2    1    2    0    0  0.12450290048E+02 -0.81105435091E+02 -0.40515644154E+03  0.42343626174E+03  0.91724720267E+02 0.  0.
          5    1    1    2  502    0 -0.67360320644E+02  0.59023849289E+02 -0.21612297291E+03  0.23399242936E+03  0.47000000000E+01 0.  1.
         -5    1    1    2    0  502  0.54910030596E+02  0.22081585802E+02 -0.11963889578E+03  0.13355996135E+03  0.47000000000E+01 0.  1.
        -11    1    3    3    0    0  0.27046294899E+02 -0.97189510366E+02 -0.31824707716E+03  0.33385401767E+03  0.00000000000E+00 0.  1.
         11    1    3    3    0    0 -0.14596004851E+02  0.16084075275E+02 -0.86909364386E+02  0.89582244073E+02  0.00000000000E+00 0. -1.
<mgrwt>
<rscale>  0 0.14242354E+03</rscale>
<asrwt>0</asrwt>
<pdfrwt beam="2">  1        1 0.11783898E+00 0.14952835E+03</pdfrwt>
<pdfrwt beam="1">  1       -1 0.38515654E-02 0.14952835E+03</pdfrwt>
<totfact> 0.62313175E+03</totfact>
</mgrwt>
</event>
<event>
 7    1  0.1111284E-005  0.1730440E+03  0.7546771E-02  0.1180648E+00
         -1   -1    0    0    0  501 -0.00000000000E+00  0.00000000000E+00  0.11887887883E+03  0.11887887883E+03  0.00000000000E+00 0.  1.
          1   -1    0    0  501    0  0.00000000000E+00 -0.00000000000E+00 -0.23722462606E+03  0.23722462606E+03  0.00000000000E+00 0. -1.
         23    2    1    2    0    0 -0.99689428758E+01  0.11925200439E+03 -0.94246118902E+01  0.15163332786E+03  0.92646761616E+02 0.  0.
          5    1    1    2  502    0  0.48922597075E+02 -0.12160327746E+03 -0.68038537727E+02  0.14775692948E+03  0.47000000000E+01 0.  1.
         -5    1    1    2    0  502 -0.38953654200E+02  0.23512730719E+01 -0.40882597604E+02  0.56713247548E+02  0.47000000000E+01 0.  1.
        -11    1    3    3    0    0 -0.93722346355E+01 -0.14591163039E+02  0.10925360891E+01  0.17376261278E+02  0.00000000000E+00 0. -1.
         11    1    3    3    0    0 -0.59670824035E+00  0.13384316742E+03 -0.10517147979E+02  0.13425706659E+03  0.00000000000E+00 0.  1.
<mgrwt>
<rscale>  0 0.16734241E+03</rscale>
<asrwt>0</asrwt>
<pdfrwt beam="2">  1        1 0.36496096E-01 0.17304404E+03</pdfrwt>
<pdfrwt beam="1">  1       -1 0.18289059E-01 0.17304404E+03</pdfrwt>
<totfact> 0.27002628E+03</totfact>
</mgrwt>
</event>
<event>
 7    1  0.1111284E-005  0.1535112E+03  0.7546771E-02  0.1203722E+00
         -1   -1    0    0    0  501 -0.00000000000E+00  0.00000000000E+00  0.24947716124E+03  0.24947716124E+03  0.00000000000E+00 0.  1.
          1   -1    0    0  501    0  0.00000000000E+00 -0.00000000000E+00 -0.12275584657E+03  0.12275584657E+03  0.00000000000E+00 0. -1.
         23    2    1    2    0    0  0.78452818213E+02  0.42232524392E+02 -0.48602161167E+02  0.13920082132E+03  0.95269448329E+02 0.  0.
          5    1    1    2  502    0 -0.54463225943E+02 -0.79746857387E+02  0.72390457636E+02  0.12078192166E+03  0.47000000000E+01 0.  1.
         -5    1    1    2    0  502 -0.23989592269E+02  0.37514332995E+02  0.10293301821E+03  0.11225026483E+03  0.47000000000E+01 0.  1.
        -11    1    3    3    0    0  0.22036610522E+02  0.60426006584E+02 -0.47423533726E+02  0.79911864113E+02  0.00000000000E+00 0. -1.
         11    1    3    3    0    0  0.56416207690E+02 -0.18193482192E+02 -0.11786274410E+01  0.59288957210E+02  0.00000000000E+00 0.  1.
<mgrwt>
<rscale>  0 0.14738660E+03</rscale>
<asrwt>0</asrwt>
<pdfrwt beam="2">  1        1 0.18885515E-01 0.15351117E+03</pdfrwt>
<pdfrwt beam="1">  1       -1 0.38381102E-01 0.15351117E+03</pdfrwt>
<totfact> 0.17938542E+03</totfact>
</mgrwt>
</event>
<event>
 7    1  0.1111284E-005  0.1396658E+03  0.7546771E-02  0.1224894E+00
         -3   -1    0    0    0  501 -0.00000000000E+00  0.00000000000E+00  0.21142210161E+02  0.21142210161E+02  0.00000000000E+00 0.  1.
          3   -1    0    0  501    0  0.00000000000E+00 -0.00000000000E+00 -0.75016373922E+03  0.75016373922E+03  0.00000000000E+00 0. -1.
         23    2    1    2    0    0  0.20937489744E+02  0.58681929739E+02 -0.36634311891E+03  0.38266450926E+03  0.91339468579E+02 0.  0.
          5    1    1    2  502    0  0.83715773669E+01  0.13786133137E+02 -0.25470574924E+03  0.25525918097E+03  0.47000000000E+01 0.  1.
         -5    1    1    2    0  502 -0.29309067111E+02 -0.72468062877E+02 -0.10797266091E+03  0.13338225915E+03  0.47000000000E+01 0.  1.
        -11    1    3    3    0    0  0.15081683205E+02 -0.22827651616E+02 -0.67096803510E+02  0.72460609215E+02  0.00000000000E+00 0.  1.
         11    1    3    3    0    0  0.58558065396E+01  0.81509581355E+02 -0.29924631540E+03  0.31020390005E+03  0.00000000000E+00 0. -1.
<mgrwt>
<rscale>  0 0.13174162E+03</rscale>
<asrwt>0</asrwt>
<pdfrwt beam="2">  1        3 0.11540979E+00 0.13966581E+03</pdfrwt>
<pdfrwt beam="1">  1       -3 0.32526481E-02 0.13966581E+03</pdfrwt>
<totfact> 0.67943855E+02</totfact>
</mgrwt>
</event>
<event>
 7    1  0.1111284E-005  0.1524639E+03  0.7546771E-02  0.1206403E+00
          1   -1    0    0  501    0  0.00000000000E+00  0.00000000000E+00  0.21825957535E+02  0.21825957535E+02  0.00000000000E+00 0. -1.
         -1   -1    0    0    0  501 -0.00000000000E+00 -0.00000000000E+00 -0.11111474018E+04  0.11111474018E+04  0.00000000000E+00 0.  1.
         23    2    1    2    0    0  0.77637044112E+02 -0.39905516905E+02 -0.24885108565E+03  0.27878622171E+03  0.90415339911E+02 0.  0.
          5    1    1    2  502    0 -0.95647012960E+02  0.52582869663E+02 -0.80353376848E+03  0.81092657890E+03  0.47000000000E+01 0. -1.
         -5    1    1    2    0  502  0.18009968848E+02 -0.12677352758E+02 -0.36936590172E+02  0.43260558762E+02  0.47000000000E+01 0. -1.
        -11    1    3    3    0    0  0.53761907359E+02  0.16119393378E+02 -0.17081133799E+03  0.17979624777E+03  0.00000000000E+00 0.  1.
         11    1    3    3    0    0  0.23875136753E+02 -0.56024910283E+02 -0.78039747662E+02  0.98989973949E+02  0.00000000000E+00 0. -1.
<mgrwt>
<rscale>  0 0.14527466E+03</rscale>
<asrwt>0</asrwt>
<pdfrwt beam="1">  1        1 0.33578389E-02 0.15246391E+03</pdfrwt>
<pdfrwt beam="2">  1       -1 0.17094579E+00 0.15246391E+03</pdfrwt>
<totfact> 0.76210917E+02</totfact>
</mgrwt>
</event>
<event>
 7    1  0.1111284E-005  0.1655615E+03  0.7546771E-02  0.1190030E+00
          1   -1    0    0  501    0  0.00000000000E+00  0.00000000000E+00  0.18819462458E+03  0.18819462458E+03  0.00000000000E+00 0. -1.
         -1   -1    0    0    0  501 -0.00000000000E+00 -0.00000000000E+00 -0.14126985558E+03  0.14126985558E+03  0.00000000000E+00 0.  1.
         23    2    1    2    0    0 -0.68173682730E+02 -0.84475665525E+02  0.78833963982E+02  0.16085601722E+03  0.88747255255E+02 0.  0.
          5    1    1    2  502    0  0.72125105375E+02 -0.16042857813E+01 -0.38773790269E+02  0.82037195040E+02  0.47000000000E+01 0. -1.
         -5    1    1    2    0  502 -0.39514226448E+01  0.86079951306E+02  0.68645952805E+01  0.86571267902E+02  0.47000000000E+01 0. -1.
        -11    1    3    3    0    0 -0.49965760796E+02 -0.60513870115E+02  0.21804723001E+01  0.78506434053E+02  0.00000000000E+00 0.  1.
         11    1    3    3    0    0 -0.18207921934E+02 -0.23961795409E+02  0.76653491682E+02  0.82349583165E+02  0.00000000000E+00 0. -1.
<mgrwt>
<rscale>  0 0.15882436E+03</rscale>
<asrwt>0</asrwt>
<pdfrwt beam="1">  1        1 0.28953019E-01 0.16556152E+03</pdfrwt>
<pdfrwt beam="2">  1       -1 0.21733824E-01 0.16556152E+03</pdfrwt>
<totfact> 0.27244272E+03</totfact>
</mgrwt>
</event>
<event>
 7    1  0.1111284E-005  0.1594492E+03  0.7546771E-02  0.1196668E+00
         -2   -1    0    0    0  501 -0.00000000000E+00  0.00000000000E+00  0.42217632752E+03  0.42217632752E+03  0.00000000000E+00 0.  1.
          2   -1    0    0  501    0  0.00000000000E+00 -0.00000000000E+00 -0.56926299644E+02  0.56926299644E+02  0.00000000000E+00 0. -1.
         23    2    1    2    0    0  0.71634979344E+02 -0.68326289580E+02  0.96059892529E+02  0.16623305567E+03  0.92767848586E+02 0.  0.
          5    1    1    2  502    0  0.11968794996E+02 -0.27748618643E+02  0.70117705045E+02  0.76497192439E+02  0.47000000000E+01 0.  1.
         -5    1    1    2    0  502 -0.83603774340E+02  0.96074908223E+02  0.19907243031E+03  0.23637237906E+03  0.47000000000E+01 0.  1.
        -11    1    3    3    0    0  0.78509909470E+02 -0.85240206796E+02  0.73577984550E+02  0.13727133186E+03  0.00000000000E+00 0. -1.
         11    1    3    3    0    0 -0.68749301260E+01  0.16913917215E+02  0.22481907979E+02  0.28961723813E+02  0.00000000000E+00 0.  1.
<mgrwt>
<rscale>  0 0.15313922E+03</rscale>
<asrwt>0</asrwt>
<pdfrwt beam="2">  1        2 0.87578925E-02 0.15944918E+03</pdfrwt>
<pdfrwt beam="1">  1       -2 0.64950202E-01 0.15944918E+03</pdfrwt>
<totfact> 0.16546590E+03</totfact>
</mgrwt>
</event>
<event>
 7    1  0.1111284E-005  0.1451773E+03  0.7546771E-02  0.1216562E+00
          3   -1    0    0  501    0  0.00000000000E+00  0.00000000000E+00  0.18993972951E+02  0.18993972951E+02  0.00000000000E+00 0. -1.
         -3   -1    0    0    0  501 -0.00000000000E+00 -0.00000000000E+00 -0.90946919205E+03  0.90946919205E+03  0.00000000000E+00 0.  1.
         23    2    1    2    0    0 -0.95811352068E+00  0.73825148864E+02 -0.42486234345E+03  0.44074212669E+03  0.91074369466E+02 0.  0.
          5    1    1    2  502    0 -0.31527587981E+02 -0.31365084427E+02 -0.44104114221E+02  0.62809395924E+02  0.47000000000E+01 0.  1.
         -5    1    1    2    0  502  0.32485701502E+02 -0.42460064437E+02 -0.42150876143E+03  0.42491164239E+03  0.47000000000E+01 0.  1.
        -11    1    3    3    0    0 -0.40184759574E+02  0.56961212077E+02 -0.19841159777E+03  0.21030110963E+03  0.00000000000E+00 0. -1.
         11    1    3    3    0    0  0.39226646053E+02  0.16863936787E+02 -0.22645074568E+03  0.23044101706E+03  0.00000000000E+00 0.  1.
<mgrwt>
<rscale>  0 0.13762415E+03</rscale>
<asrwt>0</asrwt>
<pdfrwt beam="1">  1        3 0.29221495E-02 0.14517734E+03</pdfrwt>
<pdfrwt beam="2">  1       -3 0.13991835E+00 0.14517734E+03</pdfrwt>
<totfact> 0.50743850E+02</totfact>
</mgrwt>
</event>
<event>
 7    1  0.1111284E-005  0.1323920E+03  0.7546771E-02  0.1236777E+00
         -1   -1    0    0    0  501 -0.00000000000E+00  0.00000000000E+00  0.16067498634E+02  0.16067498634E+02  0.00000000000E+00 0.  1.
          1   -1    0    0  501    0  0.00000000000E+00 -0.00000000000E+00 -0.86396022203E+03  0.86396022203E+03  0.00000000000E+00 0. -1.
         23    2    1    2    0    0  0.22845034711E+02 -0.37159895563E+02 -0.31740352517E+03  0.33326778569E+03  0.91758736559E+02 0.  0.
          5    1    1    2  502    0 -0.38840774423E+02 -0.26612888292E+02 -0.37362216900E+03  0.37660651448E+03  0.47000000000E+01 0.  1.
         -5    1    1    2    0  502  0.15995739712E+02  0.63772783855E+02 -0.15686702922E+03  0.17015342049E+03  0.47000000000E+01 0.  1.
        -11    1    3    3    0    0 -0.13993984009E+02  0.23397077177E+02 -0.53973015770E+02  0.60467687571E+02  0.00000000000E+00 0.  1.
         11    1    3    3    0    0  0.36839018720E+02 -0.60556972739E+02 -0.26343050941E+03  0.27280009812E+03  0.00000000000E+00 0. -1.
<mgrwt>
<rscale>  0 0.12391359E+03</rscale>
<asrwt>0</asrwt>
<pdfrwt beam="2">  1        1 0.13291696E+00 0.13239198E+03</pdfrwt>
<pdfrwt beam="1">  1       -1 0.24719229E-02 0.13239198E+03</pdfrwt>
<totfact> 0.98433249E+03</totfact>
</mgrwt>
</event>
<event>
 7    1  0.1111284E-005  0.1292003E+03  0.7546771E-02  0.1241287E+00
         -1   -1    0    0    0  501 -0.00000000000E+00  0.00000000000E+00  0.42369578026E+02  0.42369578026E+02  0.00000000000E+00 0.  1.
          1   -1    0    0  501    0  0.00000000000E+00 -0.00000000000E+00 -0.31395917121E+03  0.31395917121E+03  0.00000000000E+00 0. -1.
         23    2    1    2    0    0  0.21378475832E+02  0.24708068345E+02 -0.14022033071E+03  0.17207185072E+03  0.94230848434E+02 0.  0.
          5    1    1    2  502    0  0.23113492995E+01  0.29535239779E+02  0.94350836575E+01  0.31444928495E+02  0.47000000000E+01 0.  1.
         -5    1    1    2    0  502 -0.23689825131E+02 -0.54243308124E+02 -0.14080434613E+03  0.15281197002E+03  0.47000000000E+01 0.  1.
        -11    1    3    3    0    0 -0.14435009716E+02  0.38446483023E+02 -0.12364324931E+03  0.13028489806E+03  0.00000000000E+00 0. -1.
         11    1    3    3    0    0  0.35813485548E+02 -0.13738414678E+02 -0.16577081394E+02  0.41786952658E+02  0.00000000000E+00 0.  1.
<mgrwt>
<rscale>  0 0.12110417E+03</rscale>
<asrwt>0</asrwt>
<pdfrwt beam="2">  1        1 0.48301411E-01 0.12920032E+03</pdfrwt>
<pdfrwt beam="1">  1       -1 0.65183966E-02 0.12920032E+03</pdfrwt>
<totfact> 0.91984874E+03</totfact>
</mgrwt>
</event>
<event>
 7    1  0.1111284E-005  0.1357623E+03  0.7546771E-02  0.1231705E+00
          2   -1    0    0  501    0  0.00000000000E+00  0.00000000000E+00  0.25547443992E+03  0.25547443992E+03  0.00000000000E+00 0. -1.
         -2   -1    0    0    0  501 -0.00000000000E+00 -0.00000000000E+00 -0.60398298689E+02  0.60398298689E+02  0.00000000000E+00 0.  1.
         23    2    1    2    0    0 -0.52755453178E+02  0.42645791919E+01  0.12543652029E+03  0.16329138262E+03  0.90157809077E+02 0.  0.
          5    1    1    2  502    0  0.91472565327E+02  0.41078380281E+01  0.65073245333E+02  0.11243096459E+03  0.47000000000E+01 0.  1.
         -5    1    1    2    0  502 -0.38717112149E+02 -0.83724172200E+01  0.45663755984E+01  0.40150391398E+02  0.47000000000E+01 0.  1.
        -11    1    3    3    0    0 -0.24491262107E+02 -0.40468011061E+02  0.36271663968E+02  0.59608014946E+02  0.00000000000E+00 0.  1.
         11    1    3    3    0    0 -0.28264191071E+02  0.44732590253E+02  0.89164856327E+02  0.10368336767E+03  0.00000000000E+00 0. -1.
<mgrwt>
<rscale>  0 0.12717760E+03</rscale>
<asrwt>0</asrwt>
<pdfrwt beam="1">  1        2 0.39303760E-01 0.13576227E+03</pdfrwt>
<pdfrwt beam="2">  1       -2 0.92920460E-02 0.13576227E+03</pdfrwt>
<totfact> 0.91969679E+03</totfact>
</mgrwt>
</event>
<event>
 7    1  0.1111284E-005  0.1260151E+03  0.7546771E-02  0.1247558E+00
          1   -1    0    0  501    0  0.00000000000E+00  0.00000000000E+00  0.22089571963E+03  0.22089571963E+03  0.00000000000E+00 0. -1.
         -1   -1    0    0    0  501 -0.00000000000E+00 -0.00000000000E+00 -0.63461176628E+02  0.63461176628E+02  0.00000000000E+00 0.  1.
         23    2    1    2    0    0 -0.82366529335E+01 -0.13865400939E+02  0.12003817699E+03  0.15290999415E+03  0.93339223164E+02 0.  0.
          5    1    1    2  502    0  0.20056125454E+02 -0.34598141455E+02 -0.28013140028E+02  0.49052070034E+02  0.47000000000E+01 0.  1.
         -5    1    1    2    0  502 -0.11819472520E+02  0.48463542394E+02  0.65409506035E+02  0.82394832069E+02  0.47000000000E+01 0.  1.
        -11    1    3    3    0    0 -0.12485855145E+02  0.38109879535E+02  0.69792140282E+02  0.80493492544E+02  0.00000000000E+00 0. -1.
         11    1    3    3    0    0  0.42492022112E+01 -0.51975280474E+02  0.50246036709E+02  0.72416501605E+02  0.00000000000E+00 0.  1.
<mgrwt>
<rscale>  0 0.11733562E+03</rscale>
<asrwt>0</asrwt>
<pdfrwt beam="1">  1        1 0.33983956E-01 0.12601508E+03</pdfrwt>
<pdfrwt beam="2">  1       -1 0.97632581E-02 0.12601508E+03</pdfrwt>
<totfact> 0.77113295E+03</totfact>
</mgrwt>
</event>
<event>
 7    1  0.1111284E-005  0.1728544E+03  0.7546771E-02  0.1180682E+00
         -2   -1    0    0    0  501 -0.00000000000E+00  0.00000000000E+00  0.18848110813E+02  0.18848110813E+02  0.00000000000E+00 0.  1.
          2   -1    0    0  501    0  0.00000000000E+00 -0.00000000000E+00 -0.14157758381E+04  0.14157758381E+04  0.00000000000E+00 0. -1.
         23    2    1    2    0    0  0.18055402411E+02 -0.11799995957E+03 -0.73519344226E+03  0.75068616149E+03  0.93650026671E+02 0.  0.
          5    1    1    2  502    0 -0.84211935719E+01  0.11817590795E+03 -0.30789585947E+03  0.32993698186E+03  0.47000000000E+01 0. -1.
         -5    1    1    2    0  502 -0.96342088392E+01 -0.17594838089E+00 -0.35383842558E+03  0.35400080559E+03  0.47000000000E+01 0. -1.
        -11    1    3    3    0    0  0.17460027469E+02 -0.13101577898E+03 -0.71125179471E+03  0.72342871272E+03  0.00000000000E+00 0. -1.
         11    1    3    3    0    0  0.59537494252E+00  0.13015819413E+02 -0.23941647547E+02  0.27257448773E+02  0.00000000000E+00 0.  1.
<mgrwt>
<rscale>  0 0.16731088E+03</rscale>
<asrwt>0</asrwt>
<pdfrwt beam="2">  1        2 0.21781171E+00 0.17285437E+03</pdfrwt>
<pdfrwt beam="1">  1       -2 0.28997087E-02 0.17285437E+03</pdfrwt>
<totfact> 0.66678809E+03</totfact>
</mgrwt>
</event>
<event>
 7    1  0.1117985E-005  0.1529986E+03  0.7546771E-02  0.1205645E+00
          1   -1    0    0  501    0  0.00000000000E+00  0.00000000000E+00  0.26461142257E+03  0.26461142257E+03  0.00000000000E+00 0. -1.
         -1   -1    0    0    0  501 -0.00000000000E+00 -0.00000000000E+00 -0.76798827880E+02  0.76798827880E+02  0.00000000000E+00 0.  1.
         23    2    1    2    0    0  0.88146006710E+02 -0.37737717559E+01  0.11914812980E+03  0.17370996112E+03  0.90525763774E+02 0.  0.
          5    1    1    2  502    0 -0.69990813163E+02 -0.28395101352E+02 -0.14068322919E+02  0.76974043793E+02  0.47000000000E+01 0. -1.
         -5    1    1    2    0  502 -0.18155193547E+02  0.32168873108E+02  0.82732787811E+02  0.90726245535E+02  0.47000000000E+01 0. -1.
        -11    1    3    3    0    0 -0.27725601863E+01 -0.26661201635E+02  0.51629153808E+02  0.58172813972E+02  0.00000000000E+00 0. -1.
         11    1    3    3    0    0  0.90918566897E+02  0.22887429879E+02  0.67518975991E+02  0.11553714715E+03  0.00000000000E+00 0.  1.
<mgrwt>
<rscale>  0 0.14586762E+03</rscale>
<asrwt>0</asrwt>
<pdfrwt beam="1">  1        1 0.40709449E-01 0.15299862E+03</pdfrwt>
<pdfrwt beam="2">  1       -1 0.11815204E-01 0.15299862E+03</pdfrwt>
<totfact> 0.46594017E+03</totfact>
</mgrwt>
</event>
<event>
 7    1  0.1111284E-005  0.1476479E+03  0.7546771E-02  0.1212557E+00
         -1   -1    0    0    0  501 -0.00000000000E+00  0.00000000000E+00  0.12723725571E+03  0.12723725571E+03  0.00000000000E+00 0.  1.
          1   -1    0    0  501    0  0.00000000000E+00 -0.00000000000E+00 -0.16543063844E+03  0.16543063844E+03  0.00000000000E+00 0. -1.
         23    2    1    2    0    0  0.52078817635E+02  0.58805479952E+02 -0.72161626501E+02  0.14116295146E+03  0.92462915841E+02 0.  0.
          5    1    1    2  502    0  0.30727835643E+02 -0.56213027891E+02  0.90903377684E+01  0.64875485577E+02  0.47000000000E+01 0.  1.
         -5    1    1    2    0  502 -0.82806653278E+02 -0.25924520610E+01  0.24877906002E+02  0.86629457126E+02  0.47000000000E+01 0.  1.
        -11    1    3    3    0    0  0.40025081938E+02  0.53289908106E+02 -0.94231392798E+02  0.11541826926E+03  0.00000000000E+00 0. -1.
         11    1    3    3    0    0  0.12053735697E+02  0.55155718465E+01  0.22069766297E+02  0.25744682198E+02  0.00000000000E+00 0.  1.
<mgrwt>
<rscale>  0 0.14057490E+03</rscale>
<asrwt>0</asrwt>
<pdfrwt beam="2">  1        1 0.25450867E-01 0.14764791E+03</pdfrwt>
<pdfrwt beam="1">  1       -1 0.19574963E-01 0.14764791E+03</pdfrwt>
<totfact> 0.37725385E+03</totfact>
</mgrwt>
</event>
<event>
 7    1  0.1111284E-005  0.2028974E+03  0.7546771E-02  0.1151359E+00
         -2   -1    0    0    0  501 -0.00000000000E+00  0.00000000000E+00  0.84105359042E+03  0.84105359042E+03  0.00000000000E+00 0. -1.
          2   -1    0    0  501    0  0.00000000000E+00 -0.00000000000E+00 -0.45196997939E+02  0.45196997939E+02  0.00000000000E+00 0.  1.
         23    2    1    2    0    0  0.89482235893E+02 -0.13237735886E+03  0.32716826883E+03  0.37552942595E+03  0.91937141296E+02 0.  0.
          5    1    1    2  502    0 -0.14994991471E+02  0.12710451417E+03  0.29434371020E+03  0.32099955923E+03  0.47000000000E+01 0. -1.
         -5    1    1    2    0  502 -0.74487244422E+02  0.52728446876E+01  0.17434461346E+03  0.18972160318E+03  0.47000000000E+01 0. -1.
        -11    1    3    3    0    0 -0.15551676005E+02 -0.33648451831E+01  0.15356396469E+02  0.22113247662E+02  0.00000000000E+00 0.  1.
         11    1    3    3    0    0  0.10503391190E+03 -0.12901251367E+03  0.31181187236E+03  0.35341617829E+03  0.00000000000E+00 0. -1.
<mgrwt>
<rscale>  0 0.19809136E+03</rscale>
<asrwt>0</asrwt>
<pdfrwt beam="2">  1        2 0.69533849E-02 0.20289741E+03</pdfrwt>
<pdfrwt beam="1">  1       -2 0.12939285E+00 0.20289741E+03</pdfrwt>
<totfact> 0.46711030E+02</totfact>
</mgrwt>
</event>
<event>
 7    1  0.1111284E-005  0.1536583E+03  0.7546771E-02  0.1206377E+00
          1   -1    0    0  501    0  0.00000000000E+00  0.00000000000E+00  0.49797388907E+03  0.49797388907E+03  0.00000000000E+00 0. -1.
         -1   -1    0    0    0  501 -0.00000000000E+00 -0.00000000000E+00 -0.38631878684E+02  0.38631878684E+02  0.00000000000E+00 0.  1.
         23    2    1    2    0    0 -0.82032110984E+02  0.35448326426E+02  0.22574196908E+03  0.25699917820E+03  0.84281017522E+02 0.  0.
          5    1    1    2  502    0  0.55950013331E+02  0.20928933732E+02  0.20009048593E+03  0.20887009556E+03  0.47000000000E+01 0. -1.
         -5    1    1    2    0  502  0.26082097652E+02 -0.56377260158E+02  0.33509555378E+02  0.70736493994E+02  0.47000000000E+01 0. -1.
        -11    1    3    3    0    0 -0.33837610264E+02  0.55845051093E+02  0.87463853875E+02  0.10914934418E+03  0.00000000000E+00 0.  1.
         11    1    3    3    0    0 -0.48194500719E+02 -0.20396724666E+02  0.13827811520E+03  0.14784983402E+03  0.00000000000E+00 0. -1.
<mgrwt>
<rscale>  0 0.14529479E+03</rscale>
<asrwt>0</asrwt>
<pdfrwt beam="1">  1        1 0.76611363E-01 0.15365828E+03</pdfrwt>
<pdfrwt beam="2">  1       -1 0.59433663E-02 0.15365828E+03</pdfrwt>
<totfact> 0.59559622E+03</totfact>
</mgrwt>
</event>
<event>
 7    1  0.1111284E-005  0.2148156E+03  0.7546771E-02  0.1141360E+00
          2   -1    0    0  501    0  0.00000000000E+00  0.00000000000E+00  0.32082269200E+03  0.32082269200E+03  0.00000000000E+00 0.  1.
         -2   -1    0    0    0  501 -0.00000000000E+00 -0.00000000000E+00 -0.15741229886E+03  0.15741229886E+03  0.00000000000E+00 0. -1.
         23    2    1    2    0    0  0.14369598363E+03 -0.99293617375E+02  0.17427225314E+03  0.26314493220E+03  0.91469552107E+02 0.  0.
          5    1    1    2  502    0 -0.78690353336E+02  0.11165966927E+03 -0.40319805086E+02  0.14250554422E+03  0.47000000000E+01 0. -1.
         -5    1    1    2    0  502 -0.65005630293E+02 -0.12366051899E+02  0.29457945080E+02  0.72584514449E+02  0.47000000000E+01 0. -1.
        -11    1    3    3    0    0  0.35653800415E+02 -0.35940792221E+01  0.87948122747E+02  0.94968327269E+02  0.00000000000E+00 0.  1.
         11    1    3    3    0    0  0.10804218321E+03 -0.95699538153E+02  0.86324130396E+02  0.16817660493E+03  0.00000000000E+00 0. -1.
<mgrwt>
<rscale>  0 0.21026037E+03</rscale>
<asrwt>0</asrwt>
<pdfrwt beam="1">  1        2 0.49357337E-01 0.21481563E+03</pdfrwt>
<pdfrwt beam="2">  1       -2 0.24217277E-01 0.21481563E+03</pdfrwt>
<totfact> 0.15199856E+03</totfact>
</mgrwt>
</event>
<event>
 7    1  0.1111284E-005  0.1602427E+03  0.7546771E-02  0.1197472E+00
          1   -1    0    0  501    0  0.00000000000E+00  0.00000000000E+00  0.76586597324E+02  0.76586597324E+02  0.00000000000E+00 0. -1.
         -1   -1    0    0    0  501 -0.00000000000E+00 -0.00000000000E+00 -0.34607104472E+03  0.34607104472E+03  0.00000000000E+00 0.  1.
         23    2    1    2    0    0  0.10241054255E+02  0.92819401440E+02 -0.30348732829E+02  0.13479724686E+03  0.92352215464E+02 0.  0.
          5    1    1    2  502    0 -0.28387469790E+02 -0.52511724945E+02 -0.18325279762E+02  0.62619769851E+02  0.47000000000E+01 0. -1.
         -5    1    1    2    0  502  0.18146415535E+02 -0.40307676495E+02 -0.22081043480E+03  0.22524062533E+03  0.47000000000E+01 0.  1.
        -11    1    3    3    0    0 -0.30488395955E+02  0.23197439262E+01  0.13756700712E+01  0.30607449549E+02  0.00000000000E+00 0.  1.
         11    1    3    3    0    0  0.40729450210E+02  0.90499657514E+02 -0.31724402900E+02  0.10418979731E+03  0.00000000000E+00 0. -1.
<mgrwt>
<rscale>  0 0.15246843E+03</rscale>
<asrwt>0</asrwt>
<pdfrwt beam="1">  1        1 0.11782553E-01 0.16024268E+03</pdfrwt>
<pdfrwt beam="2">  1       -1 0.53241701E-01 0.16024268E+03</pdfrwt>
<totfact> 0.18416919E+03</totfact>
</mgrwt>
</event>
<event>
 7    1  0.1111284E-005  0.1829138E+03  0.7546771E-02  0.1166779E+00
         -2   -1    0    0    0  501 -0.00000000000E+00  0.00000000000E+00  0.49818352120E+03  0.49818352120E+03  0.00000000000E+00 0.  1.
          2   -1    0    0  501    0  0.00000000000E+00 -0.00000000000E+00 -0.81018290203E+02  0.81018290203E+02  0.00000000000E+00 0. -1.
         23    2    1    2    0    0 -0.12301241527E+03  0.52023596979E+02  0.74488434958E+02  0.19076283865E+03  0.11403255988E+03 0.  0.
          5    1    1    2  502    0  0.59727030530E+02 -0.90159081623E+02  0.21906008464E+03  0.24434686177E+03  0.47000000000E+01 0. -1.
         -5    1    1    2    0  502  0.63285384738E+02  0.38135484644E+02  0.12361671140E+03  0.14409211098E+03  0.47000000000E+01 0. -1.
        -11    1    3    3    0    0 -0.80129578803E+02 -0.97551416695E+01 -0.55817071985E+01  0.80913952093E+02  0.00000000000E+00 0. -1.
         11    1    3    3    0    0 -0.42882836465E+02  0.61778738648E+02  0.80070142156E+02  0.10984888655E+03  0.00000000000E+00 0.  1.
<mgrwt>
<rscale>  0 0.18106208E+03</rscale>
<asrwt>0</asrwt>
<pdfrwt beam="2">  1        2 0.12464353E-01 0.18291377E+03</pdfrwt>
<pdfrwt beam="1">  1       -2 0.76643617E-01 0.18291377E+03</pdfrwt>
<totfact> 0.75668602E+02</totfact>
</mgrwt>
</event>
<event>
 7    1  0.1111284E-005  0.1378146E+03  0.7546771E-02  0.1222364E+00
          1   -1    0    0  501    0  0.00000000000E+00  0.00000000000E+00  0.16823352930E+03  0.16823352930E+03  0.00000000000E+00 0. -1.
         -1   -1    0    0    0  501 -0.00000000000E+00 -0.00000000000E+00 -0.25990818714E+03  0.25990818714E+03  0.00000000000E+00 0.  1.
         23    2    1    2    0    0  0.68808664210E+02 -0.23095553433E+02  0.12317551539E+03  0.17288997235E+03  0.97214700995E+02 0.  0.
          5    1    1    2  502    0 -0.95590586227E+02 -0.75081126652E+01 -0.13690078714E+03  0.16720600303E+03  0.47000000000E+01 0. -1.
         -5    1    1    2    0  502  0.26781922017E+02  0.30603666098E+02 -0.77949386093E+02  0.88045741055E+02  0.47000000000E+01 0.  1.
        -11    1    3    3    0    0 -0.13700413933E+02 -0.98260544558E+01  0.74062866417E+02  0.75957625490E+02  0.00000000000E+00 0.  1.
         11    1    3    3    0    0  0.82509078143E+02 -0.13269498977E+02  0.49112648970E+02  0.96932346860E+02  0.00000000000E+00 0. -1.
<mgrwt>
<rscale>  0 0.13349198E+03</rscale>
<asrwt>0</asrwt>
<pdfrwt beam="1">  1        1 0.25882082E-01 0.13781457E+03</pdfrwt>
<pdfrwt beam="2">  1       -1 0.39985875E-01 0.13781457E+03</pdfrwt>
<totfact> 0.11168737E+03</totfact>
</mgrwt>
</event>
<event>
 7    1  0.1111284E-005  0.2979956E+03  0.7546771E-02  0.1118498E+00
          2   -1    0    0  501    0  0.00000000000E+00  0.00000000000E+00  0.22287694695E+03  0.22287694695E+03  0.00000000000E+00 0. -1.
         -2   -1    0    0    0  501 -0.00000000000E+00 -0.00000000000E+00 -0.20579440420E+03  0.20579440420E+03  0.00000000000E+00 0.  1.
         23    2    1    2    0    0  0.73636430577E+02 -0.51313095698E+02  0.17425649841E+02  0.13067559603E+03  0.93365413440E+02 0.  0.
          5    1    1    2  502    0  0.53476402322E+02  0.77598277485E+02  0.97271095423E+02  0.13551743164E+03  0.47000000000E+01 0. -1.
         -5    1    1    2    0  502 -0.12711283290E+03 -0.26285181787E+02 -0.97614202508E+02  0.16247832348E+03  0.47000000000E+01 0.  1.
        -11    1    3    3    0    0  0.88521012418E+02 -0.19622822202E+02 -0.18891134281E+01  0.90689544824E+02  0.00000000000E+00 0.  1.
         11    1    3    3    0    0 -0.14884581842E+02 -0.31690273496E+02  0.19314763269E+02  0.39986051205E+02  0.00000000000E+00 0. -1.
<mgrwt>
<rscale>  0 0.24195351E+03</rscale>
<asrwt>0</asrwt>
<pdfrwt beam="1">  1        2 0.34288761E-01 0.29799556E+03</pdfrwt>
<pdfrwt beam="2">  1       -2 0.31660677E-01 0.29799556E+03</pdfrwt>
<totfact> 0.14026154E+03</totfact>
</mgrwt>
</event>
<event>
 7    1  0.1111284E-005  0.2302384E+03  0.7546771E-02  0.1129481E+00
         -1   -1    0    0    0  501 -0.00000000000E+00  0.00000000000E+00  0.87992636472E+02  0.87992636472E+02  0.00000000000E+00 0.  1.
          1   -1    0    0  501    0  0.00000000000E+00 -0.00000000000E+00 -0.65286646255E+03  0.65286646255E+03  0.00000000000E+00 0. -1.
         23    2    1    2    0    0  0.11040032570E+03  0.15872854483E+03 -0.41297671041E+03  0.46502863352E+03  0.91207915226E+02 0.  0.
          5    1    1    2  502    0  0.23443230567E+02 -0.18748336888E+02 -0.45772155510E+02  0.54938742391E+02  0.47000000000E+01 0. -1.
         -5    1    1    2    0  502 -0.13384355626E+03 -0.13998020794E+03 -0.10612496017E+03  0.22089172311E+03  0.47000000000E+01 0. -1.
        -11    1    3    3    0    0  0.38988435665E+02  0.50342898412E+02 -0.54626462614E+02  0.83896102137E+02  0.00000000000E+00 0.  1.
         11    1    3    3    0    0  0.71411890032E+02  0.10838564642E+03 -0.35835024779E+03  0.38113253138E+03  0.00000000000E+00 0. -1.
<mgrwt>
<rscale>  0 0.22600864E+03</rscale>
<asrwt>0</asrwt>
<pdfrwt beam="2">  1        1 0.10044099E+00 0.23023838E+03</pdfrwt>
<pdfrwt beam="1">  1       -1 0.13537329E-01 0.23023838E+03</pdfrwt>
<totfact> 0.11815744E+03</totfact>
</mgrwt>
</event>
<event>
 7    1  0.1111284E-005  0.1623106E+03  0.7546771E-02  0.1191559E+00
         -1   -1    0    0    0  501 -0.00000000000E+00  0.00000000000E+00  0.21686132019E+02  0.21686132019E+02  0.00000000000E+00 0.  1.
          1   -1    0    0  501    0  0.00000000000E+00 -0.00000000000E+00 -0.11395417408E+04  0.11395417408E+04  0.00000000000E+00 0. -1.
         23    2    1    2    0    0  0.82748152358E+02 -0.73749335305E+02 -0.65867653857E+03  0.67420615015E+03  0.91722021666E+02 0.  0.
          5    1    1    2  502    0  0.27445528392E+02 -0.11500182579E+01 -0.10316661537E+03  0.10686449409E+03  0.47000000000E+01 0. -1.
         -5    1    1    2    0  502 -0.11019368075E+03  0.74899353563E+02 -0.35601245489E+03  0.38015722863E+03  0.47000000000E+01 0.  1.
        -11    1    3    3    0    0  0.45611295088E+02 -0.91659235768E+02 -0.45068134296E+03  0.46216390883E+03  0.00000000000E+00 0. -1.
         11    1    3    3    0    0  0.37136857270E+02  0.17909900463E+02 -0.20799519562E+03  0.21204224132E+03  0.00000000000E+00 0.  1.
<mgrwt>
<rscale>  0 0.15749047E+03</rscale>
<asrwt>0</asrwt>
<pdfrwt beam="2">  1        1 0.17531414E+00 0.16231063E+03</pdfrwt>
<pdfrwt beam="1">  1       -1 0.33363275E-02 0.16231063E+03</pdfrwt>
<totfact> 0.40206184E+03</totfact>
</mgrwt>
</event>
<event>
 7    1  0.1111284E-005  0.2188539E+03  0.7546771E-02  0.1134740E+00
          1   -1    0    0  501    0  0.00000000000E+00  0.00000000000E+00  0.31953851174E+03  0.31953851174E+03  0.00000000000E+00 0. -1.
         -1   -1    0    0    0  501 -0.00000000000E+00 -0.00000000000E+00 -0.37473610048E+02  0.37473610048E+02  0.00000000000E+00 0.  1.
         23    2    1    2    0    0 -0.15351182716E+02  0.82844300898E+01  0.11994888093E+03  0.15156313247E+03  0.90990980299E+02 0.  0.
          5    1    1    2  502    0  0.69013685902E+02 -0.11724032683E+02  0.72917541761E+02  0.10118991887E+03  0.47000000000E+01 0. -1.
         -5    1    1    2    0  502 -0.53662503187E+02  0.34396025936E+01  0.89198479001E+02  0.10425907045E+03  0.47000000000E+01 0. -1.
        -11    1    3    3    0    0 -0.96832137620E+00  0.37398834177E+02  0.12703770622E+02  0.39509444846E+02  0.00000000000E+00 0.  1.
         11    1    3    3    0    0 -0.14382861339E+02 -0.29114404087E+02  0.10724511030E+03  0.11205368762E+03  0.00000000000E+00 0. -1.
<mgrwt>
<rscale>  0 0.21885394E+03</rscale>
<asrwt>0</asrwt>
<pdfrwt beam="1">  1        1 0.49159769E-01 0.21885394E+03</pdfrwt>
<pdfrwt beam="2">  1       -1 0.57651710E-02 0.21885394E+03</pdfrwt>
<totfact> 0.11221788E+04</totfact>
</mgrwt>
</event>
<event>
 7    1  0.1111284E-005  0.1388380E+03  0.7546771E-02  0.1218670E+00
          4   -1    0    0  501    0  0.00000000000E+00  0.00000000000E+00  0.13160663175E+03  0.13160663175E+03  0.00000000000E+00 0. -1.
         -4   -1    0    0    0  501 -0.00000000000E+00 -0.00000000000E+00 -0.14276668270E+03  0.14276668270E+03  0.00000000000E+00 0.  1.
         23    2    1    2    0    0  0.46902594673E+02 -0.38192868458E+02  0.25603798751E+02  0.13075027076E+03  0.11305542979E+03 0.  0.
          5    1    1    2  502    0  0.68121729695E+01 -0.39081028588E+02 -0.28424482777E+02  0.49028295067E+02  0.47000000000E+01 0. -1.
         -5    1    1    2    0  502 -0.53714767643E+02  0.77273897046E+02 -0.83393669253E+01  0.94594748630E+02  0.47000000000E+01 0. -1.
        -11    1    3    3    0    0  0.62232827473E+02 -0.29881857325E+02  0.60465103159E+02  0.91770795532E+02  0.00000000000E+00 0. -1.
         11    1    3    3    0    0 -0.15330232800E+02 -0.83110111337E+01 -0.34861304408E+02  0.38979475225E+02  0.00000000000E+00 0.  1.
<mgrwt>
<rscale>  0 0.13610351E+03</rscale>
<asrwt>0</asrwt>
<pdfrwt beam="1">  1        4 0.20247174E-01 0.13883803E+03</pdfrwt>
<pdfrwt beam="2">  1       -4 0.21964105E-01 0.13883803E+03</pdfrwt>
<totfact> 0.69779233E+02</totfact>
</mgrwt>
</event>
<event>
 7    1  0.1111284E-005  0.1327162E+03  0.7546771E-02  0.1235129E+00
          2   -1    0    0  501    0  0.00000000000E+00  0.00000000000E+00  0.40692016968E+03  0.40692016968E+03  0.00000000000E+00 0. -1.
         -2   -1    0    0    0  501 -0.00000000000E+00 -0.00000000000E+00 -0.34571984768E+02  0.34571984768E+02  0.00000000000E+00 0.  1.
         23    2    1    2    0    0 -0.91052104510E+01  0.43654425452E+02  0.15514749143E+03  0.18695387388E+03  0.94299486432E+02 0.  0.
          5    1    1    2  502    0 -0.14895047555E+02  0.39273523664E+02  0.10273652014E+03  0.11109074972E+03  0.47000000000E+01 0. -1.
         -5    1    1    2    0  502  0.24000258006E+02 -0.82927949116E+02  0.11446417334E+03  0.14344753085E+03  0.47000000000E+01 0. -1.
        -11    1    3    3    0    0  0.36331438974E+02  0.45307413805E+02  0.98135651743E+02  0.11403219434E+03  0.00000000000E+00 0. -1.
         11    1    3    3    0    0 -0.45436649425E+02 -0.16529883531E+01  0.57011839689E+02  0.72921679534E+02  0.00000000000E+00 0.  1.
<mgrwt>
<rscale>  0 0.12496162E+03</rscale>
<asrwt>0</asrwt>
<pdfrwt beam="1">  1        2 0.62603100E-01 0.13271622E+03</pdfrwt>
<pdfrwt beam="2">  1       -2 0.53187672E-02 0.13271622E+03</pdfrwt>
<totfact> 0.13162811E+04</totfact>
</mgrwt>
</event>
<event>
 7    1  0.1111284E-005  0.1403610E+03  0.7546771E-02  0.1224468E+00
          1   -1    0    0  501    0  0.00000000000E+00  0.00000000000E+00  0.73151420477E+02  0.73151420477E+02  0.00000000000E+00 0. -1.
         -1   -1    0    0    0  501 -0.00000000000E+00 -0.00000000000E+00 -0.23746909852E+03  0.23746909852E+03  0.00000000000E+00 0.  1.
         23    2    1    2    0    0  0.57232677761E+02  0.28287772186E+02 -0.24697687398E+02  0.11264333609E+03  0.89458191031E+02 0.  0.
          5    1    1    2  502    0 -0.83850447789E+02 -0.16471080828E+02 -0.14463116084E+03  0.16805492193E+03  0.47000000000E+01 0. -1.
         -5    1    1    2    0  502  0.26617770028E+02 -0.11816691358E+02  0.50111701935E+01  0.29922260987E+02  0.47000000000E+01 0. -1.
        -11    1    3    3    0    0 -0.12646182040E+02 -0.17096456025E+02  0.85658872659E+01  0.22925731253E+02  0.00000000000E+00 0. -1.
         11    1    3    3    0    0  0.69878859801E+02  0.45384228212E+02 -0.33263574664E+02  0.89717604833E+02  0.00000000000E+00 0.  1.
<mgrwt>
<rscale>  0 0.13203430E+03</rscale>
<asrwt>0</asrwt>
<pdfrwt beam="1">  1        1 0.11254065E-01 0.14036105E+03</pdfrwt>
<pdfrwt beam="2">  1       -1 0.36533708E-01 0.14036105E+03</pdfrwt>
<totfact> 0.38138944E+03</totfact>
</mgrwt>
</event>
<event>
 7    1  0.1111284E-005  0.2013991E+03  0.7546771E-02  0.1152780E+00
         -1   -1    0    0    0  501 -0.00000000000E+00  0.00000000000E+00  0.10718635129E+03  0.10718635129E+03  0.00000000000E+00 0.  1.
          1   -1    0    0  501    0  0.00000000000E+00 -0.00000000000E+00 -0.37439859556E+03  0.37439859556E+03  0.00000000000E+00 0. -1.
         23    2    1    2    0    0  0.12766571684E+03 -0.92921844896E+02 -0.19677142144E+03  0.26822257236E+03  0.91056858684E+02 0.  0.
          5    1    1    2  502    0 -0.14387008577E+03  0.47397426818E+02 -0.42719980937E+02  0.15745540454E+03  0.47000000000E+01 0.  1.
         -5    1    1    2    0  502  0.16204368926E+02  0.45524418078E+02 -0.27720841891E+02  0.55906969948E+02  0.47000000000E+01 0.  1.
        -11    1    3    3    0    0  0.22540701365E+02 -0.17912806493E+02  0.44414860860E+01  0.29132089749E+02  0.00000000000E+00 0.  1.
         11    1    3    3    0    0  0.10512501548E+03 -0.75009038402E+02 -0.20121290753E+03  0.23909048261E+03  0.00000000000E+00 0. -1.
<mgrwt>
<rscale>  0 0.19643786E+03</rscale>
<asrwt>0</asrwt>
<pdfrwt beam="2">  1        1 0.57599784E-01 0.20139909E+03</pdfrwt>
<pdfrwt beam="1">  1       -1 0.16490208E-01 0.20139909E+03</pdfrwt>
<totfact> 0.18072818E+03</totfact>
</mgrwt>
</event>
<event>
 7    1  0.1111284E-005  0.1302857E+03  0.7546771E-02  0.1240298E+00
          2   -1    0    0  501    0  0.00000000000E+00  0.00000000000E+00  0.48264694520E+02  0.48264694520E+02  0.00000000000E+00 0. -1.
         -2   -1    0    0    0  501 -0.00000000000E+00 -0.00000000000E+00 -0.39551125077E+03  0.39551125077E+03  0.00000000000E+00 0.  1.
         23    2    1    2    0    0 -0.29400656064E+02 -0.22144012291E+02 -0.34639144487E+02  0.10510538022E+03  0.92154841231E+02 0.  0.
          5    1    1    2  502    0 -0.14464242824E+02 -0.26831547517E+02 -0.15841722112E+02  0.34672704280E+02  0.47000000000E+01 0. -1.
         -5    1    1    2    0  502  0.43864898888E+02  0.48975559808E+02 -0.29676568965E+03  0.30399786079E+03  0.47000000000E+01 0. -1.
        -11    1    3    3    0    0 -0.11688880982E+02  0.34898455383E+02 -0.15800650433E+01  0.36837870897E+02  0.00000000000E+00 0.  1.
         11    1    3    3    0    0 -0.17711775083E+02 -0.57042467674E+02 -0.33059079444E+02  0.68267509319E+02  0.00000000000E+00 0. -1.
<mgrwt>
<rscale>  0 0.12171301E+03</rscale>
<asrwt>0</asrwt>
<pdfrwt beam="1">  1        2 0.74253379E-02 0.13028568E+03</pdfrwt>
<pdfrwt beam="2">  1       -2 0.60847882E-01 0.13028568E+03</pdfrwt>
<totfact> 0.23064750E+03</totfact>
</mgrwt>
</event>
<event>
 7    1  0.1111284E-005  0.1322543E+03  0.7546771E-02  0.1237446E+00
         -3   -1    0    0    0  501 -0.00000000000E+00  0.00000000000E+00  0.22965553538E+03  0.22965553538E+03  0.00000000000E+00 0.  1.
          3   -1    0    0  501    0  0.00000000000E+00 -0.00000000000E+00 -0.59652233156E+02  0.59652233156E+02  0.00000000000E+00 0. -1.
         23    2    1    2    0    0 -0.33167761986E+02  0.27678331836E+02  0.58468688518E+02  0.11630150373E+03  0.90781395363E+02 0.  0.
          5    1    1    2  502    0 -0.12888182252E+02  0.33445810918E+02  0.84148966409E+02  0.91585293893E+02  0.47000000000E+01 0. -1.
         -5    1    1    2    0  502  0.46055944238E+02 -0.61124142754E+02  0.27385647299E+02  0.81420970917E+02  0.47000000000E+01 0. -1.
        -11    1    3    3    0    0 -0.15361705627E+02  0.12874735488E+02 -0.23638080205E+02  0.30991928779E+02  0.00000000000E+00 0. -1.
         11    1    3    3    0    0 -0.17806056359E+02  0.14803596348E+02  0.82106768723E+02  0.85309574949E+02  0.00000000000E+00 0.  1.
<mgrwt>
<rscale>  0 0.12349164E+03</rscale>
<asrwt>0</asrwt>
<pdfrwt beam="2">  1        3 0.91772667E-02 0.13225429E+03</pdfrwt>
<pdfrwt beam="1">  1       -3 0.35331620E-01 0.13225429E+03</pdfrwt>
<totfact> 0.15351863E+03</totfact>
</mgrwt>
</event>
<event>
 7    1  0.1111284E-005  0.1502076E+03  0.7546771E-02  0.1206628E+00
         -1   -1    0    0    0  501 -0.00000000000E+00  0.00000000000E+00  0.26645421538E+03  0.26645421538E+03  0.00000000000E+00 0.  1.
          1   -1    0    0  501    0  0.00000000000E+00 -0.00000000000E+00 -0.74886535722E+02  0.74886535722E+02  0.00000000000E+00 0. -1.
         23    2    1    2    0    0  0.82861818337E+02 -0.83270184555E+01  0.71623766579E+02  0.14911984565E+03  0.10085308251E+03 0.  0.
          5    1    1    2  502    0  0.80202712185E+01 -0.42152584697E+01 -0.21364247475E+02  0.23677293438E+02  0.47000000000E+01 0. -1.
         -5    1    1    2    0  502 -0.90882089556E+02  0.12542276925E+02  0.14130816055E+03  0.16854361201E+03  0.47000000000E+01 0. -1.
        -11    1    3    3    0    0  0.84305966192E+02  0.85562082678E+01  0.90346550272E+02  0.12386768659E+03  0.00000000000E+00 0.  1.
         11    1    3    3    0    0 -0.14441478553E+01 -0.16883226723E+02 -0.18722783694E+02  0.25252159053E+02  0.00000000000E+00 0. -1.
<mgrwt>
<rscale>  0 0.14509919E+03</rscale>
<asrwt>0</asrwt>
<pdfrwt beam="2">  1        1 0.11521006E-01 0.15020764E+03</pdfrwt>
<pdfrwt beam="1">  1       -1 0.40992956E-01 0.15020764E+03</pdfrwt>
<totfact> 0.30352480E+03</totfact>
</mgrwt>
</event>
<event>
 7    1  0.1111284E-005  0.1369656E+03  0.7546771E-02  0.1230129E+00
         -1   -1    0    0    0  501 -0.00000000000E+00  0.00000000000E+00  0.55516991261E+02  0.55516991261E+02  0.00000000000E+00 0.  1.
          1   -1    0    0  501    0  0.00000000000E+00 -0.00000000000E+00 -0.33271373720E+03  0.33271373720E+03  0.00000000000E+00 0. -1.
         23    2    1    2    0    0  0.27052817226E+02  0.49052085439E+02 -0.21174904366E+03  0.23643157140E+03  0.89018360234E+02 0.  0.
          5    1    1    2  502    0 -0.43018914850E+02 -0.78944002034E+02 -0.15644078404E+02  0.91376198657E+02  0.47000000000E+01 0.  1.
         -5    1    1    2    0  502  0.15966097623E+02  0.29891916595E+02 -0.49803623878E+02  0.60422958405E+02  0.47000000000E+01 0.  1.
        -11    1    3    3    0    0 -0.12669238456E+02 -0.13432061638E+02 -0.89102775258E+01  0.20501778667E+02  0.00000000000E+00 0.  1.
         11    1    3    3    0    0  0.39722055683E+02  0.62484147077E+02 -0.20283876613E+03  0.21592979274E+03  0.00000000000E+00 0. -1.
<mgrwt>
<rscale>  0 0.12821506E+03</rscale>
<asrwt>0</asrwt>
<pdfrwt beam="2">  1        1 0.51186729E-01 0.13696562E+03</pdfrwt>
<pdfrwt beam="1">  1       -1 0.85410755E-02 0.13696562E+03</pdfrwt>
<totfact> 0.57245441E+03</totfact>
</mgrwt>
</event>
<event>
 7    1  0.1111284E-005  0.1294351E+03  0.7546771E-02  0.1241925E+00
          4   -1    0    0  501    0  0.00000000000E+00  0.00000000000E+00  0.38733443359E+03  0.38733443359E+03  0.00000000000E+00 0. -1.
         -4   -1    0    0    0  501 -0.00000000000E+00 -0.00000000000E+00 -0.34340229105E+02  0.34340229105E+02  0.00000000000E+00 0.  1.
         23    2    1    2    0    0  0.11681331453E+02 -0.31500001032E+02  0.18797534779E+03  0.21194946027E+03  0.91973576427E+02 0.  0.
          5    1    1    2  502    0  0.23236943255E+02 -0.18559817965E+02  0.14065150163E+03  0.14383795495E+03  0.47000000000E+01 0.  1.
         -5    1    1    2    0  502 -0.34918274708E+02  0.50059818997E+02  0.24367355061E+02  0.65887247471E+02  0.47000000000E+01 0.  1.
        -11    1    3    3    0    0 -0.15905462503E+02  0.45821268618E+01 -0.19517145660E+01  0.16666997742E+02  0.00000000000E+00 0.  1.
         11    1    3    3    0    0  0.27586793956E+02 -0.36082127894E+02  0.18992706236E+03  0.19528246252E+03  0.00000000000E+00 0. -1.
<mgrwt>
<rscale>  0 0.12071301E+03</rscale>
<asrwt>0</asrwt>
<pdfrwt beam="1">  1        4 0.59589910E-01 0.12943507E+03</pdfrwt>
<pdfrwt beam="2">  1       -4 0.52831124E-02 0.12943507E+03</pdfrwt>
<totfact> 0.96240013E+02</totfact>
</mgrwt>
</event>
<event>
 7    1  0.1111284E-005  0.1308298E+03  0.7546771E-02  0.1238927E+00
         -1   -1    0    0    0  501 -0.00000000000E+00  0.00000000000E+00  0.41031703708E+03  0.41031703708E+03  0.00000000000E+00 0.  1.
          1   -1    0    0  501    0  0.00000000000E+00 -0.00000000000E+00 -0.34102538462E+02  0.34102538462E+02  0.00000000000E+00 0. -1.
         23    2    1    2    0    0  0.36238476635E+02 -0.13328511047E+02  0.11970803217E+03  0.15647514505E+03  0.93078362990E+02 0.  0.
          5    1    1    2  502    0 -0.50628321714E+02 -0.41244184455E+02  0.18791911745E+03  0.19899747338E+03  0.47000000000E+01 0.  1.
         -5    1    1    2    0  502  0.14389845078E+02  0.54572695503E+02  0.68587348999E+02  0.88946957107E+02  0.47000000000E+01 0.  1.
        -11    1    3    3    0    0  0.55708021509E+02 -0.16199458249E+01  0.28725561624E+02  0.62699009367E+02  0.00000000000E+00 0. -1.
         11    1    3    3    0    0 -0.19469544874E+02 -0.11708565223E+02  0.90982470546E+02  0.93776135684E+02  0.00000000000E+00 0.  1.
<mgrwt>
<rscale>  0 0.12256374E+03</rscale>
<asrwt>0</asrwt>
<pdfrwt beam="2">  1        1 0.52465447E-02 0.13082977E+03</pdfrwt>
<pdfrwt beam="1">  1       -1 0.63125694E-01 0.13082977E+03</pdfrwt>
<totfact> 0.39199773E+03</totfact>
</mgrwt>
</event>
<event>
 7    1  0.1111284E-005  0.3802341E+03  0.7546771E-02  0.1051763E+00
          2   -1    0    0  501    0  0.00000000000E+00  0.00000000000E+00  0.69395328755E+03  0.69395328755E+03  0.00000000000E+00 0. -1.
         -2   -1    0    0    0  501 -0.00000000000E+00 -0.00000000000E+00 -0.21522416299E+03  0.21522416299E+03  0.00000000000E+00 0.  1.
         23    2    1    2    0    0  0.35438505385E+03  0.58015065092E+02  0.12816525194E+03  0.39199955155E+03  0.91009902992E+02 0.  0.
          5    1    1    2  502    0 -0.24954098585E+03  0.18256809300E+02  0.23959888043E+03  0.34645884057E+03  0.47000000000E+01 0. -1.
         -5    1    1    2    0  502 -0.10484406800E+03 -0.76271874391E+02  0.11096499219E+03  0.17071905842E+03  0.47000000000E+01 0. -1.
        -11    1    3    3    0    0  0.16100486440E+03  0.63128182199E+02  0.31647242838E+02  0.17581035728E+03  0.00000000000E+00 0. -1.
         11    1    3    3    0    0  0.19338018945E+03 -0.51131171078E+01  0.96518009105E+02  0.21618919427E+03  0.00000000000E+00 0.  1.
<mgrwt>
<rscale>  0 0.37776551E+03</rscale>
<asrwt>0</asrwt>
<pdfrwt beam="1">  1        2 0.10676204E+00 0.38023407E+03</pdfrwt>
<pdfrwt beam="2">  1       -2 0.33111410E-01 0.38023407E+03</pdfrwt>
<totfact> 0.36112572E+02</totfact>
</mgrwt>
</event>
<event>
 7    1  0.1111284E-005  0.1803729E+03  0.7546771E-02  0.1172973E+00
         -4   -1    0    0    0  501 -0.00000000000E+00  0.00000000000E+00  0.48842451028E+03  0.48842451028E+03  0.00000000000E+00 0.  1.
          4   -1    0    0  501    0  0.00000000000E+00 -0.00000000000E+00 -0.85951978793E+02  0.85951978793E+02  0.00000000000E+00 0. -1.
         23    2    1    2    0    0  0.89223941701E+02  0.94623293076E+02  0.31725866830E+02  0.16208112311E+03  0.91374397280E+02 0.  0.
          5    1    1    2  502    0 -0.93109020409E+02 -0.93198496671E+02  0.18894374519E+03  0.23038463124E+03  0.47000000000E+01 0.  1.
         -5    1    1    2    0  502  0.38850787078E+01 -0.14247964051E+01  0.18180291947E+03  0.18191073472E+03  0.47000000000E+01 0.  1.
        -11    1    3    3    0    0  0.52089926584E+02  0.68458559266E+00 -0.95479504562E+01  0.52962179589E+02  0.00000000000E+00 0. -1.
         11    1    3    3    0    0  0.37134015117E+02  0.93938707483E+02  0.41273817286E+02  0.10911894352E+03  0.00000000000E+00 0.  1.
<mgrwt>
<rscale>  0 0.17475946E+03</rscale>
<asrwt>0</asrwt>
<pdfrwt beam="2">  1        4 0.13223382E-01 0.18037289E+03</pdfrwt>
<pdfrwt beam="1">  1       -4 0.75142231E-01 0.18037289E+03</pdfrwt>
<totfact> 0.13433309E+02</totfact>
</mgrwt>
</event>
<event>
 7    1  0.1111284E-005  0.2248135E+03  0.7546771E-02  0.1137191E+00
         -4   -1    0    0    0  501 -0.00000000000E+00  0.00000000000E+00  0.48660757577E+03  0.48660757577E+03  0.00000000000E+00 0.  1.
          4   -1    0    0  501    0  0.00000000000E+00 -0.00000000000E+00 -0.12737041797E+03  0.12737041797E+03  0.00000000000E+00 0. -1.
         23    2    1    2    0    0 -0.14252547424E+03  0.87879844796E+02  0.46608089228E-01  0.19023402033E+03  0.90291762575E+02 0.  0.
          5    1    1    2  502    0  0.10459842367E+03  0.21855771378E+02  0.14664688078E+03  0.18151006203E+03  0.47000000000E+01 0. -1.
         -5    1    1    2    0  502  0.37927050571E+02 -0.10973561617E+03  0.21254366893E+03  0.24223391139E+03  0.47000000000E+01 0.  1.
        -11    1    3    3    0    0 -0.12256533764E+03  0.10025702048E+03 -0.19676586135E+02  0.15956472100E+03  0.00000000000E+00 0. -1.
         11    1    3    3    0    0 -0.19960136594E+02 -0.12377175680E+02  0.19723194224E+02  0.30669299324E+02  0.00000000000E+00 0.  1.
<mgrwt>
<rscale>  0 0.21561989E+03</rscale>
<asrwt>0</asrwt>
<pdfrwt beam="2">  1        4 0.19595449E-01 0.22481349E+03</pdfrwt>
<pdfrwt beam="1">  1       -4 0.74862703E-01 0.22481349E+03</pdfrwt>
<totfact> 0.69458172E+01</totfact>
</mgrwt>
</event>
<event>
 7    1  0.1111284E-005  0.1362208E+03  0.7546771E-02  0.1228966E+00
         -2   -1    0    0    0  501 -0.00000000000E+00  0.00000000000E+00  0.76578257471E+02  0.76578257471E+02  0.00000000000E+00 0.  1.
          2   -1    0    0  501    0  0.00000000000E+00 -0.00000000000E+00 -0.19853599522E+03  0.19853599522E+03  0.00000000000E+00 0. -1.
         23    2    1    2    0    0 -0.41808957479E+02 -0.34422477413E+02 -0.65900629992E+02  0.12781014600E+03  0.95182164883E+02 0.  0.
          5    1    1    2  502    0  0.58652234492E+02 -0.47196718633E+01  0.18017922587E+02  0.61717869761E+02  0.47000000000E+01 0.  1.
         -5    1    1    2    0  502 -0.16843277014E+02  0.39142149276E+02 -0.74075030345E+02  0.85586236925E+02  0.47000000000E+01 0.  1.
        -11    1    3    3    0    0 -0.23816083273E+02 -0.67093978569E+02 -0.51315167364E+02  0.87761347894E+02  0.00000000000E+00 0. -1.
         11    1    3    3    0    0 -0.17992874206E+02  0.32671501156E+02 -0.14585462628E+02  0.40048798110E+02  0.00000000000E+00 0.  1.
<mgrwt>
<rscale>  0 0.12898714E+03</rscale>
<asrwt>0</asrwt>
<pdfrwt beam="2">  1        2 0.30543999E-01 0.13622078E+03</pdfrwt>
<pdfrwt beam="1">  1       -2 0.11781270E-01 0.13622078E+03</pdfrwt>
<totfact> 0.82901630E+03</totfact>
</mgrwt>
</event>
<event>
 7    1  0.1111284E-005  0.1260133E+03  0.7546771E-02  0.1248575E+00
         -2   -1    0    0    0  501 -0.00000000000E+00  0.00000000000E+00  0.44965192438E+02  0.44965192438E+02  0.00000000000E+00 0.  1.
          2   -1    0    0  501    0  0.00000000000E+00 -0.00000000000E+00 -0.26626560656E+03  0.26626560656E+03  0.00000000000E+00 0. -1.
         23    2    1    2    0    0 -0.11787326050E+01  0.15935416311E+02 -0.92318817737E+02  0.13090994493E+03  0.91429331564E+02 0.  0.
          5    1    1    2  502    0 -0.14734828724E+02  0.67588130462E+01  0.21444538215E+02  0.27290198801E+02  0.47000000000E+01 0.  1.
         -5    1    1    2    0  502  0.15913561329E+02 -0.22694229357E+02 -0.15042613460E+03  0.15303065527E+03  0.47000000000E+01 0.  1.
        -11    1    3    3    0    0  0.11189157800E+02  0.23002977102E+02 -0.10725905719E+03  0.11026712818E+03  0.00000000000E+00 0. -1.
         11    1    3    3    0    0 -0.12367890405E+02 -0.70675607917E+01  0.14940239452E+02  0.20642816753E+02  0.00000000000E+00 0.  1.
<mgrwt>
<rscale>  0 0.11673929E+03</rscale>
<asrwt>0</asrwt>
<pdfrwt beam="2">  1        2 0.40963939E-01 0.12601333E+03</pdfrwt>
<pdfrwt beam="1">  1       -2 0.69177219E-02 0.12601333E+03</pdfrwt>
<totfact> 0.13796731E+04</totfact>
</mgrwt>
</event>
<event>
 7    1  0.1111284E-005  0.1371786E+03  0.7546771E-02  0.1228667E+00
         -1   -1    0    0    0  501 -0.00000000000E+00  0.00000000000E+00  0.12837474815E+02  0.12837474815E+02  0.00000000000E+00 0.  1.
          1   -1    0    0  501    0  0.00000000000E+00 -0.00000000000E+00 -0.11766139405E+04  0.11766139405E+04  0.00000000000E+00 0. -1.
         23    2    1    2    0    0  0.52542171889E+02 -0.20769174895E+02 -0.46746142198E+03  0.47975245085E+03  0.91924940062E+02 0.  0.
          5    1    1    2  502    0  0.28748505423E+02 -0.18017858588E+02 -0.83033279857E+02  0.89820573122E+02  0.47000000000E+01 0. -1.
         -5    1    1    2    0  502 -0.81290677312E+02  0.38787033484E+02 -0.61328176384E+03  0.61987839133E+03  0.47000000000E+01 0. -1.
        -11    1    3    3    0    0  0.89433603425E+01 -0.52619373277E+02 -0.20861026277E+03  0.21533003476E+03  0.00000000000E+00 0. -1.
         11    1    3    3    0    0  0.43598811547E+02  0.31850198382E+02 -0.25885115921E+03  0.26442241608E+03  0.00000000000E+00 0.  1.
<mgrwt>
<rscale>  0 0.12918718E+03</rscale>
<asrwt>0</asrwt>
<pdfrwt beam="2">  1        1 0.18101750E+00 0.13717864E+03</pdfrwt>
<pdfrwt beam="1">  1       -1 0.19749964E-02 0.13717864E+03</pdfrwt>
<totfact> 0.80709217E+03</totfact>
</mgrwt>
</event>
<event>
 7    1  0.1111284E-005  0.5240354E+03  0.7546771E-02  0.1007689E+00
         -2   -1    0    0    0  501 -0.00000000000E+00  0.00000000000E+00  0.52952026488E+03  0.52952026488E+03  0.00000000000E+00 0.  1.
          2   -1    0    0  501    0  0.00000000000E+00 -0.00000000000E+00 -0.12965184353E+03  0.12965184353E+03  0.00000000000E+00 0. -1.
         23    2    1    2    0    0  0.19610450946E+02 -0.14511143147E+03  0.21404128122E+02  0.17403067413E+03  0.91578608355E+02 0.  0.
          5    1    1    2  502    0 -0.40578224567E+01 -0.41235465318E+02 -0.19027625758E+02  0.45836340005E+02  0.47000000000E+01 0. -1.
         -5    1    1    2    0  502 -0.15552628489E+02  0.18634689678E+03  0.39749191899E+03  0.43930509427E+03  0.47000000000E+01 0.  1.
        -11    1    3    3    0    0  0.53301347315E+02 -0.63196793272E+02 -0.95828529174E+00  0.82678816006E+02  0.00000000000E+00 0. -1.
         11    1    3    3    0    0 -0.33690896369E+02 -0.81914638194E+02  0.22362413413E+02  0.91351858122E+02  0.00000000000E+00 0.  1.
<mgrwt>
<rscale>  0 0.52403541E+03</rscale>
<asrwt>0</asrwt>
<pdfrwt beam="2">  1        2 0.19946438E-01 0.52403541E+03</pdfrwt>
<pdfrwt beam="1">  1       -2 0.81464655E-01 0.52403541E+03</pdfrwt>
<totfact> 0.38213933E+02</totfact>
</mgrwt>
</event>
<event>
 7    1  0.1111284E-005  0.1626697E+03  0.7546771E-02  0.1193129E+00
         -1   -1    0    0    0  501 -0.00000000000E+00  0.00000000000E+00  0.72842351240E+02  0.72842351240E+02  0.00000000000E+00 0.  1.
          1   -1    0    0  501    0  0.00000000000E+00 -0.00000000000E+00 -0.35488543629E+03  0.35488543629E+03  0.00000000000E+00 0. -1.
         23    2    1    2    0    0 -0.65536391807E+02 -0.80883075992E+02 -0.20642031709E+03  0.24833926076E+03  0.90697025832E+02 0.  0.
          5    1    1    2  502    0  0.59751980638E+02  0.88511311448E+02 -0.10395942629E+03  0.14911138038E+03  0.47000000000E+01 0. -1.
         -5    1    1    2    0  502  0.57844111688E+01 -0.76282354556E+01  0.28336658324E+02  0.30277146393E+02  0.47000000000E+01 0. -1.
        -11    1    3    3    0    0 -0.53822519712E+01 -0.40394338970E+02 -0.14627651429E+02  0.43297106641E+02  0.00000000000E+00 0.  1.
         11    1    3    3    0    0 -0.60154139836E+02 -0.40488737022E+02 -0.19179266566E+03  0.20504215412E+03  0.00000000000E+00 0. -1.
<mgrwt>
<rscale>  0 0.15613637E+03</rscale>
<asrwt>0</asrwt>
<pdfrwt beam="2">  1        1 0.54597760E-01 0.16266973E+03</pdfrwt>
<pdfrwt beam="1">  1       -1 0.11206515E-01 0.16266973E+03</pdfrwt>
<totfact> 0.35180945E+03</totfact>
</mgrwt>
</event>
<event>
 7    1  0.1111284E-005  0.1643566E+03  0.7546771E-02  0.1190708E+00
          1   -1    0    0  501    0  0.00000000000E+00  0.00000000000E+00  0.43026786956E+03  0.43026786956E+03  0.00000000000E+00 0. -1.
         -1   -1    0    0    0  501 -0.00000000000E+00 -0.00000000000E+00 -0.66776748036E+02  0.66776748036E+02  0.00000000000E+00 0.  1.
         23    2    1    2    0    0 -0.47628451735E+01 -0.10660423673E+03  0.27796131378E+03  0.31176530354E+03  0.92455202962E+02 0.  0.
          5    1    1    2  502    0 -0.10545299369E+02  0.52619333941E+02 -0.26393458318E+02  0.59989184735E+02  0.47000000000E+01 0. -1.
         -5    1    1    2    0  502  0.15308144543E+02  0.53984902785E+02  0.11192326607E+03  0.12529012932E+03  0.47000000000E+01 0. -1.
        -11    1    3    3    0    0  0.26119022983E+02  0.23853151834E+01  0.35415908046E+02  0.44070167152E+02  0.00000000000E+00 0. -1.
         11    1    3    3    0    0 -0.30881868156E+02 -0.10898955191E+03  0.24254540573E+03  0.26769513639E+03  0.00000000000E+00 0.  1.
<mgrwt>
<rscale>  0 0.15823138E+03</rscale>
<asrwt>0</asrwt>
<pdfrwt beam="1">  1        1 0.66195055E-01 0.16435655E+03</pdfrwt>
<pdfrwt beam="2">  1       -1 0.10273346E-01 0.16435655E+03</pdfrwt>
<totfact> 0.31526207E+03</totfact>
</mgrwt>
</event>
<event>
 7    1  0.1111284E-005  0.1338062E+03  0.7546771E-02  0.1235247E+00
         -1   -1    0    0    0  501 -0.00000000000E+00  0.00000000000E+00  0.44305996576E+02  0.44305996576E+02  0.00000000000E+00 0.  1.
          1   -1    0    0  501    0  0.00000000000E+00 -0.00000000000E+00 -0.34003537650E+03  0.34003537650E+03  0.00000000000E+00 0. -1.
         23    2    1    2    0    0  0.24511667002E+02 -0.40961608982E+02 -0.18341574620E+03  0.20964609104E+03  0.89618481925E+02 0.  0.
          5    1    1    2  502    0  0.13477283225E+02 -0.13911959219E+02  0.18862479556E+02  0.27441991681E+02  0.47000000000E+01 0. -1.
         -5    1    1    2    0  502 -0.37988950227E+02  0.54873568201E+02 -0.13117611328E+03  0.14725329036E+03  0.47000000000E+01 0. -1.
        -11    1    3    3    0    0  0.51437087166E+02 -0.46409482714E+02 -0.98697979109E+02  0.12058567536E+03  0.00000000000E+00 0.  1.
         11    1    3    3    0    0 -0.26925420165E+02  0.54478737317E+01 -0.84717767092E+02  0.89060415676E+02  0.00000000000E+00 0. -1.
<mgrwt>
<rscale>  0 0.12488641E+03</rscale>
<asrwt>0</asrwt>
<pdfrwt beam="2">  1        1 0.52313135E-01 0.13380616E+03</pdfrwt>
<pdfrwt beam="1">  1       -1 0.68163071E-02 0.13380616E+03</pdfrwt>
<totfact> 0.78125555E+03</totfact>
</mgrwt>
</event>
<event>
 7    1  0.1111284E-005  0.1411137E+03  0.7546771E-02  0.1222607E+00
          4   -1    0    0  501    0  0.00000000000E+00  0.00000000000E+00  0.28795866006E+02  0.28795866006E+02  0.00000000000E+00 0. -1.
         -4   -1    0    0    0  501 -0.00000000000E+00 -0.00000000000E+00 -0.67764022367E+03  0.67764022367E+03  0.00000000000E+00 0.  1.
         23    2    1    2    0    0  0.35820996319E+02  0.54810474052E+02 -0.14665104761E+03  0.18479331276E+03  0.91404085421E+02 0.  0.
          5    1    1    2  502    0  0.18889174979E+02 -0.58142707846E+02 -0.40783864276E+03  0.41242190041E+03  0.47000000000E+01 0.  1.
         -5    1    1    2    0  502 -0.54710171298E+02  0.33322337934E+01 -0.94354667289E+02  0.10922087651E+03  0.47000000000E+01 0.  1.
        -11    1    3    3    0    0  0.22131129662E+02  0.74579437406E+02 -0.13946777214E+03  0.15969702205E+03  0.00000000000E+00 0.  1.
         11    1    3    3    0    0  0.13689866657E+02 -0.19768963353E+02 -0.71832754708E+01  0.25096290715E+02  0.00000000000E+00 0. -1.
<mgrwt>
<rscale>  0 0.13332265E+03</rscale>
<asrwt>0</asrwt>
<pdfrwt beam="1">  1        4 0.44301335E-02 0.14111366E+03</pdfrwt>
<pdfrwt beam="2">  1       -4 0.10425234E+00 0.14111366E+03</pdfrwt>
<totfact> 0.37774013E+02</totfact>
</mgrwt>
</event>
<event>
 7    1  0.1111284E-005  0.1312186E+03  0.7546771E-02  0.1239190E+00
          1   -1    0    0  501    0  0.00000000000E+00  0.00000000000E+00  0.37246831851E+03  0.37246831851E+03  0.00000000000E+00 0. -1.
         -1   -1    0    0    0  501 -0.00000000000E+00 -0.00000000000E+00 -0.37364827857E+02  0.37364827857E+02  0.00000000000E+00 0.  1.
         23    2    1    2    0    0  0.35670270096E+02 -0.17876119732E+02  0.18854524925E+03  0.21311598247E+03  0.90979047831E+02 0.  0.
          5    1    1    2  502    0 -0.16716071993E+01  0.14184734522E+02  0.15923487371E+03  0.15994322734E+03  0.47000000000E+01 0. -1.
         -5    1    1    2    0  502 -0.33998662897E+02  0.36913852103E+01 -0.12676632309E+02  0.36773936562E+02  0.47000000000E+01 0. -1.
        -11    1    3    3    0    0  0.49216486584E+02  0.13993254470E+02  0.16079555101E+03  0.16874028252E+03  0.00000000000E+00 0. -1.
         11    1    3    3    0    0 -0.13546216487E+02 -0.31869374203E+02  0.27749698240E+02  0.44375699945E+02  0.00000000000E+00 0.  1.
<mgrwt>
<rscale>  0 0.12239998E+03</rscale>
<asrwt>0</asrwt>
<pdfrwt beam="1">  1        1 0.57302816E-01 0.13121861E+03</pdfrwt>
<pdfrwt beam="2">  1       -1 0.57484353E-02 0.13121861E+03</pdfrwt>
<totfact> 0.89779162E+03</totfact>
</mgrwt>
</event>
<event>
 7    1  0.1111284E-005  0.1194483E+03  0.7546771E-02  0.1251189E+00
         -1   -1    0    0    0  501 -0.00000000000E+00  0.00000000000E+00  0.80027943873E+02  0.80027943873E+02  0.00000000000E+00 0.  1.
          1   -1    0    0  501    0  0.00000000000E+00 -0.00000000000E+00 -0.32949404944E+03  0.32949404944E+03  0.00000000000E+00 0. -1.
         23    2    1    2    0    0  0.39047271407E+02 -0.77512895520E+01 -0.26926237113E+03  0.28844439223E+03  0.95462930037E+02 0.  0.
          5    1    1    2  502    0 -0.15602336682E+02 -0.45661713890E+02  0.35963325040E+02  0.60364524128E+02  0.47000000000E+01 0. -1.
         -5    1    1    2    0  502 -0.23444934725E+02  0.53413003442E+02 -0.16167059482E+02  0.60713076954E+02  0.47000000000E+01 0.  1.
        -11    1    3    3    0    0 -0.23353693550E+02  0.23028279880E+02 -0.68049226282E+02  0.75540676951E+02  0.00000000000E+00 0.  1.
         11    1    3    3    0    0  0.62400964957E+02 -0.30779569432E+02 -0.20121314485E+03  0.21290371528E+03  0.00000000000E+00 0. -1.
<mgrwt>
<rscale>  0 0.11522520E+03</rscale>
<asrwt>0</asrwt>
<pdfrwt beam="2">  1        1 0.50691393E-01 0.11944829E+03</pdfrwt>
<pdfrwt beam="1">  1       -1 0.12311991E-01 0.11944829E+03</pdfrwt>
<totfact> 0.32910610E+03</totfact>
</mgrwt>
</event>
<event>
 7    1  0.1111284E-005  0.3083832E+03  0.7546771E-02  0.1082642E+00
          1   -1    0    0  501    0  0.00000000000E+00  0.00000000000E+00  0.58916214005E+03  0.58916214005E+03  0.00000000000E+00 0. -1.
         -1   -1    0    0    0  501 -0.00000000000E+00 -0.00000000000E+00 -0.21006010173E+03  0.21006010173E+03  0.00000000000E+00 0.  1.
         23    2    1    2    0    0 -0.19618001937E+03 -0.20245257575E+03  0.39119547880E+03  0.49060203736E+03  0.90458891238E+02 0.  0.
          5    1    1    2  502    0  0.15123127292E+03  0.68615369528E+02  0.57553286138E+01  0.16623531710E+03  0.47000000000E+01 0. -1.
         -5    1    1    2    0  502  0.44948746456E+02  0.13383720622E+03 -0.17848769097E+02  0.14238488731E+03  0.47000000000E+01 0. -1.
        -11    1    3    3    0    0 -0.10270029769E+03 -0.77440314102E+02  0.24510928930E+03  0.27680844838E+03  0.00000000000E+00 0. -1.
         11    1    3    3    0    0 -0.93479721682E+02 -0.12501226165E+03  0.14608618950E+03  0.21379358898E+03  0.00000000000E+00 0.  1.
<mgrwt>
<rscale>  0 0.30525725E+03</rscale>
<asrwt>0</asrwt>
<pdfrwt beam="1">  1        1 0.90640329E-01 0.30838317E+03</pdfrwt>
<pdfrwt beam="2">  1       -1 0.32316939E-01 0.30838317E+03</pdfrwt>
<totfact> 0.32571647E+02</totfact>
</mgrwt>
</event>
<event>
 7    1  0.1111284E-005  0.1291152E+03  0.7546771E-02  0.1242849E+00
         -1   -1    0    0    0  501 -0.00000000000E+00  0.00000000000E+00  0.31732945989E+02  0.31732945989E+02  0.00000000000E+00 0.  1.
          1   -1    0    0  501    0  0.00000000000E+00 -0.00000000000E+00 -0.44589915476E+03  0.44589915476E+03  0.00000000000E+00 0. -1.
         23    2    1    2    0    0 -0.30185648103E+02 -0.11590483654E+02 -0.25449013104E+03  0.27228559620E+03  0.91261746870E+02 0.  0.
          5    1    1    2  502    0  0.56292499862E+02  0.42284037699E+01 -0.16742437088E+03  0.17674765884E+03  0.47000000000E+01 0. -1.
         -5    1    1    2    0  502 -0.26106851759E+02  0.73620798837E+01  0.77482931505E+01  0.28598845706E+02  0.47000000000E+01 0. -1.
        -11    1    3    3    0    0 -0.14905339568E+02 -0.44930807292E+02 -0.20666270584E+03  0.21201514233E+03  0.00000000000E+00 0. -1.
         11    1    3    3    0    0 -0.15280308534E+02  0.33340323638E+02 -0.47827425196E+02  0.60270453874E+02  0.00000000000E+00 0.  1.
<mgrwt>
<rscale>  0 0.12015032E+03</rscale>
<asrwt>0</asrwt>
<pdfrwt beam="2">  1        1 0.68599866E-01 0.12911521E+03</pdfrwt>
<pdfrwt beam="1">  1       -1 0.48819920E-02 0.12911521E+03</pdfrwt>
<totfact> 0.91012786E+03</totfact>
</mgrwt>
</event>
<event>
 7    1  0.1111284E-005  0.3964043E+03  0.7546771E-02  0.1045863E+00
          2   -1    0    0  501    0  0.00000000000E+00  0.00000000000E+00  0.25957387827E+04  0.25957387827E+04  0.00000000000E+00 0. -1.
         -2   -1    0    0    0  501 -0.00000000000E+00 -0.00000000000E+00 -0.65732245080E+02  0.65732245080E+02  0.00000000000E+00 0.  1.
         23    2    1    2    0    0 -0.19688302514E+03  0.32054319512E+03  0.16736153663E+04  0.17177855682E+04  0.91038444919E+02 0.  0.
          5    1    1    2  502    0  0.11681763680E+03 -0.10436729426E+03  0.44906804712E+03  0.47562915524E+03  0.47000000000E+01 0. -1.
         -5    1    1    2    0  502  0.80065388344E+02 -0.21617590087E+03  0.40732312424E+03  0.46805630438E+03  0.47000000000E+01 0. -1.
        -11    1    3    3    0    0 -0.82034216875E+02  0.74767506923E+02  0.61671603875E+03  0.62662466061E+03  0.00000000000E+00 0.  1.
         11    1    3    3    0    0 -0.11484880827E+03  0.24577568820E+03  0.10568993275E+04  0.10911609076E+04  0.00000000000E+00 0. -1.
<mgrwt>
<rscale>  0 0.39404187E+03</rscale>
<asrwt>0</asrwt>
<pdfrwt beam="1">  1        2 0.39934435E+00 0.39640435E+03</pdfrwt>
<pdfrwt beam="2">  1       -2 0.10112655E-01 0.39640435E+03</pdfrwt>
<totfact> 0.22540385E+02</totfact>
</mgrwt>
</event>
<event>
 7    1  0.1111284E-005  0.1269190E+03  0.7546771E-02  0.1245709E+00
          1   -1    0    0  501    0  0.00000000000E+00  0.00000000000E+00  0.53336518735E+02  0.53336518735E+02  0.00000000000E+00 0. -1.
         -1   -1    0    0    0  501 -0.00000000000E+00 -0.00000000000E+00 -0.23502875444E+03  0.23502875444E+03  0.00000000000E+00 0.  1.
         23    2    1    2    0    0  0.13838950500E+02  0.17054007570E+02 -0.66498822491E+02  0.11696527174E+03  0.93682579365E+02 0.  0.
          5    1    1    2  502    0  0.32608030252E+02 -0.47057520440E+02 -0.97481241852E+02  0.11314758672E+03  0.47000000000E+01 0. -1.
         -5    1    1    2    0  502 -0.46446980752E+02  0.30003512869E+02 -0.17712171362E+02  0.58252414712E+02  0.47000000000E+01 0. -1.
        -11    1    3    3    0    0 -0.14348953245E+02  0.27275401730E+01  0.20058814256E+02  0.24813060351E+02  0.00000000000E+00 0. -1.
         11    1    3    3    0    0  0.28187903745E+02  0.14326467397E+02 -0.86557636747E+02  0.92152211394E+02  0.00000000000E+00 0.  1.
<mgrwt>
<rscale>  0 0.11843069E+03</rscale>
<asrwt>0</asrwt>
<pdfrwt beam="1">  1        1 0.82056182E-02 0.12691902E+03</pdfrwt>
<pdfrwt beam="2">  1       -1 0.36158270E-01 0.12691902E+03</pdfrwt>
<totfact> 0.58673626E+03</totfact>
</mgrwt>
</event>
<event>
 7    1  0.1111284E-005  0.1868581E+03  0.7546771E-02  0.1168054E+00
         -1   -1    0    0    0  501 -0.00000000000E+00  0.00000000000E+00  0.53713380814E+02  0.53713380814E+02  0.00000000000E+00 0.  1.
          1   -1    0    0  501    0  0.00000000000E+00 -0.00000000000E+00 -0.70332676758E+03  0.70332676758E+03  0.00000000000E+00 0. -1.
         23    2    1    2    0    0  0.13866409841E+03 -0.79890325872E+01 -0.47529918018E+03  0.50149879702E+03  0.79373647386E+02 0.  0.
          5    1    1    2  502    0 -0.14758532291E+02 -0.47740333037E+02 -0.57306172482E+02  0.76177694100E+02  0.47000000000E+01 0.  1.
         -5    1    1    2    0  502 -0.12390556612E+03  0.55729365624E+02 -0.11700803410E+03  0.17936365728E+03  0.47000000000E+01 0.  1.
        -11    1    3    3    0    0  0.90899724717E+02 -0.42062918058E+02 -0.26996303672E+03  0.28794459575E+03  0.00000000000E+00 0.  1.
         11    1    3    3    0    0  0.47764373690E+02  0.34073885471E+02 -0.20533614346E+03  0.21355420126E+03  0.00000000000E+00 0. -1.
<mgrwt>
<rscale>  0 0.17974067E+03</rscale>
<asrwt>0</asrwt>
<pdfrwt beam="2">  1        1 0.10820412E+00 0.18685807E+03</pdfrwt>
<pdfrwt beam="1">  1       -1 0.82635970E-02 0.18685807E+03</pdfrwt>
<totfact> 0.22735290E+03</totfact>
</mgrwt>
</event>
<event>
 7    1  0.1111284E-005  0.1274917E+03  0.7546771E-02  0.1245952E+00
         -2   -1    0    0    0  501 -0.00000000000E+00  0.00000000000E+00  0.25255143146E+02  0.25255143146E+02  0.00000000000E+00 0.  1.
          2   -1    0    0  501    0  0.00000000000E+00 -0.00000000000E+00 -0.48892802597E+03  0.48892802597E+03  0.00000000000E+00 0. -1.
         23    2    1    2    0    0  0.20788334015E+02  0.14062496397E+02 -0.21026891445E+03  0.23051487249E+03  0.91072396577E+02 0.  0.
          5    1    1    2  502    0 -0.46527181446E+02  0.27090547421E+02 -0.21473464971E+03  0.22143110928E+03  0.47000000000E+01 0.  1.
         -5    1    1    2    0  502  0.25738847431E+02 -0.41153043819E+02 -0.38669318666E+02  0.62237187346E+02  0.47000000000E+01 0.  1.
        -11    1    3    3    0    0  0.49317759494E+02 -0.15461664139E+02 -0.94950678715E+02  0.10810613233E+03  0.00000000000E+00 0. -1.
         11    1    3    3    0    0 -0.28529425478E+02  0.29524160537E+02 -0.11531823574E+03  0.12240874016E+03  0.00000000000E+00 0.  1.
<mgrwt>
<rscale>  0 0.11828561E+03</rscale>
<asrwt>0</asrwt>
<pdfrwt beam="2">  1        2 0.75219696E-01 0.12749169E+03</pdfrwt>
<pdfrwt beam="1">  1       -2 0.38854067E-02 0.12749169E+03</pdfrwt>
<totfact> 0.17197278E+04</totfact>
</mgrwt>
</event>
<event>
 6    1  0.1111284E-005  0.1260684E+03  0.7546771E-02  0.1273714E+00
         -3   -1    0    0    0  501 -0.00000000000E+00  0.00000000000E+00  0.19194716502E+03  0.19194716502E+03  0.00000000000E+00 0. -1.
          3   -1    0    0  501    0  0.00000000000E+00 -0.00000000000E+00 -0.43761913881E+02  0.43761913881E+02  0.00000000000E+00 0.  1.
          5    1    1    2  502    0 -0.12315670004E+02 -0.25472438412E+02  0.11123560162E+03  0.11487371289E+03  0.47000000000E+01 0.  1.
         -5    1    1    2    0  502  0.10180913273E+01  0.37323167950E+02 -0.18205178759E+02  0.41803993942E+02  0.47000000000E+01 0.  1.
        -11    1    1    2    0    0  0.71443837262E+01  0.17297159154E+02  0.27408127033E+01  0.18914174259E+02  0.00000000000E+00 0.  1.
         11    1    1    2    0    0  0.41531949504E+01 -0.29147888692E+02  0.52414015578E+02  0.60117197810E+02  0.00000000000E+00 0. -1.
<mgrwt>
<rscale>  0 0.10319642E+03</rscale>
<asrwt>0</asrwt>
<pdfrwt beam="2">  1        3 0.67326023E-02 0.12606841E+03</pdfrwt>
<pdfrwt beam="1">  1       -3 0.29530333E-01 0.12606841E+03</pdfrwt>
<totfact> 0.35159605E+03</totfact>
</mgrwt>
</event>
<event>
 7    1  0.1111284E-005  0.1314037E+03  0.7546771E-02  0.1238298E+00
          1   -1    0    0  501    0  0.00000000000E+00  0.00000000000E+00  0.18400740161E+03  0.18400740161E+03  0.00000000000E+00 0.  1.
         -1   -1    0    0    0  501 -0.00000000000E+00 -0.00000000000E+00 -0.73718309623E+02  0.73718309623E+02  0.00000000000E+00 0. -1.
         23    2    1    2    0    0 -0.39490124251E+02 -0.88697846891E+01  0.37350611064E+02  0.10743617710E+03  0.92245980991E+02 0.  0.
          5    1    1    2  502    0  0.31201417809E+02 -0.56594819544E+02  0.42325531668E+02  0.77395366163E+02  0.47000000000E+01 0. -1.
         -5    1    1    2    0  502  0.82887064417E+01  0.65464604233E+02  0.30612949251E+02  0.72894167968E+02  0.47000000000E+01 0. -1.
        -11    1    3    3    0    0 -0.68473128650E+02 -0.12635445694E+02  0.35485435345E+02  0.78150111687E+02  0.00000000000E+00 0.  1.
         11    1    3    3    0    0  0.28983004400E+02  0.37656610045E+01  0.18651757187E+01  0.29286065412E+02  0.00000000000E+00 0. -1.
<mgrwt>
<rscale>  0 0.12295616E+03</rscale>
<asrwt>0</asrwt>
<pdfrwt beam="1">  1        1 0.28308831E-01 0.13140366E+03</pdfrwt>
<pdfrwt beam="2">  1       -1 0.11341278E-01 0.13140366E+03</pdfrwt>
<totfact> 0.77170261E+03</totfact>
</mgrwt>
</event>
<event>
 7    1  0.1111284E-005  0.1834564E+03  0.7546771E-02  0.1170490E+00
         -1   -1    0    0    0  501 -0.00000000000E+00  0.00000000000E+00  0.27547493872E+02  0.27547493872E+02  0.00000000000E+00 0.  1.
          1   -1    0    0  501    0  0.00000000000E+00 -0.00000000000E+00 -0.10699768239E+04  0.10699768239E+04  0.00000000000E+00 0. -1.
         23    2    1    2    0    0  0.29986961247E+02 -0.13088777222E+03 -0.47663961012E+03  0.50273505522E+03  0.86754775373E+02 0.  0.
          5    1    1    2  502    0 -0.63399072847E+02  0.19341948131E+02 -0.18541549421E+03  0.19696331864E+03  0.47000000000E+01 0.  1.
         -5    1    1    2    0  502  0.33412111600E+02  0.11154582409E+03 -0.38037422568E+03  0.39782594390E+03  0.47000000000E+01 0.  1.
        -11    1    3    3    0    0 -0.13463448471E+02 -0.98439752220E+02 -0.23602042675E+03  0.25608063399E+03  0.00000000000E+00 0.  1.
         11    1    3    3    0    0  0.43450409718E+02 -0.32448020005E+02 -0.24061918336E+03  0.24665442122E+03  0.00000000000E+00 0. -1.
<mgrwt>
<rscale>  0 0.17725108E+03</rscale>
<asrwt>0</asrwt>
<pdfrwt beam="2">  1        1 0.16461182E+00 0.18345642E+03</pdfrwt>
<pdfrwt beam="1">  1       -1 0.42380760E-02 0.18345642E+03</pdfrwt>
<totfact> 0.31753689E+03</totfact>
</mgrwt>
</event>
<event>
 7    1  0.1111284E-005  0.2790237E+03  0.7546771E-02  0.1098040E+00
         -1   -1    0    0    0  501 -0.00000000000E+00  0.00000000000E+00  0.10341795131E+04  0.10341795131E+04  0.00000000000E+00 0.  1.
          1   -1    0    0  501    0  0.00000000000E+00 -0.00000000000E+00 -0.12261582121E+03  0.12261582121E+03  0.00000000000E+00 0. -1.
         23    2    1    2    0    0 -0.24435330631E+03  0.50189366555E+02  0.77306913390E+02  0.27711437686E+03  0.92674204513E+02 0.  0.
          5    1    1    2  502    0  0.52538608934E+01 -0.35501815122E+02  0.16227300411E+03  0.16626063813E+03  0.47000000000E+01 0.  1.
         -5    1    1    2    0  502  0.23909944542E+03 -0.14687551433E+02  0.67198377442E+03  0.71342031934E+03  0.47000000000E+01 0.  1.
        -11    1    3    3    0    0 -0.70405425634E+02  0.27575969439E+02  0.67614667555E+02  0.10143520749E+03  0.00000000000E+00 0.  1.
         11    1    3    3    0    0 -0.17394788068E+03  0.22613397116E+02  0.96922458350E+01  0.17567916937E+03  0.00000000000E+00 0. -1.
<mgrwt>
<rscale>  0 0.27573839E+03</rscale>
<asrwt>0</asrwt>
<pdfrwt beam="2">  1        1 0.18863973E-01 0.27902368E+03</pdfrwt>
<pdfrwt beam="1">  1       -1 0.15910453E+00 0.27902368E+03</pdfrwt>
<totfact> 0.89380732E+01</totfact>
</mgrwt>
</event>
<event>
 7    1  0.1111284E-005  0.1329203E+03  0.7546771E-02  0.1235432E+00
         -3   -1    0    0    0  501 -0.00000000000E+00  0.00000000000E+00  0.11390123677E+04  0.11390123677E+04  0.00000000000E+00 0.  1.
          3   -1    0    0  501    0  0.00000000000E+00 -0.00000000000E+00 -0.15554355879E+02  0.15554355879E+02  0.00000000000E+00 0. -1.
         23    2    1    2    0    0  0.10249529094E+02  0.44022618962E+02  0.24112395908E+03  0.26227686621E+03  0.92765009983E+02 0.  0.
          5    1    1    2  502    0  0.12018432119E+02  0.41271348834E+02  0.23249385018E+03  0.23648096608E+03  0.47000000000E+01 0. -1.
         -5    1    1    2    0  502 -0.22267961213E+02 -0.85293967797E+02  0.64984020259E+03  0.65580889132E+03  0.47000000000E+01 0. -1.
        -11    1    3    3    0    0  0.32341225770E+02 -0.15095821078E+02  0.53410106683E+02  0.64237669589E+02  0.00000000000E+00 0. -1.
         11    1    3    3    0    0 -0.22091696675E+02  0.59118440040E+02  0.18771385240E+03  0.19803919662E+03  0.00000000000E+00 0.  1.
<mgrwt>
<rscale>  0 0.12476823E+03</rscale>
<asrwt>0</asrwt>
<pdfrwt beam="2">  1        3 0.23929787E-02 0.13292031E+03</pdfrwt>
<pdfrwt beam="1">  1       -3 0.17523261E+00 0.13292031E+03</pdfrwt>
<totfact> 0.38610826E+02</totfact>
</mgrwt>
</event>
<event>
 7    1  0.1111284E-005  0.1449249E+03  0.7546771E-02  0.1217094E+00
          1   -1    0    0  501    0  0.00000000000E+00  0.00000000000E+00  0.10610683153E+03  0.10610683153E+03  0.00000000000E+00 0. -1.
         -1   -1    0    0    0  501 -0.00000000000E+00 -0.00000000000E+00 -0.16982079790E+03  0.16982079790E+03  0.00000000000E+00 0.  1.
         23    2    1    2    0    0  0.51580719245E+02  0.52210071382E+02  0.25589365108E+01  0.11656856347E+03  0.90527452637E+02 0.  0.
          5    1    1    2  502    0  0.28079451920E+02 -0.42711718929E+02 -0.59693269998E+02  0.78728159112E+02  0.47000000000E+01 0.  1.
         -5    1    1    2    0  502 -0.79660171165E+02 -0.94983524531E+01 -0.65796328831E+01  0.80630906842E+02  0.47000000000E+01 0.  1.
        -11    1    3    3    0    0 -0.41841883701E+01  0.30404692789E+02  0.36541841707E+02  0.47720634648E+02  0.00000000000E+00 0. -1.
         11    1    3    3    0    0  0.55764907615E+02  0.21805378594E+02 -0.33982905197E+02  0.68847928818E+02  0.00000000000E+00 0.  1.
<mgrwt>
<rscale>  0 0.13723862E+03</rscale>
<asrwt>0</asrwt>
<pdfrwt beam="1">  1        1 0.16324128E-01 0.14492486E+03</pdfrwt>
<pdfrwt beam="2">  1       -1 0.26126276E-01 0.14492486E+03</pdfrwt>
<totfact> 0.41446078E+03</totfact>
</mgrwt>
</event>
<event>
 7    1  0.1111284E-005  0.1929633E+03  0.7546771E-02  0.1183638E+00
         -3   -1    0    0    0  501 -0.00000000000E+00  0.00000000000E+00  0.75440894523E+03  0.75440894523E+03  0.00000000000E+00 0.  1.
          3   -1    0    0  501    0  0.00000000000E+00 -0.00000000000E+00 -0.43267656008E+02  0.43267656008E+02  0.00000000000E+00 0. -1.
         23    2    1    2    0    0  0.42306507572E+02 -0.14848745270E+02  0.59687195357E+02  0.11824503531E+03  0.91700606682E+02 0.  0.
          5    1    1    2  502    0 -0.12683003158E+02 -0.83516019624E+02  0.21549785895E+03  0.23151069374E+03  0.47000000000E+01 0. -1.
         -5    1    1    2    0  502 -0.29623504413E+02  0.98364764894E+02  0.43595623491E+03  0.44792087219E+03  0.47000000000E+01 0.  1.
        -11    1    3    3    0    0  0.65033087844E+02 -0.22304226259E+02  0.19474122474E+02  0.71456437567E+02  0.00000000000E+00 0. -1.
         11    1    3    3    0    0 -0.22726580273E+02  0.74554809893E+01  0.40213072883E+02  0.46788597739E+02  0.00000000000E+00 0.  1.
<mgrwt>
<rscale>  0 0.16456441E+03</rscale>
<asrwt>0</asrwt>
<pdfrwt beam="2">  1        3 0.66565630E-02 0.19296325E+03</pdfrwt>
<pdfrwt beam="1">  1       -3 0.11606291E+00 0.19296325E+03</pdfrwt>
<totfact> 0.22418667E+02</totfact>
</mgrwt>
</event>
<event>
 7    1  0.1111284E-005  0.1288333E+03  0.7546771E-02  0.1243602E+00
         -1   -1    0    0    0  501 -0.00000000000E+00  0.00000000000E+00  0.13971438140E+04  0.13971438140E+04  0.00000000000E+00 0.  1.
          1   -1    0    0  501    0  0.00000000000E+00 -0.00000000000E+00 -0.10244746314E+02  0.10244746314E+02  0.00000000000E+00 0. -1.
         23    2    1    2    0    0 -0.59120818277E+00  0.31150035583E+02  0.36540086234E+03  0.37779806262E+03  0.90790482295E+02 0.  0.
          5    1    1    2  502    0  0.43669340601E+02  0.22185483076E+02  0.23503784075E+03  0.24013347028E+03  0.47000000000E+01 0. -1.
         -5    1    1    2    0  502 -0.43078132418E+02 -0.53335518659E+02  0.78646036463E+03  0.78945702744E+03  0.47000000000E+01 0. -1.
        -11    1    3    3    0    0  0.41469181990E+02  0.32255356686E+02  0.23400631619E+03  0.23983130968E+03  0.00000000000E+00 0.  1.
         11    1    3    3    0    0 -0.42060390172E+02 -0.11053211035E+01  0.13139454615E+03  0.13796675293E+03  0.00000000000E+00 0. -1.
<mgrwt>
<rscale>  0 0.11969461E+03</rscale>
<asrwt>0</asrwt>
<pdfrwt beam="2">  1        1 0.15761159E-02 0.12883326E+03</pdfrwt>
<pdfrwt beam="1">  1       -1 0.21494505E+00 0.12883326E+03</pdfrwt>
<totfact> 0.11029255E+03</totfact>
</mgrwt>
</event>
<event>
 7    1  0.1111284E-005  0.1593040E+03  0.7546771E-02  0.1196869E+00
          2   -1    0    0  501    0  0.00000000000E+00  0.00000000000E+00  0.20271430867E+03  0.20271430867E+03  0.00000000000E+00 0. -1.
         -2   -1    0    0    0  501 -0.00000000000E+00 -0.00000000000E+00 -0.12981606665E+03  0.12981606665E+03  0.00000000000E+00 0.  1.
         23    2    1    2    0    0 -0.72661363659E+02 -0.66880555735E+02  0.10331444414E+03  0.17034867450E+03  0.92693656913E+02 0.  0.
          5    1    1    2  502    0  0.67830884449E+02 -0.95722918078E+01 -0.47578128235E+02  0.83536973502E+02  0.47000000000E+01 0. -1.
         -5    1    1    2    0  502  0.48304792107E+01  0.76452847543E+02  0.17161926123E+02  0.78644727319E+02  0.47000000000E+01 0. -1.
        -11    1    3    3    0    0 -0.92688866133E+02 -0.55722766382E+02  0.99788958390E+02  0.14715328340E+03  0.00000000000E+00 0.  1.
         11    1    3    3    0    0  0.20027502474E+02 -0.11157789353E+02  0.35254857479E+01  0.23195391101E+02  0.00000000000E+00 0. -1.
<mgrwt>
<rscale>  0 0.15297099E+03</rscale>
<asrwt>0</asrwt>
<pdfrwt beam="1">  1        2 0.31186817E-01 0.15930398E+03</pdfrwt>
<pdfrwt beam="2">  1       -2 0.19971703E-01 0.15930398E+03</pdfrwt>
<totfact> 0.34385825E+03</totfact>
</mgrwt>
</event>
<event>
 7    1  0.1111284E-005  0.4059375E+03  0.7546771E-02  0.1041743E+00
          1   -1    0    0  501    0  0.00000000000E+00  0.00000000000E+00  0.52154900454E+03  0.52154900454E+03  0.00000000000E+00 0. -1.
         -1   -1    0    0    0  501 -0.00000000000E+00 -0.00000000000E+00 -0.78988384941E+02  0.78988384941E+02  0.00000000000E+00 0.  1.
         23    2    1    2    0    0  0.14479414171E+02  0.82705468766E+02  0.29029251001E+03  0.31536408705E+03  0.90193780460E+02 0.  0.
          5    1    1    2  502    0 -0.24116498134E+02  0.31520768887E+02  0.16497178118E+03  0.16974375670E+03  0.47000000000E+01 0. -1.
         -5    1    1    2    0  502  0.96370839627E+01 -0.11422623765E+03 -0.12703671593E+02  0.11542954573E+03  0.47000000000E+01 0.  1.
        -11    1    3    3    0    0  0.60139035838E+01  0.55371832223E+02  0.27915701036E+03  0.28465917037E+03  0.00000000000E+00 0. -1.
         11    1    3    3    0    0  0.84655105876E+01  0.27333636542E+02  0.11135499652E+02  0.30704916685E+02  0.00000000000E+00 0.  1.
<mgrwt>
<rscale>  0 0.40593750E+03</rscale>
<asrwt>0</asrwt>
<pdfrwt beam="1">  1        1 0.80238306E-01 0.40593750E+03</pdfrwt>
<pdfrwt beam="2">  1       -1 0.12152060E-01 0.40593750E+03</pdfrwt>
<totfact> 0.19235025E+03</totfact>
</mgrwt>
</event>
<event>
 7    1  0.1111284E-005  0.1322285E+03  0.7546771E-02  0.1257378E+00
         -2   -1    0    0    0  501 -0.00000000000E+00  0.00000000000E+00  0.27612909380E+03  0.27612909380E+03  0.00000000000E+00 0.  1.
          2   -1    0    0  501    0  0.00000000000E+00 -0.00000000000E+00 -0.36927226380E+02  0.36927226380E+02  0.00000000000E+00 0. -1.
         23    2    1    2    0    0  0.26293171145E+02 -0.11050108788E+02  0.59386090378E+02  0.89856679999E+02  0.61107114618E+02 0.  0.
          5    1    1    2  502    0 -0.22579070340E+02 -0.54085244176E+02  0.47454794570E+02  0.75558424961E+02  0.47000000000E+01 0. -1.
         -5    1    1    2    0  502 -0.37141008053E+01  0.65135352963E+02  0.13236098247E+03  0.14764121522E+03  0.47000000000E+01 0.  1.
        -11    1    3    3    0    0  0.63023264586E+00 -0.33358664652E+02  0.31411878636E+02  0.45824707527E+02  0.00000000000E+00 0. -1.
         11    1    3    3    0    0  0.25662938499E+02  0.22308555864E+02  0.27974211743E+02  0.44031972472E+02  0.00000000000E+00 0.  1.
<mgrwt>
<rscale>  0 0.11174175E+03</rscale>
<asrwt>0</asrwt>
<pdfrwt beam="2">  1        2 0.56811119E-02 0.13222846E+03</pdfrwt>
<pdfrwt beam="1">  1       -2 0.42481398E-01 0.13222846E+03</pdfrwt>
<totfact> 0.66312435E+03</totfact>
</mgrwt>
</event>
<event>
 7    1  0.1111284E-005  0.2243811E+03  0.7546771E-02  0.1130658E+00
         -2   -1    0    0    0  501 -0.00000000000E+00  0.00000000000E+00  0.22948377649E+03  0.22948377649E+03  0.00000000000E+00 0.  1.
          2   -1    0    0  501    0  0.00000000000E+00 -0.00000000000E+00 -0.54847965483E+02  0.54847965483E+02  0.00000000000E+00 0. -1.
         23    2    1    2    0    0  0.16236835957E+02  0.22266764832E+02  0.67500953765E+02  0.11741211414E+03  0.92031419253E+02 0.  0.
          5    1    1    2  502    0 -0.27092713535E+02 -0.70781724206E+02  0.49422281810E+02  0.90601984237E+02  0.47000000000E+01 0. -1.
         -5    1    1    2    0  502  0.10855877578E+02  0.48514959374E+02  0.57712575430E+02  0.76317643594E+02  0.47000000000E+01 0. -1.
        -11    1    3    3    0    0  0.54358071801E+02  0.11660100935E+02  0.47253667221E+02  0.72963463388E+02  0.00000000000E+00 0.  1.
         11    1    3    3    0    0 -0.38121235844E+02  0.10606663897E+02  0.20247286543E+02  0.44448650752E+02  0.00000000000E+00 0. -1.
<mgrwt>
<rscale>  0 0.22438109E+03</rscale>
<asrwt>0</asrwt>
<pdfrwt beam="2">  1        2 0.84381486E-02 0.22438109E+03</pdfrwt>
<pdfrwt beam="1">  1       -2 0.35305196E-01 0.22438109E+03</pdfrwt>
<totfact> 0.58907295E+03</totfact>
</mgrwt>
</event>
<event>
 7    1  0.1111284E-005  0.1394566E+03  0.7546771E-02  0.1225884E+00
         -3   -1    0    0    0  501 -0.00000000000E+00  0.00000000000E+00  0.16660996177E+03  0.16660996177E+03  0.00000000000E+00 0.  1.
          3   -1    0    0  501    0  0.00000000000E+00 -0.00000000000E+00 -0.11410994252E+03  0.11410994252E+03  0.00000000000E+00 0. -1.
         23    2    1    2    0    0  0.53248039591E+02 -0.31440091744E+02 -0.37108887917E+02  0.11495533242E+03  0.89519974312E+02 0.  0.
          5    1    1    2  502    0 -0.61971922566E+02  0.51427339663E+02  0.78876952051E+01  0.81053045514E+02  0.47000000000E+01 0. -1.
         -5    1    1    2    0  502  0.87238829749E+01 -0.19987247920E+02  0.81721211955E+02  0.84711526352E+02  0.47000000000E+01 0. -1.
        -11    1    3    3    0    0  0.24882275792E+00  0.26317025489E+02 -0.23722657277E+02  0.35431796619E+02  0.00000000000E+00 0. -1.
         11    1    3    3    0    0  0.52999216833E+02 -0.57757117233E+02 -0.13386230640E+02  0.79523535804E+02  0.00000000000E+00 0.  1.
<mgrwt>
<rscale>  0 0.13106523E+03</rscale>
<asrwt>0</asrwt>
<pdfrwt beam="2">  1        3 0.17555376E-01 0.13945658E+03</pdfrwt>
<pdfrwt beam="1">  1       -3 0.25632302E-01 0.13945658E+03</pdfrwt>
<totfact> 0.93919361E+02</totfact>
</mgrwt>
</event>
<event>
 7    1  0.1111284E-005  0.1883281E+03  0.7546771E-02  0.1163669E+00
          2   -1    0    0  501    0  0.00000000000E+00  0.00000000000E+00  0.92916290135E+03  0.92916290135E+03  0.00000000000E+00 0. -1.
         -2   -1    0    0    0  501 -0.00000000000E+00 -0.00000000000E+00 -0.42713975551E+02  0.42713975551E+02  0.00000000000E+00 0.  1.
         23    2    1    2    0    0  0.13904488726E+03  0.22553400146E+02  0.63261159672E+03  0.65580588512E+03  0.10020873276E+03 0.  0.
          5    1    1    2  502    0 -0.70629791719E+02  0.37717793317E+02  0.18528696523E+03  0.20190232514E+03  0.47000000000E+01 0. -1.
         -5    1    1    2    0  502 -0.68415095543E+02 -0.60271193463E+02  0.68550363848E+02  0.11416866664E+03  0.47000000000E+01 0. -1.
        -11    1    3    3    0    0  0.83422235805E+02 -0.26113064983E+02  0.22188955870E+03  0.23848718592E+03  0.00000000000E+00 0.  1.
         11    1    3    3    0    0  0.55622651457E+02  0.48666465129E+02  0.41072203802E+03  0.41731869920E+03  0.00000000000E+00 0. -1.
<mgrwt>
<rscale>  0 0.18433852E+03</rscale>
<asrwt>0</asrwt>
<pdfrwt beam="1">  1        2 0.14294812E+00 0.18832812E+03</pdfrwt>
<pdfrwt beam="2">  1       -2 0.65713815E-02 0.18832812E+03</pdfrwt>
<totfact> 0.37001424E+03</totfact>
</mgrwt>
</event>
<event>
 7    1  0.1111284E-005  0.1742727E+03  0.7546771E-02  0.1179440E+00
          1   -1    0    0  501    0  0.00000000000E+00  0.00000000000E+00  0.20306747237E+03  0.20306747237E+03  0.00000000000E+00 0. -1.
         -1   -1    0    0    0  501 -0.00000000000E+00 -0.00000000000E+00 -0.15164848373E+03  0.15164848373E+03  0.00000000000E+00 0.  1.
         23    2    1    2    0    0  0.48263311897E+02  0.11144069078E+03  0.89126140616E+02  0.17641056194E+03  0.91808728275E+02 0.  0.
          5    1    1    2  502    0 -0.90652014632E+02 -0.68694192532E+02 -0.22547267693E+02  0.11604804662E+03  0.47000000000E+01 0.  1.
         -5    1    1    2    0  502  0.42388702734E+02 -0.42746498245E+02 -0.15159884279E+02  0.62257347542E+02  0.47000000000E+01 0.  1.
        -11    1    3    3    0    0  0.13741874070E+02  0.11652814041E+03  0.69574193929E+02  0.13641193156E+03  0.00000000000E+00 0.  1.
         11    1    3    3    0    0  0.34521437827E+02 -0.50874496327E+01  0.19551946687E+02  0.39998630385E+02  0.00000000000E+00 0. -1.
<mgrwt>
<rscale>  0 0.16848248E+03</rscale>
<asrwt>0</asrwt>
<pdfrwt beam="1">  1        1 0.31241150E-01 0.17427273E+03</pdfrwt>
<pdfrwt beam="2">  1       -1 0.23330536E-01 0.17427273E+03</pdfrwt>
<totfact> 0.22103186E+03</totfact>
</mgrwt>
</event>
<event>
 7    1  0.1111284E-005  0.2181861E+03  0.7546771E-02  0.1138685E+00
          1   -1    0    0  501    0  0.00000000000E+00  0.00000000000E+00  0.13211131482E+03  0.13211131482E+03  0.00000000000E+00 0. -1.
         -1   -1    0    0    0  501 -0.00000000000E+00 -0.00000000000E+00 -0.33397846786E+03  0.33397846786E+03  0.00000000000E+00 0.  1.
         23    2    1    2    0    0  0.15815017804E+03 -0.83465779417E+02 -0.79084385949E+02  0.21572844882E+03  0.91139499572E+02 0.  0.
          5    1    1    2  502    0 -0.10922871452E+03  0.19301017669E+02 -0.12791487771E+03  0.16937457689E+03  0.47000000000E+01 0. -1.
         -5    1    1    2    0  502 -0.48921463524E+02  0.64164761748E+02  0.51321106163E+01  0.80986756960E+02  0.47000000000E+01 0. -1.
        -11    1    3    3    0    0  0.72607669308E+02 -0.87640824452E+02 -0.56981488820E+02  0.12727795497E+03  0.00000000000E+00 0.  1.
         11    1    3    3    0    0  0.85542508731E+02  0.41750450355E+01 -0.22102897129E+02  0.88450493852E+02  0.00000000000E+00 0. -1.
<mgrwt>
<rscale>  0 0.21367933E+03</rscale>
<asrwt>0</asrwt>
<pdfrwt beam="1">  1        1 0.20324818E-01 0.21818614E+03</pdfrwt>
<pdfrwt beam="2">  1       -1 0.51381303E-01 0.21818614E+03</pdfrwt>
<totfact> 0.97404395E+02</totfact>
</mgrwt>
</event>
<event>
 7    1  0.1111284E-005  0.1636076E+03  0.7546771E-02  0.1192038E+00
         -3   -1    0    0    0  501 -0.00000000000E+00  0.00000000000E+00  0.94637974970E+02  0.94637974970E+02  0.00000000000E+00 0.  1.
          3   -1    0    0  501    0  0.00000000000E+00 -0.00000000000E+00 -0.25019498236E+03  0.25019498236E+03  0.00000000000E+00 0. -1.
         23    2    1    2    0    0  0.95185929823E+02 -0.30259110284E+02 -0.10294451991E+03  0.17297392294E+03  0.96676930268E+02 0.  0.
          5    1    1    2  502    0 -0.57225801276E+02  0.61942607001E+02 -0.78971624509E+02  0.11562995447E+03  0.47000000000E+01 0. -1.
         -5    1    1    2    0  502 -0.37960128548E+02 -0.31683496718E+02  0.26359137029E+02  0.56229079919E+02  0.47000000000E+01 0.  1.
        -11    1    3    3    0    0  0.91080338222E+02 -0.42645901010E+02 -0.39252123585E+02  0.10795846465E+03  0.00000000000E+00 0.  1.
         11    1    3    3    0    0  0.41055916015E+01  0.12386790726E+02 -0.63692396328E+02  0.65015458292E+02  0.00000000000E+00 0. -1.
<mgrwt>
<rscale>  0 0.15707617E+03</rscale>
<asrwt>0</asrwt>
<pdfrwt beam="2">  1        3 0.38491535E-01 0.16360762E+03</pdfrwt>
<pdfrwt beam="1">  1       -3 0.14559689E-01 0.16360762E+03</pdfrwt>
<totfact> 0.62180816E+02</totfact>
</mgrwt>
</event>
<event>
 7    1  0.1111284E-005  0.1582338E+03  0.7546771E-02  0.1198130E+00
         -2   -1    0    0    0  501 -0.00000000000E+00  0.00000000000E+00  0.82714986079E+02  0.82714986079E+02  0.00000000000E+00 0.  1.
          2   -1    0    0  501    0  0.00000000000E+00 -0.00000000000E+00 -0.25895845588E+03  0.25895845588E+03  0.00000000000E+00 0. -1.
         23    2    1    2    0    0  0.18495296158E+01  0.97010986712E+02 -0.79222379760E+02  0.15606356119E+03  0.93086504792E+02 0.  0.
          5    1    1    2  502    0 -0.48479833269E+02 -0.92287529737E+01 -0.45744332644E+01  0.49784330415E+02  0.47000000000E+01 0.  1.
         -5    1    1    2    0  502  0.46630303653E+02 -0.87782233739E+02 -0.92446656775E+02  0.13582555035E+03  0.47000000000E+01 0.  1.
        -11    1    3    3    0    0 -0.14171784109E+02  0.57688993711E+02 -0.93921176035E+02  0.11113076427E+03  0.00000000000E+00 0. -1.
         11    1    3    3    0    0  0.16021313725E+02  0.39321993001E+02  0.14698796274E+02  0.44932796919E+02  0.00000000000E+00 0.  1.
<mgrwt>
<rscale>  0 0.15192288E+03</rscale>
<asrwt>0</asrwt>
<pdfrwt beam="2">  1        2 0.39839762E-01 0.15823380E+03</pdfrwt>
<pdfrwt beam="1">  1       -2 0.12725383E-01 0.15823380E+03</pdfrwt>
<totfact> 0.55615729E+03</totfact>
</mgrwt>
</event>
<event>
 7    1  0.1111284E-005  0.1594688E+03  0.7546771E-02  0.1197425E+00
         -1   -1    0    0    0  501 -0.00000000000E+00  0.00000000000E+00  0.16328443630E+03  0.16328443630E+03  0.00000000000E+00 0.  1.
          1   -1    0    0  501    0  0.00000000000E+00 -0.00000000000E+00 -0.13167957459E+03  0.13167957459E+03  0.00000000000E+00 0. -1.
         23    2    1    2    0    0 -0.89317341301E+02  0.42789494437E+02  0.67127106058E+01  0.13356410230E+03  0.89363195159E+02 0.  0.
          5    1    1    2  502    0  0.93674380861E+02  0.19540793836E+02  0.61740159337E+01  0.96004899491E+02  0.47000000000E+01 0.  1.
         -5    1    1    2    0  502 -0.43570395604E+01 -0.62330288274E+02  0.18718135169E+02  0.65395009093E+02  0.47000000000E+01 0.  1.
        -11    1    3    3    0    0 -0.10144369079E+03  0.55415048077E+02  0.28007281899E+01  0.11562652824E+03  0.00000000000E+00 0.  1.
         11    1    3    3    0    0  0.12126349492E+02 -0.12625553640E+02  0.39119824159E+01  0.17937574060E+02  0.00000000000E+00 0. -1.
<mgrwt>
<rscale>  0 0.15250779E+03</rscale>
<asrwt>0</asrwt>
<pdfrwt beam="2">  1        1 0.20258396E-01 0.15946884E+03</pdfrwt>
<pdfrwt beam="1">  1       -1 0.25120683E-01 0.15946884E+03</pdfrwt>
<totfact> 0.33694836E+03</totfact>
</mgrwt>
</event>
<event>
 7    1  0.1111284E-005  0.1327182E+03  0.7546771E-02  0.1230454E+00
          1   -1    0    0  501    0  0.00000000000E+00  0.00000000000E+00  0.12442084870E+03  0.12442084870E+03  0.00000000000E+00 0. -1.
         -1   -1    0    0    0  501 -0.00000000000E+00 -0.00000000000E+00 -0.15943009667E+03  0.15943009667E+03  0.00000000000E+00 0.  1.
         23    2    1    2    0    0 -0.69658848014E+02 -0.11631682724E+02  0.51057931349E+02  0.12566849490E+03  0.90542846809E+02 0.  0.
          5    1    1    2  502    0  0.84307286597E+02  0.71272796842E+01 -0.15912318399E+02  0.86219537031E+02  0.47000000000E+01 0. -1.
         -5    1    1    2    0  502 -0.14648438582E+02  0.45044030396E+01 -0.70154860923E+02  0.71962913440E+02  0.47000000000E+01 0.  1.
        -11    1    3    3    0    0  0.13812773242E+02  0.10266074405E+02  0.33416122987E+02  0.37587528035E+02  0.00000000000E+00 0. -1.
         11    1    3    3    0    0 -0.83471621256E+02 -0.21897757128E+02  0.17641808362E+02  0.88080966869E+02  0.00000000000E+00 0.  1.
<mgrwt>
<rscale>  0 0.12800020E+03</rscale>
<asrwt>0</asrwt>
<pdfrwt beam="1">  1        1 0.19141669E-01 0.13271823E+03</pdfrwt>
<pdfrwt beam="2">  1       -1 0.24527707E-01 0.13271823E+03</pdfrwt>
<totfact> 0.37311834E+03</totfact>
</mgrwt>
</event>
<event>
 7    1  0.1111284E-005  0.1267573E+03  0.7546771E-02  0.1249118E+00
         -2   -1    0    0    0  501 -0.00000000000E+00  0.00000000000E+00  0.35525416363E+03  0.35525416363E+03  0.00000000000E+00 0.  1.
          2   -1    0    0  501    0  0.00000000000E+00 -0.00000000000E+00 -0.36032172181E+02  0.36032172181E+02  0.00000000000E+00 0. -1.
         23    2    1    2    0    0  0.14587648858E+02 -0.15129544658E+02  0.80058375317E+02  0.12060821188E+03  0.87722828808E+02 0.  0.
          5    1    1    2  502    0 -0.48784526464E+02 -0.11751809238E+02  0.21473327187E+03  0.22056859045E+03  0.47000000000E+01 0.  1.
         -5    1    1    2    0  502  0.34196877606E+02  0.26881353896E+02  0.24430344261E+02  0.50109533484E+02  0.47000000000E+01 0.  1.
        -11    1    3    3    0    0 -0.27599524702E+02 -0.24641551163E+02  0.10084315669E+02  0.38348836097E+02  0.00000000000E+00 0. -1.
         11    1    3    3    0    0  0.42187173560E+02  0.95120065052E+01  0.69974059648E+02  0.82259375784E+02  0.00000000000E+00 0.  1.
<mgrwt>
<rscale>  0 0.11642272E+03</rscale>
<asrwt>0</asrwt>
<pdfrwt beam="2">  1        2 0.55434113E-02 0.12675729E+03</pdfrwt>
<pdfrwt beam="1">  1       -2 0.54654484E-01 0.12675729E+03</pdfrwt>
<totfact> 0.41615051E+03</totfact>
</mgrwt>
</event>
<event>
 7    1  0.1111284E-005  0.1258084E+03  0.7546771E-02  0.1247987E+00
         -1   -1    0    0    0  501 -0.00000000000E+00  0.00000000000E+00  0.12272625350E+03  0.12272625350E+03  0.00000000000E+00 0.  1.
          1   -1    0    0  501    0  0.00000000000E+00 -0.00000000000E+00 -0.98806311818E+02  0.98806311818E+02  0.00000000000E+00 0. -1.
         23    2    1    2    0    0 -0.11668400214E+02 -0.85190728222E+01  0.12662326259E+02  0.95221518689E+02  0.93263481330E+02 0.  0.
          5    1    1    2  502    0  0.30602147586E+02 -0.40440612860E+02 -0.30239072375E+02  0.59231968594E+02  0.47000000000E+01 0. -1.
         -5    1    1    2    0  502 -0.18933747372E+02  0.48959685682E+02  0.41496687795E+02  0.67079078032E+02  0.47000000000E+01 0. -1.
        -11    1    3    3    0    0 -0.40715130927E+02 -0.52849416252E+00  0.38121633500E+02  0.55778670952E+02  0.00000000000E+00 0.  1.
         11    1    3    3    0    0  0.29046730713E+02 -0.79905786597E+01 -0.25459307240E+02  0.39442847737E+02  0.00000000000E+00 0. -1.
<mgrwt>
<rscale>  0 0.11708396E+03</rscale>
<asrwt>0</asrwt>
<pdfrwt beam="2">  1        1 0.15200971E-01 0.12580837E+03</pdfrwt>
<pdfrwt beam="1">  1       -1 0.18880962E-01 0.12580837E+03</pdfrwt>
<totfact> 0.76241062E+03</totfact>
</mgrwt>
</event>
<event>
 7    1  0.1111284E-005  0.2002763E+03  0.7546771E-02  0.1155823E+00
         -3   -1    0    0    0  501 -0.00000000000E+00  0.00000000000E+00  0.24812554775E+03  0.24812554775E+03  0.00000000000E+00 0.  1.
          3   -1    0    0  501    0  0.00000000000E+00 -0.00000000000E+00 -0.14840867438E+03  0.14840867438E+03  0.00000000000E+00 0. -1.
         23    2    1    2    0    0  0.13064222224E+02  0.14576433589E+03 -0.55572628757E+00  0.17255832015E+03  0.91422915621E+02 0.  0.
          5    1    1    2  502    0  0.55349312807E+02 -0.37019018494E+02  0.11484018872E+02  0.67734236896E+02  0.47000000000E+01 0. -1.
         -5    1    1    2    0  502 -0.68413535031E+02 -0.10874531740E+03  0.88788580788E+02  0.15624166509E+03  0.47000000000E+01 0.  1.
        -11    1    3    3    0    0  0.20019929330E+02  0.15151167609E+02  0.29106530057E+02  0.38438854590E+02  0.00000000000E+00 0.  1.
         11    1    3    3    0    0 -0.69557071060E+01  0.13061316828E+03 -0.29662256344E+02  0.13411946556E+03  0.00000000000E+00 0. -1.
<mgrwt>
<rscale>  0 0.19295482E+03</rscale>
<asrwt>0</asrwt>
<pdfrwt beam="2">  1        3 0.22832104E-01 0.20027634E+03</pdfrwt>
<pdfrwt beam="1">  1       -3 0.38173161E-01 0.20027634E+03</pdfrwt>
<totfact> 0.29401085E+02</totfact>
</mgrwt>
</event>
<event>
 7    1  0.1111284E-005  0.1305709E+03  0.7546771E-02  0.1241713E+00
          2   -1    0    0  501    0  0.00000000000E+00  0.00000000000E+00  0.17338672285E+03  0.17338672285E+03  0.00000000000E+00 0. -1.
         -2   -1    0    0    0  501 -0.00000000000E+00 -0.00000000000E+00 -0.80984120867E+02  0.80984120867E+02  0.00000000000E+00 0.  1.
         23    2    1    2    0    0  0.31356444513E+02 -0.20966657588E+02  0.76978918023E+02  0.12289215386E+03  0.88056233838E+02 0.  0.
          5    1    1    2  502    0  0.20902421568E+02  0.49775276103E+02 -0.24558553556E+02  0.59495393866E+02  0.47000000000E+01 0.  1.
         -5    1    1    2    0  502 -0.52258866081E+02 -0.28808618514E+02  0.39982237516E+02  0.71983295990E+02  0.47000000000E+01 0.  1.
        -11    1    3    3    0    0  0.32404473641E+02  0.33274235666E+01  0.89712316605E+02  0.95443288974E+02  0.00000000000E+00 0.  1.
         11    1    3    3    0    0 -0.10480291278E+01 -0.24294081155E+02 -0.12733398581E+02  0.27448864888E+02  0.00000000000E+00 0. -1.
<mgrwt>
<rscale>  0 0.12084279E+03</rscale>
<asrwt>0</asrwt>
<pdfrwt beam="1">  1        2 0.26674880E-01 0.13057088E+03</pdfrwt>
<pdfrwt beam="2">  1       -2 0.12459096E-01 0.13057088E+03</pdfrwt>
<totfact> 0.87569708E+03</totfact>
</mgrwt>
</event>
<event>
 7    1  0.1111284E-005  0.1410548E+03  0.7546771E-02  0.1222543E+00
         -2   -1    0    0    0  501 -0.00000000000E+00  0.00000000000E+00  0.16456548684E+03  0.16456548684E+03  0.00000000000E+00 0.  1.
          2   -1    0    0  501    0  0.00000000000E+00 -0.00000000000E+00 -0.98158565568E+02  0.98158565568E+02  0.00000000000E+00 0. -1.
         23    2    1    2    0    0 -0.57939148093E+02  0.30257981763E+02  0.36919079923E+02  0.11861999505E+03  0.91843314513E+02 0.  0.
          5    1    1    2  502    0  0.49665542912E+02 -0.77824127114E+02  0.21975613364E+02  0.95017253678E+02  0.47000000000E+01 0.  1.
         -5    1    1    2    0  502  0.82736051808E+01  0.47566145351E+02  0.75122279844E+01  0.49086803680E+02  0.47000000000E+01 0.  1.
        -11    1    3    3    0    0 -0.99085627773E+01  0.56930541932E+02  0.19309022278E+02  0.60927042948E+02  0.00000000000E+00 0. -1.
         11    1    3    3    0    0 -0.48030585316E+02 -0.26672560169E+02  0.17610057645E+02  0.57692952100E+02  0.00000000000E+00 0.  1.
<mgrwt>
<rscale>  0 0.13336723E+03</rscale>
<asrwt>0</asrwt>
<pdfrwt beam="2">  1        2 0.15101318E-01 0.14105476E+03</pdfrwt>
<pdfrwt beam="1">  1       -2 0.25317767E-01 0.14105476E+03</pdfrwt>
<totfact> 0.51293079E+03</totfact>
</mgrwt>
</event>
<event>
 7    1  0.1111284E-005  0.2545339E+03  0.7546771E-02  0.1110473E+00
          3   -1    0    0  501    0  0.00000000000E+00  0.00000000000E+00  0.17314604004E+03  0.17314604004E+03  0.00000000000E+00 0. -1.
         -3   -1    0    0    0  501 -0.00000000000E+00 -0.00000000000E+00 -0.93544567725E+02  0.93544567725E+02  0.00000000000E+00 0.  1.
         23    2    1    2    0    0  0.48014898275E+02 -0.13627803695E+01  0.27141031804E+02  0.10504734563E+03  0.89392514174E+02 0.  0.
          5    1    1    2  502    0 -0.92368321049E+02  0.73438116103E+01  0.66898986646E+02  0.11438270287E+03  0.47000000000E+01 0. -1.
         -5    1    1    2    0  502  0.44353422774E+02 -0.59810312408E+01 -0.14438546139E+02  0.47260559255E+02  0.47000000000E+01 0.  1.
        -11    1    3    3    0    0  0.18559111939E+02  0.43786517762E+02  0.13621900440E+02  0.49469747779E+02  0.00000000000E+00 0. -1.
         11    1    3    3    0    0  0.29455786336E+02 -0.45149298131E+02  0.13519131363E+02  0.55577597854E+02  0.00000000000E+00 0.  1.
<mgrwt>
<rscale>  0 0.25453386E+03</rscale>
<asrwt>0</asrwt>
<pdfrwt beam="1">  1        3 0.26637852E-01 0.25453386E+03</pdfrwt>
<pdfrwt beam="2">  1       -3 0.14391472E-01 0.25453386E+03</pdfrwt>
<totfact> 0.13451016E+03</totfact>
</mgrwt>
</event>
<event>
 7    1  0.1111284E-005  0.2245538E+03  0.7546771E-02  0.1134357E+00
          1   -1    0    0  501    0  0.00000000000E+00  0.00000000000E+00  0.29482416763E+03  0.29482416763E+03  0.00000000000E+00 0. -1.
         -1   -1    0    0    0  501 -0.00000000000E+00 -0.00000000000E+00 -0.16122843685E+03  0.16122843685E+03  0.00000000000E+00 0.  1.
         23    2    1    2    0    0  0.18020938810E+03 -0.48218296407E+02  0.10437696037E+03  0.22960577694E+03  0.83808324653E+02 0.  0.
          5    1    1    2  502    0 -0.32469046559E+01 -0.28089351810E+02  0.16916136298E+02  0.33283625737E+02  0.47000000000E+01 0.  1.
         -5    1    1    2    0  502 -0.17696248344E+03  0.76307648217E+02  0.12302634119E+02  0.19316320180E+03  0.47000000000E+01 0.  1.
        -11    1    3    3    0    0  0.13994586773E+03 -0.64630011684E+02  0.10431187041E+03  0.18612589990E+03  0.00000000000E+00 0. -1.
         11    1    3    3    0    0  0.40263520368E+02  0.16411715277E+02  0.65089959022E-01  0.43479877041E+02  0.00000000000E+00 0.  1.
<mgrwt>
<rscale>  0 0.21936579E+03</rscale>
<asrwt>0</asrwt>
<pdfrwt beam="1">  1        1 0.45357564E-01 0.22455384E+03</pdfrwt>
<pdfrwt beam="2">  1       -1 0.24804375E-01 0.22455384E+03</pdfrwt>
<totfact> 0.12606282E+03</totfact>
</mgrwt>
</event>
<event>
 7    1  0.1111284E-005  0.1378792E+03  0.7546771E-02  0.1226020E+00
         -2   -1    0    0    0  501 -0.00000000000E+00  0.00000000000E+00  0.21953725892E+02  0.21953725892E+02  0.00000000000E+00 0.  1.
          2   -1    0    0  501    0  0.00000000000E+00 -0.00000000000E+00 -0.74154846304E+03  0.74154846304E+03  0.00000000000E+00 0. -1.
         23    2    1    2    0    0  0.57815983545E+02 -0.67501357217E+01 -0.24923095003E+03  0.27334632105E+03  0.95989022755E+02 0.  0.
          5    1    1    2  502    0  0.31789247540E+02  0.24448207334E+02 -0.21853639478E+03  0.22223527385E+03  0.47000000000E+01 0.  1.
         -5    1    1    2    0  502 -0.89605231085E+02 -0.17698071612E+02 -0.25182739234E+03  0.26792059404E+03  0.47000000000E+01 0.  1.
        -11    1    3    3    0    0  0.26721756128E+01 -0.43948964129E+02 -0.76740399521E+02  0.88474521130E+02  0.00000000000E+00 0.  1.
         11    1    3    3    0    0  0.55143807932E+02  0.37198828408E+02 -0.17249055051E+03  0.18487179992E+03  0.00000000000E+00 0. -1.
<mgrwt>
<rscale>  0 0.13097237E+03</rscale>
<asrwt>0</asrwt>
<pdfrwt beam="2">  1        2 0.11408436E+00 0.13787923E+03</pdfrwt>
<pdfrwt beam="1">  1       -2 0.33774968E-02 0.13787923E+03</pdfrwt>
<totfact> 0.13226612E+04</totfact>
</mgrwt>
</event>
<event>
 7    1  0.1233102E-005  0.1718339E+03  0.7546771E-02  0.1182179E+00
          3   -1    0    0  501    0  0.00000000000E+00  0.00000000000E+00  0.99013004353E+03  0.99013004353E+03  0.00000000000E+00 0. -1.
         -3   -1    0    0    0  501 -0.00000000000E+00 -0.00000000000E+00 -0.32228908957E+02  0.32228908957E+02  0.00000000000E+00 0.  1.
         23    2    1    2    0    0  0.88859119939E+02 -0.77497081749E+02  0.67530169449E+03  0.69161838848E+03  0.91661746808E+02 0.  0.
          5    1    1    2  502    0 -0.49821861126E+02  0.55861579418E+02  0.41933154881E+02  0.85925627024E+02  0.47000000000E+01 0. -1.
         -5    1    1    2    0  502 -0.39037258813E+02  0.21635502331E+02  0.24066628520E+03  0.24481493698E+03  0.47000000000E+01 0. -1.
        -11    1    3    3    0    0  0.20869745230E+02 -0.73156612355E+02  0.44482500529E+03  0.45128341596E+03  0.00000000000E+00 0. -1.
         11    1    3    3    0    0  0.67989374709E+02 -0.43404693945E+01  0.23047668920E+03  0.24033497252E+03  0.00000000000E+00 0.  1.
<mgrwt>
<rscale>  0 0.16591226E+03</rscale>
<asrwt>0</asrwt>
<pdfrwt beam="1">  1        3 0.15232768E+00 0.17183386E+03</pdfrwt>
<pdfrwt beam="2">  1       -3 0.49582944E-02 0.17183386E+03</pdfrwt>
<totfact> 0.18389658E+02</totfact>
</mgrwt>
</event>
<event>
 6    1  0.1111284E-005  0.3004595E+03  0.7546771E-02  0.1150523E+00
          2   -1    0    0  501    0  0.00000000000E+00  0.00000000000E+00  0.30877961553E+03  0.30877961553E+03  0.00000000000E+00 0. -1.
         -2   -1    0    0    0  501 -0.00000000000E+00 -0.00000000000E+00 -0.10544062275E+03  0.10544062275E+03  0.00000000000E+00 0.  1.
          5    1    1    2  502    0  0.26350757982E+02  0.12609384265E+03  0.14204330229E+03  0.19181347534E+03  0.47000000000E+01 0. -1.
         -5    1    1    2    0  502  0.12710094142E+02 -0.14371839158E+03  0.94172520878E+01  0.14466270151E+03  0.47000000000E+01 0.  1.
        -11    1    1    2    0    0 -0.13514701540E+02  0.26910997101E+02  0.21630317854E+02  0.37077210968E+02  0.00000000000E+00 0. -1.
         11    1    1    2    0    0 -0.25546150584E+02 -0.92864481631E+01  0.30248120552E+02  0.40666850457E+02  0.00000000000E+00 0.  1.
<mgrwt>
<rscale>  0 0.19907416E+03</rscale>
<asrwt>0</asrwt>
<pdfrwt beam="1">  1        2 0.47504556E-01 0.30045951E+03</pdfrwt>
<pdfrwt beam="2">  1       -2 0.16221634E-01 0.30045951E+03</pdfrwt>
<totfact> 0.31772628E+03</totfact>
</mgrwt>
</event>
<event>
 7    1  0.1111284E-005  0.1154507E+03  0.7546771E-02  0.1262650E+00
          2   -1    0    0  501    0  0.00000000000E+00  0.00000000000E+00  0.21929825657E+03  0.21929825657E+03  0.00000000000E+00 0. -1.
         -2   -1    0    0    0  501 -0.00000000000E+00 -0.00000000000E+00 -0.89474294306E+02  0.89474294306E+02  0.00000000000E+00 0.  1.
         23    2    1    2    0    0 -0.17740921155E+02  0.23235432271E+01  0.16455857117E+03  0.18820990470E+03  0.89572907427E+02 0.  0.
          5    1    1    2  502    0  0.15342556603E+02  0.43700887055E+02  0.18409591257E+02  0.50061608271E+02  0.47000000000E+01 0. -1.
         -5    1    1    2    0  502  0.23983645518E+01 -0.46024430282E+02 -0.53144200160E+02  0.70501037907E+02  0.47000000000E+01 0.  1.
        -11    1    3    3    0    0 -0.35549644378E+02 -0.32127789307E+02  0.11956499027E+03  0.12880900186E+03  0.00000000000E+00 0. -1.
         11    1    3    3    0    0  0.17808723223E+02  0.34451332534E+02  0.44993580892E+02  0.59400902835E+02  0.00000000000E+00 0.  1.
<mgrwt>
<rscale>  0 0.10888437E+03</rscale>
<asrwt>0</asrwt>
<pdfrwt beam="1">  1        2 0.33738193E-01 0.11545068E+03</pdfrwt>
<pdfrwt beam="2">  1       -2 0.13765276E-01 0.11545068E+03</pdfrwt>
<totfact> 0.57374515E+03</totfact>
</mgrwt>
</event>
<event>
 7    1  0.1111284E-005  0.2027470E+03  0.7546771E-02  0.1151327E+00
          2   -1    0    0  501    0  0.00000000000E+00  0.00000000000E+00  0.62360975375E+02  0.62360975375E+02  0.00000000000E+00 0. -1.
         -2   -1    0    0    0  501 -0.00000000000E+00 -0.00000000000E+00 -0.71638958034E+03  0.71638958034E+03  0.00000000000E+00 0.  1.
         23    2    1    2    0    0  0.12087847952E+02  0.15916717515E+03 -0.15917458673E+03  0.24397317620E+03  0.93306248077E+02 0.  0.
          5    1    1    2  502    0 -0.58393383495E+02 -0.45682869929E+02 -0.12841969118E+03  0.14835908777E+03  0.47000000000E+01 0. -1.
         -5    1    1    2    0  502  0.46305535543E+02 -0.11348430522E+03 -0.36643432705E+03  0.38641829174E+03  0.47000000000E+01 0. -1.
        -11    1    3    3    0    0  0.22739533047E+02 -0.55995376813E+00 -0.89537303379E+01  0.24445228540E+02  0.00000000000E+00 0. -1.
         11    1    3    3    0    0 -0.10651685095E+02  0.15972712892E+03 -0.15022085640E+03  0.21952794766E+03  0.00000000000E+00 0.  1.
<mgrwt>
<rscale>  0 0.19812872E+03</rscale>
<asrwt>0</asrwt>
<pdfrwt beam="1">  1        2 0.95939960E-02 0.20274700E+03</pdfrwt>
<pdfrwt beam="2">  1       -2 0.11021378E+00 0.20274700E+03</pdfrwt>
<totfact> 0.45797607E+02</totfact>
</mgrwt>
</event>
<event>
 7    1  0.1111284E-005  0.1324754E+03  0.7546771E-02  0.1237615E+00
          1   -1    0    0  501    0  0.00000000000E+00  0.00000000000E+00  0.85527941916E+02  0.85527941916E+02  0.00000000000E+00 0. -1.
         -1   -1    0    0    0  501 -0.00000000000E+00 -0.00000000000E+00 -0.15826075461E+03  0.15826075461E+03  0.00000000000E+00 0.  1.
         23    2    1    2    0    0 -0.43869285571E+02  0.51202932737E+00 -0.39340500872E+02  0.10716959769E+03  0.89514642764E+02 0.  0.
          5    1    1    2  502    0  0.19847495825E+02  0.34857832369E+02 -0.69550958990E+02  0.80426472411E+02  0.47000000000E+01 0.  1.
         -5    1    1    2    0  502  0.24021789746E+02 -0.35369861696E+02  0.36158647172E+02  0.56192626423E+02  0.47000000000E+01 0.  1.
        -11    1    3    3    0    0 -0.20272033628E+02  0.30709006495E+02  0.15778480614E+02  0.40036968889E+02  0.00000000000E+00 0. -1.
         11    1    3    3    0    0 -0.23597251943E+02 -0.30196977168E+02 -0.55118981486E+02  0.67132628799E+02  0.00000000000E+00 0.  1.
<mgrwt>
<rscale>  0 0.12338486E+03</rscale>
<asrwt>0</asrwt>
<pdfrwt beam="1">  1        1 0.13158145E-01 0.13247540E+03</pdfrwt>
<pdfrwt beam="2">  1       -1 0.24347808E-01 0.13247540E+03</pdfrwt>
<totfact> 0.61213922E+03</totfact>
</mgrwt>
</event>
<event>
 7    1  0.1111284E-005  0.1418526E+03  0.7546771E-02  0.1220602E+00
          1   -1    0    0  501    0  0.00000000000E+00  0.00000000000E+00  0.19247136238E+03  0.19247136238E+03  0.00000000000E+00 0. -1.
         -1   -1    0    0    0  501 -0.00000000000E+00 -0.00000000000E+00 -0.86877729550E+02  0.86877729550E+02  0.00000000000E+00 0.  1.
         23    2    1    2    0    0  0.38705613670E+01  0.66963323824E+02  0.61536203625E+02  0.13081217872E+03  0.93947079587E+02 0.  0.
          5    1    1    2  502    0  0.58029139833E+02 -0.51012510870E+02  0.29295232691E+02  0.82764473015E+02  0.47000000000E+01 0. -1.
         -5    1    1    2    0  502 -0.61899701200E+02 -0.15950812954E+02  0.14762196513E+02  0.65772440189E+02  0.47000000000E+01 0. -1.
        -11    1    3    3    0    0  0.38445425132E+02  0.35708451585E+01  0.46539441469E+01  0.38890369564E+02  0.00000000000E+00 0.  1.
         11    1    3    3    0    0 -0.34574863765E+02  0.63392478666E+02  0.56882259478E+02  0.91921809159E+02  0.00000000000E+00 0. -1.
<mgrwt>
<rscale>  0 0.13472924E+03</rscale>
<asrwt>0</asrwt>
<pdfrwt beam="1">  1        1 0.29610979E-01 0.14185259E+03</pdfrwt>
<pdfrwt beam="2">  1       -1 0.13365805E-01 0.14185259E+03</pdfrwt>
<totfact> 0.56895495E+03</totfact>
</mgrwt>
</event>
<event>
 7    1  0.1111284E-005  0.3059883E+03  0.7546771E-02  0.1082285E+00
         -1   -1    0    0    0  501 -0.00000000000E+00  0.00000000000E+00  0.82217515024E+02  0.82217515024E+02  0.00000000000E+00 0.  1.
          1   -1    0    0  501    0  0.00000000000E+00 -0.00000000000E+00 -0.28469863293E+03  0.28469863293E+03  0.00000000000E+00 0. -1.
         23    2    1    2    0    0  0.42043562592E+02 -0.18935577731E+02 -0.65183641675E+02  0.12164852728E+03  0.91778209761E+02 0.  0.
          5    1    1    2  502    0  0.19428337078E+02 -0.81948043472E+02 -0.66956295774E+02  0.10769483578E+03  0.47000000000E+01 0. -1.
         -5    1    1    2    0  502 -0.61471899670E+02  0.10088362120E+03 -0.70341180459E+02  0.13757278490E+03  0.47000000000E+01 0.  1.
        -11    1    3    3    0    0 -0.13925173613E+02 -0.21788483033E+02 -0.60039931013E+02  0.65371566977E+02  0.00000000000E+00 0. -1.
         11    1    3    3    0    0  0.55968736205E+02  0.28529053024E+01 -0.51437106623E+01  0.56276960299E+02  0.00000000000E+00 0.  1.
<mgrwt>
<rscale>  0 0.30598833E+03</rscale>
<asrwt>0</asrwt>
<pdfrwt beam="2">  1        1 0.43799790E-01 0.30598833E+03</pdfrwt>
<pdfrwt beam="1">  1       -1 0.12648848E-01 0.30598833E+03</pdfrwt>
<totfact> 0.39419676E+03</totfact>
</mgrwt>
</event>
<event>
 7    1  0.1111284E-005  0.1334663E+03  0.7546771E-02  0.1234747E+00
         -2   -1    0    0    0  501 -0.00000000000E+00  0.00000000000E+00  0.15195015886E+03  0.15195015886E+03  0.00000000000E+00 0.  1.
          2   -1    0    0  501    0  0.00000000000E+00 -0.00000000000E+00 -0.10339482934E+03  0.10339482934E+03  0.00000000000E+00 0. -1.
         23    2    1    2    0    0  0.46669151388E+02 -0.36176469100E+01 -0.20021643634E+02  0.10529147351E+03  0.92164695623E+02 0.  0.
          5    1    1    2  502    0 -0.31104117103E+02  0.62944173840E+02  0.25032771618E+02  0.74687112516E+02  0.47000000000E+01 0. -1.
         -5    1    1    2    0  502 -0.15565034284E+02 -0.59326526930E+02  0.43544201536E+02  0.75366402178E+02  0.47000000000E+01 0. -1.
        -11    1    3    3    0    0 -0.20026186377E+02  0.16941829200E+02  0.11585503112E+02  0.28675731896E+02  0.00000000000E+00 0.  1.
         11    1    3    3    0    0  0.66695337764E+02 -0.20559476110E+02 -0.31607146746E+02  0.76615741612E+02  0.00000000000E+00 0. -1.
<mgrwt>
<rscale>  0 0.12520675E+03</rscale>
<asrwt>0</asrwt>
<pdfrwt beam="2">  1        2 0.15906897E-01 0.13346631E+03</pdfrwt>
<pdfrwt beam="1">  1       -2 0.23376947E-01 0.13346631E+03</pdfrwt>
<totfact> 0.55258408E+03</totfact>
</mgrwt>
</event>
<event>
 7    1  0.1111284E-005  0.1346558E+03  0.7546771E-02  0.1231201E+00
          1   -1    0    0  501    0  0.00000000000E+00  0.00000000000E+00  0.23668653183E+02  0.23668653183E+02  0.00000000000E+00 0. -1.
         -1   -1    0    0    0  501 -0.00000000000E+00 -0.00000000000E+00 -0.63241142796E+03  0.63241142796E+03  0.00000000000E+00 0.  1.
         23    2    1    2    0    0  0.49910852336E+02 -0.38733468784E+01 -0.31095725509E+03  0.32926452129E+03  0.95992783552E+02 0.  0.
          5    1    1    2  502    0 -0.50627888518E+02 -0.49568190641E+02 -0.22792307716E+03  0.23872831361E+03  0.47000000000E+01 0.  1.
         -5    1    1    2    0  502  0.71703618184E+00  0.53441537519E+02 -0.69862442536E+02  0.88087246241E+02  0.47000000000E+01 0.  1.
        -11    1    3    3    0    0 -0.10480826608E+02 -0.25003137891E+02 -0.27275970311E+02  0.38457550458E+02  0.00000000000E+00 0. -1.
         11    1    3    3    0    0  0.60391678945E+02  0.21129791013E+02 -0.28368128478E+03  0.29080697083E+03  0.00000000000E+00 0.  1.
<mgrwt>
<rscale>  0 0.12750820E+03</rscale>
<asrwt>0</asrwt>
<pdfrwt beam="1">  1        1 0.36413305E-02 0.13465584E+03</pdfrwt>
<pdfrwt beam="2">  1       -1 0.97294085E-01 0.13465584E+03</pdfrwt>
<totfact> 0.26827593E+03</totfact>
</mgrwt>
</event>
<event>
 7    1  0.1111284E-005  0.1252860E+03  0.7546771E-02  0.1244654E+00
          1   -1    0    0  501    0  0.00000000000E+00  0.00000000000E+00  0.76546062354E+02  0.76546062354E+02  0.00000000000E+00 0. -1.
         -1   -1    0    0    0  501 -0.00000000000E+00 -0.00000000000E+00 -0.30034351708E+03  0.30034351708E+03  0.00000000000E+00 0.  1.
         23    2    1    2    0    0  0.48166934252E+02 -0.22847377346E+02  0.18756912386E+02  0.10388922368E+03  0.87172775728E+02 0.  0.
          5    1    1    2  502    0 -0.21473871957E+02 -0.41386845970E+02 -0.14984384531E+03  0.15700084768E+03  0.47000000000E+01 0. -1.
         -5    1    1    2    0  502 -0.26693062296E+02  0.64234223316E+02 -0.92710521808E+02  0.11599950807E+03  0.47000000000E+01 0.  1.
        -11    1    3    3    0    0  0.10288109594E+02  0.23549849616E+02 -0.19985603296E+02  0.32555567190E+02  0.00000000000E+00 0.  1.
         11    1    3    3    0    0  0.37878824658E+02 -0.46397226961E+02  0.38742515682E+02  0.71333656492E+02  0.00000000000E+00 0. -1.
<mgrwt>
<rscale>  0 0.11906123E+03</rscale>
<asrwt>0</asrwt>
<pdfrwt beam="1">  1        1 0.11776317E-01 0.12528597E+03</pdfrwt>
<pdfrwt beam="2">  1       -1 0.46206695E-01 0.12528597E+03</pdfrwt>
<totfact> 0.23621392E+03</totfact>
</mgrwt>
</event>
<event>
 7    1  0.1111284E-005  0.1311820E+03  0.7546771E-02  0.1239255E+00
         -3   -1    0    0    0  501 -0.00000000000E+00  0.00000000000E+00  0.28073232550E+03  0.28073232550E+03  0.00000000000E+00 0.  1.
          3   -1    0    0  501    0  0.00000000000E+00 -0.00000000000E+00 -0.19091899781E+03  0.19091899781E+03  0.00000000000E+00 0. -1.
         23    2    1    2    0    0 -0.28397410824E+02  0.25076355723E+02 -0.16068134872E+03  0.18888587153E+03  0.91783114351E+02 0.  0.
          5    1    1    2  502    0 -0.32959648043E+02 -0.10054927275E+02  0.13261125762E+02  0.37220792819E+02  0.47000000000E+01 0. -1.
         -5    1    1    2    0  502  0.61357058868E+02 -0.15021428448E+02  0.23723355065E+03  0.24554465895E+03  0.47000000000E+01 0.  1.
        -11    1    3    3    0    0 -0.46630244895E+02 -0.62489241558E+01 -0.36564811349E+02  0.59585352404E+02  0.00000000000E+00 0.  1.
         11    1    3    3    0    0  0.18232834071E+02  0.31325279879E+02 -0.12411653737E+03  0.12930051913E+03  0.00000000000E+00 0. -1.
<mgrwt>
<rscale>  0 0.12235927E+03</rscale>
<asrwt>0</asrwt>
<pdfrwt beam="2">  1        3 0.29372153E-01 0.13118200E+03</pdfrwt>
<pdfrwt beam="1">  1       -3 0.43189589E-01 0.13118200E+03</pdfrwt>
<totfact> 0.13944333E+02</totfact>
</mgrwt>
</event>
<event>
 7    1  0.1111284E-005  0.1349692E+03  0.7546771E-02  0.1232525E+00
         -2   -1    0    0    0  501 -0.00000000000E+00  0.00000000000E+00  0.14457201120E+03  0.14457201120E+03  0.00000000000E+00 0.  1.
          2   -1    0    0  501    0  0.00000000000E+00 -0.00000000000E+00 -0.11169565111E+03  0.11169565111E+03  0.00000000000E+00 0. -1.
         23    2    1    2    0    0 -0.93353796269E+01 -0.50077062201E+02 -0.27855709765E+02  0.10826403243E+03  0.91379968707E+02 0.  0.
          5    1    1    2  502    0 -0.38869693738E+02 -0.24359327626E+02  0.18840429155E+02  0.49812465352E+02  0.47000000000E+01 0. -1.
         -5    1    1    2    0  502  0.48205073365E+02  0.74436389828E+02  0.41891640705E+02  0.98191164519E+02  0.47000000000E+01 0. -1.
        -11    1    3    3    0    0 -0.10587745536E+02 -0.69800279164E+02 -0.43617059383E+02  0.82985704770E+02  0.00000000000E+00 0. -1.
         11    1    3    3    0    0  0.12523659093E+01  0.19723216963E+02  0.15761349618E+02  0.25278327665E+02  0.00000000000E+00 0.  1.
<mgrwt>
<rscale>  0 0.12664231E+03</rscale>
<asrwt>0</asrwt>
<pdfrwt beam="2">  1        2 0.17183946E-01 0.13496922E+03</pdfrwt>
<pdfrwt beam="1">  1       -2 0.22241848E-01 0.13496922E+03</pdfrwt>
<totfact> 0.55101492E+03</totfact>
</mgrwt>
</event>
<event>
 7    1  0.1111284E-005  0.1425385E+03  0.7546771E-02  0.1220860E+00
         -2   -1    0    0    0  501 -0.00000000000E+00  0.00000000000E+00  0.12558732439E+03  0.12558732439E+03  0.00000000000E+00 0.  1.
          2   -1    0    0  501    0  0.00000000000E+00 -0.00000000000E+00 -0.29012320769E+03  0.29012320769E+03  0.00000000000E+00 0. -1.
         23    2    1    2    0    0 -0.26039853534E+02  0.63360670023E+02 -0.23191297526E+03  0.25804978957E+03  0.90074509838E+02 0.  0.
          5    1    1    2  502    0  0.48500129108E+02  0.71282318472E+01 -0.10274274396E+02  0.50306311007E+02  0.47000000000E+01 0. -1.
         -5    1    1    2    0  502 -0.22460275574E+02 -0.70488901870E+02  0.77651366358E+02  0.10735443150E+03  0.47000000000E+01 0. -1.
        -11    1    3    3    0    0  0.25403951596E+02  0.31494604650E+02 -0.15494779443E+03  0.16014396610E+03  0.00000000000E+00 0. -1.
         11    1    3    3    0    0 -0.51443805130E+02  0.31866065374E+02 -0.76965180833E+02  0.97905823470E+02  0.00000000000E+00 0.  1.
<mgrwt>
<rscale>  0 0.13454768E+03</rscale>
<asrwt>0</asrwt>
<pdfrwt beam="2">  1        2 0.44634339E-01 0.14253855E+03</pdfrwt>
<pdfrwt beam="1">  1       -2 0.19321127E-01 0.14253855E+03</pdfrwt>
<totfact> 0.24645946E+03</totfact>
</mgrwt>
</event>
<event>
 7    1  0.1111284E-005  0.1395679E+03  0.7546771E-02  0.1225956E+00
         -1   -1    0    0    0  501 -0.00000000000E+00  0.00000000000E+00  0.43262640825E+03  0.43262640825E+03  0.00000000000E+00 0.  1.
          1   -1    0    0  501    0  0.00000000000E+00 -0.00000000000E+00 -0.35762379159E+02  0.35762379159E+02  0.00000000000E+00 0. -1.
         23    2    1    2    0    0 -0.47264722899E+02 -0.40278759176E+02  0.15473104736E+03  0.18891143841E+03  0.88822869088E+02 0.  0.
          5    1    1    2  502    0  0.26531129572E+02  0.15549543421E+02 -0.38460139846E+01  0.31345987950E+02  0.47000000000E+01 0.  1.
         -5    1    1    2    0  502  0.20733593326E+02  0.24729215755E+02  0.24597899571E+03  0.24813136105E+03  0.47000000000E+01 0.  1.
        -11    1    3    3    0    0 -0.54162168231E+02  0.11944024017E+02  0.85610144233E+02  0.10200635751E+03  0.00000000000E+00 0.  1.
         11    1    3    3    0    0  0.68974453327E+01 -0.52222783193E+02  0.69120903126E+02  0.86905080896E+02  0.00000000000E+00 0. -1.
<mgrwt>
<rscale>  0 0.13101612E+03</rscale>
<asrwt>0</asrwt>
<pdfrwt beam="2">  1        1 0.55019048E-02 0.13956793E+03</pdfrwt>
<pdfrwt beam="1">  1       -1 0.66557905E-01 0.13956793E+03</pdfrwt>
<totfact> 0.33292587E+03</totfact>
</mgrwt>
</event>
<event>
 7    1  0.1134827E-005  0.2162944E+03  0.7546771E-02  0.1139925E+00
          2   -1    0    0  501    0  0.00000000000E+00  0.00000000000E+00  0.60157032812E+03  0.60157032812E+03  0.00000000000E+00 0. -1.
         -2   -1    0    0    0  501 -0.00000000000E+00 -0.00000000000E+00 -0.95544161777E+02  0.95544161777E+02  0.00000000000E+00 0.  1.
         23    2    1    2    0    0 -0.12116204826E+03  0.12836493670E+03  0.41844511118E+03  0.46376132409E+03  0.93917281353E+02 0.  0.
          5    1    1    2  502    0  0.49787509632E+02 -0.12561835857E+02 -0.24448822269E+02  0.57065144754E+02  0.47000000000E+01 0. -1.
         -5    1    1    2    0  502  0.71374538626E+02 -0.11580310084E+03  0.11202987742E+03  0.17628802105E+03  0.47000000000E+01 0. -1.
        -11    1    3    3    0    0 -0.80940335058E+02  0.57139563822E+02  0.32404183026E+03  0.33885007798E+03  0.00000000000E+00 0.  1.
         11    1    3    3    0    0 -0.40221713200E+02  0.71225372880E+02  0.94403280930E+02  0.12491124611E+03  0.00000000000E+00 0. -1.
<mgrwt>
<rscale>  0 0.21208595E+03</rscale>
<asrwt>0</asrwt>
<pdfrwt beam="1">  1        2 0.92549279E-01 0.21629438E+03</pdfrwt>
<pdfrwt beam="2">  1       -2 0.14699102E-01 0.21629438E+03</pdfrwt>
<totfact> 0.17734714E+03</totfact>
</mgrwt>
</event>
<event>
 7    1  0.1111284E-005  0.3593437E+03  0.7546771E-02  0.1059901E+00
          1   -1    0    0  501    0  0.00000000000E+00  0.00000000000E+00  0.12240446752E+04  0.12240446752E+04  0.00000000000E+00 0. -1.
         -1   -1    0    0    0  501 -0.00000000000E+00 -0.00000000000E+00 -0.10562023636E+03  0.10562023636E+03  0.00000000000E+00 0.  1.
         23    2    1    2    0    0 -0.30953496123E+03 -0.13300603150E+03  0.43577763677E+03  0.55821526664E+03  0.90551855672E+02 0.  0.
          5    1    1    2  502    0  0.10794531388E+03  0.11303634999E+03  0.28071257456E+03  0.32132700901E+03  0.47000000000E+01 0. -1.
         -5    1    1    2    0  502  0.20158964735E+03  0.19969681510E+02  0.40193422747E+03  0.45012263586E+03  0.47000000000E+01 0. -1.
        -11    1    3    3    0    0 -0.14497167514E+03 -0.80346106477E+02  0.14622967946E+03  0.22103258261E+03  0.00000000000E+00 0.  1.
         11    1    3    3    0    0 -0.16456328609E+03 -0.52659925022E+02  0.28954795730E+03  0.33718268403E+03  0.00000000000E+00 0. -1.
<mgrwt>
<rscale>  0 0.35669318E+03</rscale>
<asrwt>0</asrwt>
<pdfrwt beam="1">  1        1 0.18831456E+00 0.35934370E+03</pdfrwt>
<pdfrwt beam="2">  1       -1 0.16249268E-01 0.35934370E+03</pdfrwt>
<totfact> 0.30962283E+02</totfact>
</mgrwt>
</event>
<event>
 7    1  0.1111284E-005  0.1578099E+03  0.7546771E-02  0.1198229E+00
          2   -1    0    0  501    0  0.00000000000E+00  0.00000000000E+00  0.55813383428E+03  0.55813383428E+03  0.00000000000E+00 0.  1.
         -2   -1    0    0    0  501 -0.00000000000E+00 -0.00000000000E+00 -0.38789609926E+02  0.38789609926E+02  0.00000000000E+00 0. -1.
         23    2    1    2    0    0 -0.93999769215E+02 -0.21039856501E+02  0.26683931809E+03  0.29916063539E+03  0.94948575083E+02 0.  0.
          5    1    1    2  502    0 -0.42741666969E+01  0.39602260168E+02  0.20430949256E+02  0.45012456041E+02  0.47000000000E+01 0. -1.
         -5    1    1    2    0  502  0.98273935912E+02 -0.18562403666E+02  0.23207395700E+03  0.25275035278E+03  0.47000000000E+01 0. -1.
        -11    1    3    3    0    0 -0.27792891399E+02 -0.51602450006E+02  0.85034203708E+02  0.10327668401E+03  0.00000000000E+00 0. -1.
         11    1    3    3    0    0 -0.66206877816E+02  0.30562593505E+02  0.18180511438E+03  0.19588395138E+03  0.00000000000E+00 0.  1.
<mgrwt>
<rscale>  0 0.15184093E+03</rscale>
<asrwt>0</asrwt>
<pdfrwt beam="1">  1        2 0.85866738E-01 0.15780989E+03</pdfrwt>
<pdfrwt beam="2">  1       -2 0.59676327E-02 0.15780989E+03</pdfrwt>
<totfact> 0.79186630E+03</totfact>
</mgrwt>
</event>
<event>
 7    1  0.1111284E-005  0.1293245E+03  0.7546771E-02  0.1242851E+00
         -1   -1    0    0    0  501 -0.00000000000E+00  0.00000000000E+00  0.30360548339E+02  0.30360548339E+02  0.00000000000E+00 0.  1.
          1   -1    0    0  501    0  0.00000000000E+00 -0.00000000000E+00 -0.42152912027E+03  0.42152912027E+03  0.00000000000E+00 0. -1.
         23    2    1    2    0    0 -0.32324575320E+02  0.76290110362E+01 -0.18317481578E+03  0.20696880750E+03  0.90443320154E+02 0.  0.
          5    1    1    2  502    0  0.18573243052E+02 -0.20278923822E+02  0.72435958135E+01  0.28822903899E+02  0.47000000000E+01 0.  1.
         -5    1    1    2    0  502  0.13751332268E+02  0.12649912786E+02 -0.21523735196E+03  0.21609795722E+03  0.47000000000E+01 0.  1.
        -11    1    3    3    0    0 -0.27938402904E+02  0.47228963835E+02 -0.86895395225E+02  0.10277129508E+03  0.00000000000E+00 0.  1.
         11    1    3    3    0    0 -0.43861724155E+01 -0.39599952799E+02 -0.96279420559E+02  0.10419751241E+03  0.00000000000E+00 0. -1.
<mgrwt>
<rscale>  0 0.12014953E+03</rscale>
<asrwt>0</asrwt>
<pdfrwt beam="2">  1        1 0.64850630E-01 0.12932450E+03</pdfrwt>
<pdfrwt beam="1">  1       -1 0.46708539E-02 0.12932450E+03</pdfrwt>
<totfact> 0.10435349E+04</totfact>
</mgrwt>
</event>
<event>
 7    1  0.1111284E-005  0.1727097E+03  0.7546771E-02  0.1181172E+00
         -1   -1    0    0    0  501 -0.00000000000E+00  0.00000000000E+00  0.68285843331E+02  0.68285843331E+02  0.00000000000E+00 0.  1.
          1   -1    0    0  501    0  0.00000000000E+00 -0.00000000000E+00 -0.40051619548E+03  0.40051619548E+03  0.00000000000E+00 0. -1.
         23    2    1    2    0    0  0.25892084135E+02 -0.11633378485E+03 -0.10532546507E+03  0.18364512390E+03  0.91804838764E+02 0.  0.
          5    1    1    2  502    0 -0.31686222701E+01  0.10326908081E+03 -0.67408059181E+02  0.12345233761E+03  0.47000000000E+01 0.  1.
         -5    1    1    2    0  502 -0.22723461865E+02  0.13064704037E+02 -0.15949682789E+03  0.16170457730E+03  0.47000000000E+01 0.  1.
        -11    1    3    3    0    0  0.34146552408E+02 -0.83818321792E+02 -0.11718207806E+03  0.14806463970E+03  0.00000000000E+00 0. -1.
         11    1    3    3    0    0 -0.82544682731E+01 -0.32515463060E+02  0.11856612991E+02  0.35580484203E+02  0.00000000000E+00 0.  1.
<mgrwt>
<rscale>  0 0.16685072E+03</rscale>
<asrwt>0</asrwt>
<pdfrwt beam="2">  1        1 0.61617875E-01 0.17270969E+03</pdfrwt>
<pdfrwt beam="1">  1       -1 0.10505515E-01 0.17270969E+03</pdfrwt>
<totfact> 0.33440114E+03</totfact>
</mgrwt>
</event>
<event>
 7    1  0.1111284E-005  0.1999782E+03  0.7546771E-02  0.1160926E+00
         -1   -1    0    0    0  501 -0.00000000000E+00  0.00000000000E+00  0.10771575236E+03  0.10771575236E+03  0.00000000000E+00 0.  1.
          1   -1    0    0  501    0  0.00000000000E+00 -0.00000000000E+00 -0.60766569840E+03  0.60766569840E+03  0.00000000000E+00 0. -1.
         23    2    1    2    0    0 -0.77736534844E+02 -0.95444679749E+02 -0.49172332523E+03  0.51523406620E+03  0.92312830371E+02 0.  0.
          5    1    1    2  502    0  0.58810660943E+01  0.32062552210E+02 -0.75907987867E+02  0.82744829534E+02  0.47000000000E+01 0. -1.
         -5    1    1    2    0  502  0.71855468750E+02  0.63382127539E+02  0.67681367057E+02  0.11740255503E+03  0.47000000000E+01 0.  1.
        -11    1    3    3    0    0 -0.84978375808E+02 -0.50066624215E+02 -0.24216256703E+03  0.26147791510E+03  0.00000000000E+00 0. -1.
         11    1    3    3    0    0  0.72418409637E+01 -0.45378055534E+02 -0.24956075821E+03  0.25375615110E+03  0.00000000000E+00 0.  1.
<mgrwt>
<rscale>  0 0.18729308E+03</rscale>
<asrwt>0</asrwt>
<pdfrwt beam="2">  1        1 0.93487032E-01 0.19997824E+03</pdfrwt>
<pdfrwt beam="1">  1       -1 0.16571654E-01 0.19997824E+03</pdfrwt>
<totfact> 0.94804101E+02</totfact>
</mgrwt>
</event>
<event>
 7    1  0.1111284E-005  0.1529860E+03  0.7546771E-02  0.1212256E+00
          3   -1    0    0  501    0  0.00000000000E+00  0.00000000000E+00  0.17485087183E+03  0.17485087183E+03  0.00000000000E+00 0. -1.
         -3   -1    0    0    0  501 -0.00000000000E+00 -0.00000000000E+00 -0.16856910307E+03  0.16856910307E+03  0.00000000000E+00 0.  1.
         23    2    1    2    0    0  0.31369035080E+02  0.54015318866E+02  0.11249967494E+03  0.15717558272E+03  0.90256943810E+02 0.  0.
          5    1    1    2  502    0  0.23196481174E+02 -0.86221286749E+02 -0.64193608413E+02  0.11006859856E+03  0.47000000000E+01 0. -1.
         -5    1    1    2    0  502 -0.54565516254E+02  0.32205967883E+02 -0.42024297770E+02  0.76175793625E+02  0.47000000000E+01 0.  1.
        -11    1    3    3    0    0  0.27800689482E+02  0.81349818833E+01  0.10697367363E+03  0.11082609402E+03  0.00000000000E+00 0.  1.
         11    1    3    3    0    0  0.35683455980E+01  0.45880336983E+02  0.55260013133E+01  0.46349488697E+02  0.00000000000E+00 0. -1.
<mgrwt>
<rscale>  0 0.14080017E+03</rscale>
<asrwt>0</asrwt>
<pdfrwt beam="1">  1        3 0.26900134E-01 0.15298605E+03</pdfrwt>
<pdfrwt beam="2">  1       -3 0.25933708E-01 0.15298605E+03</pdfrwt>
<totfact> 0.43578106E+02</totfact>
</mgrwt>
</event>
<event>
 7    1  0.1200295E-005  0.2444242E+03  0.7546771E-02  0.1119961E+00
          2   -1    0    0  501    0  0.00000000000E+00  0.00000000000E+00  0.19800701515E+03  0.19800701515E+03  0.00000000000E+00 0.  1.
         -2   -1    0    0    0  501 -0.00000000000E+00 -0.00000000000E+00 -0.32367179589E+03  0.32367179589E+03  0.00000000000E+00 0. -1.
         23    2    1    2    0    0 -0.14537210600E+03  0.15160800591E+03  0.35343581072E+02  0.22898971605E+03  0.84077848874E+02 0.  0.
          5    1    1    2  502    0  0.13240428691E+03 -0.16938127939E+03 -0.16338012739E+03  0.27006678623E+03  0.47000000000E+01 0.  1.
         -5    1    1    2    0  502  0.12967819094E+02  0.17773273473E+02  0.23717655763E+01  0.22622308767E+02  0.47000000000E+01 0.  1.
        -11    1    3    3    0    0 -0.98966792339E+02  0.15004405657E+03  0.30395052132E+02  0.18229510166E+03  0.00000000000E+00 0. -1.
         11    1    3    3    0    0 -0.46405313661E+02  0.15639493486E+01  0.49485289395E+01  0.46694614381E+02  0.00000000000E+00 0.  1.
<mgrwt>
<rscale>  0 0.23974707E+03</rscale>
<asrwt>0</asrwt>
<pdfrwt beam="1">  1        2 0.30462618E-01 0.24442425E+03</pdfrwt>
<pdfrwt beam="2">  1       -2 0.49795660E-01 0.24442425E+03</pdfrwt>
<totfact> 0.66867327E+02</totfact>
</mgrwt>
</event>
<event>
 7    1  0.1111284E-005  0.1570605E+03  0.7546771E-02  0.1200488E+00
         -2   -1    0    0    0  501 -0.00000000000E+00  0.00000000000E+00  0.48746429929E+02  0.48746429929E+02  0.00000000000E+00 0.  1.
          2   -1    0    0  501    0  0.00000000000E+00 -0.00000000000E+00 -0.42445628412E+03  0.42445628412E+03  0.00000000000E+00 0. -1.
         23    2    1    2    0    0  0.90747070681E+02 -0.28438259980E+02 -0.17129728234E+03  0.21541890279E+03  0.89547636882E+02 0.  0.
          5    1    1    2  502    0  0.15240643650E+02  0.24534786045E+01 -0.11638962844E+03  0.11750290373E+03  0.47000000000E+01 0. -1.
         -5    1    1    2    0  502 -0.10598771433E+03  0.25984781376E+02 -0.88022943403E+02  0.14028090753E+03  0.47000000000E+01 0. -1.
        -11    1    3    3    0    0  0.68172522928E+02  0.19750529617E+01 -0.40659990061E+02  0.79401690841E+02  0.00000000000E+00 0.  1.
         11    1    3    3    0    0  0.22574547753E+02 -0.30413312942E+02 -0.13063729228E+03  0.13601721194E+03  0.00000000000E+00 0. -1.
<mgrwt>
<rscale>  0 0.14998771E+03</rscale>
<asrwt>0</asrwt>
<pdfrwt beam="2">  1        2 0.65300967E-01 0.15706048E+03</pdfrwt>
<pdfrwt beam="1">  1       -2 0.74994508E-02 0.15706048E+03</pdfrwt>
<totfact> 0.75405584E+03</totfact>
</mgrwt>
</event>
<event>
 7    1  0.1111284E-005  0.1351680E+03  0.7546771E-02  0.1229477E+00
          1   -1    0    0  501    0  0.00000000000E+00  0.00000000000E+00  0.99683164254E+02  0.99683164254E+02  0.00000000000E+00 0. -1.
         -1   -1    0    0    0  501 -0.00000000000E+00 -0.00000000000E+00 -0.19679335923E+03  0.19679335923E+03  0.00000000000E+00 0.  1.
         23    2    1    2    0    0  0.54750029667E+02  0.43602084173E+02  0.25697050401E+02  0.11385123626E+03  0.86041025713E+02 0.  0.
          5    1    1    2  502    0  0.15124612043E+02 -0.13196238396E+02  0.14717067208E+02  0.25329363681E+02  0.47000000000E+01 0. -1.
         -5    1    1    2    0  502 -0.69874641711E+02 -0.30405845777E+02 -0.13752431258E+03  0.15729592354E+03  0.47000000000E+01 0.  1.
        -11    1    3    3    0    0  0.64317885582E+02  0.10190875774E+01  0.27978118561E+02  0.70147017495E+02  0.00000000000E+00 0. -1.
         11    1    3    3    0    0 -0.95678559151E+01  0.42582996595E+02 -0.22810681601E+01  0.43704218764E+02  0.00000000000E+00 0.  1.
<mgrwt>
<rscale>  0 0.12864747E+03</rscale>
<asrwt>0</asrwt>
<pdfrwt beam="1">  1        1 0.15335872E-01 0.13516795E+03</pdfrwt>
<pdfrwt beam="2">  1       -1 0.30275901E-01 0.13516795E+03</pdfrwt>
<totfact> 0.35001227E+03</totfact>
</mgrwt>
</event>
<event>
 7    1  0.1111284E-005  0.2035478E+03  0.7546771E-02  0.1150809E+00
         -3   -1    0    0    0  501 -0.00000000000E+00  0.00000000000E+00  0.71974094183E+02  0.71974094183E+02  0.00000000000E+00 0.  1.
          3   -1    0    0  501    0  0.00000000000E+00 -0.00000000000E+00 -0.52433501664E+03  0.52433501664E+03  0.00000000000E+00 0. -1.
         23    2    1    2    0    0  0.16036782702E+03  0.94256700568E+01 -0.21707625295E+03  0.28519725954E+03  0.91698931584E+02 0.  0.
          5    1    1    2  502    0 -0.12125656710E+03  0.21834254154E+02 -0.22945882222E+03  0.26048671908E+03  0.47000000000E+01 0. -1.
         -5    1    1    2    0  502 -0.39111259919E+02 -0.31259924211E+02 -0.58258472783E+01  0.50625132204E+02  0.47000000000E+01 0. -1.
        -11    1    3    3    0    0  0.16332843031E+03  0.27177744632E+02 -0.20504289771E+03  0.26354771077E+03  0.00000000000E+00 0. -1.
         11    1    3    3    0    0 -0.29606032898E+01 -0.17752074575E+02 -0.12033355246E+02  0.21649548772E+02  0.00000000000E+00 0.  1.
<mgrwt>
<rscale>  0 0.19873643E+03</rscale>
<asrwt>0</asrwt>
<pdfrwt beam="2">  1        3 0.80666926E-01 0.20354780E+03</pdfrwt>
<pdfrwt beam="1">  1       -3 0.11072937E-01 0.20354780E+03</pdfrwt>
<totfact> 0.22315172E+02</totfact>
</mgrwt>
</event>
<event>
 7    1  0.1111284E-005  0.1275192E+03  0.7546771E-02  0.1246162E+00
          3   -1    0    0  501    0  0.00000000000E+00  0.00000000000E+00  0.10980533207E+03  0.10980533207E+03  0.00000000000E+00 0. -1.
         -3   -1    0    0    0  501 -0.00000000000E+00 -0.00000000000E+00 -0.12035897139E+03  0.12035897139E+03  0.00000000000E+00 0.  1.
         23    2    1    2    0    0 -0.13573922416E+02 -0.21326514710E+02  0.25948310901E+02  0.97523700413E+02  0.90545489695E+02 0.  0.
          5    1    1    2  502    0  0.63535806107E+02  0.36096336702E+02 -0.97028756013E+01  0.73864605704E+02  0.47000000000E+01 0.  1.
         -5    1    1    2    0  502 -0.49961883691E+02 -0.14769821992E+02 -0.26799074616E+02  0.58775997345E+02  0.47000000000E+01 0.  1.
        -11    1    3    3    0    0 -0.41121814724E+02 -0.42158060565E+02  0.11098082468E+02  0.59928900801E+02  0.00000000000E+00 0.  1.
         11    1    3    3    0    0  0.27547892308E+02  0.20831545855E+02  0.14850228433E+02  0.37594799611E+02  0.00000000000E+00 0. -1.
<mgrwt>
<rscale>  0 0.11816072E+03</rscale>
<asrwt>0</asrwt>
<pdfrwt beam="1">  1        3 0.16893128E-01 0.12751916E+03</pdfrwt>
<pdfrwt beam="2">  1       -3 0.18516765E-01 0.12751916E+03</pdfrwt>
<totfact> 0.17632948E+03</totfact>
</mgrwt>
</event>
<event>
 7    1  0.1111284E-005  0.1295276E+03  0.7546771E-02  0.1242359E+00
         -1   -1    0    0    0  501 -0.00000000000E+00  0.00000000000E+00  0.39595722403E+03  0.39595722403E+03  0.00000000000E+00 0.  1.
          1   -1    0    0  501    0  0.00000000000E+00 -0.00000000000E+00 -0.35970903041E+02  0.35970903041E+02  0.00000000000E+00 0. -1.
         23    2    1    2    0    0 -0.26473222203E+02  0.21255196732E+02  0.88823080615E+02  0.13141705226E+03  0.90709906259E+02 0.  0.
          5    1    1    2  502    0 -0.24465159187E+02 -0.30942565792E+02  0.23196216011E+03  0.23533915976E+03  0.47000000000E+01 0. -1.
         -5    1    1    2    0  502  0.50938381390E+02  0.96873690590E+01  0.39201080265E+02  0.65171915054E+02  0.47000000000E+01 0. -1.
        -11    1    3    3    0    0 -0.49740043929E+02  0.21110646615E+02  0.93210154909E+02  0.10773979928E+03  0.00000000000E+00 0.  1.
         11    1    3    3    0    0  0.23266821726E+02  0.14455011759E+00 -0.43870742936E+01  0.23677252983E+02  0.00000000000E+00 0. -1.
<mgrwt>
<rscale>  0 0.12044877E+03</rscale>
<asrwt>0</asrwt>
<pdfrwt beam="2">  1        1 0.55339854E-02 0.12952762E+03</pdfrwt>
<pdfrwt beam="1">  1       -1 0.60916493E-01 0.12952762E+03</pdfrwt>
<totfact> 0.38998582E+03</totfact>
</mgrwt>
</event>
<event>
 7    1  0.1111284E-005  0.1289139E+03  0.7546771E-02  0.1243561E+00
          2   -1    0    0  501    0  0.00000000000E+00  0.00000000000E+00  0.23661949474E+02  0.23661949474E+02  0.00000000000E+00 0. -1.
         -2   -1    0    0    0  501 -0.00000000000E+00 -0.00000000000E+00 -0.68617687941E+03  0.68617687941E+03  0.00000000000E+00 0.  1.
         23    2    1    2    0    0 -0.28453654770E+02  0.14129316748E+02 -0.12761510530E+03  0.15962376501E+03  0.90470344275E+02 0.  0.
          5    1    1    2  502    0 -0.11590842468E+01 -0.13782201072E+02 -0.13299571959E+00  0.14608224757E+02  0.47000000000E+01 0.  1.
         -5    1    1    2    0  502  0.29612739017E+02 -0.34711567618E+00 -0.53476682892E+03  0.53560683912E+03  0.47000000000E+01 0.  1.
        -11    1    3    3    0    0 -0.33593643134E+02  0.44590410593E+02 -0.11169666920E+03  0.12487186828E+03  0.00000000000E+00 0.  1.
         11    1    3    3    0    0  0.51399883641E+01 -0.30461093845E+02 -0.15918436094E+02  0.34751896729E+02  0.00000000000E+00 0. -1.
<mgrwt>
<rscale>  0 0.11971916E+03</rscale>
<asrwt>0</asrwt>
<pdfrwt beam="1">  1        2 0.36402999E-02 0.12891390E+03</pdfrwt>
<pdfrwt beam="2">  1       -2 0.10556568E+00 0.12891390E+03</pdfrwt>
<totfact> 0.17415171E+03</totfact>
</mgrwt>
</event>
<event>
 7    1  0.1111284E-005  0.1688218E+03  0.7546771E-02  0.1185892E+00
          1   -1    0    0  501    0  0.00000000000E+00  0.00000000000E+00  0.10613829802E+03  0.10613829802E+03  0.00000000000E+00 0. -1.
         -1   -1    0    0    0  501 -0.00000000000E+00 -0.00000000000E+00 -0.23257211413E+03  0.23257211413E+03  0.00000000000E+00 0.  1.
         23    2    1    2    0    0 -0.10546076990E+03 -0.41879030440E+02 -0.67476095649E+02  0.15988981889E+03  0.90199243474E+02 0.  0.
          5    1    1    2  502    0  0.52179740520E+02 -0.12248355217E+02 -0.83090075854E+02  0.98988879333E+02  0.47000000000E+01 0. -1.
         -5    1    1    2    0  502  0.53281029381E+02  0.54127385657E+02  0.24132355393E+02  0.79831713916E+02  0.47000000000E+01 0. -1.
        -11    1    3    3    0    0 -0.26147595057E+02 -0.58354282888E+02 -0.30304655518E+02  0.70762215940E+02  0.00000000000E+00 0. -1.
         11    1    3    3    0    0 -0.79313174844E+02  0.16475252448E+02 -0.37171440131E+02  0.89127602955E+02  0.00000000000E+00 0.  1.
<mgrwt>
<rscale>  0 0.16250962E+03</rscale>
<asrwt>0</asrwt>
<pdfrwt beam="1">  1        1 0.16328969E-01 0.16882178E+03</pdfrwt>
<pdfrwt beam="2">  1       -1 0.35780325E-01 0.16882178E+03</pdfrwt>
<totfact> 0.24528602E+03</totfact>
</mgrwt>
</event>
<event>
 7    1  0.1111284E-005  0.1268815E+03  0.7546771E-02  0.1245763E+00
          2   -1    0    0  501    0  0.00000000000E+00  0.00000000000E+00  0.24999759665E+03  0.24999759665E+03  0.00000000000E+00 0.  1.
         -2   -1    0    0    0  501 -0.00000000000E+00 -0.00000000000E+00 -0.62546623515E+02  0.62546623515E+02  0.00000000000E+00 0. -1.
         23    2    1    2    0    0  0.57538194977E+01  0.20926441616E+02  0.15357351046E+03  0.18121792836E+03  0.93723487178E+02 0.  0.
          5    1    1    2  502    0 -0.27806782974E+02  0.22761802902E+02  0.64085804760E+02  0.73623346993E+02  0.47000000000E+01 0.  1.
         -5    1    1    2    0  502  0.22052963476E+02 -0.43688244518E+02 -0.30208342088E+02  0.57702944803E+02  0.47000000000E+01 0.  1.
        -11    1    3    3    0    0  0.27452880619E+02 -0.19913657792E+02  0.18901009597E+02  0.38826055488E+02  0.00000000000E+00 0. -1.
         11    1    3    3    0    0 -0.21699061121E+02  0.40840099408E+02  0.13467250086E+03  0.14239187288E+03  0.00000000000E+00 0.  1.
<mgrwt>
<rscale>  0 0.11839856E+03</rscale>
<asrwt>0</asrwt>
<pdfrwt beam="1">  1        2 0.38461168E-01 0.12688149E+03</pdfrwt>
<pdfrwt beam="2">  1       -2 0.96225576E-02 0.12688149E+03</pdfrwt>
<totfact> 0.88662895E+03</totfact>
</mgrwt>
</event>
<event>
 7    1  0.1111284E-005  0.1273479E+03  0.7546771E-02  0.1247664E+00
          1   -1    0    0  501    0  0.00000000000E+00  0.00000000000E+00  0.37441226150E+03  0.37441226150E+03  0.00000000000E+00 0. -1.
         -1   -1    0    0    0  501 -0.00000000000E+00 -0.00000000000E+00 -0.32063533294E+02  0.32063533294E+02  0.00000000000E+00 0.  1.
         23    2    1    2    0    0  0.10074670031E+02  0.22139549757E+02  0.13464656941E+03  0.16284148893E+03  0.88294921841E+02 0.  0.
          5    1    1    2  502    0 -0.12483239414E+02 -0.68794062822E+01  0.22173404431E+03  0.22224138656E+03  0.47000000000E+01 0.  1.
         -5    1    1    2    0  502  0.24085693830E+01 -0.15260143475E+02 -0.14031885509E+02  0.21392919303E+02  0.47000000000E+01 0.  1.
        -11    1    3    3    0    0  0.23731159845E+02  0.36102907129E+02  0.21941059616E+02  0.48456144583E+02  0.00000000000E+00 0.  1.
         11    1    3    3    0    0 -0.13656489814E+02 -0.13963357373E+02  0.11270550979E+03  0.11438534435E+03  0.00000000000E+00 0. -1.
<mgrwt>
<rscale>  0 0.11727323E+03</rscale>
<asrwt>0</asrwt>
<pdfrwt beam="1">  1        1 0.57601883E-01 0.12734790E+03</pdfrwt>
<pdfrwt beam="2">  1       -1 0.49328515E-02 0.12734790E+03</pdfrwt>
<totfact> 0.11162608E+04</totfact>
</mgrwt>
</event>
<event>
 7    1  0.1111284E-005  0.1456003E+03  0.7546771E-02  0.1216021E+00
          3   -1    0    0  501    0  0.00000000000E+00  0.00000000000E+00  0.13090966415E+03  0.13090966415E+03  0.00000000000E+00 0. -1.
         -3   -1    0    0    0  501 -0.00000000000E+00 -0.00000000000E+00 -0.13709547975E+03  0.13709547975E+03  0.00000000000E+00 0.  1.
         23    2    1    2    0    0 -0.57934874251E+02 -0.47028342388E+02  0.22268067483E+02  0.11965057177E+03  0.90842048923E+02 0.  0.
          5    1    1    2  502    0 -0.26293754035E+02 -0.14635130364E+02  0.16456341463E+02  0.34618632503E+02  0.47000000000E+01 0. -1.
         -5    1    1    2    0  502  0.84228628286E+02  0.61663472752E+02 -0.44910224542E+02  0.11373593963E+03  0.47000000000E+01 0. -1.
        -11    1    3    3    0    0 -0.50092203851E+02 -0.37155271846E+02  0.55887400436E+02  0.83744520060E+02  0.00000000000E+00 0. -1.
         11    1    3    3    0    0 -0.78426704002E+01 -0.98730705413E+01 -0.33619332953E+02  0.35906051706E+02  0.00000000000E+00 0.  1.
<mgrwt>
<rscale>  0 0.13801834E+03</rscale>
<asrwt>0</asrwt>
<pdfrwt beam="1">  1        3 0.20139948E-01 0.14560033E+03</pdfrwt>
<pdfrwt beam="2">  1       -3 0.21091612E-01 0.14560033E+03</pdfrwt>
<totfact> 0.10544612E+03</totfact>
</mgrwt>
</event>
<event>
 7    1  0.1111284E-005  0.1879405E+03  0.7546771E-02  0.1165475E+00
          2   -1    0    0  501    0  0.00000000000E+00  0.00000000000E+00  0.10272050034E+04  0.10272050034E+04  0.00000000000E+00 0.  1.
         -2   -1    0    0    0  501 -0.00000000000E+00 -0.00000000000E+00 -0.32612636482E+02  0.32612636482E+02  0.00000000000E+00 0. -1.
         23    2    1    2    0    0 -0.73257635470E+02 -0.11970555013E+03  0.59983294911E+03  0.62260302023E+03  0.90215597790E+02 0.  0.
          5    1    1    2  502    0  0.13855951149E+02  0.12237067947E+03  0.21500145463E+03  0.24781905913E+03  0.47000000000E+01 0.  1.
         -5    1    1    2    0  502  0.59401684322E+02 -0.26651293457E+01  0.17975796314E+03  0.18939556047E+03  0.47000000000E+01 0.  1.
        -11    1    3    3    0    0 -0.47273459658E+01 -0.83507323801E+02  0.22999351789E+03  0.24473013545E+03  0.00000000000E+00 0. -1.
         11    1    3    3    0    0 -0.68530289505E+02 -0.36198226326E+02  0.36983943122E+03  0.37787288478E+03  0.00000000000E+00 0.  1.
<mgrwt>
<rscale>  0 0.18242698E+03</rscale>
<asrwt>0</asrwt>
<pdfrwt beam="1">  1        2 0.15803151E+00 0.18794048E+03</pdfrwt>
<pdfrwt beam="2">  1       -2 0.50173295E-02 0.18794048E+03</pdfrwt>
<totfact> 0.48617903E+03</totfact>
</mgrwt>
</event>
<event>
 7    1  0.1116956E-005  0.1464856E+03  0.7546771E-02  0.1214537E+00
          2   -1    0    0  501    0  0.00000000000E+00  0.00000000000E+00  0.84722335585E+03  0.84722335585E+03  0.00000000000E+00 0. -1.
         -2   -1    0    0    0  501 -0.00000000000E+00 -0.00000000000E+00 -0.20824401448E+02  0.20824401448E+02  0.00000000000E+00 0.  1.
         23    2    1    2    0    0  0.65230970165E+02  0.39705614198E+02  0.37854803151E+03  0.39684877004E+03  0.91426029404E+02 0.  0.
          5    1    1    2  502    0 -0.71142281256E+02 -0.21716251310E+02  0.11050973725E+03  0.13329408006E+03  0.47000000000E+01 0. -1.
         -5    1    1    2    0  502  0.59113110912E+01 -0.17989362888E+02  0.33734118564E+03  0.33790490719E+03  0.47000000000E+01 0. -1.
        -11    1    3    3    0    0  0.79224157314E+02  0.34728462534E+01  0.27694314134E+03  0.28807296176E+03  0.00000000000E+00 0. -1.
         11    1    3    3    0    0 -0.13993187149E+02  0.36232767945E+02  0.10160489017E+03  0.10877580828E+03  0.00000000000E+00 0.  1.
<mgrwt>
<rscale>  0 0.13910583E+03</rscale>
<asrwt>0</asrwt>
<pdfrwt beam="1">  1        2 0.13034203E+00 0.14648562E+03</pdfrwt>
<pdfrwt beam="2">  1       -2 0.32037547E-02 0.14648562E+03</pdfrwt>
<totfact> 0.12165925E+04</totfact>
</mgrwt>
</event>
<event>
 7    1  0.1111284E-005  0.1487621E+03  0.7546771E-02  0.1208973E+00
         -1   -1    0    0    0  501 -0.00000000000E+00  0.00000000000E+00  0.75407724883E+03  0.75407724883E+03  0.00000000000E+00 0.  1.
          1   -1    0    0  501    0  0.00000000000E+00 -0.00000000000E+00 -0.25806389205E+02  0.25806389205E+02  0.00000000000E+00 0. -1.
         23    2    1    2    0    0 -0.27135524327E+02 -0.81207941615E+02  0.28863862863E+03  0.31576440282E+03  0.95204168444E+02 0.  0.
          5    1    1    2  502    0  0.29583142716E+02  0.89912824487E+01  0.17532725941E+02  0.35853758129E+02  0.47000000000E+01 0. -1.
         -5    1    1    2    0  502 -0.24476183885E+01  0.72216659167E+02  0.42209950505E+03  0.42826547709E+03  0.47000000000E+01 0.  1.
        -11    1    3    3    0    0  0.16028113816E+02  0.14513591163E+02  0.69151565430E+02  0.72453321265E+02  0.00000000000E+00 0.  1.
         11    1    3    3    0    0 -0.43163638144E+02 -0.95721532778E+02  0.21948706320E+03  0.24331108156E+03  0.00000000000E+00 0. -1.
<mgrwt>
<rscale>  0 0.14328735E+03</rscale>
<asrwt>0</asrwt>
<pdfrwt beam="2">  1        1 0.39702143E-02 0.14876211E+03</pdfrwt>
<pdfrwt beam="1">  1       -1 0.11601187E+00 0.14876211E+03</pdfrwt>
<totfact> 0.16105989E+03</totfact>
</mgrwt>
</event>
<event>
 7    1  0.1111284E-005  0.1627613E+03  0.7546771E-02  0.1206792E+00
          2   -1    0    0  501    0  0.00000000000E+00  0.00000000000E+00  0.56769165920E+03  0.56769165920E+03  0.00000000000E+00 0. -1.
         -2   -1    0    0    0  501 -0.00000000000E+00 -0.00000000000E+00 -0.34029783596E+02  0.34029783596E+02  0.00000000000E+00 0.  1.
         23    2    1    2    0    0  0.37029638520E+02 -0.28189722543E+02  0.29961807888E+03  0.31664647123E+03  0.91258643256E+02 0.  0.
          5    1    1    2  502    0  0.44429816830E+02 -0.36896247031E+02  0.73646105447E+02  0.93707953323E+02  0.47000000000E+01 0. -1.
         -5    1    1    2    0  502 -0.81459455350E+02  0.65085969574E+02  0.16039769128E+03  0.19136701824E+03  0.47000000000E+01 0.  1.
        -11    1    3    3    0    0  0.22992921278E-01 -0.54131873289E+02  0.12388782335E+03  0.13519782915E+03  0.00000000000E+00 0. -1.
         11    1    3    3    0    0  0.37006645599E+02  0.25942150746E+02  0.17573025553E+03  0.18144864208E+03  0.00000000000E+00 0.  1.
<mgrwt>
<rscale>  0 0.14497094E+03</rscale>
<asrwt>0</asrwt>
<pdfrwt beam="1">  1        2 0.87337171E-01 0.16276130E+03</pdfrwt>
<pdfrwt beam="2">  1       -2 0.52353517E-02 0.16276130E+03</pdfrwt>
<totfact> 0.94916652E+03</totfact>
</mgrwt>
</event>
<event>
 7    1  0.1111284E-005  0.1683441E+03  0.7546771E-02  0.1186361E+00
          2   -1    0    0  501    0  0.00000000000E+00  0.00000000000E+00  0.38067143538E+03  0.38067143538E+03  0.00000000000E+00 0.  1.
         -2   -1    0    0    0  501 -0.00000000000E+00 -0.00000000000E+00 -0.70294102464E+02  0.70294102464E+02  0.00000000000E+00 0. -1.
         23    2    1    2    0    0 -0.95933493657E+02  0.59267276423E+02  0.20985454808E+03  0.25489265744E+03  0.90639341407E+02 0.  0.
          5    1    1    2  502    0 -0.93408833151E+01  0.13279633266E+02 -0.15816879996E+02  0.23148746264E+02  0.47000000000E+01 0.  1.
         -5    1    1    2    0  502  0.10527437697E+03 -0.72546909689E+02  0.11633966483E+03  0.17292413413E+03  0.47000000000E+01 0.  1.
        -11    1    3    3    0    0 -0.51518417109E+02  0.80397405506E+02  0.13762768379E+03  0.16750901307E+03  0.00000000000E+00 0.  1.
         11    1    3    3    0    0 -0.44415076548E+02 -0.21130129083E+02  0.72226864284E+02  0.87383644374E+02  0.00000000000E+00 0. -1.
<mgrwt>
<rscale>  0 0.16208696E+03</rscale>
<asrwt>0</asrwt>
<pdfrwt beam="1">  1        2 0.58564835E-01 0.16834412E+03</pdfrwt>
<pdfrwt beam="2">  1       -2 0.10814478E-01 0.16834412E+03</pdfrwt>
<totfact> 0.47982019E+03</totfact>
</mgrwt>
</event>
<event>
 7    1  0.1816891E-005  0.1972465E+03  0.7546771E-02  0.1156568E+00
         -2   -1    0    0    0  501 -0.00000000000E+00  0.00000000000E+00  0.15146264546E+03  0.15146264546E+03  0.00000000000E+00 0.  1.
          2   -1    0    0  501    0  0.00000000000E+00 -0.00000000000E+00 -0.29410513106E+03  0.29410513106E+03  0.00000000000E+00 0. -1.
         23    2    1    2    0    0 -0.13312619932E+03 -0.74553279403E+02 -0.17078594391E+03  0.24632365571E+03  0.90701313723E+02 0.  0.
          5    1    1    2  502    0  0.68475227676E+02  0.12280987050E+01  0.65121759512E+02  0.94621871645E+02  0.47000000000E+01 0. -1.
         -5    1    1    2    0  502  0.64650971645E+02  0.73325180698E+02 -0.36978301204E+02  0.10462224916E+03  0.47000000000E+01 0. -1.
        -11    1    3    3    0    0 -0.87211188859E+02 -0.75361012309E+02 -0.68195602524E+02  0.13392428399E+03  0.00000000000E+00 0.  1.
         11    1    3    3    0    0 -0.45915010462E+02  0.80773290613E+00 -0.10259034139E+03  0.11239937172E+03  0.00000000000E+00 0. -1.
<mgrwt>
<rscale>  0 0.19211384E+03</rscale>
<asrwt>0</asrwt>
<pdfrwt beam="2">  1        2 0.45246943E-01 0.19724646E+03</pdfrwt>
<pdfrwt beam="1">  1       -2 0.23301946E-01 0.19724646E+03</pdfrwt>
<totfact> 0.17813546E+03</totfact>
</mgrwt>
</event>
<event>
 7    1  0.1111284E-005  0.1550672E+03  0.7546771E-02  0.1201926E+00
          1   -1    0    0  501    0  0.00000000000E+00  0.00000000000E+00  0.34910206873E+03  0.34910206873E+03  0.00000000000E+00 0. -1.
         -1   -1    0    0    0  501 -0.00000000000E+00 -0.00000000000E+00 -0.61332192226E+02  0.61332192226E+02  0.00000000000E+00 0.  1.
         23    2    1    2    0    0  0.58494870741E+02 -0.70743808503E+02  0.17385077951E+03  0.21801958710E+03  0.94244949354E+02 0.  0.
          5    1    1    2  502    0 -0.52897527149E+02 -0.24663661859E+02  0.53023731047E+02  0.78993991220E+02  0.47000000000E+01 0. -1.
         -5    1    1    2    0  502 -0.55973435919E+01  0.95407470362E+02  0.60895365953E+02  0.11342068264E+03  0.47000000000E+01 0. -1.
        -11    1    3    3    0    0 -0.17769635426E+02 -0.45851902277E+02  0.85876883011E+02  0.98959567103E+02  0.00000000000E+00 0. -1.
         11    1    3    3    0    0  0.76264506167E+02 -0.24891906226E+02  0.87973896497E+02  0.11906002000E+03  0.00000000000E+00 0.  1.
<mgrwt>
<rscale>  0 0.14882376E+03</rscale>
<asrwt>0</asrwt>
<pdfrwt beam="1">  1        1 0.53708009E-01 0.15506723E+03</pdfrwt>
<pdfrwt beam="2">  1       -1 0.94357221E-02 0.15506723E+03</pdfrwt>
<totfact> 0.46656214E+03</totfact>
</mgrwt>
</event>
<event>
 7    1  0.1111284E-005  0.1334586E+03  0.7546771E-02  0.1235265E+00
          1   -1    0    0  501    0  0.00000000000E+00  0.00000000000E+00  0.31392422298E+02  0.31392422298E+02  0.00000000000E+00 0. -1.
         -1   -1    0    0    0  501 -0.00000000000E+00 -0.00000000000E+00 -0.47593765865E+03  0.47593765865E+03  0.00000000000E+00 0.  1.
         23    2    1    2    0    0  0.18085356756E+02  0.43119488809E+02 -0.12838581389E+03  0.16415667056E+03  0.90984201025E+02 0.  0.
          5    1    1    2  502    0  0.59122932182E+01 -0.12323565283E+02  0.80793553043E+01  0.16558727443E+02  0.47000000000E+01 0. -1.
         -5    1    1    2    0  502 -0.23997649974E+02 -0.30795923526E+02 -0.32423877776E+03  0.32661468294E+03  0.47000000000E+01 0. -1.
        -11    1    3    3    0    0  0.45458920703E+02  0.43786832439E+02 -0.11988611279E+03  0.13548608861E+03  0.00000000000E+00 0.  1.
         11    1    3    3    0    0 -0.27373563947E+02 -0.66734362999E+00 -0.84997011065E+01  0.28670581954E+02  0.00000000000E+00 0. -1.
<mgrwt>
<rscale>  0 0.12487480E+03</rscale>
<asrwt>0</asrwt>
<pdfrwt beam="1">  1        1 0.48296035E-02 0.13345864E+03</pdfrwt>
<pdfrwt beam="2">  1       -1 0.73221177E-01 0.13345864E+03</pdfrwt>
<totfact> 0.32870812E+03</totfact>
</mgrwt>
</event>
<event>
 7    1  0.1111284E-005  0.1318490E+03  0.7546771E-02  0.1237722E+00
          2   -1    0    0  501    0  0.00000000000E+00  0.00000000000E+00  0.37041165895E+02  0.37041165895E+02  0.00000000000E+00 0.  1.
         -2   -1    0    0    0  501 -0.00000000000E+00 -0.00000000000E+00 -0.39605664002E+03  0.39605664002E+03  0.00000000000E+00 0. -1.
         23    2    1    2    0    0 -0.41319895659E+02  0.69357663111E+01 -0.97918600946E+02  0.14059870133E+03  0.91785095585E+02 0.  0.
          5    1    1    2  502    0  0.71138539052E+02 -0.24413153714E+02 -0.87701972063E+02  0.11563053107E+03  0.47000000000E+01 0. -1.
         -5    1    1    2    0  502 -0.29818643393E+02  0.17477387403E+02 -0.17339490111E+03  0.17686857351E+03  0.47000000000E+01 0. -1.
        -11    1    3    3    0    0 -0.44968775976E+02 -0.23732055667E+02 -0.97211678076E+02  0.10970647945E+03  0.00000000000E+00 0. -1.
         11    1    3    3    0    0  0.36488803165E+01  0.30667821978E+02 -0.70692286995E+00  0.30892221876E+02  0.00000000000E+00 0.  1.
<mgrwt>
<rscale>  0 0.12331778E+03</rscale>
<asrwt>0</asrwt>
<pdfrwt beam="1">  1        2 0.56986408E-02 0.13184896E+03</pdfrwt>
<pdfrwt beam="2">  1       -2 0.60931792E-01 0.13184896E+03</pdfrwt>
<totfact> 0.32277953E+03</totfact>
</mgrwt>
</event>
<event>
 7    1  0.1111284E-005  0.1913598E+03  0.7546771E-02  0.1159896E+00
          3   -1    0    0  501    0  0.00000000000E+00  0.00000000000E+00  0.83619593647E+02  0.83619593647E+02  0.00000000000E+00 0. -1.
         -3   -1    0    0    0  501 -0.00000000000E+00 -0.00000000000E+00 -0.19268420146E+04  0.19268420146E+04  0.00000000000E+00 0.  1.
         23    2    1    2    0    0  0.13516983583E+03 -0.52184506372E+02 -0.24291815726E+02  0.18149274090E+03  0.10656179176E+03 0.  0.
          5    1    1    2  502    0 -0.15013937946E+03  0.15158067089E+02 -0.14039474087E+04  0.14120417900E+04  0.47000000000E+01 0. -1.
         -5    1    1    2    0  502  0.14969543625E+02  0.37026439282E+02 -0.41498319658E+03  0.41692707742E+03  0.47000000000E+01 0. -1.
        -11    1    3    3    0    0  0.14207706944E+03 -0.64609029620E+02 -0.32652751027E+01  0.15611176250E+03  0.00000000000E+00 0. -1.
         11    1    3    3    0    0 -0.69072336040E+01  0.12424523248E+02 -0.21026540623E+02  0.25380978401E+02  0.00000000000E+00 0.  1.
<mgrwt>
<rscale>  0 0.18841762E+03</rscale>
<asrwt>0</asrwt>
<pdfrwt beam="1">  1        3 0.12864555E-01 0.19135979E+03</pdfrwt>
<pdfrwt beam="2">  1       -3 0.29643719E+00 0.19135979E+03</pdfrwt>
<totfact> 0.54743340E+00</totfact>
</mgrwt>
</event>
<event>
 7    1  0.1111284E-005  0.1335447E+03  0.7546771E-02  0.1234683E+00
         -1   -1    0    0    0  501 -0.00000000000E+00  0.00000000000E+00  0.72686236439E+02  0.72686236439E+02  0.00000000000E+00 0.  1.
          1   -1    0    0  501    0  0.00000000000E+00 -0.00000000000E+00 -0.19469216876E+03  0.19469216876E+03  0.00000000000E+00 0. -1.
         23    2    1    2    0    0  0.42060451706E+02  0.20982929224E+02 -0.65741717802E+02  0.12246518971E+03  0.92012957319E+02 0.  0.
          5    1    1    2  502    0  0.92288248833E+01 -0.64853583960E+02 -0.31810489300E+02  0.72973665049E+02  0.47000000000E+01 0.  1.
         -5    1    1    2    0  502 -0.51289276589E+02  0.43870654736E+02 -0.24453725216E+02  0.71939550436E+02  0.47000000000E+01 0.  1.
        -11    1    3    3    0    0 -0.28956641114E+02 -0.95269126422E+00 -0.19619928358E+02  0.34990516916E+02  0.00000000000E+00 0.  1.
         11    1    3    3    0    0  0.71017092820E+02  0.21935620488E+02 -0.46121789444E+02  0.87474672794E+02  0.00000000000E+00 0. -1.
<mgrwt>
<rscale>  0 0.12524769E+03</rscale>
<asrwt>0</asrwt>
<pdfrwt beam="2">  1        1 0.29952641E-01 0.13354467E+03</pdfrwt>
<pdfrwt beam="1">  1       -1 0.11182498E-01 0.13354467E+03</pdfrwt>
<totfact> 0.73596420E+03</totfact>
</mgrwt>
</event>
<event>
 7    1  0.1111284E-005  0.1941096E+03  0.7546771E-02  0.1159465E+00
         -1   -1    0    0    0  501 -0.00000000000E+00  0.00000000000E+00  0.48311170092E+02  0.48311170092E+02  0.00000000000E+00 0.  1.
          1   -1    0    0  501    0  0.00000000000E+00 -0.00000000000E+00 -0.74376832496E+03  0.74376832496E+03  0.00000000000E+00 0. -1.
         23    2    1    2    0    0  0.14844079160E+03  0.38022970623E+01 -0.42420203821E+03  0.45852606672E+03  0.90827631080E+02 0.  0.
          5    1    1    2  502    0 -0.70253448439E+02 -0.43557895204E+02 -0.21200533248E+03  0.22759874396E+03  0.47000000000E+01 0. -1.
         -5    1    1    2    0  502 -0.78187343163E+02  0.39755598141E+02 -0.59249784174E+02  0.10595468437E+03  0.47000000000E+01 0. -1.
        -11    1    3    3    0    0  0.24668985611E+02  0.31299804711E+02 -0.16807041317E+03  0.17273071646E+03  0.00000000000E+00 0.  1.
         11    1    3    3    0    0  0.12377180599E+03 -0.27497507649E+02 -0.25613162505E+03  0.28579535027E+03  0.00000000000E+00 0. -1.
<mgrwt>
<rscale>  0 0.18889196E+03</rscale>
<asrwt>0</asrwt>
<pdfrwt beam="2">  1        1 0.11442589E+00 0.19410964E+03</pdfrwt>
<pdfrwt beam="1">  1       -1 0.74324878E-02 0.19410964E+03</pdfrwt>
<totfact> 0.24630049E+03</totfact>
</mgrwt>
</event>
<event>
 7    1  0.1111284E-005  0.2055174E+03  0.7546771E-02  0.1177477E+00
          1   -1    0    0  501    0  0.00000000000E+00  0.00000000000E+00  0.13705415535E+03  0.13705415535E+03  0.00000000000E+00 0. -1.
         -1   -1    0    0    0  501 -0.00000000000E+00 -0.00000000000E+00 -0.25205231085E+03  0.25205231085E+03  0.00000000000E+00 0.  1.
         23    2    1    2    0    0  0.41962386056E+02 -0.83656985869E+01  0.64277851256E+02  0.11638444557E+03  0.87079677602E+02 0.  0.
          5    1    1    2  502    0 -0.42121600131E+02 -0.88553892988E+02 -0.13275714025E+03  0.16511380756E+03  0.47000000000E+01 0. -1.
         -5    1    1    2    0  502  0.15921407454E+00  0.96919591575E+02 -0.46518866501E+02  0.10760821307E+03  0.47000000000E+01 0.  1.
        -11    1    3    3    0    0 -0.19886758444E+02  0.19545333896E+02  0.27675614358E+02  0.39286675459E+02  0.00000000000E+00 0.  1.
         11    1    3    3    0    0  0.61849144500E+02 -0.27911032483E+02  0.36602236898E+02  0.77097770107E+02  0.00000000000E+00 0. -1.
<mgrwt>
<rscale>  0 0.17035564E+03</rscale>
<asrwt>0</asrwt>
<pdfrwt beam="1">  1        1 0.21085255E-01 0.20551743E+03</pdfrwt>
<pdfrwt beam="2">  1       -1 0.38777278E-01 0.20551743E+03</pdfrwt>
<totfact> 0.15432783E+03</totfact>
</mgrwt>
</event>
<event>
 7    1  0.1111284E-005  0.1430553E+03  0.7546771E-02  0.1221495E+00
         -4   -1    0    0    0  501 -0.00000000000E+00  0.00000000000E+00  0.58445734835E+03  0.58445734835E+03  0.00000000000E+00 0.  1.
          4   -1    0    0  501    0  0.00000000000E+00 -0.00000000000E+00 -0.28815431302E+02  0.28815431302E+02  0.00000000000E+00 0. -1.
         23    2    1    2    0    0 -0.38184191493E+02  0.58168553200E+02  0.17853675680E+03  0.20994521234E+03  0.85790474966E+02 0.  0.
          5    1    1    2  502    0 -0.26009663864E+02 -0.71269794038E+02  0.22967228081E+03  0.24192422932E+03  0.47000000000E+01 0. -1.
         -5    1    1    2    0  502  0.64193855357E+02  0.13101240838E+02  0.14743287944E+03  0.16140333800E+03  0.47000000000E+01 0. -1.
        -11    1    3    3    0    0  0.21315199395E+02  0.37229423719E+02  0.44514155237E+02  0.61821337191E+02  0.00000000000E+00 0. -1.
         11    1    3    3    0    0 -0.59499390889E+02  0.20939129481E+02  0.13402260156E+03  0.14812387515E+03  0.00000000000E+00 0.  1.
<mgrwt>
<rscale>  0 0.13410044E+03</rscale>
<asrwt>0</asrwt>
<pdfrwt beam="2">  1        4 0.44331437E-02 0.14305532E+03</pdfrwt>
<pdfrwt beam="1">  1       -4 0.89916506E-01 0.14305532E+03</pdfrwt>
<totfact> 0.53150302E+02</totfact>
</mgrwt>
</event>
<event>
 6    1  0.1111284E-005  0.1600566E+03  0.7546771E-02  0.1195235E+00
          3   -1    0    0  501    0  0.00000000000E+00  0.00000000000E+00  0.19734834750E+03  0.19734834750E+03  0.00000000000E+00 0. -1.
         -3   -1    0    0    0  501 -0.00000000000E+00 -0.00000000000E+00 -0.11497592066E+03  0.11497592066E+03  0.00000000000E+00 0.  1.
          5    1    1    2  502    0 -0.49629696446E+02  0.50022835471E+02 -0.25800976684E+02  0.75187573679E+02  0.47000000000E+01 0. -1.
         -5    1    1    2    0  502  0.19122909858E+02 -0.68722915806E+02  0.48696428496E+02  0.86498306265E+02  0.47000000000E+01 0.  1.
        -11    1    1    2    0    0  0.79112245196E+02  0.27174434714E+02  0.57027408871E+02  0.10123893818E+03  0.00000000000E+00 0. -1.
         11    1    1    2    0    0 -0.48605458607E+02 -0.84743543784E+01  0.24495661592E+01  0.49399450027E+02  0.00000000000E+00 0.  1.
<mgrwt>
<rscale>  0 0.15434368E+03</rscale>
<asrwt>0</asrwt>
<pdfrwt beam="1">  1        3 0.30361284E-01 0.16005662E+03</pdfrwt>
<pdfrwt beam="2">  1       -3 0.17688603E-01 0.16005662E+03</pdfrwt>
<totfact> 0.69340914E+02</totfact>
</mgrwt>
</event>
<event>
 7    1  0.1111284E-005  0.2057234E+03  0.7546771E-02  0.1149288E+00
          1   -1    0    0  501    0  0.00000000000E+00  0.00000000000E+00  0.16102048115E+03  0.16102048115E+03  0.00000000000E+00 0. -1.
         -1   -1    0    0    0  501 -0.00000000000E+00 -0.00000000000E+00 -0.32870313593E+03  0.32870313593E+03  0.00000000000E+00 0.  1.
         23    2    1    2    0    0  0.36816969735E+02  0.15919408922E+03  0.47808836507E+02  0.19179965556E+03  0.88335585809E+02 0.  0.
          5    1    1    2  502    0 -0.46602443463E+02 -0.11072622218E+03 -0.59357551029E+02  0.13408017332E+03  0.47000000000E+01 0. -1.
         -5    1    1    2    0  502  0.97854737274E+01 -0.48467867044E+02 -0.15613394026E+03  0.16384378820E+03  0.47000000000E+01 0. -1.
        -11    1    3    3    0    0 -0.19594013791E+02  0.83347612617E+02 -0.55329042665E+00  0.85621586271E+02  0.00000000000E+00 0.  1.
         11    1    3    3    0    0  0.56410983526E+02  0.75846476603E+02  0.48362126934E+02  0.10617806928E+03  0.00000000000E+00 0. -1.
<mgrwt>
<rscale>  0 0.20053600E+03</rscale>
<asrwt>0</asrwt>
<pdfrwt beam="1">  1        1 0.24772382E-01 0.20572337E+03</pdfrwt>
<pdfrwt beam="2">  1       -1 0.50569713E-01 0.20572337E+03</pdfrwt>
<totfact> 0.77842747E+02</totfact>
</mgrwt>
</event>
<event>
 7    1  0.1111284E-005  0.2032611E+03  0.7546771E-02  0.1151205E+00
         -2   -1    0    0    0  501 -0.00000000000E+00  0.00000000000E+00  0.16098292594E+03  0.16098292594E+03  0.00000000000E+00 0.  1.
          2   -1    0    0  501    0  0.00000000000E+00 -0.00000000000E+00 -0.24734082636E+03  0.24734082636E+03  0.00000000000E+00 0. -1.
         23    2    1    2    0    0 -0.16024340051E+03  0.36114610626E+01 -0.90380057431E+02  0.20502289164E+03  0.90414828746E+02 0.  0.
          5    1    1    2  502    0  0.11611994974E+03 -0.27155862593E+02 -0.50122181527E+02  0.12944344974E+03  0.47000000000E+01 0.  1.
         -5    1    1    2    0  502  0.44123450771E+02  0.23544401530E+02  0.54144338539E+02  0.73857410916E+02  0.47000000000E+01 0.  1.
        -11    1    3    3    0    0 -0.10543954448E+03  0.27116200515E+02 -0.95968315264E+02  0.14512995351E+03  0.00000000000E+00 0. -1.
         11    1    3    3    0    0 -0.54803856032E+02 -0.23504739453E+02  0.55882578329E+01  0.59892938134E+02  0.00000000000E+00 0.  1.
<mgrwt>
<rscale>  0 0.19827176E+03</rscale>
<asrwt>0</asrwt>
<pdfrwt beam="2">  1        2 0.38052435E-01 0.20326107E+03</pdfrwt>
<pdfrwt beam="1">  1       -2 0.24766604E-01 0.20326107E+03</pdfrwt>
<totfact> 0.19301722E+03</totfact>
</mgrwt>
</event>
<event>
 7    1  0.1111284E-005  0.1342988E+03  0.7546771E-02  0.1234328E+00
         -1   -1    0    0    0  501 -0.00000000000E+00  0.00000000000E+00  0.75052479125E+02  0.75052479125E+02  0.00000000000E+00 0.  1.
          1   -1    0    0  501    0  0.00000000000E+00 -0.00000000000E+00 -0.18771728306E+03  0.18771728306E+03  0.00000000000E+00 0. -1.
         23    2    1    2    0    0  0.48399099632E+02  0.80742236659E+01 -0.59171034445E+02  0.11820919302E+03  0.89802762007E+02 0.  0.
          5    1    1    2  502    0  0.90283704042E+01  0.27266674516E+02  0.26827069463E+02  0.39582378242E+02  0.47000000000E+01 0. -1.
         -5    1    1    2    0  502 -0.57427470036E+02 -0.35340898182E+02 -0.80320838950E+02  0.10497819092E+03  0.47000000000E+01 0. -1.
        -11    1    3    3    0    0  0.67094444387E+02  0.42000425709E+01 -0.13307376284E+02  0.68530220259E+02  0.00000000000E+00 0.  1.
         11    1    3    3    0    0 -0.18695344755E+02  0.38741810950E+01 -0.45863658161E+02  0.49678972761E+02  0.00000000000E+00 0. -1.
<mgrwt>
<rscale>  0 0.12547549E+03</rscale>
<asrwt>0</asrwt>
<pdfrwt beam="2">  1        1 0.28879582E-01 0.13429883E+03</pdfrwt>
<pdfrwt beam="1">  1       -1 0.11546535E-01 0.13429883E+03</pdfrwt>
<totfact> 0.73342206E+03</totfact>
</mgrwt>
</event>
<event>
 7    1  0.1111284E-005  0.1363813E+03  0.7546771E-02  0.1233094E+00
         -1   -1    0    0    0  501 -0.00000000000E+00  0.00000000000E+00  0.61527359677E+02  0.61527359677E+02  0.00000000000E+00 0.  1.
          1   -1    0    0  501    0  0.00000000000E+00 -0.00000000000E+00 -0.23104295009E+03  0.23104295009E+03  0.00000000000E+00 0. -1.
         23    2    1    2    0    0 -0.10876880282E+02 -0.53438580952E+02 -0.89990873855E+02  0.13469682688E+03  0.84088580296E+02 0.  0.
          5    1    1    2  502    0  0.31791207357E+02 -0.33401138013E+02 -0.20327640353E+02  0.50612447561E+02  0.47000000000E+01 0. -1.
         -5    1    1    2    0  502 -0.20914327075E+02  0.86839718965E+02 -0.59197076200E+02  0.10726103532E+03  0.47000000000E+01 0. -1.
        -11    1    3    3    0    0  0.16328083068E+01  0.12371170682E+02  0.88473256072E+01  0.15296636800E+02  0.00000000000E+00 0.  1.
         11    1    3    3    0    0 -0.12509688589E+02 -0.65809751634E+02 -0.98838199462E+02  0.11940019008E+03  0.00000000000E+00 0. -1.
<mgrwt>
<rscale>  0 0.12627262E+03</rscale>
<asrwt>0</asrwt>
<pdfrwt beam="2">  1        1 0.35545070E-01 0.13638129E+03</pdfrwt>
<pdfrwt beam="1">  1       -1 0.94657476E-02 0.13638129E+03</pdfrwt>
<totfact> 0.76897623E+03</totfact>
</mgrwt>
</event>
<event>
 7    1  0.1111284E-005  0.1331317E+03  0.7546771E-02  0.1235560E+00
         -1   -1    0    0    0  501 -0.00000000000E+00  0.00000000000E+00  0.14311424996E+03  0.14311424996E+03  0.00000000000E+00 0.  1.
          1   -1    0    0  501    0  0.00000000000E+00 -0.00000000000E+00 -0.24972000626E+03  0.24972000626E+03  0.00000000000E+00 0. -1.
         23    2    1    2    0    0 -0.52812807405E+00  0.45768742805E+02 -0.20373573600E+03  0.22803653278E+03  0.91637074478E+02 0.  0.
          5    1    1    2  502    0  0.49911514280E+02 -0.19545506501E+02  0.94353403945E+02  0.10861786648E+03  0.47000000000E+01 0. -1.
         -5    1    1    2    0  502 -0.49383386206E+02 -0.26223236303E+02  0.27765757580E+01  0.56179856962E+02  0.47000000000E+01 0. -1.
        -11    1    3    3    0    0 -0.41188057797E+02  0.12771368320E+02 -0.13440052306E+03  0.14114908626E+03  0.00000000000E+00 0. -1.
         11    1    3    3    0    0  0.40659929723E+02  0.32997374485E+02 -0.69335212942E+02  0.86887446514E+02  0.00000000000E+00 0.  1.
<mgrwt>
<rscale>  0 0.12468683E+03</rscale>
<asrwt>0</asrwt>
<pdfrwt beam="2">  1        1 0.38418462E-01 0.13313173E+03</pdfrwt>
<pdfrwt beam="1">  1       -1 0.22017577E-01 0.13313173E+03</pdfrwt>
<totfact> 0.18613616E+03</totfact>
</mgrwt>
</event>
<event>
 7    1  0.1111284E-005  0.1490472E+03  0.7546771E-02  0.1210105E+00
         -2   -1    0    0    0  501 -0.00000000000E+00  0.00000000000E+00  0.67593315185E+02  0.67593315185E+02  0.00000000000E+00 0. -1.
          2   -1    0    0  501    0  0.00000000000E+00 -0.00000000000E+00 -0.31327847745E+03  0.31327847745E+03  0.00000000000E+00 0.  1.
         23    2    1    2    0    0  0.48685868618E+02  0.64958633049E+02 -0.17822393351E+03  0.21726831043E+03  0.94084060448E+02 0.  0.
          5    1    1    2  502    0 -0.87170050123E+02 -0.22433831629E+02 -0.51830269864E+02  0.10397288740E+03  0.47000000000E+01 0.  1.
         -5    1    1    2    0  502  0.38484181505E+02 -0.42524801420E+02 -0.15630958900E+02  0.59630594815E+02  0.47000000000E+01 0.  1.
        -11    1    3    3    0    0  0.35360101681E+02  0.36236900508E+02 -0.17856479383E+03  0.18560397449E+03  0.00000000000E+00 0.  1.
         11    1    3    3    0    0  0.13325766937E+02  0.28721732541E+02  0.34086032694E+00  0.31664335937E+02  0.00000000000E+00 0. -1.
<mgrwt>
<rscale>  0 0.14242297E+03</rscale>
<asrwt>0</asrwt>
<pdfrwt beam="2">  1        2 0.48196689E-01 0.14904725E+03</pdfrwt>
<pdfrwt beam="1">  1       -2 0.10398972E-01 0.14904725E+03</pdfrwt>
<totfact> 0.62443439E+03</totfact>
</mgrwt>
</event>
<event>
 7    1  0.1111284E-005  0.1257785E+03  0.7546771E-02  0.1249566E+00
          1   -1    0    0  501    0  0.00000000000E+00  0.00000000000E+00  0.38652498733E+03  0.38652498733E+03  0.00000000000E+00 0. -1.
         -1   -1    0    0    0  501 -0.00000000000E+00 -0.00000000000E+00 -0.43979750584E+02  0.43979750584E+02  0.00000000000E+00 0.  1.
         23    2    1    2    0    0  0.94387281424E+01 -0.10313129780E+02  0.27049139420E+03  0.28554959739E+03  0.90429685397E+02 0.  0.
          5    1    1    2  502    0 -0.31316429026E+01 -0.54579225708E+02  0.54352874233E+02  0.77233567855E+02  0.47000000000E+01 0.  1.
         -5    1    1    2    0  502 -0.63070852398E+01  0.64892355488E+02  0.17700968312E+02  0.67721572665E+02  0.47000000000E+01 0.  1.
        -11    1    3    3    0    0  0.11773266674E+02 -0.49751316697E+02  0.13275629605E+03  0.14226045642E+03  0.00000000000E+00 0.  1.
         11    1    3    3    0    0 -0.23345385321E+01  0.39438186916E+02  0.13773509815E+03  0.14328914097E+03  0.00000000000E+00 0. -1.
<mgrwt>
<rscale>  0 0.11616221E+03</rscale>
<asrwt>0</asrwt>
<pdfrwt beam="1">  1        1 0.59465381E-01 0.12577852E+03</pdfrwt>
<pdfrwt beam="2">  1       -1 0.67661157E-02 0.12577852E+03</pdfrwt>
<totfact> 0.67035236E+03</totfact>
</mgrwt>
</event>
<event>
 7    1  0.1111284E-005  0.1302899E+03  0.7546771E-02  0.1240771E+00
          1   -1    0    0  501    0  0.00000000000E+00  0.00000000000E+00  0.36206440405E+03  0.36206440405E+03  0.00000000000E+00 0. -1.
         -1   -1    0    0    0  501 -0.00000000000E+00 -0.00000000000E+00 -0.38774677050E+02  0.38774677050E+02  0.00000000000E+00 0.  1.
         23    2    1    2    0    0 -0.15079392065E+02 -0.33513205434E+02  0.19300747951E+03  0.21658678275E+03  0.91145072889E+02 0.  0.
          5    1    1    2  502    0 -0.51165667027E+02  0.28237560285E+02  0.35972427015E+02  0.68785105936E+02  0.47000000000E+01 0.  1.
         -5    1    1    2    0  502  0.66245059093E+02  0.52756451485E+01  0.94309820481E+02  0.11546719242E+03  0.47000000000E+01 0.  1.
        -11    1    3    3    0    0  0.16601398443E+02 -0.29137519134E+02  0.16813772709E+02  0.37514056089E+02  0.00000000000E+00 0.  1.
         11    1    3    3    0    0 -0.31680790508E+02 -0.43756863000E+01  0.17619370680E+03  0.17907272666E+03  0.00000000000E+00 0. -1.
<mgrwt>
<rscale>  0 0.12142093E+03</rscale>
<asrwt>0</asrwt>
<pdfrwt beam="1">  1        1 0.55702214E-01 0.13028985E+03</pdfrwt>
<pdfrwt beam="2">  1       -1 0.59653352E-02 0.13028985E+03</pdfrwt>
<totfact> 0.87987746E+03</totfact>
</mgrwt>
</event>
<event>
 7    1  0.1111284E-005  0.1266648E+03  0.7546771E-02  0.1248069E+00
         -3   -1    0    0    0  501 -0.00000000000E+00  0.00000000000E+00  0.55526994308E+03  0.55526994308E+03  0.00000000000E+00 0.  1.
          3   -1    0    0  501    0  0.00000000000E+00 -0.00000000000E+00 -0.21742665408E+02  0.21742665408E+02  0.00000000000E+00 0. -1.
         23    2    1    2    0    0 -0.18005054142E+02  0.96619570276E+01  0.20141442317E+03  0.22156511047E+03  0.90032177194E+02 0.  0.
          5    1    1    2  502    0  0.21917867566E+02  0.20655656193E+02  0.10334258394E+02  0.32185958864E+02  0.47000000000E+01 0. -1.
         -5    1    1    2    0  502 -0.39128134247E+01 -0.30317613220E+02  0.32177859611E+03  0.32326153915E+03  0.47000000000E+01 0. -1.
        -11    1    3    3    0    0  0.10843097975E+01  0.41912662189E+02  0.16133448942E+03  0.16669332457E+03  0.00000000000E+00 0.  1.
         11    1    3    3    0    0 -0.19089363939E+02 -0.32250705162E+02  0.40079933751E+02  0.54871785906E+02  0.00000000000E+00 0. -1.
<mgrwt>
<rscale>  0 0.11703564E+03</rscale>
<asrwt>0</asrwt>
<pdfrwt beam="2">  1        3 0.33450259E-02 0.12666482E+03</pdfrwt>
<pdfrwt beam="1">  1       -3 0.85426134E-01 0.12666482E+03</pdfrwt>
<totfact> 0.12632043E+03</totfact>
</mgrwt>
</event>
<event>
 7    1  0.1111284E-005  0.3185373E+03  0.7546771E-02  0.1112676E+00
         -1   -1    0    0    0  501 -0.00000000000E+00  0.00000000000E+00  0.21424990369E+03  0.21424990369E+03  0.00000000000E+00 0.  1.
          1   -1    0    0  501    0  0.00000000000E+00 -0.00000000000E+00 -0.43215699621E+03  0.43215699621E+03  0.00000000000E+00 0. -1.
         23    2    1    2    0    0 -0.49737442102E+02  0.66868663746E+02 -0.29425291065E+03  0.31884818324E+03  0.90189562511E+02 0.  0.
          5    1    1    2  502    0 -0.94266506207E+02  0.69596822511E+02  0.75061445980E+01  0.11750882564E+03  0.47000000000E+01 0. -1.
         -5    1    1    2    0  502  0.14400394831E+03 -0.13646548626E+03  0.68839673536E+02  0.21004989103E+03  0.47000000000E+01 0.  1.
        -11    1    3    3    0    0 -0.68072843712E+02  0.70344149916E+02 -0.19886337771E+03  0.22165029771E+03  0.00000000000E+00 0. -1.
         11    1    3    3    0    0  0.18335401610E+02 -0.34754861700E+01 -0.95389532942E+02  0.97197885529E+02  0.00000000000E+00 0.  1.
<mgrwt>
<rscale>  0 0.25099682E+03</rscale>
<asrwt>0</asrwt>
<pdfrwt beam="2">  1        1 0.66485691E-01 0.31853733E+03</pdfrwt>
<pdfrwt beam="1">  1       -1 0.32961524E-01 0.31853733E+03</pdfrwt>
<totfact> 0.47736805E+02</totfact>
</mgrwt>
</event>
<event>
 7    1  0.1111284E-005  0.1508277E+03  0.7546771E-02  0.1207848E+00
         -1   -1    0    0    0  501 -0.00000000000E+00  0.00000000000E+00  0.63534440803E+02  0.63534440803E+02  0.00000000000E+00 0.  1.
          1   -1    0    0  501    0  0.00000000000E+00 -0.00000000000E+00 -0.31022437374E+03  0.31022437374E+03  0.00000000000E+00 0. -1.
         23    2    1    2    0    0 -0.45340369237E+01 -0.84307848279E+02 -0.14425410801E+03  0.19143470364E+03  0.93325384055E+02 0.  0.
          5    1    1    2  502    0 -0.59852808340E+02  0.44372118272E+02 -0.45431384426E+02  0.87391900294E+02  0.47000000000E+01 0. -1.
         -5    1    1    2    0  502  0.64386845264E+02  0.39935730007E+02 -0.57004440509E+02  0.94932210614E+02  0.47000000000E+01 0. -1.
        -11    1    3    3    0    0 -0.11791404480E+02 -0.31289333247E+02 -0.13248956226E+03  0.13664385717E+03  0.00000000000E+00 0. -1.
         11    1    3    3    0    0  0.72573675566E+01 -0.53018515032E+02 -0.11764545743E+02  0.54790846467E+02  0.00000000000E+00 0.  1.
<mgrwt>
<rscale>  0 0.14415287E+03</rscale>
<asrwt>0</asrwt>
<pdfrwt beam="2">  1        1 0.47726827E-01 0.15082766E+03</pdfrwt>
<pdfrwt beam="1">  1       -1 0.97745293E-02 0.15082766E+03</pdfrwt>
<totfact> 0.51148506E+03</totfact>
</mgrwt>
</event>
<event>
 7    1  0.1111284E-005  0.1272523E+03  0.7546771E-02  0.1245615E+00
         -2   -1    0    0    0  501 -0.00000000000E+00  0.00000000000E+00  0.16543474043E+03  0.16543474043E+03  0.00000000000E+00 0.  1.
          2   -1    0    0  501    0  0.00000000000E+00 -0.00000000000E+00 -0.12570075053E+03  0.12570075053E+03  0.00000000000E+00 0. -1.
         23    2    1    2    0    0 -0.22735482745E+02 -0.71750116773E+01 -0.73633677418E+02  0.12070842486E+03  0.92629489985E+02 0.  0.
          5    1    1    2  502    0  0.54462163048E+00  0.63411227244E+02  0.76434604090E+02  0.99426450483E+02  0.47000000000E+01 0. -1.
         -5    1    1    2    0  502  0.22190861115E+02 -0.56236215567E+02  0.36933063231E+02  0.71000615617E+02  0.47000000000E+01 0. -1.
        -11    1    3    3    0    0 -0.13917007904E+02 -0.32355495906E+02  0.68818341728E+01  0.35887614380E+02  0.00000000000E+00 0.  1.
         11    1    3    3    0    0 -0.88184748417E+01  0.25180484228E+02 -0.80515511591E+02  0.84820810485E+02  0.00000000000E+00 0. -1.
<mgrwt>
<rscale>  0 0.11848645E+03</rscale>
<asrwt>0</asrwt>
<pdfrwt beam="2">  1        2 0.19338577E-01 0.12725234E+03</pdfrwt>
<pdfrwt beam="1">  1       -2 0.25451499E-01 0.12725234E+03</pdfrwt>
<totfact> 0.37975368E+03</totfact>
</mgrwt>
</event>
<event>
 7    1  0.1111284E-005  0.5002018E+03  0.7546771E-02  0.1014215E+00
          1   -1    0    0  501    0  0.00000000000E+00  0.00000000000E+00  0.12547679652E+04  0.12547679652E+04  0.00000000000E+00 0. -1.
         -1   -1    0    0    0  501 -0.00000000000E+00 -0.00000000000E+00 -0.21523934390E+03  0.21523934390E+03  0.00000000000E+00 0.  1.
         23    2    1    2    0    0 -0.39484094739E+03 -0.28049063929E+03  0.73338559037E+03  0.88355577938E+03  0.90785564083E+02 0.  0.
          5    1    1    2  502    0  0.30236614076E+03  0.27195944454E+03  0.23866704741E+03  0.47156258553E+03  0.47000000000E+01 0. -1.
         -5    1    1    2    0  502  0.92474806627E+02  0.85311947467E+01  0.67475983498E+02  0.11488894417E+03  0.47000000000E+01 0. -1.
        -11    1    3    3    0    0 -0.12688582432E+03 -0.76567671422E+02  0.15611123746E+03  0.21525180413E+03  0.00000000000E+00 0.  1.
         11    1    3    3    0    0 -0.26795512306E+03 -0.20392296787E+03  0.57727435291E+03  0.66830397524E+03  0.00000000000E+00 0. -1.
<mgrwt>
<rscale>  0 0.49833190E+03</rscale>
<asrwt>0</asrwt>
<pdfrwt beam="1">  1        1 0.19304122E+00 0.50020180E+03</pdfrwt>
<pdfrwt beam="2">  1       -1 0.33113746E-01 0.50020180E+03</pdfrwt>
<totfact> 0.87724226E+01</totfact>
</mgrwt>
</event>
<event>
 7    1  0.1111284E-005  0.1335769E+03  0.7546771E-02  0.1234441E+00
          1   -1    0    0  501    0  0.00000000000E+00  0.00000000000E+00  0.70061949473E+03  0.70061949473E+03  0.00000000000E+00 0. -1.
         -1   -1    0    0    0  501 -0.00000000000E+00 -0.00000000000E+00 -0.20518658792E+02  0.20518658792E+02  0.00000000000E+00 0.  1.
         23    2    1    2    0    0  0.42516254729E+02 -0.20205545425E+02  0.24708876307E+03  0.26799110245E+03  0.92468795660E+02 0.  0.
          5    1    1    2  502    0 -0.75439758124E+02  0.40797595055E+02  0.21268049507E+03  0.22937018954E+03  0.47000000000E+01 0. -1.
         -5    1    1    2    0  502  0.32923503394E+02 -0.20592049630E+02  0.22033157780E+03  0.22377686154E+03  0.47000000000E+01 0. -1.
        -11    1    3    3    0    0  0.63615412913E+02  0.49262827535E+01  0.11128553381E+03  0.12827961279E+03  0.00000000000E+00 0.  1.
         11    1    3    3    0    0 -0.21099158184E+02 -0.25131828179E+02  0.13580322926E+03  0.13971148966E+03  0.00000000000E+00 0. -1.
<mgrwt>
<rscale>  0 0.12540281E+03</rscale>
<asrwt>0</asrwt>
<pdfrwt beam="1">  1        1 0.10778760E+00 0.13357692E+03</pdfrwt>
<pdfrwt beam="2">  1       -1 0.31567173E-02 0.13357692E+03</pdfrwt>
<totfact> 0.94336052E+03</totfact>
</mgrwt>
</event>
<event>
 7    1  0.2029273E-005  0.1885688E+03  0.7546771E-02  0.1164803E+00
          1   -1    0    0  501    0  0.00000000000E+00  0.00000000000E+00  0.26567046487E+03  0.26567046487E+03  0.00000000000E+00 0. -1.
         -1   -1    0    0    0  501 -0.00000000000E+00 -0.00000000000E+00 -0.12518436073E+03  0.12518436073E+03  0.00000000000E+00 0.  1.
         23    2    1    2    0    0 -0.14061826924E+03  0.12635522696E+02  0.10798526611E+03  0.19950572242E+03  0.90601112042E+02 0.  0.
          5    1    1    2  502    0  0.15283707756E+03  0.15865345705E+02  0.40511456257E+02  0.15897845628E+03  0.47000000000E+01 0. -1.
         -5    1    1    2    0  502 -0.12218808325E+02 -0.28500868401E+02 -0.80106182337E+01  0.32370646904E+02  0.47000000000E+01 0. -1.
        -11    1    3    3    0    0 -0.11003870678E+03 -0.61250082842E+01  0.11878790507E+03  0.16203888146E+03  0.00000000000E+00 0. -1.
         11    1    3    3    0    0 -0.30579562458E+02  0.18760530980E+02 -0.10802638954E+02  0.37466840955E+02  0.00000000000E+00 0.  1.
<mgrwt>
<rscale>  0 0.18313490E+03</rscale>
<asrwt>0</asrwt>
<pdfrwt beam="1">  1        1 0.40872379E-01 0.18856875E+03</pdfrwt>
<pdfrwt beam="2">  1       -1 0.19259132E-01 0.18856875E+03</pdfrwt>
<totfact> 0.21642028E+03</totfact>
</mgrwt>
</event>
<event>
 7    1  0.1111284E-005  0.1910278E+03  0.7546771E-02  0.1182526E+00
         -3   -1    0    0    0  501 -0.00000000000E+00  0.00000000000E+00  0.75656580320E+02  0.75656580320E+02  0.00000000000E+00 0.  1.
          3   -1    0    0  501    0  0.00000000000E+00 -0.00000000000E+00 -0.41676367955E+03  0.41676367955E+03  0.00000000000E+00 0. -1.
         23    2    1    2    0    0  0.50157222321E+02  0.30901105794E+02 -0.26621791767E+03  0.28723734881E+03  0.90347604118E+02 0.  0.
          5    1    1    2  502    0 -0.12819826523E+02  0.75646786586E+02 -0.41492179045E+02  0.87352591231E+02  0.47000000000E+01 0. -1.
         -5    1    1    2    0  502 -0.37337395798E+02 -0.10654789238E+03 -0.33397002520E+02  0.11783031984E+03  0.47000000000E+01 0.  1.
        -11    1    3    3    0    0 -0.36684636903E+01  0.10971482838E+02  0.30144541092E+01  0.11954831453E+02  0.00000000000E+00 0.  1.
         11    1    3    3    0    0  0.53825686011E+02  0.19929622957E+02 -0.26923237178E+03  0.27528251735E+03  0.00000000000E+00 0. -1.
<mgrwt>
<rscale>  0 0.16559051E+03</rscale>
<asrwt>0</asrwt>
<pdfrwt beam="2">  1        3 0.64117490E-01 0.19102784E+03</pdfrwt>
<pdfrwt beam="1">  1       -3 0.11639474E-01 0.19102784E+03</pdfrwt>
<totfact> 0.33329192E+02</totfact>
</mgrwt>
</event>
<event>
 7    1  0.1111284E-005  0.1371227E+03  0.7546771E-02  0.1229673E+00
         -1   -1    0    0    0  501 -0.00000000000E+00  0.00000000000E+00  0.24019274782E+03  0.24019274782E+03  0.00000000000E+00 0.  1.
          1   -1    0    0  501    0  0.00000000000E+00 -0.00000000000E+00 -0.61612928487E+02  0.61612928487E+02  0.00000000000E+00 0. -1.
         23    2    1    2    0    0 -0.13419775622E+02  0.54747080693E+02  0.86093594782E+02  0.13640820182E+03  0.89541930061E+02 0.  0.
          5    1    1    2  502    0  0.46626501689E+02 -0.75149567603E+02  0.89681946486E+02  0.12604138089E+03  0.47000000000E+01 0.  1.
         -5    1    1    2    0  502 -0.33206726066E+02  0.20402486910E+02  0.28042780680E+01  0.39356093602E+02  0.47000000000E+01 0.  1.
        -11    1    3    3    0    0  0.77966528067E+01  0.70797910634E+02  0.36275295304E+02  0.79931401805E+02  0.00000000000E+00 0. -1.
         11    1    3    3    0    0 -0.21216428429E+02 -0.16050829940E+02  0.49818299478E+02  0.56476800015E+02  0.00000000000E+00 0.  1.
<mgrwt>
<rscale>  0 0.12851694E+03</rscale>
<asrwt>0</asrwt>
<pdfrwt beam="2">  1        1 0.94789122E-02 0.13712266E+03</pdfrwt>
<pdfrwt beam="1">  1       -1 0.36952730E-01 0.13712266E+03</pdfrwt>
<totfact> 0.46872420E+03</totfact>
</mgrwt>
</event>
<event>
 7    1  0.1111284E-005  0.1473693E+03  0.7546771E-02  0.1214187E+00
         -2   -1    0    0    0  501 -0.00000000000E+00  0.00000000000E+00  0.52349132496E+02  0.52349132496E+02  0.00000000000E+00 0.  1.
          2   -1    0    0  501    0  0.00000000000E+00 -0.00000000000E+00 -0.36549048811E+03  0.36549048811E+03  0.00000000000E+00 0. -1.
         23    2    1    2    0    0 -0.76344521561E+02  0.16252839101E+02 -0.19960776113E+03  0.23180845450E+03  0.88313422096E+02 0.  0.
          5    1    1    2  502    0  0.33541726599E+02  0.14622116838E+02 -0.12625994742E+03  0.13153903621E+03  0.47000000000E+01 0. -1.
         -5    1    1    2    0  502  0.42802794962E+02 -0.30874955939E+02  0.12726352946E+02  0.54492129891E+02  0.47000000000E+01 0. -1.
        -11    1    3    3    0    0 -0.49847725483E+02 -0.33881645239E+02 -0.88625190093E+02  0.10717829043E+03  0.00000000000E+00 0.  1.
         11    1    3    3    0    0 -0.26496796078E+02  0.50134484339E+02 -0.11098257104E+03  0.12463016407E+03  0.00000000000E+00 0. -1.
<mgrwt>
<rscale>  0 0.13936398E+03</rscale>
<asrwt>0</asrwt>
<pdfrwt beam="2">  1        2 0.56229307E-01 0.14736932E+03</pdfrwt>
<pdfrwt beam="1">  1       -2 0.80537125E-02 0.14736932E+03</pdfrwt>
<totfact> 0.78967989E+03</totfact>
</mgrwt>
</event>
<event>
 7    1  0.1111284E-005  0.1578190E+03  0.7546771E-02  0.1198917E+00
         -2   -1    0    0    0  501 -0.00000000000E+00  0.00000000000E+00  0.28576740144E+02  0.28576740144E+02  0.00000000000E+00 0.  1.
          2   -1    0    0  501    0  0.00000000000E+00 -0.00000000000E+00 -0.75539280965E+03  0.75539280965E+03  0.00000000000E+00 0. -1.
         23    2    1    2    0    0 -0.61410020892E+02 -0.74231872720E+02 -0.27938947403E+03  0.30952524644E+03  0.92009990705E+02 0.  0.
          5    1    1    2  502    0  0.85608493803E+02  0.68558271841E+01 -0.25065777646E+03  0.26500420276E+03  0.47000000000E+01 0.  1.
         -5    1    1    2    0  502 -0.24198472912E+02  0.67376045535E+02 -0.19676881901E+03  0.20944010060E+03  0.47000000000E+01 0.  1.
        -11    1    3    3    0    0 -0.87342538813E+01 -0.60708648268E+02 -0.22260073439E+03  0.23089589454E+03  0.00000000000E+00 0. -1.
         11    1    3    3    0    0 -0.52675767010E+02 -0.13523224451E+02 -0.56788739647E+02  0.78629351901E+02  0.00000000000E+00 0.  1.
<mgrwt>
<rscale>  0 0.15127297E+03</rscale>
<asrwt>0</asrwt>
<pdfrwt beam="2">  1        2 0.11621427E+00 0.15781901E+03</pdfrwt>
<pdfrwt beam="1">  1       -2 0.43964221E-02 0.15781901E+03</pdfrwt>
<totfact> 0.88113093E+03</totfact>
</mgrwt>
</event>
<event>
 7    1  0.1111284E-005  0.3152274E+03  0.7546771E-02  0.1079305E+00
         -2   -1    0    0    0  501 -0.00000000000E+00  0.00000000000E+00  0.14423198022E+03  0.14423198022E+03  0.00000000000E+00 0.  1.
          2   -1    0    0  501    0  0.00000000000E+00 -0.00000000000E+00 -0.76664544914E+03  0.76664544914E+03  0.00000000000E+00 0. -1.
         23    2    1    2    0    0 -0.18747439460E+02  0.28877516798E+03 -0.47344993152E+03  0.56222508000E+03  0.90551856931E+02 0.  0.
          5    1    1    2  502    0  0.69727074528E+02 -0.12788666322E+03 -0.57841752148E+02  0.15679483998E+03  0.47000000000E+01 0. -1.
         -5    1    1    2    0  502 -0.50979635068E+02 -0.16088850476E+03 -0.91121785252E+02  0.19185750938E+03  0.47000000000E+01 0. -1.
        -11    1    3    3    0    0 -0.21922194077E+00  0.13158434788E+03 -0.29899492246E+03  0.32666871954E+03  0.00000000000E+00 0. -1.
         11    1    3    3    0    0 -0.18528217519E+02  0.15719082010E+03 -0.17445500906E+03  0.23555636046E+03  0.00000000000E+00 0.  1.
<mgrwt>
<rscale>  0 0.31218164E+03</rscale>
<asrwt>0</asrwt>
<pdfrwt beam="2">  1        2 0.11794546E+00 0.31522742E+03</pdfrwt>
<pdfrwt beam="1">  1       -2 0.22189535E-01 0.31522742E+03</pdfrwt>
<totfact> 0.65862873E+02</totfact>
</mgrwt>
</event>
<event>
 7    1  0.1111284E-005  0.1342360E+03  0.7546771E-02  0.1234070E+00
         -1   -1    0    0    0  501 -0.00000000000E+00  0.00000000000E+00  0.90471354573E+03  0.90471354573E+03  0.00000000000E+00 0. -1.
          1   -1    0    0  501    0  0.00000000000E+00 -0.00000000000E+00 -0.15727592831E+02  0.15727592831E+02  0.00000000000E+00 0.  1.
         23    2    1    2    0    0  0.29229212677E+02  0.39124398576E+02  0.33883852487E+03  0.35415366688E+03  0.90709472455E+02 0.  0.
          5    1    1    2  502    0  0.54276742047E+01  0.24367118579E+02  0.23279059462E+02  0.34456069488E+02  0.47000000000E+01 0.  1.
         -5    1    1    2    0  502 -0.34656886882E+02 -0.63491517155E+02  0.52686836857E+03  0.53183140219E+03  0.47000000000E+01 0.  1.
        -11    1    3    3    0    0  0.58706034176E+02  0.66365914700E+01  0.18780587375E+03  0.19687937681E+03  0.00000000000E+00 0. -1.
         11    1    3    3    0    0 -0.29476821499E+02  0.32487807106E+02  0.15103265112E+03  0.15727429008E+03  0.00000000000E+00 0.  1.
<mgrwt>
<rscale>  0 0.12564146E+03</rscale>
<asrwt>0</asrwt>
<pdfrwt beam="2">  1        1 0.24196304E-02 0.13423602E+03</pdfrwt>
<pdfrwt beam="1">  1       -1 0.13918666E+00 0.13423602E+03</pdfrwt>
<totfact> 0.20530090E+03</totfact>
</mgrwt>
</event>
<event>
 7    1  0.1111284E-005  0.1288646E+03  0.7546771E-02  0.1244025E+00
         -1   -1    0    0    0  501 -0.00000000000E+00  0.00000000000E+00  0.36487857932E+02  0.36487857932E+02  0.00000000000E+00 0.  1.
          1   -1    0    0  501    0  0.00000000000E+00 -0.00000000000E+00 -0.35041185955E+03  0.35041185955E+03  0.00000000000E+00 0. -1.
         23    2    1    2    0    0  0.26422280313E+02  0.16822565583E+02 -0.16026390553E+03  0.18635666030E+03  0.89795043358E+02 0.  0.
          5    1    1    2  502    0  0.31341405042E+02 -0.33050834058E+02 -0.12646617818E+03  0.13450065251E+03  0.47000000000E+01 0. -1.
         -5    1    1    2    0  502 -0.57763685355E+02  0.16228268475E+02 -0.27193917898E+02  0.66042404666E+02  0.47000000000E+01 0. -1.
        -11    1    3    3    0    0 -0.13456782885E+02  0.44026591749E+02 -0.66280663217E+02  0.80700384776E+02  0.00000000000E+00 0. -1.
         11    1    3    3    0    0  0.39879063198E+02 -0.27204026165E+02 -0.93983242317E+02  0.10565627552E+03  0.00000000000E+00 0.  1.
<mgrwt>
<rscale>  0 0.11943925E+03</rscale>
<asrwt>0</asrwt>
<pdfrwt beam="2">  1        1 0.53909515E-01 0.12886463E+03</pdfrwt>
<pdfrwt beam="1">  1       -1 0.56135168E-02 0.12886463E+03</pdfrwt>
<totfact> 0.10023068E+04</totfact>
</mgrwt>
</event>
<event>
 7    1  0.1111284E-005  0.1259943E+03  0.7546771E-02  0.1249542E+00
         -1   -1    0    0    0  501 -0.00000000000E+00  0.00000000000E+00  0.17234437990E+03  0.17234437990E+03  0.00000000000E+00 0.  1.
          1   -1    0    0  501    0  0.00000000000E+00 -0.00000000000E+00 -0.86470253734E+02  0.86470253734E+02  0.00000000000E+00 0. -1.
         23    2    1    2    0    0  0.15789177496E+02  0.90270385027E+00 -0.21149365932E+02  0.93501004017E+02  0.89694086051E+02 0.  0.
          5    1    1    2  502    0 -0.61878412743E+02 -0.16408907783E+02  0.23125660326E+02  0.68228120183E+02  0.47000000000E+01 0.  1.
         -5    1    1    2    0  502  0.46089235247E+02  0.15506203933E+02  0.83897831768E+02  0.97085509431E+02  0.47000000000E+01 0.  1.
        -11    1    3    3    0    0  0.97638046775E+01  0.18671032444E+02 -0.52720886946E+02  0.56775269746E+02  0.00000000000E+00 0. -1.
         11    1    3    3    0    0  0.60253728186E+01 -0.17768328593E+02  0.31571521014E+02  0.36725734271E+02  0.00000000000E+00 0.  1.
<mgrwt>
<rscale>  0 0.11617594E+03</rscale>
<asrwt>0</asrwt>
<pdfrwt beam="2">  1        1 0.13303116E-01 0.12599432E+03</pdfrwt>
<pdfrwt beam="1">  1       -1 0.26514520E-01 0.12599432E+03</pdfrwt>
<totfact> 0.52271637E+03</totfact>
</mgrwt>
</event>
<event>
 7    1  0.1111284E-005  0.1337708E+03  0.7546771E-02  0.1234815E+00
         -2   -1    0    0    0  501 -0.00000000000E+00  0.00000000000E+00  0.30994627982E+03  0.30994627982E+03  0.00000000000E+00 0.  1.
          2   -1    0    0  501    0  0.00000000000E+00 -0.00000000000E+00 -0.45756962273E+02  0.45756962273E+02  0.00000000000E+00 0. -1.
         23    2    1    2    0    0 -0.46337440828E+02  0.10905756980E+02  0.92764456526E+02  0.13826104080E+03  0.90800754681E+02 0.  0.
          5    1    1    2  502    0  0.81377333442E+02  0.73878120410E+00  0.15815285774E+03  0.17792479481E+03  0.47000000000E+01 0. -1.
         -5    1    1    2    0  502 -0.35039892614E+02 -0.11644538184E+02  0.13272003272E+02  0.39517406478E+02  0.47000000000E+01 0. -1.
        -11    1    3    3    0    0 -0.22415219649E+02 -0.79655553216E+01  0.10331358041E+03  0.10601692337E+03  0.00000000000E+00 0.  1.
         11    1    3    3    0    0 -0.23922221178E+02  0.18871312302E+02 -0.10549123885E+02  0.32244117430E+02  0.00000000000E+00 0. -1.
<mgrwt>
<rscale>  0 0.12516296E+03</rscale>
<asrwt>0</asrwt>
<pdfrwt beam="2">  1        2 0.70395329E-02 0.13377080E+03</pdfrwt>
<pdfrwt beam="1">  1       -2 0.47684042E-01 0.13377080E+03</pdfrwt>
<totfact> 0.40324834E+03</totfact>
</mgrwt>
</event>
<event>
 7    1  0.1111284E-005  0.4671186E+03  0.7546771E-02  0.1022737E+00
         -2   -1    0    0    0  501 -0.00000000000E+00  0.00000000000E+00  0.52574287459E+02  0.52574287459E+02  0.00000000000E+00 0.  1.
          2   -1    0    0  501    0  0.00000000000E+00 -0.00000000000E+00 -0.10375785776E+04  0.10375785776E+04  0.00000000000E+00 0. -1.
         23    2    1    2    0    0  0.11396803402E+03 -0.35712469390E+02 -0.27356760968E+03  0.31187493928E+03  0.90347370959E+02 0.  0.
          5    1    1    2  502    0 -0.19794601594E+03 -0.40438116912E+02 -0.45362679687E+03  0.49660570613E+03  0.47000000000E+01 0. -1.
         -5    1    1    2    0  502  0.83977981920E+02  0.76150586302E+02 -0.25780988363E+03  0.28167221968E+03  0.47000000000E+01 0.  1.
        -11    1    3    3    0    0 -0.11911469881E+02 -0.19263048027E+02 -0.46748127486E+02  0.51945505652E+02  0.00000000000E+00 0. -1.
         11    1    3    3    0    0  0.12587950390E+03 -0.16449421364E+02 -0.22681948219E+03  0.25992943363E+03  0.00000000000E+00 0.  1.
<mgrwt>
<rscale>  0 0.46711863E+03</rscale>
<asrwt>0</asrwt>
<pdfrwt beam="2">  1        2 0.15962745E+00 0.46711863E+03</pdfrwt>
<pdfrwt beam="1">  1       -2 0.80883529E-02 0.46711863E+03</pdfrwt>
<totfact> 0.23169601E+03</totfact>
</mgrwt>
</event>
<event>
 7    1  0.1111284E-005  0.1253794E+03  0.7546771E-02  0.1249685E+00
          2   -1    0    0  501    0  0.00000000000E+00  0.00000000000E+00  0.11374406783E+02  0.11374406783E+02  0.00000000000E+00 0. -1.
         -2   -1    0    0    0  501 -0.00000000000E+00 -0.00000000000E+00 -0.11217258924E+04  0.11217258924E+04  0.00000000000E+00 0.  1.
         23    2    1    2    0    0 -0.73495011771E+01  0.65409537989E+01 -0.32543157052E+03  0.33822970002E+03  0.91634183818E+02 0.  0.
          5    1    1    2  502    0 -0.56684037606E+02 -0.14978926831E+02 -0.30703857305E+03  0.31262153431E+03  0.47000000000E+01 0. -1.
         -5    1    1    2    0  502  0.64033538783E+02  0.84379730322E+01 -0.47788134208E+03  0.48224906489E+03  0.47000000000E+01 0. -1.
        -11    1    3    3    0    0  0.33448316099E+02 -0.20032695772E+02 -0.94606409873E+02  0.10232532208E+03  0.00000000000E+00 0.  1.
         11    1    3    3    0    0 -0.40797817277E+02  0.26573649570E+02 -0.23082516065E+03  0.23590437794E+03  0.00000000000E+00 0. -1.
<mgrwt>
<rscale>  0 0.11609307E+03</rscale>
<asrwt>0</asrwt>
<pdfrwt beam="1">  1        2 0.17499090E-02 0.12537941E+03</pdfrwt>
<pdfrwt beam="2">  1       -2 0.17257318E+00 0.12537941E+03</pdfrwt>
<totfact> 0.13791388E+03</totfact>
</mgrwt>
</event>
<event>
 7    1  0.1111284E-005  0.1298983E+03  0.7546771E-02  0.1235135E+00
         -2   -1    0    0    0  501 -0.00000000000E+00  0.00000000000E+00  0.66888585369E+02  0.66888585369E+02  0.00000000000E+00 0.  1.
          2   -1    0    0  501    0  0.00000000000E+00 -0.00000000000E+00 -0.22858765190E+03  0.22858765190E+03  0.00000000000E+00 0. -1.
         23    2    1    2    0    0  0.34809858365E+02 -0.60334765133E+01 -0.10760409154E+03  0.15476434169E+03  0.10547621469E+03 0.  0.
          5    1    1    2  502    0 -0.77403443479E+01 -0.58080614457E+02 -0.14657790384E+02  0.60582270718E+02  0.47000000000E+01 0. -1.
         -5    1    1    2    0  502 -0.27069514017E+02  0.64114090971E+02 -0.39437184601E+02  0.80129624855E+02  0.47000000000E+01 0. -1.
        -11    1    3    3    0    0  0.51922423110E+02  0.21595739317E+02 -0.17369985474E+02  0.58856013912E+02  0.00000000000E+00 0.  1.
         11    1    3    3    0    0 -0.17112564745E+02 -0.27629215830E+02 -0.90234106071E+02  0.95908327782E+02  0.00000000000E+00 0. -1.
<mgrwt>
<rscale>  0 0.12495786E+03</rscale>
<asrwt>0</asrwt>
<pdfrwt beam="2">  1        2 0.35167331E-01 0.12989831E+03</pdfrwt>
<pdfrwt beam="1">  1       -2 0.10290552E-01 0.12989831E+03</pdfrwt>
<totfact> 0.87955418E+03</totfact>
</mgrwt>
</event>
<event>
 7    1  0.1111284E-005  0.1417524E+03  0.7546771E-02  0.1221689E+00
         -2   -1    0    0    0  501 -0.00000000000E+00  0.00000000000E+00  0.33534835009E+02  0.33534835009E+02  0.00000000000E+00 0.  1.
          2   -1    0    0  501    0  0.00000000000E+00 -0.00000000000E+00 -0.49009211391E+03  0.49009211391E+03  0.00000000000E+00 0. -1.
         23    2    1    2    0    0  0.55932944775E+02 -0.36585711821E+02 -0.23166146657E+03  0.25778515260E+03  0.91209326206E+02 0.  0.
          5    1    1    2  502    0 -0.80212316577E+01 -0.25381799617E+01  0.15124831570E+02  0.17934130725E+02  0.47000000000E+01 0.  1.
         -5    1    1    2    0  502 -0.47911713117E+02  0.39123891782E+02 -0.24002064390E+03  0.24790766559E+03  0.47000000000E+01 0.  1.
        -11    1    3    3    0    0  0.89826413579E+01 -0.44097174244E+02 -0.18773213345E+03  0.19305077714E+03  0.00000000000E+00 0. -1.
         11    1    3    3    0    0  0.46950303417E+02  0.75114624232E+01 -0.43929333122E+02  0.64734375468E+02  0.00000000000E+00 0.  1.
<mgrwt>
<rscale>  0 0.13396465E+03</rscale>
<asrwt>0</asrwt>
<pdfrwt beam="2">  1        2 0.75398783E-01 0.14175237E+03</pdfrwt>
<pdfrwt beam="1">  1       -2 0.51592057E-02 0.14175237E+03</pdfrwt>
<totfact> 0.11324269E+04</totfact>
</mgrwt>
</event>
<event>
 7    1  0.1111284E-005  0.2011141E+03  0.7546771E-02  0.1153332E+00
          2   -1    0    0  501    0  0.00000000000E+00  0.00000000000E+00  0.17551269114E+03  0.17551269114E+03  0.00000000000E+00 0. -1.
         -2   -1    0    0    0  501 -0.00000000000E+00 -0.00000000000E+00 -0.27407940573E+03  0.27407940573E+03  0.00000000000E+00 0.  1.
         23    2    1    2    0    0 -0.12285102707E+03 -0.98642623162E+02  0.63278746059E+02  0.19144324056E+03  0.88450962107E+02 0.  0.
          5    1    1    2  502    0 -0.22321100561E+02  0.12305263285E+01 -0.36200023744E+02  0.42805110027E+02  0.47000000000E+01 0. -1.
         -5    1    1    2    0  502  0.14517212763E+03  0.97412096833E+02 -0.12564543690E+03  0.21534374628E+03  0.47000000000E+01 0. -1.
        -11    1    3    3    0    0 -0.22738190597E+02 -0.68222117573E+02  0.60074890070E+01  0.72162126923E+02  0.00000000000E+00 0.  1.
         11    1    3    3    0    0 -0.10011283647E+03 -0.30420505588E+02  0.57271257052E+02  0.11928111364E+03  0.00000000000E+00 0. -1.
<mgrwt>
<rscale>  0 0.19579931E+03</rscale>
<asrwt>0</asrwt>
<pdfrwt beam="1">  1        2 0.27001952E-01 0.20111409E+03</pdfrwt>
<pdfrwt beam="2">  1       -2 0.42166062E-01 0.20111409E+03</pdfrwt>
<totfact> 0.10551262E+03</totfact>
</mgrwt>
</event>
<event>
 7    1  0.1111284E-005  0.1355733E+03  0.7546771E-02  0.1231396E+00
         -1   -1    0    0    0  501 -0.00000000000E+00  0.00000000000E+00  0.86492282851E+02  0.86492282851E+02  0.00000000000E+00 0.  1.
          1   -1    0    0  501    0  0.00000000000E+00 -0.00000000000E+00 -0.26349124921E+03  0.26349124921E+03  0.00000000000E+00 0. -1.
         23    2    1    2    0    0  0.66175429588E+01 -0.52056248574E+02 -0.18621291501E+03  0.21409749456E+03  0.91699741381E+02 0.  0.
          5    1    1    2  502    0 -0.82762452412E+01  0.21363509446E+02  0.66616387920E+02  0.70602612633E+02  0.47000000000E+01 0.  1.
         -5    1    1    2    0  502  0.16587022823E+01  0.30692739129E+02 -0.57402439272E+02  0.65283424871E+02  0.47000000000E+01 0.  1.
        -11    1    3    3    0    0  0.31383616868E+02  0.41413814659E+01 -0.21389406795E+02  0.38204570030E+02  0.00000000000E+00 0.  1.
         11    1    3    3    0    0 -0.24766073909E+02 -0.56197630040E+02 -0.16482350821E+03  0.17589292453E+03  0.00000000000E+00 0. -1.
<mgrwt>
<rscale>  0 0.12737985E+03</rscale>
<asrwt>0</asrwt>
<pdfrwt beam="2">  1        1 0.40537115E-01 0.13557330E+03</pdfrwt>
<pdfrwt beam="1">  1       -1 0.13306505E-01 0.13557330E+03</pdfrwt>
<totfact> 0.38712076E+03</totfact>
</mgrwt>
</event>
<event>
 7    1  0.1111284E-005  0.2064536E+03  0.7546771E-02  0.1148453E+00
         -1   -1    0    0    0  501 -0.00000000000E+00  0.00000000000E+00  0.20953577543E+03  0.20953577543E+03  0.00000000000E+00 0.  1.
          1   -1    0    0  501    0  0.00000000000E+00 -0.00000000000E+00 -0.18757362382E+03  0.18757362382E+03  0.00000000000E+00 0. -1.
         23    2    1    2    0    0  0.12757715766E+03  0.10354875791E+03 -0.12170871055E+02  0.18785322114E+03  0.90235393098E+02 0.  0.
          5    1    1    2  502    0 -0.38510572729E+02 -0.95146815998E+02  0.56026512969E+02  0.11703435804E+03  0.47000000000E+01 0.  1.
         -5    1    1    2    0  502 -0.89066584932E+02 -0.84019419153E+01 -0.21893490311E+02  0.92221820072E+02  0.47000000000E+01 0.  1.
        -11    1    3    3    0    0  0.14190428380E+03  0.93803798006E+02 -0.11943510827E+02  0.17052456050E+03  0.00000000000E+00 0. -1.
         11    1    3    3    0    0 -0.14327126139E+02  0.97449599068E+01 -0.22736022773E+00  0.17328660643E+02  0.00000000000E+00 0.  1.
<mgrwt>
<rscale>  0 0.20153159E+03</rscale>
<asrwt>0</asrwt>
<pdfrwt beam="2">  1        1 0.28857481E-01 0.20645359E+03</pdfrwt>
<pdfrwt beam="1">  1       -1 0.32236273E-01 0.20645359E+03</pdfrwt>
<totfact> 0.14275084E+03</totfact>
</mgrwt>
</event>
<event>
 7    1  0.1111284E-005  0.5298605E+03  0.7546771E-02  0.1006266E+00
          2   -1    0    0  501    0  0.00000000000E+00  0.00000000000E+00  0.21220025007E+03  0.21220025007E+03  0.00000000000E+00 0. -1.
         -2   -1    0    0    0  501 -0.00000000000E+00 -0.00000000000E+00 -0.33076326178E+03  0.33076326178E+03  0.00000000000E+00 0.  1.
         23    2    1    2    0    0  0.47788652418E+02  0.25296892094E+02  0.75925920555E+02  0.12987615135E+03  0.90439931603E+02 0.  0.
          5    1    1    2  502    0  0.39130886179E+02  0.61916597779E+02  0.82201293143E+02  0.11019997245E+03  0.47000000000E+01 0. -1.
         -5    1    1    2    0  502 -0.86919538597E+02 -0.87213489873E+02 -0.27669022540E+03  0.30288738805E+03  0.47000000000E+01 0.  1.
        -11    1    3    3    0    0  0.59141178774E+02  0.50288723211E+02  0.51757232258E+02  0.93302978516E+02  0.00000000000E+00 0. -1.
         11    1    3    3    0    0 -0.11352526356E+02 -0.24991831117E+02  0.24168688298E+02  0.36573172836E+02  0.00000000000E+00 0.  1.
<mgrwt>
<rscale>  0 0.52986054E+03</rscale>
<asrwt>0</asrwt>
<pdfrwt beam="1">  1        2 0.32646192E-01 0.52986054E+03</pdfrwt>
<pdfrwt beam="2">  1       -2 0.50886656E-01 0.52986054E+03</pdfrwt>
<totfact> 0.59469204E+02</totfact>
</mgrwt>
</event>
<event>
 7    1  0.1111284E-005  0.2110859E+03  0.7546771E-02  0.1144556E+00
         -1   -1    0    0    0  501 -0.00000000000E+00  0.00000000000E+00  0.27111917676E+02  0.27111917676E+02  0.00000000000E+00 0.  1.
          1   -1    0    0  501    0  0.00000000000E+00 -0.00000000000E+00 -0.15105754648E+04  0.15105754648E+04  0.00000000000E+00 0. -1.
         23    2    1    2    0    0 -0.43627518165E+02  0.16438601250E+03 -0.64869200733E+03  0.67664105159E+03  0.90087018404E+02 0.  0.
          5    1    1    2  502    0 -0.15610590672E+02 -0.11973629592E+03 -0.66239134108E+03  0.67332373331E+03  0.47000000000E+01 0.  1.
         -5    1    1    2    0  502  0.59238108837E+02 -0.44649716576E+02 -0.17238019870E+03  0.18772259755E+03  0.47000000000E+01 0.  1.
        -11    1    3    3    0    0 -0.39382750323E+02  0.40707764653E+02 -0.10781309170E+03  0.12178581965E+03  0.00000000000E+00 0.  1.
         11    1    3    3    0    0 -0.42447678422E+01  0.12367824784E+03 -0.54087891563E+03  0.55485523194E+03  0.00000000000E+00 0. -1.
<mgrwt>
<rscale>  0 0.20626756E+03</rscale>
<asrwt>0</asrwt>
<pdfrwt beam="2">  1        1 0.23239624E+00 0.21108591E+03</pdfrwt>
<pdfrwt beam="1">  1       -1 0.41710641E-02 0.21108591E+03</pdfrwt>
<totfact> 0.16291599E+03</totfact>
</mgrwt>
</event>
<event>
 7    1  0.1111284E-005  0.1336356E+03  0.7546771E-02  0.1234098E+00
          3   -1    0    0  501    0  0.00000000000E+00  0.00000000000E+00  0.33403397007E+02  0.33403397007E+02  0.00000000000E+00 0. -1.
         -3   -1    0    0    0  501 -0.00000000000E+00 -0.00000000000E+00 -0.43112480245E+03  0.43112480245E+03  0.00000000000E+00 0.  1.
         23    2    1    2    0    0 -0.90810900264E+01  0.46368666474E+02 -0.14498165772E+03  0.17863338404E+03  0.93046683928E+02 0.  0.
          5    1    1    2  502    0 -0.10382515067E+02  0.16074941381E+02 -0.20205860889E+03  0.20301717116E+03  0.47000000000E+01 0.  1.
         -5    1    1    2    0  502  0.19463605093E+02 -0.62443607855E+02 -0.50681138836E+02  0.82877644265E+02  0.47000000000E+01 0.  1.
        -11    1    3    3    0    0 -0.26885092183E+02  0.31947124189E+02 -0.11652435201E+02  0.43349811669E+02  0.00000000000E+00 0. -1.
         11    1    3    3    0    0  0.17804002156E+02  0.14421542286E+02 -0.13332922252E+03  0.13528357237E+03  0.00000000000E+00 0.  1.
<mgrwt>
<rscale>  0 0.12562355E+03</rscale>
<asrwt>0</asrwt>
<pdfrwt beam="1">  1        3 0.51389841E-02 0.13363557E+03</pdfrwt>
<pdfrwt beam="2">  1       -3 0.66326893E-01 0.13363557E+03</pdfrwt>
<totfact> 0.11193717E+03</totfact>
</mgrwt>
</event>
<event>
 7    1  0.1111284E-005  0.1820051E+03  0.7546771E-02  0.1171623E+00
          2   -1    0    0  501    0  0.00000000000E+00  0.00000000000E+00  0.17752359453E+03  0.17752359453E+03  0.00000000000E+00 0. -1.
         -2   -1    0    0    0  501 -0.00000000000E+00 -0.00000000000E+00 -0.29398446300E+03  0.29398446300E+03  0.00000000000E+00 0.  1.
         23    2    1    2    0    0 -0.13053349219E+03  0.21473931510E+02  0.10031482225E+03  0.18845759304E+03  0.89180034163E+02 0.  0.
          5    1    1    2  502    0  0.47598353690E+02 -0.65653667432E+02 -0.63087985807E+02  0.10285033434E+03  0.47000000000E+01 0. -1.
         -5    1    1    2    0  502  0.82935138499E+02  0.44179735922E+02 -0.15368770491E+03  0.18020013015E+03  0.47000000000E+01 0. -1.
        -11    1    3    3    0    0  0.63732797542E+01  0.16327125482E+02 -0.17513450387E+01  0.17614225239E+02  0.00000000000E+00 0.  1.
         11    1    3    3    0    0 -0.13690677194E+03  0.51468060284E+01  0.10206616729E+03  0.17084336780E+03  0.00000000000E+00 0. -1.
<mgrwt>
<rscale>  0 0.17610858E+03</rscale>
<asrwt>0</asrwt>
<pdfrwt beam="1">  1        2 0.27311323E-01 0.18200512E+03</pdfrwt>
<pdfrwt beam="2">  1       -2 0.45228378E-01 0.18200512E+03</pdfrwt>
<totfact> 0.90765852E+02</totfact>
</mgrwt>
</event>
<event>
 7    1  0.1111284E-005  0.1626794E+03  0.7546771E-02  0.1192900E+00
          4   -1    0    0  501    0  0.00000000000E+00  0.00000000000E+00  0.16087016051E+03  0.16087016051E+03  0.00000000000E+00 0. -1.
         -4   -1    0    0    0  501 -0.00000000000E+00 -0.00000000000E+00 -0.14438906212E+03  0.14438906212E+03  0.00000000000E+00 0.  1.
         23    2    1    2    0    0 -0.10062042272E+03 -0.26749562435E+02  0.30246131922E+02  0.14199847515E+03  0.91699126982E+02 0.  0.
          5    1    1    2  502    0 -0.12969198590E+02 -0.17783541727E+02 -0.32706756190E+02  0.39702347147E+02  0.47000000000E+01 0. -1.
         -5    1    1    2    0  502  0.11358962131E+03  0.44533104163E+02  0.18941722663E+02  0.12355840033E+03  0.47000000000E+01 0. -1.
        -11    1    3    3    0    0 -0.73285763631E+02  0.27234126420E+02  0.18894308860E+02  0.80433175370E+02  0.00000000000E+00 0.  1.
         11    1    3    3    0    0 -0.27334659088E+02 -0.53983688855E+02  0.11351823063E+02  0.61565299777E+02  0.00000000000E+00 0. -1.
<mgrwt>
<rscale>  0 0.15633267E+03</rscale>
<asrwt>0</asrwt>
<pdfrwt beam="1">  1        4 0.24749256E-01 0.16267943E+03</pdfrwt>
<pdfrwt beam="2">  1       -4 0.22213702E-01 0.16267943E+03</pdfrwt>
<totfact> 0.48827889E+02</totfact>
</mgrwt>
</event>
<event>
 7    1  0.1111284E-005  0.1317524E+03  0.7546771E-02  0.1236690E+00
         -4   -1    0    0    0  501 -0.00000000000E+00  0.00000000000E+00  0.18285548376E+03  0.18285548376E+03  0.00000000000E+00 0.  1.
          4   -1    0    0  501    0  0.00000000000E+00 -0.00000000000E+00 -0.82470437662E+02  0.82470437662E+02  0.00000000000E+00 0. -1.
         23    2    1    2    0    0  0.26833999981E+02  0.31832587911E+02  0.63622635422E+01  0.10346494769E+03  0.94504707792E+02 0.  0.
          5    1    1    2  502    0 -0.63126698695E+02 -0.57132054199E+02  0.74674020027E+02  0.11334615552E+03  0.47000000000E+01 0. -1.
         -5    1    1    2    0  502  0.36292698714E+02  0.25299466288E+02  0.19348762529E+02  0.48514818208E+02  0.47000000000E+01 0. -1.
        -11    1    3    3    0    0  0.52082178881E+02  0.64787158339E+01  0.30122307984E+02  0.60513474153E+02  0.00000000000E+00 0.  1.
         11    1    3    3    0    0 -0.25248178900E+02  0.25353872077E+02 -0.23760044442E+02  0.42951473536E+02  0.00000000000E+00 0. -1.
<mgrwt>
<rscale>  0 0.12396855E+03</rscale>
<asrwt>0</asrwt>
<pdfrwt beam="2">  1        4 0.12687760E-01 0.13175239E+03</pdfrwt>
<pdfrwt beam="1">  1       -4 0.28131613E-01 0.13175239E+03</pdfrwt>
<totfact> 0.99465616E+02</totfact>
</mgrwt>
</event>
<event>
 7    1  0.1111284E-005  0.1265651E+03  0.7546771E-02  0.1248258E+00
         -2   -1    0    0    0  501 -0.00000000000E+00  0.00000000000E+00  0.22200384859E+02  0.22200384859E+02  0.00000000000E+00 0.  1.
          2   -1    0    0  501    0  0.00000000000E+00 -0.00000000000E+00 -0.59127290621E+03  0.59127290621E+03  0.00000000000E+00 0. -1.
         23    2    1    2    0    0  0.17506062961E+02 -0.92975587289E+01 -0.33405712821E+03  0.34654455806E+03  0.90033654670E+02 0.  0.
          5    1    1    2  502    0  0.52838747678E+02  0.28260165159E+00 -0.75271965903E+02  0.92086763277E+02  0.47000000000E+01 0.  1.
         -5    1    1    2    0  502 -0.70344810639E+02  0.90149570773E+01 -0.15974342724E+03  0.17484196974E+03  0.47000000000E+01 0.  1.
        -11    1    3    3    0    0 -0.29986116481E+02 -0.12184660375E+02 -0.58026776243E+02  0.66443509022E+02  0.00000000000E+00 0.  1.
         11    1    3    3    0    0  0.47492179441E+02  0.28871016466E+01 -0.27603035197E+03  0.28010104904E+03  0.00000000000E+00 0. -1.
<mgrwt>
<rscale>  0 0.11692466E+03</rscale>
<asrwt>0</asrwt>
<pdfrwt beam="2">  1        2 0.90965057E-01 0.12656506E+03</pdfrwt>
<pdfrwt beam="1">  1       -2 0.34154440E-02 0.12656506E+03</pdfrwt>
<totfact> 0.16840062E+04</totfact>
</mgrwt>
</event>
<event>
 7    1  0.1111284E-005  0.1825876E+03  0.7546771E-02  0.1170931E+00
         -1   -1    0    0    0  501 -0.00000000000E+00  0.00000000000E+00  0.64494826590E+02  0.64494826590E+02  0.00000000000E+00 0.  1.
          1   -1    0    0  501    0  0.00000000000E+00 -0.00000000000E+00 -0.46767246492E+03  0.46767246492E+03  0.00000000000E+00 0. -1.
         23    2    1    2    0    0 -0.67581807342E+02 -0.11465344572E+03 -0.23023854074E+03  0.28067940826E+03  0.89768765635E+02 0.  0.
          5    1    1    2  502    0  0.75213206883E+02  0.47643580944E+02 -0.15925025835E+03  0.18250937532E+03  0.47000000000E+01 0.  1.
         -5    1    1    2    0  502 -0.76313995417E+01  0.67009864771E+02 -0.13688839235E+02  0.68978507923E+02  0.47000000000E+01 0.  1.
        -11    1    3    3    0    0  0.97092563922E+00 -0.50900672727E+02 -0.28658787911E+02  0.58422147386E+02  0.00000000000E+00 0.  1.
         11    1    3    3    0    0 -0.68552732981E+02 -0.63752772989E+02 -0.20157975282E+03  0.22225726087E+03  0.00000000000E+00 0. -1.
<mgrwt>
<rscale>  0 0.17680524E+03</rscale>
<asrwt>0</asrwt>
<pdfrwt beam="2">  1        1 0.71949609E-01 0.18258758E+03</pdfrwt>
<pdfrwt beam="1">  1       -1 0.99222812E-02 0.18258758E+03</pdfrwt>
<totfact> 0.29977362E+03</totfact>
</mgrwt>
</event>
<event>
 7    1  0.1111284E-005  0.1314441E+03  0.7546771E-02  0.1237941E+00
          1   -1    0    0  501    0  0.00000000000E+00  0.00000000000E+00  0.91445089929E+02  0.91445089929E+02  0.00000000000E+00 0. -1.
         -1   -1    0    0    0  501 -0.00000000000E+00 -0.00000000000E+00 -0.15008024115E+03  0.15008024115E+03  0.00000000000E+00 0.  1.
         23    2    1    2    0    0  0.12412140108E+02 -0.38700819549E+02 -0.12145490191E+02  0.10210207586E+03  0.92873603934E+02 0.  0.
          5    1    1    2  502    0 -0.43365552610E+02 -0.78415609893E+01 -0.66459912128E+02  0.79881607094E+02  0.47000000000E+01 0. -1.
         -5    1    1    2    0  502  0.30953412502E+02  0.46542380539E+02  0.19970251101E+02  0.59541648119E+02  0.47000000000E+01 0. -1.
        -11    1    3    3    0    0  0.23053862040E+02  0.23974204079E+02  0.10084415537E+02  0.34755408973E+02  0.00000000000E+00 0. -1.
         11    1    3    3    0    0 -0.10641721932E+02 -0.62675023628E+02 -0.22229905728E+02  0.67346666890E+02  0.00000000000E+00 0.  1.
<mgrwt>
<rscale>  0 0.12318018E+03</rscale>
<asrwt>0</asrwt>
<pdfrwt beam="1">  1        1 0.14068475E-01 0.13144412E+03</pdfrwt>
<pdfrwt beam="2">  1       -1 0.23089268E-01 0.13144412E+03</pdfrwt>
<totfact> 0.61153955E+03</totfact>
</mgrwt>
</event>
<event>
 7    1  0.1111284E-005  0.1407608E+03  0.7546771E-02  0.1223255E+00
         -2   -1    0    0    0  501 -0.00000000000E+00  0.00000000000E+00  0.22338428935E+03  0.22338428935E+03  0.00000000000E+00 0.  1.
          2   -1    0    0  501    0  0.00000000000E+00 -0.00000000000E+00 -0.75918948846E+02  0.75918948846E+02  0.00000000000E+00 0. -1.
         23    2    1    2    0    0  0.61696626780E+02 -0.19556228687E+02  0.29347327137E+02  0.11554938062E+03  0.91112424590E+02 0.  0.
          5    1    1    2  502    0 -0.68339671388E+02 -0.38557133857E+02  0.87293824761E+02  0.11747027325E+03  0.47000000000E+01 0.  1.
         -5    1    1    2    0  502  0.66430446087E+01  0.58113362544E+02  0.30824188607E+02  0.66283584326E+02  0.47000000000E+01 0.  1.
        -11    1    3    3    0    0 -0.21605621765E+02 -0.44848399802E+01 -0.73846934996E+01  0.23269086350E+02  0.00000000000E+00 0. -1.
         11    1    3    3    0    0  0.83302248545E+02 -0.15071388707E+02  0.36732020636E+02  0.92280294268E+02  0.00000000000E+00 0.  1.
<mgrwt>
<rscale>  0 0.13287198E+03</rscale>
<asrwt>0</asrwt>
<pdfrwt beam="2">  1        2 0.11679838E-01 0.14076084E+03</pdfrwt>
<pdfrwt beam="1">  1       -2 0.34366813E-01 0.14076084E+03</pdfrwt>
<totfact> 0.40219424E+03</totfact>
</mgrwt>
</event>
<event>
 7    1  0.1111284E-005  0.1351471E+03  0.7546771E-02  0.1232422E+00
         -2   -1    0    0    0  501 -0.00000000000E+00  0.00000000000E+00  0.65125540058E+02  0.65125540058E+02  0.00000000000E+00 0.  1.
          2   -1    0    0  501    0  0.00000000000E+00 -0.00000000000E+00 -0.30550095152E+03  0.30550095152E+03  0.00000000000E+00 0. -1.
         23    2    1    2    0    0  0.33296098432E+01  0.51250311694E+02 -0.20633965090E+03  0.23125940876E+03  0.90924044454E+02 0.  0.
          5    1    1    2  502    0 -0.33455971598E+02  0.23880314563E+02  0.15694750964E+02  0.44249143122E+02  0.47000000000E+01 0.  1.
         -5    1    1    2    0  502  0.30126361754E+02 -0.75130626257E+02 -0.49730511534E+02  0.95117939695E+02  0.47000000000E+01 0.  1.
        -11    1    3    3    0    0 -0.18984044861E+02  0.73098630173E+01 -0.13041559676E+01  0.20384525489E+02  0.00000000000E+00 0.  1.
         11    1    3    3    0    0  0.22313654704E+02  0.43940448677E+02 -0.20503549493E+03  0.21087488328E+03  0.00000000000E+00 0. -1.
<mgrwt>
<rscale>  0 0.12670906E+03</rscale>
<asrwt>0</asrwt>
<pdfrwt beam="2">  1        2 0.47000145E-01 0.13514714E+03</pdfrwt>
<pdfrwt beam="1">  1       -2 0.10019314E-01 0.13514714E+03</pdfrwt>
<totfact> 0.67590033E+03</totfact>
</mgrwt>
</event>
<event>
 7    1  0.1111284E-005  0.1753024E+03  0.7546771E-02  0.1178163E+00
          2   -1    0    0  501    0  0.00000000000E+00  0.00000000000E+00  0.12700276175E+04  0.12700276175E+04  0.00000000000E+00 0. -1.
         -2   -1    0    0    0  501 -0.00000000000E+00 -0.00000000000E+00 -0.21553776095E+02  0.21553776095E+02  0.00000000000E+00 0.  1.
         23    2    1    2    0    0 -0.11974438009E+03 -0.27964518420E+02  0.64863030383E+03  0.66664684378E+03  0.92606762303E+02 0.  0.
          5    1    1    2  502    0  0.51860571107E+02 -0.36834821455E+02  0.38771213925E+03  0.39292380410E+03  0.47000000000E+01 0.  1.
         -5    1    1    2    0  502  0.67883808983E+02  0.64799339875E+02  0.21213139832E+03  0.23201074571E+03  0.47000000000E+01 0.  1.
        -11    1    3    3    0    0 -0.32842378285E+02 -0.52962849705E+02  0.22485090414E+03  0.23332726877E+03  0.00000000000E+00 0.  1.
         11    1    3    3    0    0 -0.86902001806E+02  0.24998331285E+02  0.42377939969E+03  0.43331957501E+03  0.00000000000E+00 0. -1.
<mgrwt>
<rscale>  0 0.16969808E+03</rscale>
<asrwt>0</asrwt>
<pdfrwt beam="1">  1        2 0.19538881E+00 0.17530237E+03</pdfrwt>
<pdfrwt beam="2">  1       -2 0.33159665E-02 0.17530237E+03</pdfrwt>
<totfact> 0.65566532E+03</totfact>
</mgrwt>
</event>
<event>
 7    1  0.1111284E-005  0.2390243E+03  0.7546771E-02  0.1147978E+00
         -2   -1    0    0    0  501 -0.00000000000E+00  0.00000000000E+00  0.27824331573E+02  0.27824331573E+02  0.00000000000E+00 0.  1.
          2   -1    0    0  501    0  0.00000000000E+00 -0.00000000000E+00 -0.12253495635E+04  0.12253495635E+04  0.00000000000E+00 0. -1.
         23    2    1    2    0    0 -0.64650310273E+02 -0.38168117629E+02 -0.53728900359E+03  0.55100261873E+03  0.96373983239E+02 0.  0.
          5    1    1    2  502    0  0.31311303696E+02  0.55325052171E+02 -0.66130300524E+03  0.66436813129E+03  0.47000000000E+01 0. -1.
         -5    1    1    2    0  502  0.33339006578E+02 -0.17156934543E+02  0.10667769093E+01  0.37803145047E+02  0.47000000000E+01 0.  1.
        -11    1    3    3    0    0  0.19163511243E+02 -0.40023833256E+00 -0.31091117544E+02  0.36524757960E+02  0.00000000000E+00 0.  1.
         11    1    3    3    0    0 -0.83813821516E+02 -0.37767879296E+02 -0.50619788605E+03  0.51447786077E+03  0.00000000000E+00 0. -1.
<mgrwt>
<rscale>  0 0.20210112E+03</rscale>
<asrwt>0</asrwt>
<pdfrwt beam="2">  1        2 0.18851534E+00 0.23902432E+03</pdfrwt>
<pdfrwt beam="1">  1       -2 0.42806658E-02 0.23902432E+03</pdfrwt>
<totfact> 0.47756036E+03</totfact>
</mgrwt>
</event>
<event>
 7    1  0.1111284E-005  0.2398410E+03  0.7546771E-02  0.1151495E+00
         -2   -1    0    0    0  501 -0.00000000000E+00  0.00000000000E+00  0.34071447050E+02  0.34071447050E+02  0.00000000000E+00 0.  1.
          2   -1    0    0  501    0  0.00000000000E+00 -0.00000000000E+00 -0.10057932228E+04  0.10057932228E+04  0.00000000000E+00 0. -1.
         23    2    1    2    0    0  0.21345934255E+02  0.46588143402E+02 -0.48059711308E+03  0.49330531387E+03  0.98744334385E+02 0.  0.
          5    1    1    2  502    0 -0.12346650461E+03 -0.23651897281E+02 -0.34121964469E+03  0.36367062835E+03  0.47000000000E+01 0. -1.
         -5    1    1    2    0  502  0.10212057036E+03 -0.22936246121E+02 -0.14990501795E+03  0.18288872760E+03  0.47000000000E+01 0.  1.
        -11    1    3    3    0    0 -0.39963499547E+00 -0.30791289195E+02 -0.14160339888E+03  0.14491302831E+03  0.00000000000E+00 0.  1.
         11    1    3    3    0    0  0.21745569251E+02  0.77379432597E+02 -0.33899371420E+03  0.34839228556E+03  0.00000000000E+00 0. -1.
<mgrwt>
<rscale>  0 0.19793267E+03</rscale>
<asrwt>0</asrwt>
<pdfrwt beam="2">  1        2 0.15473740E+00 0.23984098E+03</pdfrwt>
<pdfrwt beam="1">  1       -2 0.52417617E-02 0.23984098E+03</pdfrwt>
<totfact> 0.47184055E+03</totfact>
</mgrwt>
</event>
<event>
 7    1  0.1111284E-005  0.1432132E+03  0.7546771E-02  0.1220199E+00
          2   -1    0    0  501    0  0.00000000000E+00  0.00000000000E+00  0.94623633403E+03  0.94623633403E+03  0.00000000000E+00 0.  1.
         -2   -1    0    0    0  501 -0.00000000000E+00 -0.00000000000E+00 -0.18134111105E+02  0.18134111105E+02  0.00000000000E+00 0. -1.
         23    2    1    2    0    0 -0.16998875091E+02 -0.67791907945E+02  0.51079293814E+03  0.52317086329E+03  0.88958540930E+02 0.  0.
          5    1    1    2  502    0 -0.19761515531E+02  0.16157545506E+01  0.37205957910E+01  0.20713787483E+02  0.47000000000E+01 0.  1.
         -5    1    1    2    0  502  0.36760390622E+02  0.66176153394E+02  0.41358868900E+03  0.42048579437E+03  0.47000000000E+01 0.  1.
        -11    1    3    3    0    0 -0.29167834768E+01  0.15396020480E+02  0.21207224244E+02  0.26368379408E+02  0.00000000000E+00 0. -1.
         11    1    3    3    0    0 -0.14082091614E+02 -0.83187928425E+02  0.48958571390E+03  0.49680248388E+03  0.00000000000E+00 0.  1.
<mgrwt>
<rscale>  0 0.13501485E+03</rscale>
<asrwt>0</asrwt>
<pdfrwt beam="1">  1        2 0.14557478E+00 0.14321324E+03</pdfrwt>
<pdfrwt beam="2">  1       -2 0.27898640E-02 0.14321324E+03</pdfrwt>
<totfact> 0.12888256E+04</totfact>
</mgrwt>
</event>
<event>
 7    1  0.1111284E-005  0.1508438E+03  0.7546771E-02  0.1207998E+00
          2   -1    0    0  501    0  0.00000000000E+00  0.00000000000E+00  0.72898846531E+03  0.72898846531E+03  0.00000000000E+00 0. -1.
         -2   -1    0    0    0  501 -0.00000000000E+00 -0.00000000000E+00 -0.26279743997E+02  0.26279743997E+02  0.00000000000E+00 0.  1.
         23    2    1    2    0    0  0.43689076316E+02  0.72248516328E+02  0.29492757147E+03  0.32048169338E+03  0.92723566988E+02 0.  0.
          5    1    1    2  502    0 -0.53507342205E+01 -0.14377259304E+02  0.33014653645E+03  0.33053617272E+03  0.47000000000E+01 0. -1.
         -5    1    1    2    0  502 -0.38338342095E+02 -0.57871257025E+02  0.77634613385E+02  0.10425034321E+03  0.47000000000E+01 0. -1.
        -11    1    3    3    0    0  0.58815209730E+02  0.27880124614E+02  0.95178280695E+02  0.11530583402E+03  0.00000000000E+00 0.  1.
         11    1    3    3    0    0 -0.15126133414E+02  0.44368391715E+02  0.19974929078E+03  0.20517585935E+03  0.00000000000E+00 0. -1.
<mgrwt>
<rscale>  0 0.14403688E+03</rscale>
<asrwt>0</asrwt>
<pdfrwt beam="1">  1        2 0.11215206E+00 0.15084379E+03</pdfrwt>
<pdfrwt beam="2">  1       -2 0.40430381E-02 0.15084379E+03</pdfrwt>
<totfact> 0.10400772E+04</totfact>
</mgrwt>
</event>
<event>
 7    1  0.1210591E-005  0.2896915E+03  0.7546771E-02  0.1091990E+00
          2   -1    0    0  501    0  0.00000000000E+00  0.00000000000E+00  0.19601025026E+04  0.19601025026E+04  0.00000000000E+00 0. -1.
         -2   -1    0    0    0  501 -0.00000000000E+00 -0.00000000000E+00 -0.41947576108E+02  0.41947576108E+02  0.00000000000E+00 0.  1.
         23    2    1    2    0    0 -0.13364773844E+03  0.22457486570E+03  0.10750762011E+04  0.11105889778E+04  0.96558019613E+02 0.  0.
          5    1    1    2  502    0  0.56665231976E+01 -0.76981290892E+02  0.12259372469E+03  0.14494667973E+03  0.47000000000E+01 0. -1.
         -5    1    1    2    0  502  0.12798121524E+03 -0.14759357481E+03  0.72048500073E+03  0.74651442120E+03  0.47000000000E+01 0. -1.
        -11    1    3    3    0    0 -0.61191137314E+02  0.14271912390E+03  0.79320416306E+03  0.80826106420E+03  0.00000000000E+00 0. -1.
         11    1    3    3    0    0 -0.72456601122E+02  0.81855741807E+02  0.28187203805E+03  0.30232791361E+03  0.00000000000E+00 0.  1.
<mgrwt>
<rscale>  0 0.28687839E+03</rscale>
<asrwt>0</asrwt>
<pdfrwt beam="1">  1        2 0.30155416E+00 0.28969149E+03</pdfrwt>
<pdfrwt beam="2">  1       -2 0.64534748E-02 0.28969149E+03</pdfrwt>
<totfact> 0.10292038E+03</totfact>
</mgrwt>
</event>
<event>
 7    1  0.1111284E-005  0.1390627E+03  0.7546771E-02  0.1228922E+00
         -1   -1    0    0    0  501 -0.00000000000E+00  0.00000000000E+00  0.11985781681E+04  0.11985781681E+04  0.00000000000E+00 0.  1.
          1   -1    0    0  501    0  0.00000000000E+00 -0.00000000000E+00 -0.13662490334E+02  0.13662490334E+02  0.00000000000E+00 0. -1.
         23    2    1    2    0    0 -0.47598048304E+02  0.38045594340E+02  0.31885982242E+03  0.33509119022E+03  0.83075134414E+02 0.  0.
          5    1    1    2  502    0  0.56480992673E+02 -0.73465225823E+02  0.44991686631E+03  0.45938493503E+03  0.47000000000E+01 0.  1.
         -5    1    1    2    0  502 -0.88829443687E+01  0.35419631483E+02  0.41613898903E+03  0.41776453318E+03  0.47000000000E+01 0.  1.
        -11    1    3    3    0    0 -0.55143349795E+02 -0.73304436199E+01  0.14672953736E+03  0.15692062186E+03  0.00000000000E+00 0.  1.
         11    1    3    3    0    0  0.75453014912E+01  0.45376037960E+02  0.17213028506E+03  0.17817056836E+03  0.00000000000E+00 0. -1.
<mgrwt>
<rscale>  0 0.12901661E+03</rscale>
<asrwt>0</asrwt>
<pdfrwt beam="2">  1        1 0.21019225E-02 0.13906274E+03</pdfrwt>
<pdfrwt beam="1">  1       -1 0.18439656E+00 0.13906274E+03</pdfrwt>
<totfact> 0.11767559E+03</totfact>
</mgrwt>
</event>
<event>
 7    1  0.1111284E-005  0.1588344E+03  0.7546771E-02  0.1197373E+00
         -2   -1    0    0    0  501 -0.00000000000E+00  0.00000000000E+00  0.72031049973E+02  0.72031049973E+02  0.00000000000E+00 0.  1.
          2   -1    0    0  501    0  0.00000000000E+00 -0.00000000000E+00 -0.33901776851E+03  0.33901776851E+03  0.00000000000E+00 0. -1.
         23    2    1    2    0    0  0.52436841437E+02 -0.82784034494E+02 -0.19352891776E+03  0.23605048533E+03  0.93078305242E+02 0.  0.
          5    1    1    2  502    0 -0.67638492209E+01 -0.33132542014E+02 -0.14813486539E+02  0.37216184383E+02  0.47000000000E+01 0.  1.
         -5    1    1    2    0  502 -0.45672992216E+02  0.11591657651E+03 -0.58644314233E+02  0.13778214877E+03  0.47000000000E+01 0.  1.
        -11    1    3    3    0    0  0.32409652545E+02 -0.68489113414E+02 -0.19712297621E+03  0.21118383457E+03  0.00000000000E+00 0. -1.
         11    1    3    3    0    0  0.20027188892E+02 -0.14294921080E+02  0.35940584509E+01  0.24866650755E+02  0.00000000000E+00 0.  1.
<mgrwt>
<rscale>  0 0.15255099E+03</rscale>
<asrwt>0</asrwt>
<pdfrwt beam="2">  1        2 0.52156579E-01 0.15883440E+03</pdfrwt>
<pdfrwt beam="1">  1       -2 0.11081700E-01 0.15883440E+03</pdfrwt>
<totfact> 0.52094702E+03</totfact>
</mgrwt>
</event>
<event>
 7    1  0.1111284E-005  0.1458942E+03  0.7546771E-02  0.1215197E+00
          3   -1    0    0  501    0  0.00000000000E+00  0.00000000000E+00  0.25412427373E+03  0.25412427373E+03  0.00000000000E+00 0. -1.
         -3   -1    0    0    0  501 -0.00000000000E+00 -0.00000000000E+00 -0.96982933806E+02  0.96982933806E+02  0.00000000000E+00 0.  1.
         23    2    1    2    0    0 -0.19925991272E+02 -0.72559214716E+02  0.16685823767E+03  0.20488974838E+03  0.92066566926E+02 0.  0.
          5    1    1    2  502    0  0.48819784081E+00 -0.30305999819E+02  0.20816139788E+02  0.37068769036E+02  0.47000000000E+01 0.  1.
         -5    1    1    2    0  502  0.19437793431E+02  0.10286521453E+03 -0.30533037529E+02  0.10914869012E+03  0.47000000000E+01 0.  1.
        -11    1    3    3    0    0 -0.56946390286E+02 -0.47479490290E+02  0.10133714916E+03  0.12556437060E+03  0.00000000000E+00 0. -1.
         11    1    3    3    0    0  0.37020399014E+02 -0.25079724426E+02  0.65521088505E+02  0.79325377777E+02  0.00000000000E+00 0.  1.
<mgrwt>
<rscale>  0 0.13862055E+03</rscale>
<asrwt>0</asrwt>
<pdfrwt beam="1">  1        3 0.39096042E-01 0.14589423E+03</pdfrwt>
<pdfrwt beam="2">  1       -3 0.14920451E-01 0.14589423E+03</pdfrwt>
<totfact> 0.56948672E+02</totfact>
</mgrwt>
</event>
<event>
 7    1  0.1111284E-005  0.2616951E+03  0.7546771E-02  0.1108242E+00
         -1   -1    0    0    0  501 -0.00000000000E+00  0.00000000000E+00  0.10671963494E+04  0.10671963494E+04  0.00000000000E+00 0.  1.
          1   -1    0    0  501    0  0.00000000000E+00 -0.00000000000E+00 -0.12798513259E+03  0.12798513259E+03  0.00000000000E+00 0. -1.
         23    2    1    2    0    0 -0.84015742165E+02 -0.21400694274E+03  0.30789575798E+02  0.24981690063E+03  0.92751654388E+02 0.  0.
          5    1    1    2  502    0  0.56544721355E+02  0.11340885145E+03  0.26795741537E+03  0.29644921918E+03  0.47000000000E+01 0. -1.
         -5    1    1    2    0  502  0.27471020810E+02  0.10059809129E+03  0.64046422564E+03  0.64891536219E+03  0.47000000000E+01 0. -1.
        -11    1    3    3    0    0  0.16413356932E+02 -0.52177554766E+02  0.22595123006E+02  0.59181374526E+02  0.00000000000E+00 0.  1.
         11    1    3    3    0    0 -0.10042909910E+03 -0.16182938797E+03  0.81944527915E+01  0.19063552611E+03  0.00000000000E+00 0. -1.
<mgrwt>
<rscale>  0 0.25817915E+03</rscale>
<asrwt>0</asrwt>
<pdfrwt beam="2">  1        1 0.19690021E-01 0.26169508E+03</pdfrwt>
<pdfrwt beam="1">  1       -1 0.16418405E+00 0.26169508E+03</pdfrwt>
<totfact> 0.77801014E+01</totfact>
</mgrwt>
</event>
<event>
 7    1  0.1111284E-005  0.1283821E+03  0.7546771E-02  0.1243789E+00
         -1   -1    0    0    0  501 -0.00000000000E+00  0.00000000000E+00  0.33821382141E+02  0.33821382141E+02  0.00000000000E+00 0.  1.
          1   -1    0    0  501    0  0.00000000000E+00 -0.00000000000E+00 -0.56988161194E+03  0.56988161194E+03  0.00000000000E+00 0. -1.
         23    2    1    2    0    0  0.15970972784E+02  0.24535211372E+02 -0.41888378153E+03  0.42988618027E+03  0.92094826073E+02 0.  0.
          5    1    1    2  502    0 -0.91051634021E+01 -0.30863414663E+02  0.18717197601E+02  0.37521698406E+02  0.47000000000E+01 0. -1.
         -5    1    1    2    0  502 -0.68658093818E+01  0.63282032908E+01 -0.13589364587E+03  0.13629511540E+03  0.47000000000E+01 0. -1.
        -11    1    3    3    0    0 -0.95387353958E+01  0.53854988498E+02 -0.18955857708E+03  0.19729115896E+03  0.00000000000E+00 0.  1.
         11    1    3    3    0    0  0.25509708180E+02 -0.29319777126E+02 -0.22932520446E+03  0.23259502132E+03  0.00000000000E+00 0. -1.
<mgrwt>
<rscale>  0 0.11958124E+03</rscale>
<asrwt>0</asrwt>
<pdfrwt beam="2">  1        1 0.87674080E-01 0.12838210E+03</pdfrwt>
<pdfrwt beam="1">  1       -1 0.52032904E-02 0.12838210E+03</pdfrwt>
<totfact> 0.60114133E+03</totfact>
</mgrwt>
</event>
<event>
 7    1  0.1111284E-005  0.1511035E+03  0.7546771E-02  0.1214623E+00
         -2   -1    0    0    0  501 -0.00000000000E+00  0.00000000000E+00  0.35138556347E+03  0.35138556347E+03  0.00000000000E+00 0.  1.
          2   -1    0    0  501    0  0.00000000000E+00 -0.00000000000E+00 -0.25389230609E+03  0.25389230609E+03  0.00000000000E+00 0. -1.
         23    2    1    2    0    0 -0.30195285607E+02  0.47846059339E+02 -0.22467723841E+03  0.24943224253E+03  0.92388210759E+02 0.  0.
          5    1    1    2  502    0  0.13480280991E+01 -0.95008513832E+02  0.18947915831E+03  0.21202093367E+03  0.47000000000E+01 0. -1.
         -5    1    1    2    0  502  0.28847257507E+02  0.47162454493E+02  0.13269133748E+03  0.14382469336E+03  0.47000000000E+01 0.  1.
        -11    1    3    3    0    0  0.31146353222E+02  0.39889638497E+01 -0.86420015112E+02  0.91947953558E+02  0.00000000000E+00 0.  1.
         11    1    3    3    0    0 -0.61341638829E+02  0.43857095489E+02 -0.13825722330E+03  0.15748428897E+03  0.00000000000E+00 0. -1.
<mgrwt>
<rscale>  0 0.13904286E+03</rscale>
<asrwt>0</asrwt>
<pdfrwt beam="2">  1        2 0.39060355E-01 0.15110355E+03</pdfrwt>
<pdfrwt beam="1">  1       -2 0.54059318E-01 0.15110355E+03</pdfrwt>
<totfact> 0.43161649E+02</totfact>
</mgrwt>
</event>
<event>
 7    1  0.1111284E-005  0.2021893E+03  0.7546771E-02  0.1152075E+00
         -2   -1    0    0    0  501 -0.00000000000E+00  0.00000000000E+00  0.68699969044E+02  0.68699969044E+02  0.00000000000E+00 0.  1.
          2   -1    0    0  501    0  0.00000000000E+00 -0.00000000000E+00 -0.58981955676E+03  0.58981955676E+03  0.00000000000E+00 0. -1.
         23    2    1    2    0    0  0.98743238664E+01 -0.15861443906E+03 -0.34398970933E+03  0.38971566994E+03  0.91067780914E+02 0.  0.
          5    1    1    2  502    0 -0.56645960183E+02  0.70924873326E+02 -0.13022557145E+03  0.15880771997E+03  0.47000000000E+01 0.  1.
         -5    1    1    2    0  502  0.46771636317E+02  0.87689565738E+02 -0.46904306935E+02  0.10999613590E+03  0.47000000000E+01 0.  1.
        -11    1    3    3    0    0 -0.14610986018E+02 -0.12884268414E+03 -0.18369060381E+03  0.22484696150E+03  0.00000000000E+00 0.  1.
         11    1    3    3    0    0  0.24485309885E+02 -0.29771754927E+02 -0.16029910553E+03  0.16486870845E+03  0.00000000000E+00 0. -1.
<mgrwt>
<rscale>  0 0.19725554E+03</rscale>
<asrwt>0</asrwt>
<pdfrwt beam="2">  1        2 0.90741470E-01 0.20218932E+03</pdfrwt>
<pdfrwt beam="1">  1       -2 0.10569226E-01 0.20218932E+03</pdfrwt>
<totfact> 0.30903903E+03</totfact>
</mgrwt>
</event>
<event>
 7    1  0.1111284E-005  0.1964583E+03  0.7546771E-02  0.1157123E+00
          1   -1    0    0  501    0  0.00000000000E+00  0.00000000000E+00  0.13481980118E+03  0.13481980118E+03  0.00000000000E+00 0. -1.
         -1   -1    0    0    0  501 -0.00000000000E+00 -0.00000000000E+00 -0.26952578403E+03  0.26952578403E+03  0.00000000000E+00 0.  1.
         23    2    1    2    0    0 -0.15070783681E+03 -0.16077643970E+02 -0.24296518516E+02  0.17898788330E+03  0.92059756913E+02 0.  0.
          5    1    1    2  502    0  0.88050619495E+02  0.57955432165E+02 -0.10623536243E+03  0.14973238107E+03  0.47000000000E+01 0. -1.
         -5    1    1    2    0  502  0.62657217315E+02 -0.41877788196E+02 -0.41741019139E+01  0.75625320843E+02  0.47000000000E+01 0. -1.
        -11    1    3    3    0    0 -0.33512607955E+02 -0.18325551316E+02  0.31179596967E+02  0.49306064434E+02  0.00000000000E+00 0. -1.
         11    1    3    3    0    0 -0.11719522886E+03  0.22479073463E+01 -0.55476115483E+02  0.12968181886E+03  0.00000000000E+00 0.  1.
<mgrwt>
<rscale>  0 0.19149127E+03</rscale>
<asrwt>0</asrwt>
<pdfrwt beam="1">  1        1 0.20741508E-01 0.19645825E+03</pdfrwt>
<pdfrwt beam="2">  1       -1 0.41465505E-01 0.19645825E+03</pdfrwt>
<totfact> 0.13982676E+03</totfact>
</mgrwt>
</event>
<event>
 7    1  0.1111284E-005  0.1669683E+03  0.7546771E-02  0.1187778E+00
          1   -1    0    0  501    0  0.00000000000E+00  0.00000000000E+00  0.17270008095E+03  0.17270008095E+03  0.00000000000E+00 0. -1.
         -1   -1    0    0    0  501 -0.00000000000E+00 -0.00000000000E+00 -0.14215160918E+03  0.14215160918E+03  0.00000000000E+00 0.  1.
         23    2    1    2    0    0 -0.10119539948E+03  0.44847134899E+02  0.34752531822E+02  0.14783046771E+03  0.91620599924E+02 0.  0.
          5    1    1    2  502    0  0.10357068040E+03 -0.80283924746E+02 -0.23942282083E+01  0.13114959679E+03  0.47000000000E+01 0.  1.
         -5    1    1    2    0  502 -0.23752809153E+01  0.35436789847E+02 -0.18098318470E+01  0.35871625631E+02  0.47000000000E+01 0.  1.
        -11    1    3    3    0    0 -0.57135817255E+02  0.65843733351E+01 -0.26416865050E+02  0.63290649741E+02  0.00000000000E+00 0.  1.
         11    1    3    3    0    0 -0.44059582225E+02  0.38262761564E+02  0.61169396872E+02  0.84539817968E+02  0.00000000000E+00 0. -1.
<mgrwt>
<rscale>  0 0.16081639E+03</rscale>
<asrwt>0</asrwt>
<pdfrwt beam="1">  1        1 0.26569243E-01 0.16696830E+03</pdfrwt>
<pdfrwt beam="2">  1       -1 0.21869478E-01 0.16696830E+03</pdfrwt>
<totfact> 0.30052671E+03</totfact>
</mgrwt>
</event>
<event>
 7    1  0.1111284E-005  0.1753194E+03  0.7546771E-02  0.1177893E+00
         -2   -1    0    0    0  501 -0.00000000000E+00  0.00000000000E+00  0.64403807174E+03  0.64403807174E+03  0.00000000000E+00 0.  1.
          2   -1    0    0  501    0  0.00000000000E+00 -0.00000000000E+00 -0.53089874171E+02  0.53089874171E+02  0.00000000000E+00 0. -1.
         23    2    1    2    0    0  0.26394978937E+02  0.12004945926E+03  0.12404540163E+03  0.19839442274E+03  0.94151567839E+02 0.  0.
          5    1    1    2  502    0 -0.47422026969E+02  0.18082715682E+01  0.87391592227E+02  0.99556510987E+02  0.47000000000E+01 0. -1.
         -5    1    1    2    0  502  0.21027048033E+02 -0.12185773083E+03  0.37951120371E+03  0.39917701218E+03  0.47000000000E+01 0. -1.
        -11    1    3    3    0    0  0.30960833301E+02  0.70745959532E+02  0.12717055839E+03  0.14878143335E+03  0.00000000000E+00 0.  1.
         11    1    3    3    0    0 -0.45658543643E+01  0.49303499732E+02 -0.31251567540E+01  0.49612989394E+02  0.00000000000E+00 0. -1.
<mgrwt>
<rscale>  0 0.16995661E+03</rscale>
<asrwt>0</asrwt>
<pdfrwt beam="2">  1        2 0.81676734E-02 0.17531944E+03</pdfrwt>
<pdfrwt beam="1">  1       -2 0.99082775E-01 0.17531944E+03</pdfrwt>
<totfact> 0.71652975E+02</totfact>
</mgrwt>
</event>
<event>
 7    1  0.1111284E-005  0.1349715E+03  0.7546771E-02  0.1230294E+00
          3   -1    0    0  501    0  0.00000000000E+00  0.00000000000E+00  0.15093009069E+02  0.15093009069E+02  0.00000000000E+00 0. -1.
         -3   -1    0    0    0  501 -0.00000000000E+00 -0.00000000000E+00 -0.11002121837E+04  0.11002121837E+04  0.00000000000E+00 0.  1.
         23    2    1    2    0    0  0.60343498030E+02 -0.20646726916E+01 -0.31630311980E+03  0.33473141425E+03  0.91388486475E+02 0.  0.
          5    1    1    2  502    0  0.39309659650E+01  0.43019620457E+02 -0.12693307676E+03  0.13416495896E+03  0.47000000000E+01 0. -1.
         -5    1    1    2    0  502 -0.64274463995E+02 -0.40954947765E+02 -0.64188297811E+03  0.64640881960E+03  0.47000000000E+01 0.  1.
        -11    1    3    3    0    0  0.25429757602E+01  0.37620031956E+02 -0.14026816747E+03  0.14524769304E+03  0.00000000000E+00 0.  1.
         11    1    3    3    0    0  0.57800522270E+02 -0.39684704648E+02 -0.17603495234E+03  0.18948372121E+03  0.00000000000E+00 0. -1.
<mgrwt>
<rscale>  0 0.12810546E+03</rscale>
<asrwt>0</asrwt>
<pdfrwt beam="1">  1        3 0.23220007E-02 0.13497147E+03</pdfrwt>
<pdfrwt beam="2">  1       -3 0.16926346E+00 0.13497147E+03</pdfrwt>
<totfact> 0.44333142E+02</totfact>
</mgrwt>
</event>
<event>
 7    1  0.1111284E-005  0.2563819E+03  0.7546771E-02  0.1111474E+00
          1   -1    0    0  501    0  0.00000000000E+00  0.00000000000E+00  0.13401078489E+03  0.13401078489E+03  0.00000000000E+00 0. -1.
         -1   -1    0    0    0  501 -0.00000000000E+00 -0.00000000000E+00 -0.46534397063E+03  0.46534397063E+03  0.00000000000E+00 0.  1.
         23    2    1    2    0    0 -0.18891148554E+03  0.12007536299E+03 -0.17073559267E+03  0.29682661699E+03  0.94073140616E+02 0.  0.
          5    1    1    2  502    0  0.15817893199E+03 -0.57923517551E+02 -0.16095536472E+03  0.23303310461E+03  0.47000000000E+01 0.  1.
         -5    1    1    2    0  502  0.30732553550E+02 -0.62151845435E+02  0.35777163972E+00  0.69495033918E+02  0.47000000000E+01 0.  1.
        -11    1    3    3    0    0 -0.15577541188E+03  0.75542424511E+02 -0.80596503634E+02  0.19096709990E+03  0.00000000000E+00 0.  1.
         11    1    3    3    0    0 -0.33136073665E+02  0.44532938475E+02 -0.90139089032E+02  0.10585951709E+03  0.00000000000E+00 0. -1.
<mgrwt>
<rscale>  0 0.25291873E+03</rscale>
<asrwt>0</asrwt>
<pdfrwt beam="1">  1        1 0.20617044E-01 0.25638192E+03</pdfrwt>
<pdfrwt beam="2">  1       -1 0.71591381E-01 0.25638192E+03</pdfrwt>
<totfact> 0.50439460E+02</totfact>
</mgrwt>
</event>
<event>
 7    1  0.1111284E-005  0.2344395E+03  0.7546771E-02  0.1123553E+00
          3   -1    0    0  501    0  0.00000000000E+00  0.00000000000E+00  0.92702862346E+02  0.92702862346E+02  0.00000000000E+00 0. -1.
         -3   -1    0    0    0  501 -0.00000000000E+00 -0.00000000000E+00 -0.14822059293E+03  0.14822059293E+03  0.00000000000E+00 0.  1.
         23    2    1    2    0    0 -0.49576650906E+02 -0.39348033861E+02  0.13547757828E+01  0.91771244182E+02  0.66438044504E+02 0.  0.
          5    1    1    2  502    0  0.17576880105E+02 -0.36699670245E+02  0.10774929063E+02  0.42355656135E+02  0.47000000000E+01 0. -1.
         -5    1    1    2    0  502  0.31999770802E+02  0.76047704106E+02 -0.67647435435E+02  0.10679655496E+03  0.47000000000E+01 0.  1.
        -11    1    3    3    0    0  0.14683342985E+02 -0.11700671643E+02 -0.93956523748E+01  0.20994869889E+02  0.00000000000E+00 0.  1.
         11    1    3    3    0    0 -0.64259993891E+02 -0.27647362218E+02  0.10750428158E+02  0.70776374293E+02  0.00000000000E+00 0. -1.
<mgrwt>
<rscale>  0 0.23443953E+03</rscale>
<asrwt>0</asrwt>
<pdfrwt beam="1">  1        3 0.14261979E-01 0.23443953E+03</pdfrwt>
<pdfrwt beam="2">  1       -3 0.22803168E-01 0.23443953E+03</pdfrwt>
<totfact> 0.17946445E+03</totfact>
</mgrwt>
</event>
<event>
 7    1  0.1111284E-005  0.1297954E+03  0.7546771E-02  0.1240275E+00
         -1   -1    0    0    0  501 -0.00000000000E+00  0.00000000000E+00  0.77674896612E+02  0.77674896612E+02  0.00000000000E+00 0. -1.
          1   -1    0    0  501    0  0.00000000000E+00 -0.00000000000E+00 -0.21524934921E+03  0.21524934921E+03  0.00000000000E+00 0.  1.
         23    2    1    2    0    0  0.27955677201E+02 -0.21054672393E+02 -0.12813049188E+03  0.16278573366E+03  0.94111386232E+02 0.  0.
          5    1    1    2  502    0  0.24706951389E+02 -0.14382690011E+02  0.40105956902E+02  0.49475984052E+02  0.47000000000E+01 0.  1.
         -5    1    1    2    0  502 -0.52662628590E+02  0.35437362404E+02 -0.49549917623E+02  0.80662528107E+02  0.47000000000E+01 0.  1.
        -11    1    3    3    0    0  0.28731077189E+02 -0.44334494624E+02 -0.12908086186E+03  0.13947362155E+03  0.00000000000E+00 0.  1.
         11    1    3    3    0    0 -0.77539998806E+00  0.23279822231E+02  0.95036997928E+00  0.23312112117E+02  0.00000000000E+00 0. -1.
<mgrwt>
<rscale>  0 0.12172690E+03</rscale>
<asrwt>0</asrwt>
<pdfrwt beam="2">  1        1 0.33115284E-01 0.12979539E+03</pdfrwt>
<pdfrwt beam="1">  1       -1 0.11949984E-01 0.12979539E+03</pdfrwt>
<totfact> 0.58558119E+03</totfact>
</mgrwt>
</event>
<event>
 7    1  0.1111284E-005  0.1900326E+03  0.7546771E-02  0.1163228E+00
          1   -1    0    0  501    0  0.00000000000E+00  0.00000000000E+00  0.34809077226E+03  0.34809077226E+03  0.00000000000E+00 0. -1.
         -1   -1    0    0    0  501 -0.00000000000E+00 -0.00000000000E+00 -0.18418519081E+03  0.18418519081E+03  0.00000000000E+00 0.  1.
         23    2    1    2    0    0 -0.10657396283E+03  0.95527485203E+02  0.26666668574E+03  0.31623835799E+03  0.91717325524E+02 0.  0.
          5    1    1    2  502    0  0.98964772706E+01  0.17833496358E+02  0.15266732893E+02  0.25906311739E+02  0.47000000000E+01 0.  1.
         -5    1    1    2    0  502  0.96677485557E+02 -0.11336098156E+03 -0.11802783718E+03  0.19013129333E+03  0.47000000000E+01 0.  1.
        -11    1    3    3    0    0 -0.96531838022E+02  0.38743535882E+02  0.21488402572E+03  0.23873542224E+03  0.00000000000E+00 0. -1.
         11    1    3    3    0    0 -0.10042124806E+02  0.56783949321E+02  0.51782660021E+02  0.77502935751E+02  0.00000000000E+00 0.  1.
<mgrwt>
<rscale>  0 0.18480983E+03</rscale>
<asrwt>0</asrwt>
<pdfrwt beam="1">  1        1 0.53552426E-01 0.19003263E+03</pdfrwt>
<pdfrwt beam="2">  1       -1 0.28336183E-01 0.19003263E+03</pdfrwt>
<totfact> 0.81754460E+02</totfact>
</mgrwt>
</event>
<event>
 7    1  0.1111284E-005  0.1252915E+03  0.7546771E-02  0.1249348E+00
         -1   -1    0    0    0  501 -0.00000000000E+00  0.00000000000E+00  0.11165183429E+03  0.11165183429E+03  0.00000000000E+00 0.  1.
          1   -1    0    0  501    0  0.00000000000E+00 -0.00000000000E+00 -0.20067126891E+03  0.20067126891E+03  0.00000000000E+00 0. -1.
         23    2    1    2    0    0 -0.84902207483E+01 -0.54675557849E+00 -0.14726004586E+03  0.17415683888E+03  0.92588879621E+02 0.  0.
          5    1    1    2  502    0 -0.44757256973E+01  0.94620829238E+01 -0.38432239949E+02  0.40108480416E+02  0.47000000000E+01 0.  1.
         -5    1    1    2    0  502  0.12965946446E+02 -0.89153273453E+01  0.96672851191E+02  0.98057783915E+02  0.47000000000E+01 0.  1.
        -11    1    3    3    0    0 -0.14887484950E+02  0.35460140071E+02 -0.23416647872E+02  0.45026638111E+02  0.00000000000E+00 0.  1.
         11    1    3    3    0    0  0.63972642014E+01 -0.36006895649E+02 -0.12384339799E+03  0.12913020077E+03  0.00000000000E+00 0. -1.
<mgrwt>
<rscale>  0 0.11628862E+03</rscale>
<asrwt>0</asrwt>
<pdfrwt beam="2">  1        1 0.30872502E-01 0.12529145E+03</pdfrwt>
<pdfrwt beam="1">  1       -1 0.17177206E-01 0.12529145E+03</pdfrwt>
<totfact> 0.36191475E+03</totfact>
</mgrwt>
</event>
<event>
 7    1  0.1111284E-005  0.1396454E+03  0.7546771E-02  0.1225046E+00
         -1   -1    0    0    0  501 -0.00000000000E+00  0.00000000000E+00  0.22504672325E+02  0.22504672325E+02  0.00000000000E+00 0.  1.
          1   -1    0    0  501    0  0.00000000000E+00 -0.00000000000E+00 -0.70621690861E+03  0.70621690861E+03  0.00000000000E+00 0. -1.
         23    2    1    2    0    0  0.28490253827E+02  0.55354904913E+02 -0.35034731188E+03  0.36728967467E+03  0.91008824391E+02 0.  0.
          5    1    1    2  502    0  0.40493891422E+02  0.88309885075E+01 -0.14318831704E+03  0.14913995352E+03  0.47000000000E+01 0.  1.
         -5    1    1    2    0  502 -0.68984145249E+02 -0.64185893421E+02 -0.19017660737E+03  0.21229195275E+03  0.47000000000E+01 0.  1.
        -11    1    3    3    0    0  0.53038433145E+02  0.16714533750E+02 -0.26143804598E+03  0.26728692993E+03  0.00000000000E+00 0. -1.
         11    1    3    3    0    0 -0.24548179318E+02  0.38640371163E+02 -0.88909265899E+02  0.10000274473E+03  0.00000000000E+00 0.  1.
<mgrwt>
<rscale>  0 0.13163759E+03</rscale>
<asrwt>0</asrwt>
<pdfrwt beam="2">  1        1 0.10864874E+00 0.13964544E+03</pdfrwt>
<pdfrwt beam="1">  1       -1 0.34622577E-02 0.13964544E+03</pdfrwt>
<totfact> 0.81715427E+03</totfact>
</mgrwt>
</event>
<event>
 7    1  0.1111284E-005  0.1261018E+03  0.7546771E-02  0.1248816E+00
         -1   -1    0    0    0  501 -0.00000000000E+00  0.00000000000E+00  0.87057358733E+02  0.87057358733E+02  0.00000000000E+00 0.  1.
          1   -1    0    0  501    0  0.00000000000E+00 -0.00000000000E+00 -0.14389981196E+03  0.14389981196E+03  0.00000000000E+00 0. -1.
         23    2    1    2    0    0  0.12536387703E+02 -0.10850740613E+02 -0.49542114066E+02  0.10464423464E+03  0.90670255254E+02 0.  0.
          5    1    1    2  502    0 -0.68164204201E+02  0.14426567162E+02 -0.85819935626E+01  0.70357836721E+02  0.47000000000E+01 0. -1.
         -5    1    1    2    0  502  0.55627816499E+02 -0.35758265491E+01  0.12816544011E+01  0.55955099338E+02  0.47000000000E+01 0. -1.
        -11    1    3    3    0    0  0.40962049480E+02  0.57374068391E+01  0.42530009238E+01  0.41579987394E+02  0.00000000000E+00 0.  1.
         11    1    3    3    0    0 -0.28425661777E+02 -0.16588147452E+02 -0.53795114990E+02  0.63064247242E+02  0.00000000000E+00 0. -1.
<mgrwt>
<rscale>  0 0.11659844E+03</rscale>
<asrwt>0</asrwt>
<pdfrwt beam="2">  1        1 0.22138432E-01 0.12610180E+03</pdfrwt>
<pdfrwt beam="1">  1       -1 0.13393440E-01 0.12610180E+03</pdfrwt>
<totfact> 0.80984405E+03</totfact>
</mgrwt>
</event>
<event>
 7    1  0.1111284E-005  0.1455440E+03  0.7546771E-02  0.1215973E+00
          1   -1    0    0  501    0  0.00000000000E+00  0.00000000000E+00  0.56286279969E+02  0.56286279969E+02  0.00000000000E+00 0. -1.
         -1   -1    0    0    0  501 -0.00000000000E+00 -0.00000000000E+00 -0.36537050780E+03  0.36537050780E+03  0.00000000000E+00 0.  1.
         23    2    1    2    0    0 -0.40765738575E+01  0.74436460464E+02 -0.57712313956E+02  0.13119011998E+03  0.91229004696E+02 0.  0.
          5    1    1    2  502    0  0.36645218417E+01  0.10766059582E+02 -0.17654420225E+03  0.17697254620E+03  0.47000000000E+01 0.  1.
         -5    1    1    2    0  502  0.41205201580E+00 -0.85202520046E+02 -0.74827711630E+02  0.11349412160E+03  0.47000000000E+01 0.  1.
        -11    1    3    3    0    0 -0.37421417115E+02  0.43259398050E+02  0.51516018022E+00  0.57201428028E+02  0.00000000000E+00 0.  1.
         11    1    3    3    0    0  0.33344843257E+02  0.31177062414E+02 -0.58227474136E+02  0.73988691953E+02  0.00000000000E+00 0. -1.
<mgrwt>
<rscale>  0 0.13805269E+03</rscale>
<asrwt>0</asrwt>
<pdfrwt beam="1">  1        1 0.86594277E-02 0.14554397E+03</pdfrwt>
<pdfrwt beam="2">  1       -1 0.56210847E-01 0.14554397E+03</pdfrwt>
<totfact> 0.24962614E+03</totfact>
</mgrwt>
</event>
<event>
 7    1  0.1111284E-005  0.1582546E+03  0.7546771E-02  0.1201154E+00
          1   -1    0    0  501    0  0.00000000000E+00  0.00000000000E+00  0.18412430078E+03  0.18412430078E+03  0.00000000000E+00 0. -1.
         -1   -1    0    0    0  501 -0.00000000000E+00 -0.00000000000E+00 -0.17524779054E+03  0.17524779054E+03  0.00000000000E+00 0.  1.
         23    2    1    2    0    0  0.81576144950E+02  0.52635074922E+02  0.11364992707E+03  0.16957752172E+03  0.80094390633E+02 0.  0.
          5    1    1    2  502    0  0.24044958809E+01 -0.50285641891E+02 -0.91595111122E+02  0.10462400185E+03  0.47000000000E+01 0.  1.
         -5    1    1    2    0  502 -0.83980640831E+02 -0.23494330316E+01 -0.13178305715E+02  0.85170567754E+02  0.47000000000E+01 0.  1.
        -11    1    3    3    0    0  0.44503049212E+02  0.45079107860E+02  0.16705043109E+02  0.65511112186E+02  0.00000000000E+00 0.  1.
         11    1    3    3    0    0  0.37073095738E+02  0.75559670628E+01  0.96944883963E+02  0.10406640953E+03  0.00000000000E+00 0. -1.
<mgrwt>
<rscale>  0 0.14944706E+03</rscale>
<asrwt>0</asrwt>
<pdfrwt beam="1">  1        1 0.28326816E-01 0.15825457E+03</pdfrwt>
<pdfrwt beam="2">  1       -1 0.26961198E-01 0.15825457E+03</pdfrwt>
<totfact> 0.19612152E+03</totfact>
</mgrwt>
</event>
<event>
 7    1  0.1111284E-005  0.1254523E+03  0.7546771E-02  0.1249606E+00
          2   -1    0    0  501    0  0.00000000000E+00  0.00000000000E+00  0.70108065987E+03  0.70108065987E+03  0.00000000000E+00 0. -1.
         -2   -1    0    0    0  501 -0.00000000000E+00 -0.00000000000E+00 -0.17072051030E+02  0.17072051030E+02  0.00000000000E+00 0.  1.
         23    2    1    2    0    0  0.10046201536E+02 -0.36358663687E+01  0.32746070313E+03  0.34017826209E+03  0.91523724889E+02 0.  0.
          5    1    1    2  502    0  0.35906372802E+02 -0.45402826401E+02  0.16292297559E+03  0.17296436115E+03  0.47000000000E+01 0. -1.
         -5    1    1    2    0  502 -0.45952574338E+02  0.49038692770E+02  0.19362493012E+03  0.20501008766E+03  0.47000000000E+01 0. -1.
        -11    1    3    3    0    0 -0.24290219659E+02  0.32867001139E+02  0.12071728945E+03  0.12744770891E+03  0.00000000000E+00 0. -1.
         11    1    3    3    0    0  0.34336421195E+02 -0.36502867508E+02  0.20674341368E+03  0.21273055318E+03  0.00000000000E+00 0.  1.
<mgrwt>
<rscale>  0 0.11613874E+03</rscale>
<asrwt>0</asrwt>
<pdfrwt beam="1">  1        2 0.10785854E+00 0.12545228E+03</pdfrwt>
<pdfrwt beam="2">  1       -2 0.26264699E-02 0.12545228E+03</pdfrwt>
<totfact> 0.20316880E+04</totfact>
</mgrwt>
</event>
<event>
 7    1  0.1111284E-005  0.1447738E+03  0.7546771E-02  0.1216720E+00
         -2   -1    0    0    0  501 -0.00000000000E+00  0.00000000000E+00  0.15828246291E+03  0.15828246291E+03  0.00000000000E+00 0. -1.
          2   -1    0    0  501    0  0.00000000000E+00 -0.00000000000E+00 -0.10926085831E+03  0.10926085831E+03  0.00000000000E+00 0.  1.
         23    2    1    2    0    0 -0.69364764715E+02 -0.22932249630E+02  0.14582871070E+02  0.11872972161E+03  0.92448515439E+02 0.  0.
          5    1    1    2  502    0  0.37323843824E+02 -0.40222351977E+02 -0.20807929758E+02  0.58872462639E+02  0.47000000000E+01 0. -1.
         -5    1    1    2    0  502  0.32040920891E+02  0.63154601607E+02  0.55246663292E+02  0.89941136977E+02  0.47000000000E+01 0. -1.
        -11    1    3    3    0    0 -0.54393619970E+02 -0.27820059043E+02  0.50658940099E+02  0.79365923359E+02  0.00000000000E+00 0. -1.
         11    1    3    3    0    0 -0.14971144745E+02  0.48878094129E+01 -0.36076069029E+02  0.39363798247E+02  0.00000000000E+00 0.  1.
<mgrwt>
<rscale>  0 0.13750934E+03</rscale>
<asrwt>0</asrwt>
<pdfrwt beam="2">  1        2 0.16809363E-01 0.14477383E+03</pdfrwt>
<pdfrwt beam="1">  1       -2 0.24351148E-01 0.14477383E+03</pdfrwt>
<totfact> 0.48544925E+03</totfact>
</mgrwt>
</event>
<event>
 7    1  0.1111284E-005  0.1559985E+03  0.7546771E-02  0.1201379E+00
          1   -1    0    0  501    0  0.00000000000E+00  0.00000000000E+00  0.36016270903E+03  0.36016270903E+03  0.00000000000E+00 0. -1.
         -1   -1    0    0    0  501 -0.00000000000E+00 -0.00000000000E+00 -0.68140692301E+02  0.68140692301E+02  0.00000000000E+00 0.  1.
         23    2    1    2    0    0  0.92192683243E+02  0.14574605582E+02  0.22125129022E+03  0.25700237338E+03  0.91576069631E+02 0.  0.
          5    1    1    2  502    0 -0.87681726456E+02  0.22501426309E+02  0.91104234835E+02  0.12851642286E+03  0.47000000000E+01 0. -1.
         -5    1    1    2    0  502 -0.45109567874E+01 -0.37076031891E+02 -0.20333508322E+02  0.42784605089E+02  0.47000000000E+01 0. -1.
        -11    1    3    3    0    0  0.78224401629E+02 -0.28048105667E+02  0.11697148375E+03  0.14348547401E+03  0.00000000000E+00 0.  1.
         11    1    3    3    0    0  0.13968281615E+02  0.42622711249E+02  0.10427980647E+03  0.11351689937E+03  0.00000000000E+00 0. -1.
<mgrwt>
<rscale>  0 0.14926530E+03</rscale>
<asrwt>0</asrwt>
<pdfrwt beam="1">  1        1 0.55409647E-01 0.15599855E+03</pdfrwt>
<pdfrwt beam="2">  1       -1 0.10483184E-01 0.15599855E+03</pdfrwt>
<totfact> 0.38198982E+03</totfact>
</mgrwt>
</event>
<event>
 7    1  0.1111284E-005  0.2061257E+03  0.7546771E-02  0.1148871E+00
         -2   -1    0    0    0  501 -0.00000000000E+00  0.00000000000E+00  0.65531854845E+03  0.65531854845E+03  0.00000000000E+00 0. -1.
          2   -1    0    0  501    0  0.00000000000E+00 -0.00000000000E+00 -0.75558625500E+02  0.75558625500E+02  0.00000000000E+00 0.  1.
         23    2    1    2    0    0 -0.16077823010E+03 -0.31839698717E+02  0.10670512994E+03  0.21486493648E+03  0.88980618590E+02 0.  0.
          5    1    1    2  502    0  0.50691637262E+02  0.72214596985E+02  0.21960463483E+03  0.23671264382E+03  0.47000000000E+01 0.  1.
         -5    1    1    2    0  502  0.11008659284E+03 -0.40374898268E+02  0.25345015817E+03  0.27929959365E+03  0.47000000000E+01 0.  1.
        -11    1    3    3    0    0 -0.81641165191E+02  0.14856498893E+02  0.88262172847E+02  0.12114539434E+03  0.00000000000E+00 0. -1.
         11    1    3    3    0    0 -0.79137064906E+02 -0.46696197610E+02  0.18442957097E+02  0.93719542144E+02  0.00000000000E+00 0.  1.
<mgrwt>
<rscale>  0 0.20103272E+03</rscale>
<asrwt>0</asrwt>
<pdfrwt beam="2">  1        2 0.11624404E-01 0.20612567E+03</pdfrwt>
<pdfrwt beam="1">  1       -2 0.10081823E+00 0.20612567E+03</pdfrwt>
<totfact> 0.44575510E+02</totfact>
</mgrwt>
</event>
<event>
 7    1  0.1111284E-005  0.1328828E+03  0.7546771E-02  0.1239682E+00
         -2   -1    0    0    0  501 -0.00000000000E+00  0.00000000000E+00  0.14481006449E+03  0.14481006449E+03  0.00000000000E+00 0.  1.
          2   -1    0    0  501    0  0.00000000000E+00 -0.00000000000E+00 -0.21061102591E+03  0.21061102591E+03  0.00000000000E+00 0. -1.
         23    2    1    2    0    0 -0.12971329528E+02  0.17109706844E+02 -0.16455463964E+03  0.18986102297E+03  0.92238718325E+02 0.  0.
          5    1    1    2  502    0 -0.15264795790E+02 -0.65321751807E+02  0.22498209889E+02  0.70909834987E+02  0.47000000000E+01 0. -1.
         -5    1    1    2    0  502  0.28236125318E+02  0.48212044962E+02  0.76255468329E+02  0.94650232448E+02  0.47000000000E+01 0.  1.
        -11    1    3    3    0    0 -0.33389932076E+02  0.37827744745E+02 -0.47678864451E+02  0.69419737481E+02  0.00000000000E+00 0. -1.
         11    1    3    3    0    0  0.20418602548E+02 -0.20718037901E+02 -0.11687577519E+03  0.12044128549E+03  0.00000000000E+00 0.  1.
<mgrwt>
<rscale>  0 0.12209406E+03</rscale>
<asrwt>0</asrwt>
<pdfrwt beam="2">  1        2 0.32401696E-01 0.13288283E+03</pdfrwt>
<pdfrwt beam="1">  1       -2 0.22278472E-01 0.13288283E+03</pdfrwt>
<totfact> 0.27141955E+03</totfact>
</mgrwt>
</event>
<event>
 7    1  0.1111284E-005  0.1308739E+03  0.7546771E-02  0.1238860E+00
         -2   -1    0    0    0  501 -0.00000000000E+00  0.00000000000E+00  0.83730106621E+02  0.83730106621E+02  0.00000000000E+00 0.  1.
          2   -1    0    0  501    0  0.00000000000E+00 -0.00000000000E+00 -0.19285043793E+03  0.19285043793E+03  0.00000000000E+00 0. -1.
         23    2    1    2    0    0  0.39499600776E+02  0.22559300687E+01 -0.10512482098E+03  0.14564569691E+03  0.92715335081E+02 0.  0.
          5    1    1    2  502    0 -0.24500343149E+01 -0.61017157692E+02 -0.15148996664E+01  0.61265660218E+02  0.47000000000E+01 0.  1.
         -5    1    1    2    0  502 -0.37049566461E+02  0.58761227623E+02 -0.24806106563E+01  0.69669187422E+02  0.47000000000E+01 0.  1.
        -11    1    3    3    0    0  0.17167363575E+02 -0.93792646526E+01  0.13892539881E+02  0.23993575012E+02  0.00000000000E+00 0.  1.
         11    1    3    3    0    0  0.22332237202E+02  0.11635194721E+02 -0.11901736086E+03  0.12165212189E+03  0.00000000000E+00 0. -1.
<mgrwt>
<rscale>  0 0.12260527E+03</rscale>
<asrwt>0</asrwt>
<pdfrwt beam="2">  1        2 0.29669298E-01 0.13087387E+03</pdfrwt>
<pdfrwt beam="1">  1       -2 0.12881555E-01 0.13087387E+03</pdfrwt>
<totfact> 0.73948350E+03</totfact>
</mgrwt>
</event>
<event>
 7    1  0.1111284E-005  0.1481889E+03  0.7546771E-02  0.1212278E+00
          1   -1    0    0  501    0  0.00000000000E+00  0.00000000000E+00  0.11455427285E+03  0.11455427285E+03  0.00000000000E+00 0. -1.
         -1   -1    0    0    0  501 -0.00000000000E+00 -0.00000000000E+00 -0.15804199245E+03  0.15804199245E+03  0.00000000000E+00 0.  1.
         23    2    1    2    0    0  0.77068302583E+02 -0.19917379149E+02 -0.24757515150E+02  0.12322836872E+03  0.90752801862E+02 0.  0.
          5    1    1    2  502    0 -0.26246328273E+02 -0.42476448360E+02  0.26722098977E+02  0.56826745348E+02  0.47000000000E+01 0. -1.
         -5    1    1    2    0  502 -0.50821974311E+02  0.62393827508E+02 -0.45452303436E+02  0.92541151233E+02  0.47000000000E+01 0. -1.
        -11    1    3    3    0    0  0.44543626882E+02 -0.47008905110E+02  0.13521560961E+02  0.66157421853E+02  0.00000000000E+00 0.  1.
         11    1    3    3    0    0  0.32524675701E+02  0.27091525962E+02 -0.38279076110E+02  0.57070946867E+02  0.00000000000E+00 0. -1.
<mgrwt>
<rscale>  0 0.14078382E+03</rscale>
<asrwt>0</asrwt>
<pdfrwt beam="1">  1        1 0.17623734E-01 0.14818889E+03</pdfrwt>
<pdfrwt beam="2">  1       -1 0.24314152E-01 0.14818889E+03</pdfrwt>
<totfact> 0.42328808E+03</totfact>
</mgrwt>
</event>
<event>
 7    1  0.1111284E-005  0.1293442E+03  0.7546771E-02  0.1240291E+00
          1   -1    0    0  501    0  0.00000000000E+00  0.00000000000E+00  0.41699545382E+03  0.41699545382E+03  0.00000000000E+00 0. -1.
         -1   -1    0    0    0  501 -0.00000000000E+00 -0.00000000000E+00 -0.37478180481E+02  0.37478180481E+02  0.00000000000E+00 0.  1.
         23    2    1    2    0    0 -0.30695720009E+02 -0.13033111258E+02  0.25709755610E+03  0.27638233915E+03  0.95791204309E+02 0.  0.
          5    1    1    2  502    0 -0.36682039503E+02 -0.30825518110E+02  0.54710354595E+02  0.72877276903E+02  0.47000000000E+01 0. -1.
         -5    1    1    2    0  502  0.67377759512E+02  0.43858629369E+02  0.67709362641E+02  0.10521401825E+03  0.47000000000E+01 0. -1.
        -11    1    3    3    0    0 -0.18702306906E+02  0.33985762264E+02  0.47935670789E+02  0.61665524033E+02  0.00000000000E+00 0.  1.
         11    1    3    3    0    0 -0.11993413103E+02 -0.47018873522E+02  0.20916188531E+03  0.21471681511E+03  0.00000000000E+00 0. -1.
<mgrwt>
<rscale>  0 0.12171716E+03</rscale>
<asrwt>0</asrwt>
<pdfrwt beam="1">  1        1 0.64153144E-01 0.12934420E+03</pdfrwt>
<pdfrwt beam="2">  1       -1 0.57658742E-02 0.12934420E+03</pdfrwt>
<totfact> 0.77469010E+03</totfact>
</mgrwt>
</event>
<event>
 7    1  0.1111284E-005  0.1324407E+03  0.7546771E-02  0.1237310E+00
         -2   -1    0    0    0  501 -0.00000000000E+00  0.00000000000E+00  0.13682296137E+03  0.13682296137E+03  0.00000000000E+00 0.  1.
          2   -1    0    0  501    0  0.00000000000E+00 -0.00000000000E+00 -0.10733795724E+03  0.10733795724E+03  0.00000000000E+00 0. -1.
         23    2    1    2    0    0 -0.25441262450E+02 -0.35611902671E+02 -0.20754959592E+02  0.10251133050E+03  0.90345664452E+02 0.  0.
          5    1    1    2  502    0  0.71537269773E+02  0.38293413052E+02  0.13359809614E+02  0.82368324996E+02  0.47000000000E+01 0.  1.
         -5    1    1    2    0  502 -0.46096007323E+02 -0.26815103809E+01  0.36880154115E+02  0.59281263116E+02  0.47000000000E+01 0.  1.
        -11    1    3    3    0    0  0.15713615684E+02 -0.23174678798E+02  0.26551474833E+02  0.38587099801E+02  0.00000000000E+00 0.  1.
         11    1    3    3    0    0 -0.41154878134E+02 -0.12437223872E+02 -0.47306434425E+02  0.63924230694E+02  0.00000000000E+00 0. -1.
<mgrwt>
<rscale>  0 0.12357680E+03</rscale>
<asrwt>0</asrwt>
<pdfrwt beam="2">  1        2 0.16513532E-01 0.13244075E+03</pdfrwt>
<pdfrwt beam="1">  1       -2 0.21049687E-01 0.13244075E+03</pdfrwt>
<totfact> 0.63307537E+03</totfact>
</mgrwt>
</event>
<event>
 7    1  0.1111284E-005  0.2141744E+03  0.7546771E-02  0.1141940E+00
         -2   -1    0    0    0  501 -0.00000000000E+00  0.00000000000E+00  0.42330588269E+02  0.42330588269E+02  0.00000000000E+00 0.  1.
          2   -1    0    0  501    0  0.00000000000E+00 -0.00000000000E+00 -0.99802013281E+03  0.99802013281E+03  0.00000000000E+00 0. -1.
         23    2    1    2    0    0  0.11802216339E+03  0.12774101595E+03 -0.48774749640E+03  0.52572422345E+03  0.90781830052E+02 0.  0.
          5    1    1    2  502    0 -0.33245448635E+02 -0.11342454278E+03 -0.19153256287E+03  0.22511596878E+03  0.47000000000E+01 0. -1.
         -5    1    1    2    0  502 -0.84776714750E+02 -0.14316473168E+02 -0.27640948527E+03  0.28951052885E+03  0.47000000000E+01 0. -1.
        -11    1    3    3    0    0  0.10879989150E+03  0.13975100323E+03 -0.47072658773E+03  0.50294262067E+03  0.00000000000E+00 0.  1.
         11    1    3    3    0    0  0.92222718877E+01 -0.12009987273E+02 -0.17020908673E+02  0.22781602778E+02  0.00000000000E+00 0. -1.
<mgrwt>
<rscale>  0 0.20952787E+03</rscale>
<asrwt>0</asrwt>
<pdfrwt beam="2">  1        2 0.15354154E+00 0.21417440E+03</pdfrwt>
<pdfrwt beam="1">  1       -2 0.65123992E-02 0.21417440E+03</pdfrwt>
<totfact> 0.34112937E+03</totfact>
</mgrwt>
</event>
<event>
 7    1  0.1111284E-005  0.1438171E+03  0.7546771E-02  0.1219041E+00
          2   -1    0    0  501    0  0.00000000000E+00  0.00000000000E+00  0.38159178223E+02  0.38159178223E+02  0.00000000000E+00 0. -1.
         -2   -1    0    0    0  501 -0.00000000000E+00 -0.00000000000E+00 -0.44667622254E+03  0.44667622254E+03  0.00000000000E+00 0.  1.
         23    2    1    2    0    0  0.68751475087E+02  0.18179260725E+02 -0.14615515613E+03  0.18564129285E+03  0.89688957506E+02 0.  0.
          5    1    1    2  502    0 -0.94552271506E+02 -0.41785727086E+02 -0.15659989903E+03  0.18770135165E+03  0.47000000000E+01 0.  1.
         -5    1    1    2    0  502  0.25800796418E+02  0.23606466361E+02 -0.10576198915E+03  0.11149275626E+03  0.47000000000E+01 0.  1.
        -11    1    3    3    0    0  0.32474676833E+02  0.33084072451E+02 -0.13800577685E+03  0.14558418503E+03  0.00000000000E+00 0.  1.
         11    1    3    3    0    0  0.36276798254E+02 -0.14904811727E+02 -0.81493792795E+01  0.40057107819E+02  0.00000000000E+00 0. -1.
<mgrwt>
<rscale>  0 0.13583835E+03</rscale>
<asrwt>0</asrwt>
<pdfrwt beam="1">  1        2 0.58706429E-02 0.14381708E+03</pdfrwt>
<pdfrwt beam="2">  1       -2 0.68719418E-01 0.14381708E+03</pdfrwt>
<totfact> 0.24298348E+03</totfact>
</mgrwt>
</event>
<event>
 7    1  0.1111284E-005  0.1300242E+03  0.7546771E-02  0.1242758E+00
         -2   -1    0    0    0  501 -0.00000000000E+00  0.00000000000E+00  0.19923271902E+03  0.19923271902E+03  0.00000000000E+00 0. -1.
          2   -1    0    0  501    0  0.00000000000E+00 -0.00000000000E+00 -0.68949647198E+02  0.68949647198E+02  0.00000000000E+00 0.  1.
         23    2    1    2    0    0  0.35727017364E+02  0.21381494205E+01  0.18611751252E+02  0.96785809595E+02  0.87977861997E+02 0.  0.
          5    1    1    2  502    0  0.36388674482E+02  0.29008068737E+02  0.64408442310E+02  0.79599881427E+02  0.47000000000E+01 0.  1.
         -5    1    1    2    0  502 -0.72115691846E+02 -0.31146218157E+02  0.47262878262E+02  0.91796675198E+02  0.47000000000E+01 0.  1.
        -11    1    3    3    0    0  0.53953337218E+02  0.23349539462E+02  0.30695704907E+02  0.66320358034E+02  0.00000000000E+00 0. -1.
         11    1    3    3    0    0 -0.18226319853E+02 -0.21211390042E+02 -0.12083953655E+02  0.30465451561E+02  0.00000000000E+00 0.  1.
<mgrwt>
<rscale>  0 0.12020584E+03</rscale>
<asrwt>0</asrwt>
<pdfrwt beam="2">  1        2 0.10607638E-01 0.13002421E+03</pdfrwt>
<pdfrwt beam="1">  1       -2 0.30651187E-01 0.13002421E+03</pdfrwt>
<totfact> 0.55379838E+03</totfact>
</mgrwt>
</event>
<event>
 7    1  0.1111284E-005  0.2963303E+03  0.7546771E-02  0.1088738E+00
         -1   -1    0    0    0  501 -0.00000000000E+00  0.00000000000E+00  0.45179073078E+02  0.45179073078E+02  0.00000000000E+00 0.  1.
          1   -1    0    0  501    0  0.00000000000E+00 -0.00000000000E+00 -0.18975818651E+04  0.18975818651E+04  0.00000000000E+00 0. -1.
         23    2    1    2    0    0  0.26732078058E+03  0.26960757081E+02 -0.77210300720E+03  0.82255591565E+03  0.90927985164E+02 0.  0.
          5    1    1    2  502    0 -0.10917479022E+02  0.30529435175E+02 -0.96665069922E+02  0.10206597623E+03  0.47000000000E+01 0.  1.
         -5    1    1    2    0  502 -0.25640330155E+03 -0.57490192256E+02 -0.98363471489E+03  0.10181390463E+04  0.47000000000E+01 0.  1.
        -11    1    3    3    0    0  0.16311785527E+03  0.33705078372E+02 -0.34829843723E+03  0.38607676490E+03  0.00000000000E+00 0. -1.
         11    1    3    3    0    0  0.10420292531E+03 -0.67443212914E+01 -0.42380456997E+03  0.43647915075E+03  0.00000000000E+00 0.  1.
<mgrwt>
<rscale>  0 0.29310710E+03</rscale>
<asrwt>0</asrwt>
<pdfrwt beam="2">  1        1 0.29193572E+00 0.29633033E+03</pdfrwt>
<pdfrwt beam="1">  1       -1 0.69506255E-02 0.29633033E+03</pdfrwt>
<totfact> 0.41858049E+02</totfact>
</mgrwt>
</event>
<event>
 7    1  0.1111284E-005  0.2205863E+03  0.7546771E-02  0.1136739E+00
          2   -1    0    0  501    0  0.00000000000E+00  0.00000000000E+00  0.92796349546E+03  0.92796349546E+03  0.00000000000E+00 0.  1.
         -2   -1    0    0    0  501 -0.00000000000E+00 -0.00000000000E+00 -0.49330840755E+02  0.49330840755E+02  0.00000000000E+00 0. -1.
         23    2    1    2    0    0 -0.87314831588E+02 -0.15941301118E+03  0.48630686418E+03  0.52720786925E+03  0.91746298563E+02 0.  0.
          5    1    1    2  502    0  0.44581424344E+02 -0.30458362832E+01  0.13905306793E+03  0.14613222169E+03  0.47000000000E+01 0. -1.
         -5    1    1    2    0  502  0.42733407244E+02  0.16245884746E+03  0.25327272259E+03  0.30395424528E+03  0.47000000000E+01 0. -1.
        -11    1    3    3    0    0 -0.81633752916E+02 -0.91315285714E+02  0.21514292801E+03  0.24756621436E+03  0.00000000000E+00 0. -1.
         11    1    3    3    0    0 -0.56810786719E+01 -0.68097725462E+02  0.27116393618E+03  0.27964165489E+03  0.00000000000E+00 0.  1.
<mgrwt>
<rscale>  0 0.21621178E+03</rscale>
<asrwt>0</asrwt>
<pdfrwt beam="1">  1        2 0.14276360E+00 0.22058627E+03</pdfrwt>
<pdfrwt beam="2">  1       -2 0.75893608E-02 0.22058627E+03</pdfrwt>
<totfact> 0.29769132E+03</totfact>
</mgrwt>
</event>
<event>
 7    1  0.1111284E-005  0.1380228E+03  0.7546771E-02  0.1228140E+00
         -2   -1    0    0    0  501 -0.00000000000E+00  0.00000000000E+00  0.66314684372E+02  0.66314684372E+02  0.00000000000E+00 0. -1.
          2   -1    0    0  501    0  0.00000000000E+00 -0.00000000000E+00 -0.23984864643E+03  0.23984864643E+03  0.00000000000E+00 0.  1.
         23    2    1    2    0    0  0.52824496859E+02  0.25180566951E+02 -0.11226723352E+03  0.15515372126E+03  0.89689782473E+02 0.  0.
          5    1    1    2  502    0 -0.60239596659E+01 -0.42963273066E+02 -0.84892087898E+02  0.95450969143E+02  0.47000000000E+01 0.  1.
         -5    1    1    2    0  502 -0.46800537193E+02  0.17782706115E+02  0.23625359354E+02  0.55558640399E+02  0.47000000000E+01 0.  1.
        -11    1    3    3    0    0 -0.16465838078E+02 -0.61693784285E+01 -0.60878914377E+02  0.63367399107E+02  0.00000000000E+00 0.  1.
         11    1    3    3    0    0  0.69290334938E+02  0.31349945380E+02 -0.51388319139E+02  0.91786322156E+02  0.00000000000E+00 0. -1.
<mgrwt>
<rscale>  0 0.12953961E+03</rscale>
<asrwt>0</asrwt>
<pdfrwt beam="2">  1        2 0.36899791E-01 0.13802279E+03</pdfrwt>
<pdfrwt beam="1">  1       -2 0.10202259E-01 0.13802279E+03</pdfrwt>
<totfact> 0.85064992E+03</totfact>
</mgrwt>
</event>
<event>
 7    1  0.1111284E-005  0.1326858E+03  0.7546771E-02  0.1236255E+00
         -1   -1    0    0    0  501 -0.00000000000E+00  0.00000000000E+00  0.32825206919E+03  0.32825206919E+03  0.00000000000E+00 0.  1.
          1   -1    0    0  501    0  0.00000000000E+00 -0.00000000000E+00 -0.42158076668E+02  0.42158076668E+02  0.00000000000E+00 0. -1.
         23    2    1    2    0    0  0.28081426045E+02 -0.34522587251E+02  0.11154096613E+03  0.15115166982E+03  0.91788150895E+02 0.  0.
          5    1    1    2  502    0  0.44264960340E+02 -0.12343287307E+02  0.66111709467E+02  0.80651048252E+02  0.47000000000E+01 0.  1.
         -5    1    1    2    0  502 -0.72346386385E+02  0.46865874558E+02  0.10844131692E+03  0.13860742778E+03  0.47000000000E+01 0.  1.
        -11    1    3    3    0    0 -0.32055841034E+02 -0.29592377055E+01  0.23010526184E+02  0.39570422634E+02  0.00000000000E+00 0. -1.
         11    1    3    3    0    0  0.60137267079E+02 -0.31563349545E+02  0.88530439947E+02  0.11158124719E+03  0.00000000000E+00 0.  1.
<mgrwt>
<rscale>  0 0.12424413E+03</rscale>
<asrwt>0</asrwt>
<pdfrwt beam="2">  1        1 0.64858582E-02 0.13268580E+03</pdfrwt>
<pdfrwt beam="1">  1       -1 0.50500317E-01 0.13268580E+03</pdfrwt>
<totfact> 0.44676719E+03</totfact>
</mgrwt>
</event>
<event>
 7    1  0.1111284E-005  0.1531056E+03  0.7546771E-02  0.1203405E+00
          1   -1    0    0  501    0  0.00000000000E+00  0.00000000000E+00  0.29629747499E+03  0.29629747499E+03  0.00000000000E+00 0. -1.
         -1   -1    0    0    0  501 -0.00000000000E+00 -0.00000000000E+00 -0.72682555862E+02  0.72682555862E+02  0.00000000000E+00 0.  1.
         23    2    1    2    0    0 -0.42233905429E+02 -0.77670519994E+02  0.14683711677E+03  0.19770200408E+03  0.98531878666E+02 0.  0.
          5    1    1    2  502    0  0.71830522941E+01 -0.10295002130E+02  0.75273796475E+02  0.76457947559E+02  0.47000000000E+01 0.  1.
         -5    1    1    2    0  502  0.35050853135E+02  0.87965522124E+02  0.15040058871E+01  0.94820079212E+02  0.47000000000E+01 0.  1.
        -11    1    3    3    0    0  0.10571834961E+02 -0.16845175469E+02 -0.93435735007E+01  0.21973301909E+02  0.00000000000E+00 0.  1.
         11    1    3    3    0    0 -0.52805740390E+02 -0.60825344524E+02  0.15618069027E+03  0.17572870217E+03  0.00000000000E+00 0. -1.
<mgrwt>
<rscale>  0 0.14763877E+03</rscale>
<asrwt>0</asrwt>
<pdfrwt beam="1">  1        1 0.45584226E-01 0.15310562E+03</pdfrwt>
<pdfrwt beam="2">  1       -1 0.11181932E-01 0.15310562E+03</pdfrwt>
<totfact> 0.44088908E+03</totfact>
</mgrwt>
</event>
<event>
 7    1  0.1111284E-005  0.1376918E+03  0.7546771E-02  0.1228111E+00
          2   -1    0    0  501    0  0.00000000000E+00  0.00000000000E+00  0.52335857906E+03  0.52335857906E+03  0.00000000000E+00 0. -1.
         -2   -1    0    0    0  501 -0.00000000000E+00 -0.00000000000E+00 -0.28820217720E+02  0.28820217720E+02  0.00000000000E+00 0.  1.
         23    2    1    2    0    0 -0.32131819857E+02 -0.47966426812E+02  0.21591396478E+03  0.24138854459E+03  0.91194064081E+02 0.  0.
          5    1    1    2  502    0  0.37110801063E+02  0.13553204365E+02  0.11561991251E+02  0.41432723127E+02  0.47000000000E+01 0.  1.
         -5    1    1    2    0  502 -0.49789812058E+01  0.34413222447E+02  0.26706240532E+03  0.26935752907E+03  0.47000000000E+01 0.  1.
        -11    1    3    3    0    0 -0.43198113067E+02  0.16651797557E+01  0.42306285472E+02  0.60486953854E+02  0.00000000000E+00 0.  1.
         11    1    3    3    0    0  0.11066293210E+02 -0.49631606568E+02  0.17360767930E+03  0.18090159073E+03  0.00000000000E+00 0. -1.
<mgrwt>
<rscale>  0 0.12955967E+03</rscale>
<asrwt>0</asrwt>
<pdfrwt beam="1">  1        2 0.80516698E-01 0.13769178E+03</pdfrwt>
<pdfrwt beam="2">  1       -2 0.44338800E-02 0.13769178E+03</pdfrwt>
<totfact> 0.13192697E+04</totfact>
</mgrwt>
</event>
<event>
 7    1  0.1111284E-005  0.1301465E+03  0.7546771E-02  0.1240519E+00
         -1   -1    0    0    0  501 -0.00000000000E+00  0.00000000000E+00  0.45923474075E+02  0.45923474075E+02  0.00000000000E+00 0.  1.
          1   -1    0    0  501    0  0.00000000000E+00 -0.00000000000E+00 -0.29199326675E+03  0.29199326675E+03  0.00000000000E+00 0. -1.
         23    2    1    2    0    0  0.56468759664E+01 -0.35791626426E+02 -0.13047454505E+03  0.16384670744E+03  0.92245373347E+02 0.  0.
          5    1    1    2  502    0 -0.26055099937E+02  0.74579203427E+02 -0.45557811094E+02  0.91315551623E+02  0.47000000000E+01 0.  1.
         -5    1    1    2    0  502  0.20408223970E+02 -0.38787577001E+02 -0.70037436536E+02  0.82754481762E+02  0.47000000000E+01 0.  1.
        -11    1    3    3    0    0 -0.11763034118E+02 -0.52035834827E+02 -0.31298344667E+02  0.61852109557E+02  0.00000000000E+00 0.  1.
         11    1    3    3    0    0  0.17409910084E+02  0.16244208401E+02 -0.99176200382E+02  0.10199459789E+03  0.00000000000E+00 0. -1.
<mgrwt>
<rscale>  0 0.12157664E+03</rscale>
<asrwt>0</asrwt>
<pdfrwt beam="2">  1        1 0.44922042E-01 0.13014651E+03</pdfrwt>
<pdfrwt beam="1">  1       -1 0.70651497E-02 0.13014651E+03</pdfrwt>
<totfact> 0.89245835E+03</totfact>
</mgrwt>
</event>
<event>
 7    1  0.1111284E-005  0.1804929E+03  0.7546771E-02  0.1172840E+00
         -1   -1    0    0    0  501 -0.00000000000E+00  0.00000000000E+00  0.29161275074E+03  0.29161275074E+03  0.00000000000E+00 0.  1.
          1   -1    0    0  501    0  0.00000000000E+00 -0.00000000000E+00 -0.10428232923E+03  0.10428232923E+03  0.00000000000E+00 0. -1.
         23    2    1    2    0    0 -0.12970049394E+03  0.11444917570E+02  0.43077320294E+02  0.16483958282E+03  0.91450687672E+02 0.  0.
          5    1    1    2  502    0  0.14157093788E+03 -0.14363770315E+02  0.15757854364E+03  0.21237169248E+03  0.47000000000E+01 0. -1.
         -5    1    1    2    0  502 -0.11870443939E+02  0.29188527455E+01 -0.13325442432E+02  0.18683804663E+02  0.47000000000E+01 0. -1.
        -11    1    3    3    0    0 -0.36747362022E+02  0.45706788157E+02  0.26658781025E+02  0.64421810786E+02  0.00000000000E+00 0.  1.
         11    1    3    3    0    0 -0.92953131917E+02 -0.34261870587E+02  0.16418539268E+02  0.10041777204E+03  0.00000000000E+00 0. -1.
<mgrwt>
<rscale>  0 0.17489218E+03</rscale>
<asrwt>0</asrwt>
<pdfrwt beam="2">  1        1 0.16043435E-01 0.18049290E+03</pdfrwt>
<pdfrwt beam="1">  1       -1 0.44863500E-01 0.18049290E+03</pdfrwt>
<totfact> 0.16876139E+03</totfact>
</mgrwt>
</event>
<event>
 7    1  0.1111284E-005  0.1282762E+03  0.7546771E-02  0.1237522E+00
         -4   -1    0    0    0  501 -0.00000000000E+00  0.00000000000E+00  0.12079746533E+03  0.12079746533E+03  0.00000000000E+00 0.  1.
          4   -1    0    0  501    0  0.00000000000E+00 -0.00000000000E+00 -0.11758082602E+03  0.11758082602E+03  0.00000000000E+00 0. -1.
         23    2    1    2    0    0 -0.26558891816E+02  0.56490934831E+02  0.43636198605E+01  0.11009695987E+03  0.90585313056E+02 0.  0.
          5    1    1    2  502    0  0.90120976591E+01 -0.38911800167E+00 -0.50420080652E+02  0.51435822633E+02  0.47000000000E+01 0. -1.
         -5    1    1    2    0  502  0.17546794157E+02 -0.56101816829E+02  0.49273100099E+02  0.76845508848E+02  0.47000000000E+01 0.  1.
        -11    1    3    3    0    0 -0.20747280855E+02 -0.14494502471E+02 -0.22609893759E+02  0.33937406509E+02  0.00000000000E+00 0.  1.
         11    1    3    3    0    0 -0.58116109614E+01  0.70985437302E+02  0.26973513619E+02  0.76159553360E+02  0.00000000000E+00 0. -1.
<mgrwt>
<rscale>  0 0.12344345E+03</rscale>
<asrwt>0</asrwt>
<pdfrwt beam="2">  1        4 0.18089358E-01 0.12827620E+03</pdfrwt>
<pdfrwt beam="1">  1       -4 0.18584226E-01 0.12827620E+03</pdfrwt>
<totfact> 0.11345741E+03</totfact>
</mgrwt>
</event>
<event>
 7    1  0.1111284E-005  0.1318197E+03  0.7546771E-02  0.1234139E+00
         -1   -1    0    0    0  501 -0.00000000000E+00  0.00000000000E+00  0.24852217831E+03  0.24852217831E+03  0.00000000000E+00 0.  1.
          1   -1    0    0  501    0  0.00000000000E+00 -0.00000000000E+00 -0.72195517580E+02  0.72195517580E+02  0.00000000000E+00 0. -1.
         23    2    1    2    0    0  0.23536587559E+02 -0.34586821694E+02  0.10885069384E+02  0.10918198251E+03  0.10025966976E+03 0.  0.
          5    1    1    2  502    0  0.21296237790E+02  0.60526823850E+02  0.13905272770E+03  0.15321480748E+03  0.47000000000E+01 0.  1.
         -5    1    1    2    0  502 -0.44832825349E+02 -0.25940002157E+02  0.26388863647E+02  0.58320905902E+02  0.47000000000E+01 0.  1.
        -11    1    3    3    0    0  0.27947067092E+02  0.17967298873E+02 -0.28167865429E+02  0.43557904342E+02  0.00000000000E+00 0. -1.
         11    1    3    3    0    0 -0.44104795328E+01 -0.52554120566E+02  0.39052934812E+02  0.65624078170E+02  0.00000000000E+00 0.  1.
<mgrwt>
<rscale>  0 0.12559743E+03</rscale>
<asrwt>0</asrwt>
<pdfrwt beam="2">  1        1 0.11107003E-01 0.13181972E+03</pdfrwt>
<pdfrwt beam="1">  1       -1 0.38234181E-01 0.13181972E+03</pdfrwt>
<totfact> 0.35736412E+03</totfact>
</mgrwt>
</event>
<event>
 7    1  0.1111284E-005  0.1507968E+03  0.7546771E-02  0.1210046E+00
          2   -1    0    0  501    0  0.00000000000E+00  0.00000000000E+00  0.19496784545E+03  0.19496784545E+03  0.00000000000E+00 0. -1.
         -2   -1    0    0    0  501 -0.00000000000E+00 -0.00000000000E+00 -0.94192929020E+02  0.94192929020E+02  0.00000000000E+00 0.  1.
         23    2    1    2    0    0  0.36385399240E+02 -0.76102136704E+02  0.40926562748E+02  0.12692178170E+03  0.85549533272E+02 0.  0.
          5    1    1    2  502    0  0.37086489650E+02  0.53988170651E+02  0.54225006126E+02  0.85162031294E+02  0.47000000000E+01 0. -1.
         -5    1    1    2    0  502 -0.73471888890E+02  0.22113966053E+02  0.56233475508E+01  0.77076961469E+02  0.47000000000E+01 0. -1.
        -11    1    3    3    0    0  0.15338508215E+02 -0.36759247081E+02 -0.25212123298E+02  0.47139826489E+02  0.00000000000E+00 0.  1.
         11    1    3    3    0    0  0.21046891025E+02 -0.39342889623E+02  0.66138686045E+02  0.79781955213E+02  0.00000000000E+00 0. -1.
<mgrwt>
<rscale>  0 0.14246820E+03</rscale>
<asrwt>0</asrwt>
<pdfrwt beam="1">  1        2 0.29995053E-01 0.15079677E+03</pdfrwt>
<pdfrwt beam="2">  1       -2 0.14491220E-01 0.15079677E+03</pdfrwt>
<totfact> 0.60969229E+03</totfact>
</mgrwt>
</event>
<event>
 7    1  0.1111284E-005  0.1301859E+03  0.7546771E-02  0.1241023E+00
         -2   -1    0    0    0  501 -0.00000000000E+00  0.00000000000E+00  0.67695852061E+03  0.67695852061E+03  0.00000000000E+00 0.  1.
          2   -1    0    0  501    0  0.00000000000E+00 -0.00000000000E+00 -0.20389243584E+02  0.20389243584E+02  0.00000000000E+00 0. -1.
         23    2    1    2    0    0 -0.33533954454E+02  0.14075956219E+02  0.20228373979E+03  0.22477637120E+03  0.91011246681E+02 0.  0.
          5    1    1    2  502    0  0.53156033135E+02  0.13730909113E+01  0.44037948243E+03  0.44360300696E+03  0.47000000000E+01 0.  1.
         -5    1    1    2    0  502 -0.19622078681E+02 -0.15449047130E+02  0.13906054800E+02  0.28968386028E+02  0.47000000000E+01 0.  1.
        -11    1    3    3    0    0  0.16891076299E+02 -0.23289159183E+02  0.10607372429E+03  0.10990599792E+03  0.00000000000E+00 0.  1.
         11    1    3    3    0    0 -0.50425030753E+02  0.37365115402E+02  0.96210015499E+02  0.11487037328E+03  0.00000000000E+00 0. -1.
<mgrwt>
<rscale>  0 0.12126603E+03</rscale>
<asrwt>0</asrwt>
<pdfrwt beam="2">  1        2 0.31368072E-02 0.13018591E+03</pdfrwt>
<pdfrwt beam="1">  1       -2 0.10414745E+00 0.13018591E+03</pdfrwt>
<totfact> 0.21937534E+03</totfact>
</mgrwt>
</event>
<event>
 7    1  0.1111284E-005  0.1346096E+03  0.7546771E-02  0.1233116E+00
          4   -1    0    0  501    0  0.00000000000E+00  0.00000000000E+00  0.34996439232E+03  0.34996439232E+03  0.00000000000E+00 0. -1.
         -4   -1    0    0    0  501 -0.00000000000E+00 -0.00000000000E+00 -0.40759837371E+02  0.40759837371E+02  0.00000000000E+00 0.  1.
         23    2    1    2    0    0 -0.11266678806E+02 -0.48656295252E+02  0.13968319087E+03  0.17425889114E+03  0.91435191314E+02 0.  0.
          5    1    1    2  502    0  0.22022664730E+02  0.21915992698E+01  0.16694562864E+03  0.16847175962E+03  0.47000000000E+01 0.  1.
         -5    1    1    2    0  502 -0.10755985924E+02  0.46464695982E+02  0.25757354485E+01  0.47993578935E+02  0.47000000000E+01 0.  1.
        -11    1    3    3    0    0 -0.46153118104E+02 -0.11328181675E+02  0.95668948006E+02  0.10682221503E+03  0.00000000000E+00 0. -1.
         11    1    3    3    0    0  0.34886439299E+02 -0.37328113577E+02  0.44014242861E+02  0.67436676110E+02  0.00000000000E+00 0.  1.
<mgrwt>
<rscale>  0 0.12625821E+03</rscale>
<asrwt>0</asrwt>
<pdfrwt beam="1">  1        4 0.53840674E-01 0.13460962E+03</pdfrwt>
<pdfrwt beam="2">  1       -4 0.62707444E-02 0.13460962E+03</pdfrwt>
<totfact> 0.90769481E+02</totfact>
</mgrwt>
</event>
<event>
 7    1  0.1111284E-005  0.1487252E+03  0.7546771E-02  0.1211201E+00
          2   -1    0    0  501    0  0.00000000000E+00  0.00000000000E+00  0.35790839571E+03  0.35790839571E+03  0.00000000000E+00 0. -1.
         -2   -1    0    0    0  501 -0.00000000000E+00 -0.00000000000E+00 -0.55520013918E+02  0.55520013918E+02  0.00000000000E+00 0.  1.
         23    2    1    2    0    0  0.63047104972E+02 -0.50188857620E+02  0.19449376505E+03  0.22968831482E+03  0.91842465375E+02 0.  0.
          5    1    1    2  502    0 -0.48632630772E+02  0.64013723768E+01 -0.15721836021E+02  0.51724041528E+02  0.47000000000E+01 0. -1.
         -5    1    1    2    0  502 -0.14414474199E+02  0.43787485243E+02  0.12361645277E+03  0.13201605329E+03  0.47000000000E+01 0. -1.
        -11    1    3    3    0    0  0.65355614820E+02 -0.73722795542E+02  0.15536898316E+03  0.18397262813E+03  0.00000000000E+00 0. -1.
         11    1    3    3    0    0 -0.23085098487E+01  0.23533937923E+02  0.39124781886E+02  0.45715686690E+02  0.00000000000E+00 0.  1.
<mgrwt>
<rscale>  0 0.14159301E+03</rscale>
<asrwt>0</asrwt>
<pdfrwt beam="1">  1        2 0.55062829E-01 0.14872516E+03</pdfrwt>
<pdfrwt beam="2">  1       -2 0.85415408E-02 0.14872516E+03</pdfrwt>
<totfact> 0.73755766E+03</totfact>
</mgrwt>
</event>
<event>
 7    1  0.1111284E-005  0.1265946E+03  0.7546771E-02  0.1247500E+00
         -1   -1    0    0    0  501 -0.00000000000E+00  0.00000000000E+00  0.24482196402E+03  0.24482196402E+03  0.00000000000E+00 0.  1.
          1   -1    0    0  501    0  0.00000000000E+00 -0.00000000000E+00 -0.56560982402E+02  0.56560982402E+02  0.00000000000E+00 0. -1.
         23    2    1    2    0    0 -0.15975670630E+02 -0.12158958800E+02  0.28982791237E+02  0.97923509222E+02  0.91356166399E+02 0.  0.
          5    1    1    2  502    0  0.66176737297E+02 -0.10431019897E+02  0.61053025804E+02  0.90761934175E+02  0.47000000000E+01 0. -1.
         -5    1    1    2    0  502 -0.50201066667E+02  0.22589978697E+02  0.98225164574E+02  0.11269750302E+03  0.47000000000E+01 0. -1.
        -11    1    3    3    0    0  0.38075642616E+02 -0.10336950366E+02  0.12342719887E+02  0.41339446510E+02  0.00000000000E+00 0. -1.
         11    1    3    3    0    0 -0.54051313247E+02 -0.18220084338E+01  0.16640071350E+02  0.56584062712E+02  0.00000000000E+00 0.  1.
<mgrwt>
<rscale>  0 0.11736979E+03</rscale>
<asrwt>0</asrwt>
<pdfrwt beam="2">  1        1 0.87016898E-02 0.12659463E+03</pdfrwt>
<pdfrwt beam="1">  1       -1 0.37664917E-01 0.12659463E+03</pdfrwt>
<totfact> 0.50550396E+03</totfact>
</mgrwt>
</event>
<event>
 7    1  0.1111284E-005  0.1304306E+03  0.7546771E-02  0.1239754E+00
          1   -1    0    0  501    0  0.00000000000E+00  0.00000000000E+00  0.51853437853E+03  0.51853437853E+03  0.00000000000E+00 0. -1.
         -1   -1    0    0    0  501 -0.00000000000E+00 -0.00000000000E+00 -0.27006453118E+02  0.27006453118E+02  0.00000000000E+00 0.  1.
         23    2    1    2    0    0 -0.13840908429E+02 -0.34546170306E+02  0.27672671378E+03  0.29424079540E+03  0.92816824609E+02 0.  0.
          5    1    1    2  502    0  0.61865139970E+02  0.30298843894E+02  0.68797755313E+02  0.97470696217E+02  0.47000000000E+01 0. -1.
         -5    1    1    2    0  502 -0.48024231541E+02  0.42473264121E+01  0.14600345632E+03  0.15382934003E+03  0.47000000000E+01 0. -1.
        -11    1    3    3    0    0  0.35753015260E+02 -0.34695832033E+02  0.12278120325E+03  0.13250397251E+03  0.00000000000E+00 0.  1.
         11    1    3    3    0    0 -0.49593923688E+02  0.14966172679E+00  0.15394551053E+03  0.16173682289E+03  0.00000000000E+00 0. -1.
<mgrwt>
<rscale>  0 0.12204908E+03</rscale>
<asrwt>0</asrwt>
<pdfrwt beam="1">  1        1 0.79774512E-01 0.13043062E+03</pdfrwt>
<pdfrwt beam="2">  1       -1 0.41548393E-02 0.13043062E+03</pdfrwt>
<totfact> 0.95015309E+03</totfact>
</mgrwt>
</event>
<event>
 7    1  0.1111284E-005  0.2533600E+03  0.7546771E-02  0.1113574E+00
          2   -1    0    0  501    0  0.00000000000E+00  0.00000000000E+00  0.33288295681E+03  0.33288295681E+03  0.00000000000E+00 0. -1.
         -2   -1    0    0    0  501 -0.00000000000E+00 -0.00000000000E+00 -0.19292114109E+03  0.19292114109E+03  0.00000000000E+00 0.  1.
         23    2    1    2    0    0 -0.38868616475E+02 -0.21692258233E+03  0.13129387064E+03  0.27229582723E+03  0.91327766801E+02 0.  0.
          5    1    1    2  502    0 -0.24743664708E+02  0.17498599162E+03  0.11051996126E+02  0.17713436376E+03  0.47000000000E+01 0.  1.
         -5    1    1    2    0  502  0.63612281183E+02  0.41936590711E+02 -0.23840510378E+01  0.76373906913E+02  0.47000000000E+01 0.  1.
        -11    1    3    3    0    0 -0.85273357542E+01 -0.42837510701E+02 -0.11428678021E+02  0.45148449136E+02  0.00000000000E+00 0.  1.
         11    1    3    3    0    0 -0.30341280721E+02 -0.17408507163E+03  0.14272254866E+03  0.22714737809E+03  0.00000000000E+00 0. -1.
<mgrwt>
<rscale>  0 0.24957394E+03</rscale>
<asrwt>0</asrwt>
<pdfrwt beam="1">  1        2 0.51212762E-01 0.25336004E+03</pdfrwt>
<pdfrwt beam="2">  1       -2 0.29680176E-01 0.25336004E+03</pdfrwt>
<totfact> 0.10185425E+03</totfact>
</mgrwt>
</event>
<event>
 7    1  0.1111284E-005  0.2700050E+03  0.7546771E-02  0.1103312E+00
         -1   -1    0    0    0  501 -0.00000000000E+00  0.00000000000E+00  0.72010437620E+02  0.72010437620E+02  0.00000000000E+00 0.  1.
          1   -1    0    0  501    0  0.00000000000E+00 -0.00000000000E+00 -0.98675388188E+03  0.98675388188E+03  0.00000000000E+00 0. -1.
         23    2    1    2    0    0 -0.24920833579E+02  0.23802931130E+03 -0.53081479176E+03  0.58939889990E+03  0.91365852881E+02 0.  0.
          5    1    1    2  502    0  0.28260219282E+02 -0.21190881914E+03 -0.23367479405E+03  0.31674909154E+03  0.47000000000E+01 0.  1.
         -5    1    1    2    0  502 -0.33393857027E+01 -0.26120492163E+02 -0.15025385846E+03  0.15261632805E+03  0.47000000000E+01 0.  1.
        -11    1    3    3    0    0  0.12190868377E+02  0.20661493324E+03 -0.44467823053E+03  0.49048657129E+03  0.00000000000E+00 0. -1.
         11    1    3    3    0    0 -0.37111701957E+02  0.31414378055E+02 -0.86136561229E+02  0.98912328610E+02  0.00000000000E+00 0.  1.
<mgrwt>
<rscale>  0 0.26647957E+03</rscale>
<asrwt>0</asrwt>
<pdfrwt beam="2">  1        1 0.15180829E+00 0.27000498E+03</pdfrwt>
<pdfrwt beam="1">  1       -1 0.11078529E-01 0.27000498E+03</pdfrwt>
<totfact> 0.85180188E+02</totfact>
</mgrwt>
</event>
<event>
 7    1  0.1111284E-005  0.1320185E+03  0.7546771E-02  0.1233564E+00
          3   -1    0    0  501    0  0.00000000000E+00  0.00000000000E+00  0.12307093859E+03  0.12307093859E+03  0.00000000000E+00 0. -1.
         -3   -1    0    0    0  501 -0.00000000000E+00 -0.00000000000E+00 -0.28374730203E+03  0.28374730203E+03  0.00000000000E+00 0.  1.
         23    2    1    2    0    0 -0.31123365277E+02  0.28977394909E+02  0.77779660781E+02  0.13425603416E+03  0.10082982592E+03 0.  0.
          5    1    1    2  502    0  0.17016758541E+02  0.96503243085E+01 -0.22928713668E+03  0.23016815566E+03  0.47000000000E+01 0. -1.
         -5    1    1    2    0  502  0.14106606735E+02 -0.38627719218E+02 -0.91688875387E+01  0.42394050812E+02  0.47000000000E+01 0. -1.
        -11    1    3    3    0    0 -0.37910398412E+02  0.56899558889E+02  0.80235831185E+02  0.10541606479E+03  0.00000000000E+00 0. -1.
         11    1    3    3    0    0  0.67870331354E+01 -0.27922163980E+02 -0.24561704033E+01  0.28839969368E+02  0.00000000000E+00 0.  1.
<mgrwt>
<rscale>  0 0.12596809E+03</rscale>
<asrwt>0</asrwt>
<pdfrwt beam="1">  1        3 0.18933991E-01 0.13201849E+03</pdfrwt>
<pdfrwt beam="2">  1       -3 0.43653431E-01 0.13201849E+03</pdfrwt>
<totfact> 0.30043067E+02</totfact>
</mgrwt>
</event>
<event>
 7    1  0.1111284E-005  0.1713566E+03  0.7546771E-02  0.1182537E+00
         -2   -1    0    0    0  501 -0.00000000000E+00  0.00000000000E+00  0.35316046270E+02  0.35316046270E+02  0.00000000000E+00 0.  1.
          2   -1    0    0  501    0  0.00000000000E+00 -0.00000000000E+00 -0.80856629354E+03  0.80856629354E+03  0.00000000000E+00 0. -1.
         23    2    1    2    0    0 -0.21964605153E+02 -0.11513783120E+03 -0.49545184791E+03  0.51748528084E+03  0.92624609235E+02 0.  0.
          5    1    1    2  502    0  0.50660274780E+02  0.28060867277E+02 -0.37485297831E+02  0.69145594702E+02  0.47000000000E+01 0. -1.
         -5    1    1    2    0  502 -0.28695669627E+02  0.87076963925E+02 -0.24031310153E+03  0.25725146427E+03  0.47000000000E+01 0. -1.
        -11    1    3    3    0    0 -0.52097582789E+02 -0.10512319975E+03 -0.37554144539E+03  0.39344176502E+03  0.00000000000E+00 0. -1.
         11    1    3    3    0    0  0.30132977635E+02 -0.10014631456E+02 -0.11991040253E+03  0.12404351583E+03  0.00000000000E+00 0.  1.
<mgrwt>
<rscale>  0 0.16558033E+03</rscale>
<asrwt>0</asrwt>
<pdfrwt beam="2">  1        2 0.12439480E+00 0.17135661E+03</pdfrwt>
<pdfrwt beam="1">  1       -2 0.54332384E-02 0.17135661E+03</pdfrwt>
<totfact> 0.59081692E+03</totfact>
</mgrwt>
</event>
<event>
 7    1  0.1111284E-005  0.1368945E+03  0.7546771E-02  0.1228099E+00
         -1   -1    0    0    0  501 -0.00000000000E+00  0.00000000000E+00  0.11221196866E+03  0.11221196866E+03  0.00000000000E+00 0.  1.
          1   -1    0    0  501    0  0.00000000000E+00 -0.00000000000E+00 -0.13983354253E+03  0.13983354253E+03  0.00000000000E+00 0. -1.
         23    2    1    2    0    0 -0.48366997242E+02  0.27888320108E+02 -0.34012196458E+02  0.11500194709E+03  0.94612332741E+02 0.  0.
          5    1    1    2  502    0  0.85665674261E+02  0.22585575838E+01  0.17502338978E+02  0.87590699841E+02  0.47000000000E+01 0.  1.
         -5    1    1    2    0  502 -0.37298677019E+02 -0.30146877691E+02 -0.11111716385E+02  0.49452864254E+02  0.47000000000E+01 0.  1.
        -11    1    3    3    0    0 -0.60545066430E+02  0.26729526677E+01  0.11384045428E+02  0.61663978425E+02  0.00000000000E+00 0.  1.
         11    1    3    3    0    0  0.12178069187E+02  0.25215367440E+02 -0.45396241885E+02  0.53337968668E+02  0.00000000000E+00 0. -1.
<mgrwt>
<rscale>  0 0.12956767E+03</rscale>
<asrwt>0</asrwt>
<pdfrwt beam="2">  1        1 0.21512853E-01 0.13689448E+03</pdfrwt>
<pdfrwt beam="1">  1       -1 0.17263380E-01 0.13689448E+03</pdfrwt>
<totfact> 0.56736248E+03</totfact>
</mgrwt>
</event>
<event>
 7    1  0.1111284E-005  0.1354337E+03  0.7546771E-02  0.1232394E+00
          2   -1    0    0  501    0  0.00000000000E+00  0.00000000000E+00  0.54211453633E+03  0.54211453633E+03  0.00000000000E+00 0.  1.
         -2   -1    0    0    0  501 -0.00000000000E+00 -0.00000000000E+00 -0.27093646099E+02  0.27093646099E+02  0.00000000000E+00 0. -1.
         23    2    1    2    0    0 -0.32553342788E+02 -0.40722067182E+02  0.26954998282E+03  0.28885440324E+03  0.89786781612E+02 0.  0.
          5    1    1    2  502    0 -0.39026625401E+02  0.18219080979E+01  0.14845579176E+03  0.15358258022E+03  0.47000000000E+01 0. -1.
         -5    1    1    2    0  502  0.71579968189E+02  0.38900159084E+02  0.97015115648E+02  0.12677119896E+03  0.47000000000E+01 0. -1.
        -11    1    3    3    0    0  0.55075751671E+01 -0.47800697984E+02  0.22384025059E+03  0.22895348413E+03  0.00000000000E+00 0.  1.
         11    1    3    3    0    0 -0.38060917955E+02  0.70786308024E+01  0.45709732223E+02  0.59900919104E+02  0.00000000000E+00 0. -1.
<mgrwt>
<rscale>  0 0.12672744E+03</rscale>
<asrwt>0</asrwt>
<pdfrwt beam="1">  1        2 0.83402229E-01 0.13543366E+03</pdfrwt>
<pdfrwt beam="2">  1       -2 0.41682536E-02 0.13543366E+03</pdfrwt>
<totfact> 0.13893903E+04</totfact>
</mgrwt>
</event>
<event>
 7    1  0.1111284E-005  0.1805347E+03  0.7546771E-02  0.1173036E+00
          2   -1    0    0  501    0  0.00000000000E+00  0.00000000000E+00  0.18914573293E+03  0.18914573293E+03  0.00000000000E+00 0. -1.
         -2   -1    0    0    0  501 -0.00000000000E+00 -0.00000000000E+00 -0.15419324503E+03  0.15419324503E+03  0.00000000000E+00 0.  1.
         23    2    1    2    0    0  0.10582890482E+02 -0.12978076761E+03  0.37946764080E+02  0.16277945373E+03  0.90011934973E+02 0.  0.
          5    1    1    2  502    0 -0.93636751928E+01  0.14116492254E+03 -0.35364556145E+02  0.14590392592E+03  0.47000000000E+01 0.  1.
         -5    1    1    2    0  502 -0.12192152892E+01 -0.11384154926E+02  0.32370279966E+02  0.34655598312E+02  0.47000000000E+01 0.  1.
        -11    1    3    3    0    0 -0.30274550703E+02 -0.86774653736E+02 -0.83343994710E+00  0.91908016916E+02  0.00000000000E+00 0. -1.
         11    1    3    3    0    0  0.40857441185E+02 -0.43006113877E+02  0.38780204027E+02  0.70871436809E+02  0.00000000000E+00 0.  1.
<mgrwt>
<rscale>  0 0.17469765E+03</rscale>
<asrwt>0</asrwt>
<pdfrwt beam="1">  1        2 0.29099343E-01 0.18053470E+03</pdfrwt>
<pdfrwt beam="2">  1       -2 0.23722038E-01 0.18053470E+03</pdfrwt>
<totfact> 0.27736047E+03</totfact>
</mgrwt>
</event>
<event>
 7    1  0.1111284E-005  0.2292240E+03  0.7546771E-02  0.1127187E+00
         -1   -1    0    0    0  501 -0.00000000000E+00  0.00000000000E+00  0.58105154905E+02  0.58105154905E+02  0.00000000000E+00 0.  1.
          1   -1    0    0  501    0  0.00000000000E+00 -0.00000000000E+00 -0.22607142697E+03  0.22607142697E+03  0.00000000000E+00 0. -1.
         23    2    1    2    0    0 -0.24577933768E+02  0.70371014786E+01 -0.73848937109E+02  0.12014217690E+03  0.91251748101E+02 0.  0.
          5    1    1    2  502    0  0.73658568422E+02 -0.10725075805E+02 -0.24219878838E+02  0.78417501133E+02  0.47000000000E+01 0. -1.
         -5    1    1    2    0  502 -0.49080634654E+02  0.36879743264E+01 -0.69897456121E+02  0.85616903850E+02  0.47000000000E+01 0.  1.
        -11    1    3    3    0    0 -0.53932694772E+02  0.25102903432E+02 -0.39038693339E+02  0.71154134832E+02  0.00000000000E+00 0.  1.
         11    1    3    3    0    0  0.29354761004E+02 -0.18065801953E+02 -0.34810243771E+02  0.48988042064E+02  0.00000000000E+00 0. -1.
<mgrwt>
<rscale>  0 0.22922404E+03</rscale>
<asrwt>0</asrwt>
<pdfrwt beam="2">  1        1 0.34780220E-01 0.22922404E+03</pdfrwt>
<pdfrwt beam="1">  1       -1 0.89392546E-02 0.22922404E+03</pdfrwt>
<totfact> 0.89243560E+03</totfact>
</mgrwt>
</event>
<event>
 7    1  0.1111284E-005  0.1789772E+03  0.7546771E-02  0.1174339E+00
          2   -1    0    0  501    0  0.00000000000E+00  0.00000000000E+00  0.42531374608E+02  0.42531374608E+02  0.00000000000E+00 0. -1.
         -2   -1    0    0    0  501 -0.00000000000E+00 -0.00000000000E+00 -0.84871945478E+03  0.84871945478E+03  0.00000000000E+00 0.  1.
         23    2    1    2    0    0  0.11276387313E+03 -0.60770710705E+02 -0.17688395935E+03  0.23699054174E+03  0.92020712006E+02 0.  0.
          5    1    1    2  502    0 -0.27519821165E+02  0.52721158929E+01 -0.16094366884E+02  0.32653551236E+02  0.47000000000E+01 0. -1.
         -5    1    1    2    0  502 -0.85244051967E+02  0.55498594813E+02 -0.61320975394E+03  0.62160673641E+03  0.47000000000E+01 0. -1.
        -11    1    3    3    0    0  0.16137558041E+01  0.14509395232E+02 -0.50671099623E+02  0.52732220651E+02  0.00000000000E+00 0.  1.
         11    1    3    3    0    0  0.11115011733E+03 -0.75280105938E+02 -0.12621285973E+03  0.18425832109E+03  0.00000000000E+00 0. -1.
<mgrwt>
<rscale>  0 0.17340921E+03</rscale>
<asrwt>0</asrwt>
<pdfrwt beam="1">  1        2 0.65432885E-02 0.17897723E+03</pdfrwt>
<pdfrwt beam="2">  1       -2 0.13057222E+00 0.17897723E+03</pdfrwt>
<totfact> 0.49243707E+02</totfact>
</mgrwt>
</event>
<event>
 7    1  0.1111284E-005  0.1266610E+03  0.7546771E-02  0.1247472E+00
         -2   -1    0    0    0  501 -0.00000000000E+00  0.00000000000E+00  0.15003429047E+03  0.15003429047E+03  0.00000000000E+00 0.  1.
          2   -1    0    0  501    0  0.00000000000E+00 -0.00000000000E+00 -0.85307500544E+02  0.85307500544E+02  0.00000000000E+00 0. -1.
         23    2    1    2    0    0 -0.12361733102E+02 -0.16327283543E+02  0.76107816974E+00  0.93445267472E+02  0.91170423602E+02 0.  0.
          5    1    1    2  502    0  0.51089035704E+02  0.37497607372E+02 -0.59510439924E+00  0.63550013982E+02  0.47000000000E+01 0.  1.
         -5    1    1    2    0  502 -0.38727302602E+02 -0.21170323829E+02  0.64560816157E+02  0.78346509563E+02  0.47000000000E+01 0.  1.
        -11    1    3    3    0    0 -0.34079457699E+02 -0.16022008407E+00  0.35626507749E+02  0.49301959007E+02  0.00000000000E+00 0.  1.
         11    1    3    3    0    0  0.21717724596E+02 -0.16167063459E+02 -0.34865429579E+02  0.44143308465E+02  0.00000000000E+00 0. -1.
<mgrwt>
<rscale>  0 0.11738644E+03</rscale>
<asrwt>0</asrwt>
<pdfrwt beam="2">  1        2 0.13124231E-01 0.12666101E+03</pdfrwt>
<pdfrwt beam="1">  1       -2 0.23082199E-01 0.12666101E+03</pdfrwt>
<totfact> 0.70517919E+03</totfact>
</mgrwt>
</event>
<event>
 7    1  0.1111284E-005  0.1151598E+03  0.7546771E-02  0.1262074E+00
         -2   -1    0    0    0  501 -0.00000000000E+00  0.00000000000E+00  0.35682973815E+02  0.35682973815E+02  0.00000000000E+00 0.  1.
          2   -1    0    0  501    0  0.00000000000E+00 -0.00000000000E+00 -0.31007876737E+03  0.31007876737E+03  0.00000000000E+00 0. -1.
         23    2    1    2    0    0 -0.20522969413E+01  0.21851854220E+02 -0.14738616500E+03  0.17431723436E+03  0.90454967273E+02 0.  0.
          5    1    1    2  502    0  0.20781443203E+02 -0.10562924130E+02 -0.14234942767E+03  0.14432218577E+03  0.47000000000E+01 0. -1.
         -5    1    1    2    0  502 -0.18729146262E+02 -0.11288930089E+02  0.15339799121E+02  0.27122321053E+02  0.47000000000E+01 0.  1.
        -11    1    3    3    0    0 -0.10641233031E+02 -0.31791067837E+02 -0.86221977784E+02  0.92510200992E+02  0.00000000000E+00 0.  1.
         11    1    3    3    0    0  0.85889360897E+01  0.53642922056E+02 -0.61164187216E+02  0.81807033363E+02  0.00000000000E+00 0. -1.
<mgrwt>
<rscale>  0 0.10919161E+03</rscale>
<asrwt>0</asrwt>
<pdfrwt beam="2">  1        2 0.47704427E-01 0.11515977E+03</pdfrwt>
<pdfrwt beam="1">  1       -2 0.54896882E-02 0.11515977E+03</pdfrwt>
<totfact> 0.16538968E+04</totfact>
</mgrwt>
</event>
<event>
 7    1  0.1111284E-005  0.1825804E+03  0.7546771E-02  0.1170550E+00
         -1   -1    0    0    0  501 -0.00000000000E+00  0.00000000000E+00  0.65169457832E+02  0.65169457832E+02  0.00000000000E+00 0.  1.
          1   -1    0    0  501    0  0.00000000000E+00 -0.00000000000E+00 -0.46111237697E+03  0.46111237697E+03  0.00000000000E+00 0. -1.
         23    2    1    2    0    0 -0.11644811313E+03 -0.64428263340E+02 -0.15698015520E+03  0.22555139705E+03  0.92301134415E+02 0.  0.
          5    1    1    2  502    0 -0.15453243453E+02  0.45870903554E+02 -0.75651525317E+02  0.89934341655E+02  0.47000000000E+01 0.  1.
         -5    1    1    2    0  502  0.13190135659E+03  0.18557359786E+02 -0.16331123862E+03  0.21079609610E+03  0.47000000000E+01 0.  1.
        -11    1    3    3    0    0 -0.85464480387E+02 -0.47571081860E+02 -0.16268043136E+03  0.18982125272E+03  0.00000000000E+00 0. -1.
         11    1    3    3    0    0 -0.30983632746E+02 -0.16857181480E+02  0.57002761559E+01  0.35730144330E+02  0.00000000000E+00 0.  1.
<mgrwt>
<rscale>  0 0.17719103E+03</rscale>
<asrwt>0</asrwt>
<pdfrwt beam="2">  1        1 0.70940364E-01 0.18258038E+03</pdfrwt>
<pdfrwt beam="1">  1       -1 0.10026071E-01 0.18258038E+03</pdfrwt>
<totfact> 0.30048354E+03</totfact>
</mgrwt>
</event>
<event>
 7    1  0.1111284E-005  0.1259317E+03  0.7546771E-02  0.1249895E+00
         -1   -1    0    0    0  501 -0.00000000000E+00  0.00000000000E+00  0.34076631392E+02  0.34076631392E+02  0.00000000000E+00 0.  1.
          1   -1    0    0  501    0  0.00000000000E+00 -0.00000000000E+00 -0.34845678269E+03  0.34845678269E+03  0.00000000000E+00 0. -1.
         23    2    1    2    0    0  0.43642623147E+01 -0.14594371540E+02 -0.15346461730E+03  0.17819887212E+03  0.89282735154E+02 0.  0.
          5    1    1    2  502    0 -0.22807509197E+02 -0.10878102688E+02 -0.16946867481E+03  0.17140664321E+03  0.47000000000E+01 0.  1.
         -5    1    1    2    0  502  0.18443246882E+02  0.25472474229E+02  0.85531408068E+01  0.32927898757E+02  0.47000000000E+01 0.  1.
        -11    1    3    3    0    0 -0.33043863313E+01  0.36096729646E+02 -0.41800263398E+02  0.55327704455E+02  0.00000000000E+00 0. -1.
         11    1    3    3    0    0  0.76686486461E+01 -0.50691101186E+02 -0.11166435390E+03  0.12287116767E+03  0.00000000000E+00 0.  1.
<mgrwt>
<rscale>  0 0.11597140E+03</rscale>
<asrwt>0</asrwt>
<pdfrwt beam="2">  1        1 0.53608735E-01 0.12593171E+03</pdfrwt>
<pdfrwt beam="1">  1       -1 0.52425587E-02 0.12593171E+03</pdfrwt>
<totfact> 0.11148703E+04</totfact>
</mgrwt>
</event>
<event>
 7    1  0.1111284E-005  0.1468434E+03  0.7546771E-02  0.1213473E+00
          2   -1    0    0  501    0  0.00000000000E+00  0.00000000000E+00  0.28303944911E+03  0.28303944911E+03  0.00000000000E+00 0. -1.
         -2   -1    0    0    0  501 -0.00000000000E+00 -0.00000000000E+00 -0.68223020112E+02  0.68223020112E+02  0.00000000000E+00 0.  1.
         23    2    1    2    0    0  0.26073515557E+02 -0.72483490933E+02  0.14452811896E+03  0.18846368958E+03  0.93255029071E+02 0.  0.
          5    1    1    2  502    0 -0.51461339167E+02  0.21102036428E+02  0.86596471273E+02  0.10302720130E+03  0.47000000000E+01 0. -1.
         -5    1    1    2    0  502  0.25387823610E+02  0.51381454505E+02 -0.16308161239E+02  0.59771578344E+02  0.47000000000E+01 0. -1.
        -11    1    3    3    0    0  0.13679690941E+02 -0.20163551988E+02  0.13069221034E+03  0.13294418609E+03  0.00000000000E+00 0. -1.
         11    1    3    3    0    0  0.12393824616E+02 -0.52319938945E+02  0.13835908625E+02  0.55519503486E+02  0.00000000000E+00 0.  1.
<mgrwt>
<rscale>  0 0.13989337E+03</rscale>
<asrwt>0</asrwt>
<pdfrwt beam="1">  1        2 0.43544530E-01 0.14684344E+03</pdfrwt>
<pdfrwt beam="2">  1       -2 0.10495849E-01 0.14684344E+03</pdfrwt>
<totfact> 0.68478857E+03</totfact>
</mgrwt>
</event>
<event>
 7    1  0.1111284E-005  0.1461031E+03  0.7546771E-02  0.1213606E+00
          2   -1    0    0  501    0  0.00000000000E+00  0.00000000000E+00  0.59784042063E+03  0.59784042063E+03  0.00000000000E+00 0. -1.
         -2   -1    0    0    0  501 -0.00000000000E+00 -0.00000000000E+00 -0.41437770701E+02  0.41437770701E+02  0.00000000000E+00 0.  1.
         23    2    1    2    0    0  0.74487820452E+02  0.11682633012E+02  0.42665101519E+03  0.44387704710E+03  0.96492615613E+02 0.  0.
          5    1    1    2  502    0 -0.31106615684E+01  0.39137986452E+02  0.91501187528E+02  0.99679564195E+02  0.47000000000E+01 0. -1.
         -5    1    1    2    0  502 -0.71377158883E+02 -0.50820619464E+02  0.38250447207E+02  0.95721580035E+02  0.47000000000E+01 0. -1.
        -11    1    3    3    0    0  0.55174360734E+02 -0.35294834626E+02  0.16861281782E+03  0.18088730682E+03  0.00000000000E+00 0.  1.
         11    1    3    3    0    0  0.19313459717E+02  0.46977467638E+02  0.25803819737E+03  0.26298974028E+03  0.00000000000E+00 0. -1.
<mgrwt>
<rscale>  0 0.13979467E+03</rscale>
<asrwt>0</asrwt>
<pdfrwt beam="1">  1        2 0.91975443E-01 0.14610312E+03</pdfrwt>
<pdfrwt beam="2">  1       -2 0.63750421E-02 0.14610312E+03</pdfrwt>
<totfact> 0.65957797E+03</totfact>
</mgrwt>
</event>
<event>
 7    1  0.1111284E-005  0.2936219E+03  0.7546771E-02  0.1127904E+00
         -3   -1    0    0    0  501 -0.00000000000E+00  0.00000000000E+00  0.26572749692E+03  0.26572749692E+03  0.00000000000E+00 0.  1.
          3   -1    0    0  501    0  0.00000000000E+00 -0.00000000000E+00 -0.15618256595E+03  0.15618256595E+03  0.00000000000E+00 0. -1.
         23    2    1    2    0    0 -0.50713738100E+02 -0.37806502898E+02 -0.36779219875E+01  0.10721462271E+03  0.86488342100E+02 0.  0.
          5    1    1    2  502    0  0.63541734108E+02  0.13385202882E+03 -0.20325660687E+02  0.14963001061E+03  0.47000000000E+01 0. -1.
         -5    1    1    2    0  502 -0.12827996008E+02 -0.96045525927E+02  0.13354851365E+03  0.16506542954E+03  0.47000000000E+01 0.  1.
        -11    1    3    3    0    0 -0.61402151110E+02 -0.79290532849E+01  0.22708714690E+02  0.65945278601E+02  0.00000000000E+00 0. -1.
         11    1    3    3    0    0  0.10688413010E+02 -0.29877449613E+02 -0.26386636677E+02  0.41269344109E+02  0.00000000000E+00 0.  1.
<mgrwt>
<rscale>  0 0.22821327E+03</rscale>
<asrwt>0</asrwt>
<pdfrwt beam="2">  1        3 0.24028087E-01 0.29362188E+03</pdfrwt>
<pdfrwt beam="1">  1       -3 0.40881153E-01 0.29362188E+03</pdfrwt>
<totfact> 0.24373798E+02</totfact>
</mgrwt>
</event>
<event>
 7    1  0.1111284E-005  0.1563526E+03  0.7546771E-02  0.1200545E+00
         -2   -1    0    0    0  501 -0.00000000000E+00  0.00000000000E+00  0.14117803228E+03  0.14117803228E+03  0.00000000000E+00 0.  1.
          2   -1    0    0  501    0  0.00000000000E+00 -0.00000000000E+00 -0.14749733848E+03  0.14749733848E+03  0.00000000000E+00 0. -1.
         23    2    1    2    0    0 -0.46429092087E+01 -0.93800816829E+02 -0.42127899329E+01  0.13230861833E+03  0.93100338563E+02 0.  0.
          5    1    1    2  502    0  0.19307680787E+02  0.14829647944E+02  0.53226009973E+02  0.58717996672E+02  0.47000000000E+01 0.  1.
         -5    1    1    2    0  502 -0.14664771578E+02  0.78971168885E+02 -0.55332526241E+02  0.97648755756E+02  0.47000000000E+01 0.  1.
        -11    1    3    3    0    0  0.23708820788E+02 -0.10037321696E+03 -0.29371434387E+01  0.10317711800E+03  0.00000000000E+00 0. -1.
         11    1    3    3    0    0 -0.28351729997E+02  0.65724001351E+01 -0.12756464942E+01  0.29131500328E+02  0.00000000000E+00 0.  1.
<mgrwt>
<rscale>  0 0.14994111E+03</rscale>
<asrwt>0</asrwt>
<pdfrwt beam="2">  1        2 0.22691898E-01 0.15635256E+03</pdfrwt>
<pdfrwt beam="1">  1       -2 0.21719697E-01 0.15635256E+03</pdfrwt>
<totfact> 0.42246916E+03</totfact>
</mgrwt>
</event>
<event>
 7    1  0.1111284E-005  0.1472493E+03  0.7546771E-02  0.1215522E+00
          1   -1    0    0  501    0  0.00000000000E+00  0.00000000000E+00  0.55003269753E+03  0.55003269753E+03  0.00000000000E+00 0. -1.
         -1   -1    0    0    0  501 -0.00000000000E+00 -0.00000000000E+00 -0.33427806639E+02  0.33427806639E+02  0.00000000000E+00 0.  1.
         23    2    1    2    0    0  0.12574727947E+02 -0.76800873710E+02  0.30282268733E+03  0.32387392822E+03  0.84476289164E+02 0.  0.
          5    1    1    2  502    0 -0.50078741726E+02  0.44906923605E+02  0.19559742810E+03  0.20689358627E+03  0.47000000000E+01 0.  1.
         -5    1    1    2    0  502  0.37504013779E+02  0.31893950106E+02  0.18184775457E+02  0.52692989679E+02  0.47000000000E+01 0.  1.
        -11    1    3    3    0    0 -0.32294135371E+02 -0.30492149444E+02  0.75621027488E+02  0.87699613199E+02  0.00000000000E+00 0.  1.
         11    1    3    3    0    0  0.44868863318E+02 -0.46308724267E+02  0.22720165984E+03  0.23617431502E+03  0.00000000000E+00 0. -1.
<mgrwt>
<rscale>  0 0.13838271E+03</rscale>
<asrwt>0</asrwt>
<pdfrwt beam="1">  1        1 0.84620408E-01 0.14724931E+03</pdfrwt>
<pdfrwt beam="2">  1       -1 0.51427399E-02 0.14724931E+03</pdfrwt>
<totfact> 0.64627444E+03</totfact>
</mgrwt>
</event>
<event>
 7    1  0.1111284E-005  0.1339411E+03  0.7546771E-02  0.1234512E+00
         -2   -1    0    0    0  501 -0.00000000000E+00  0.00000000000E+00  0.11187617607E+02  0.11187617607E+02  0.00000000000E+00 0.  1.
          2   -1    0    0  501    0  0.00000000000E+00 -0.00000000000E+00 -0.12855217256E+04  0.12855217256E+04  0.00000000000E+00 0. -1.
         23    2    1    2    0    0  0.16726147249E+02  0.45108071753E+02 -0.45176636630E+03  0.46330793509E+03  0.90812393728E+02 0.  0.
          5    1    1    2  502    0  0.18525956325E+02 -0.10961887292E+02 -0.71198439574E+03  0.71232523738E+03  0.47000000000E+01 0.  1.
         -5    1    1    2    0  502 -0.35252103574E+02 -0.34146184460E+02 -0.11058334598E+03  0.12107617077E+03  0.47000000000E+01 0.  1.
        -11    1    3    3    0    0  0.71836871303E+01  0.72966246176E+02 -0.32086679542E+03  0.32913702138E+03  0.00000000000E+00 0. -1.
         11    1    3    3    0    0  0.95424601187E+01 -0.27858174423E+02 -0.13089957088E+03  0.13417091370E+03  0.00000000000E+00 0.  1.
<mgrwt>
<rscale>  0 0.12535756E+03</rscale>
<asrwt>0</asrwt>
<pdfrwt beam="2">  1        2 0.19777261E+00 0.13394110E+03</pdfrwt>
<pdfrwt beam="1">  1       -2 0.17211716E-02 0.13394110E+03</pdfrwt>
<totfact> 0.16586135E+04</totfact>
</mgrwt>
</event>
<event>
 7    1  0.1111284E-005  0.3997473E+03  0.7546771E-02  0.1044353E+00
         -1   -1    0    0    0  501 -0.00000000000E+00  0.00000000000E+00  0.31315359469E+03  0.31315359469E+03  0.00000000000E+00 0.  1.
          1   -1    0    0  501    0  0.00000000000E+00 -0.00000000000E+00 -0.76425668804E+03  0.76425668804E+03  0.00000000000E+00 0. -1.
         23    2    1    2    0    0 -0.24069228040E+03  0.29845239482E+03 -0.53934814361E+03  0.66803872870E+03  0.91502552998E+02 0.  0.
          5    1    1    2  502    0  0.17564804333E+03 -0.24997435598E+03  0.25321955799E+02  0.30659860603E+03  0.47000000000E+01 0. -1.
         -5    1    1    2    0  502  0.65044237064E+02 -0.48478038839E+02  0.62923094462E+02  0.10277294800E+03  0.47000000000E+01 0.  1.
        -11    1    3    3    0    0 -0.22423473931E+03  0.22230984418E+03 -0.44590563725E+03  0.54638331093E+03  0.00000000000E+00 0. -1.
         11    1    3    3    0    0 -0.16457541090E+02  0.76142550644E+02 -0.93442506362E+02  0.12165541777E+03  0.00000000000E+00 0.  1.
<mgrwt>
<rscale>  0 0.39834859E+03</rscale>
<asrwt>0</asrwt>
<pdfrwt beam="2">  1        1 0.11757795E+00 0.39974727E+03</pdfrwt>
<pdfrwt beam="1">  1       -1 0.48177476E-01 0.39974727E+03</pdfrwt>
<totfact> 0.10793049E+02</totfact>
</mgrwt>
</event>
<event>
 7    1  0.1111284E-005  0.1355886E+03  0.7546771E-02  0.1231749E+00
          3   -1    0    0  501    0  0.00000000000E+00  0.00000000000E+00  0.38523751928E+02  0.38523751928E+02  0.00000000000E+00 0. -1.
         -3   -1    0    0    0  501 -0.00000000000E+00 -0.00000000000E+00 -0.50175141901E+03  0.50175141901E+03  0.00000000000E+00 0.  1.
         23    2    1    2    0    0 -0.45670565372E+02  0.25956439352E+02 -0.74622671489E+02  0.12869516341E+03  0.90743400306E+02 0.  0.
          5    1    1    2  502    0 -0.14880804052E+02  0.40476418652E+02 -0.16321332406E+03  0.16888001050E+03  0.47000000000E+01 0.  1.
         -5    1    1    2    0  502  0.60551369424E+02 -0.66432858004E+02 -0.22539167152E+03  0.24269999702E+03  0.47000000000E+01 0.  1.
        -11    1    3    3    0    0  0.19906415345E+02  0.25854894091E+02 -0.47730621029E+02  0.57818276559E+02  0.00000000000E+00 0.  1.
         11    1    3    3    0    0 -0.65576980718E+02  0.10154526101E+00 -0.26892050459E+02  0.70876886849E+02  0.00000000000E+00 0. -1.
<mgrwt>
<rscale>  0 0.12714851E+03</rscale>
<asrwt>0</asrwt>
<pdfrwt beam="1">  1        3 0.59267312E-02 0.13558857E+03</pdfrwt>
<pdfrwt beam="2">  1       -3 0.77192524E-01 0.13558857E+03</pdfrwt>
<totfact> 0.64774728E+02</totfact>
</mgrwt>
</event>
<event>
 7    1  0.1111284E-005  0.1269738E+03  0.7546771E-02  0.1245475E+00
         -1   -1    0    0    0  501 -0.00000000000E+00  0.00000000000E+00  0.19386908271E+03  0.19386908271E+03  0.00000000000E+00 0.  1.
          1   -1    0    0  501    0  0.00000000000E+00 -0.00000000000E+00 -0.64821034534E+02  0.64821034534E+02  0.00000000000E+00 0. -1.
         23    2    1    2    0    0  0.21453094633E+02  0.60096905310E+01  0.45826652771E+02  0.10687394007E+03  0.93944692834E+02 0.  0.
          5    1    1    2  502    0  0.33871802909E+01 -0.54511628741E+02  0.32306659962E+01  0.54913731080E+02  0.47000000000E+01 0. -1.
         -5    1    1    2    0  502 -0.24840274924E+02  0.48501938210E+02  0.79990729411E+02  0.96902446100E+02  0.47000000000E+01 0. -1.
        -11    1    3    3    0    0  0.32336156188E+02 -0.19451292799E+02  0.63613464145E+02  0.73963860156E+02  0.00000000000E+00 0.  1.
         11    1    3    3    0    0 -0.10883061554E+02  0.25460983330E+02 -0.17786811374E+02  0.32910079912E+02  0.00000000000E+00 0. -1.
<mgrwt>
<rscale>  0 0.11856978E+03</rscale>
<asrwt>0</asrwt>
<pdfrwt beam="2">  1        1 0.99724669E-02 0.12697382E+03</pdfrwt>
<pdfrwt beam="1">  1       -1 0.29826012E-01 0.12697382E+03</pdfrwt>
<totfact> 0.62771223E+03</totfact>
</mgrwt>
</event>
<event>
 7    1  0.1111284E-005  0.1531817E+03  0.7546771E-02  0.1205281E+00
         -1   -1    0    0    0  501 -0.00000000000E+00  0.00000000000E+00  0.64368292627E+02  0.64368292627E+02  0.00000000000E+00 0.  1.
          1   -1    0    0  501    0  0.00000000000E+00 -0.00000000000E+00 -0.30506715694E+03  0.30506715694E+03  0.00000000000E+00 0. -1.
         23    2    1    2    0    0  0.83689920311E+02 -0.28869732805E+02 -0.10335279316E+03  0.16369636981E+03  0.90979324043E+02 0.  0.
          5    1    1    2  502    0  0.31878499243E+02  0.18201226734E+02 -0.31827608739E+02  0.48811986711E+02  0.47000000000E+01 0. -1.
         -5    1    1    2    0  502 -0.11556841955E+03  0.10668506071E+02 -0.10551846242E+03  0.15692709304E+03  0.47000000000E+01 0. -1.
        -11    1    3    3    0    0 -0.16867574456E+02  0.16797880131E+01 -0.33380529968E+02  0.37437902409E+02  0.00000000000E+00 0. -1.
         11    1    3    3    0    0  0.10055749477E+03 -0.30549520818E+02 -0.69972263188E+02  0.12625846741E+03  0.00000000000E+00 0.  1.
<mgrwt>
<rscale>  0 0.14615305E+03</rscale>
<asrwt>0</asrwt>
<pdfrwt beam="2">  1        1 0.46933409E-01 0.15318168E+03</pdfrwt>
<pdfrwt beam="1">  1       -1 0.99028141E-02 0.15318168E+03</pdfrwt>
<totfact> 0.51239190E+03</totfact>
</mgrwt>
</event>
<event>
 7    1  0.1111284E-005  0.5008897E+03  0.7546771E-02  0.1020251E+00
          2   -1    0    0  501    0  0.00000000000E+00  0.00000000000E+00  0.23929967890E+04  0.23929967890E+04  0.00000000000E+00 0. -1.
         -2   -1    0    0    0  501 -0.00000000000E+00 -0.00000000000E+00 -0.11261718677E+03  0.11261718677E+03  0.00000000000E+00 0.  1.
         23    2    1    2    0    0  0.12082117813E+03 -0.37972381786E+03  0.16535940662E+04  0.17032732593E+04  0.89322590033E+02 0.  0.
          5    1    1    2  502    0 -0.18547859532E+03  0.98917652154E+02  0.22581921347E+03  0.30855051191E+03  0.47000000000E+01 0. -1.
         -5    1    1    2    0  502  0.64657417194E+02  0.28080616571E+03  0.40096632252E+03  0.49379020453E+03  0.47000000000E+01 0.  1.
        -11    1    3    3    0    0  0.20528338781E+02 -0.82020850071E+02  0.22056088311E+03  0.23621163329E+03  0.00000000000E+00 0.  1.
         11    1    3    3    0    0  0.10029283935E+03 -0.29770296779E+03  0.14330331831E+04  0.14670616260E+04  0.00000000000E+00 0. -1.
<mgrwt>
<rscale>  0 0.47595970E+03</rscale>
<asrwt>0</asrwt>
<pdfrwt beam="1">  1        2 0.36815331E+00 0.50088973E+03</pdfrwt>
<pdfrwt beam="2">  1       -2 0.17325723E-01 0.50088973E+03</pdfrwt>
<totfact> 0.11768108E+02</totfact>
</mgrwt>
</event>
<event>
 7    1  0.1552301E-005  0.1318633E+03  0.7546771E-02  0.1237850E+00
         -2   -1    0    0    0  501 -0.00000000000E+00  0.00000000000E+00  0.86969445640E+02  0.86969445640E+02  0.00000000000E+00 0.  1.
          2   -1    0    0  501    0  0.00000000000E+00 -0.00000000000E+00 -0.18444591087E+03  0.18444591087E+03  0.00000000000E+00 0. -1.
         23    2    1    2    0    0 -0.38247711384E+02 -0.17317463438E+02 -0.96715305821E+02  0.13954986767E+03  0.91419545069E+02 0.  0.
          5    1    1    2  502    0  0.33287559681E+00  0.17407279854E+02  0.58577916162E+02  0.61290998197E+02  0.47000000000E+01 0.  1.
         -5    1    1    2    0  502  0.37914835788E+02 -0.89816416277E-01 -0.59339075572E+02  0.70574490643E+02  0.47000000000E+01 0.  1.
        -11    1    3    3    0    0 -0.19737595084E+02 -0.26891683421E+02 -0.10992592727E+03  0.11487577979E+03  0.00000000000E+00 0. -1.
         11    1    3    3    0    0 -0.18510116300E+02  0.95742199836E+01  0.13210621446E+02  0.24674087880E+02  0.00000000000E+00 0.  1.
<mgrwt>
<rscale>  0 0.12323730E+03</rscale>
<asrwt>0</asrwt>
<pdfrwt beam="2">  1        2 0.28376294E-01 0.13186329E+03</pdfrwt>
<pdfrwt beam="1">  1       -2 0.13379915E-01 0.13186329E+03</pdfrwt>
<totfact> 0.73050903E+03</totfact>
</mgrwt>
</event>
<event>
 7    1  0.1111284E-005  0.1656470E+03  0.7546771E-02  0.1188690E+00
         -4   -1    0    0    0  501 -0.00000000000E+00  0.00000000000E+00  0.11432744551E+03  0.11432744551E+03  0.00000000000E+00 0.  1.
          4   -1    0    0  501    0  0.00000000000E+00 -0.00000000000E+00 -0.21001363698E+03  0.21001363698E+03  0.00000000000E+00 0. -1.
         23    2    1    2    0    0 -0.85348270180E+02 -0.67299626322E+02 -0.47440726510E+02  0.15181123761E+03  0.94775853497E+02 0.  0.
          5    1    1    2  502    0  0.83408571932E+02  0.26086970561E+02  0.22619270310E+02  0.90394918520E+02  0.47000000000E+01 0.  1.
         -5    1    1    2    0  502  0.19396982479E+01  0.41212655761E+02 -0.70864735271E+02  0.82134926366E+02  0.47000000000E+01 0.  1.
        -11    1    3    3    0    0 -0.51492722668E+02 -0.18852329878E+02  0.23341993237E+02  0.59596639820E+02  0.00000000000E+00 0.  1.
         11    1    3    3    0    0 -0.33855547512E+02 -0.48447296444E+02 -0.70782719747E+02  0.92214597786E+02  0.00000000000E+00 0. -1.
<mgrwt>
<rscale>  0 0.16000561E+03</rscale>
<asrwt>0</asrwt>
<pdfrwt beam="2">  1        4 0.32309790E-01 0.16564698E+03</pdfrwt>
<pdfrwt beam="1">  1       -4 0.17588838E-01 0.16564698E+03</pdfrwt>
<totfact> 0.45179057E+02</totfact>
</mgrwt>
</event>
<event>
 7    1  0.1111284E-005  0.1251398E+03  0.7546771E-02  0.1250952E+00
          2   -1    0    0  501    0  0.00000000000E+00  0.00000000000E+00  0.42730435408E+03  0.42730435408E+03  0.00000000000E+00 0.  1.
         -2   -1    0    0    0  501 -0.00000000000E+00 -0.00000000000E+00 -0.28843189786E+02  0.28843189786E+02  0.00000000000E+00 0. -1.
         23    2    1    2    0    0  0.25133521295E+01  0.52076223032E+01  0.22313538649E+03  0.24074307068E+03  0.90190848258E+02 0.  0.
          5    1    1    2  502    0 -0.60118574807E+01  0.48178811628E+02  0.14659056881E+03  0.15449344706E+03  0.47000000000E+01 0. -1.
         -5    1    1    2    0  502  0.34985053512E+01 -0.53386433931E+02  0.28735208997E+02  0.60911026126E+02  0.47000000000E+01 0. -1.
        -11    1    3    3    0    0  0.35584407471E+02 -0.12876155765E+01  0.36139693190E+02  0.50734460012E+02  0.00000000000E+00 0. -1.
         11    1    3    3    0    0 -0.33071055341E+02  0.64952378797E+01  0.18699569330E+03  0.19000861067E+03  0.00000000000E+00 0.  1.
<mgrwt>
<rscale>  0 0.11536121E+03</rscale>
<asrwt>0</asrwt>
<pdfrwt beam="1">  1        2 0.65739127E-01 0.12513976E+03</pdfrwt>
<pdfrwt beam="2">  1       -2 0.44374141E-02 0.12513976E+03</pdfrwt>
<totfact> 0.16304613E+04</totfact>
</mgrwt>
</event>
<event>
 7    1  0.1111284E-005  0.1596823E+03  0.7546771E-02  0.1206401E+00
         -1   -1    0    0    0  501 -0.00000000000E+00  0.00000000000E+00  0.28684476317E+02  0.28684476317E+02  0.00000000000E+00 0.  1.
          1   -1    0    0  501    0  0.00000000000E+00 -0.00000000000E+00 -0.63735672212E+03  0.63735672212E+03  0.00000000000E+00 0. -1.
         23    2    1    2    0    0 -0.17312932033E+01  0.58095207822E+02 -0.28062244089E+03  0.30119175587E+03  0.92679387813E+02 0.  0.
          5    1    1    2  502    0  0.58065326842E+02 -0.72481059591E+02 -0.25462778706E+03  0.27107653186E+03  0.47000000000E+01 0. -1.
         -5    1    1    2    0  502 -0.56334033639E+02  0.14385851769E+02 -0.73422017851E+02  0.93772910707E+02  0.47000000000E+01 0.  1.
        -11    1    3    3    0    0 -0.35506137184E+02 -0.62198758177E+01 -0.10976260058E+03  0.11553008750E+03  0.00000000000E+00 0. -1.
         11    1    3    3    0    0  0.33774843981E+02  0.64315083639E+02 -0.17085984031E+03  0.18566166837E+03  0.00000000000E+00 0.  1.
<mgrwt>
<rscale>  0 0.14527575E+03</rscale>
<asrwt>0</asrwt>
<pdfrwt beam="2">  1        1 0.98054865E-01 0.15968231E+03</pdfrwt>
<pdfrwt beam="1">  1       -1 0.44129970E-02 0.15968231E+03</pdfrwt>
<totfact> 0.66613940E+03</totfact>
</mgrwt>
</event>
<event>
 7    1  0.1111284E-005  0.3967824E+03  0.7546771E-02  0.1085777E+00
         -1   -1    0    0    0  501 -0.00000000000E+00  0.00000000000E+00  0.10267081786E+03  0.10267081786E+03  0.00000000000E+00 0.  1.
          1   -1    0    0  501    0  0.00000000000E+00 -0.00000000000E+00 -0.72332553254E+03  0.72332553254E+03  0.00000000000E+00 0. -1.
         23    2    1    2    0    0  0.43899348834E+02 -0.79578253357E+02 -0.26033450803E+03  0.29002345564E+03  0.89887137628E+02 0.  0.
          5    1    1    2  502    0 -0.16761350150E+03  0.79173547559E+02 -0.36784512177E+03  0.41194035991E+03  0.47000000000E+01 0. -1.
         -5    1    1    2    0  502  0.12371415266E+03  0.40470579849E+00  0.75249151178E+01  0.12403253486E+03  0.47000000000E+01 0.  1.
        -11    1    3    3    0    0  0.31655018719E+02 -0.33248785323E+01 -0.16143015248E+03  0.16453810853E+03  0.00000000000E+00 0.  1.
         11    1    3    3    0    0  0.12244330115E+02 -0.76253374825E+02 -0.98904355551E+02  0.12548534711E+03  0.00000000000E+00 0. -1.
<mgrwt>
<rscale>  0 0.29892988E+03</rscale>
<asrwt>0</asrwt>
<pdfrwt beam="2">  1        1 0.11128085E+00 0.39678242E+03</pdfrwt>
<pdfrwt beam="1">  1       -1 0.15795511E-01 0.39678242E+03</pdfrwt>
<totfact> 0.79367669E+02</totfact>
</mgrwt>
</event>
<event>
 7    1  0.1111284E-005  0.1512601E+03  0.7546771E-02  0.1211529E+00
         -1   -1    0    0    0  501 -0.00000000000E+00  0.00000000000E+00  0.20044924486E+03  0.20044924486E+03  0.00000000000E+00 0.  1.
          1   -1    0    0  501    0  0.00000000000E+00 -0.00000000000E+00 -0.19464890879E+03  0.19464890879E+03  0.00000000000E+00 0. -1.
         23    2    1    2    0    0  0.48652508259E+01 -0.68270878363E+02 -0.14245964290E+03  0.18329481712E+03  0.92831334305E+02 0.  0.
          5    1    1    2  502    0  0.58162328118E+02  0.97858467613E+01  0.32429921615E+02  0.67471542334E+02  0.47000000000E+01 0. -1.
         -5    1    1    2    0  502 -0.63027578944E+02  0.58485031602E+02  0.11583005736E+03  0.14433179420E+03  0.47000000000E+01 0.  1.
        -11    1    3    3    0    0  0.17568783385E+01 -0.27690294126E+02 -0.13978010204E+03  0.14250724872E+03  0.00000000000E+00 0. -1.
         11    1    3    3    0    0  0.31083724874E+01 -0.40580584236E+02 -0.26795408547E+01  0.40787568396E+02  0.00000000000E+00 0.  1.
<mgrwt>
<rscale>  0 0.14134615E+03</rscale>
<asrwt>0</asrwt>
<pdfrwt beam="2">  1        1 0.29945986E-01 0.15126015E+03</pdfrwt>
<pdfrwt beam="1">  1       -1 0.30838345E-01 0.15126015E+03</pdfrwt>
<totfact> 0.14583957E+03</totfact>
</mgrwt>
</event>
<event>
 7    1  0.1482750E-005  0.1805285E+03  0.7546771E-02  0.1172024E+00
          2   -1    0    0  501    0  0.00000000000E+00  0.00000000000E+00  0.55796971850E+03  0.55796971850E+03  0.00000000000E+00 0. -1.
         -2   -1    0    0    0  501 -0.00000000000E+00 -0.00000000000E+00 -0.54711865889E+02  0.54711865889E+02  0.00000000000E+00 0.  1.
         23    2    1    2    0    0 -0.11608969749E+03  0.59060488808E+02  0.29910059497E+03  0.34015502043E+03  0.96329189809E+02 0.  0.
          5    1    1    2  502    0  0.86859923167E+01  0.35180584523E+02  0.30542307806E+02  0.47623970393E+02  0.47000000000E+01 0. -1.
         -5    1    1    2    0  502  0.10740370517E+03 -0.94241073331E+02  0.17361494983E+03  0.22490259356E+03  0.47000000000E+01 0. -1.
        -11    1    3    3    0    0 -0.24078312399E+02  0.62406701439E+02  0.15912452970E+03  0.17261221702E+03  0.00000000000E+00 0.  1.
         11    1    3    3    0    0 -0.92011385090E+02 -0.33462126304E+01  0.13997606527E+03  0.16754280341E+03  0.00000000000E+00 0. -1.
<mgrwt>
<rscale>  0 0.17570684E+03</rscale>
<asrwt>0</asrwt>
<pdfrwt beam="1">  1        2 0.85841491E-01 0.18052851E+03</pdfrwt>
<pdfrwt beam="2">  1       -2 0.84172105E-02 0.18052851E+03</pdfrwt>
<totfact> 0.46949973E+03</totfact>
</mgrwt>
</event>
<event>
 7    1  0.1111284E-005  0.2282849E+03  0.7546771E-02  0.1127853E+00
         -1   -1    0    0    0  501 -0.00000000000E+00  0.00000000000E+00  0.72334572922E+02  0.72334572922E+02  0.00000000000E+00 0.  1.
          1   -1    0    0  501    0  0.00000000000E+00 -0.00000000000E+00 -0.18011440634E+03  0.18011440634E+03  0.00000000000E+00 0. -1.
         23    2    1    2    0    0  0.80590697235E+01 -0.16306554238E+02 -0.81229960246E+02  0.12337658741E+03  0.91063843338E+02 0.  0.
          5    1    1    2  502    0  0.54885035821E+01  0.40049583914E+02  0.39944923611E+02  0.57024378695E+02  0.47000000000E+01 0.  1.
         -5    1    1    2    0  502 -0.13547573306E+02 -0.23743029676E+02 -0.66494796787E+02  0.72048013161E+02  0.47000000000E+01 0.  1.
        -11    1    3    3    0    0 -0.15085409611E+02  0.10500461297E+02 -0.85728012533E+02  0.87676230550E+02  0.00000000000E+00 0. -1.
         11    1    3    3    0    0  0.23144479335E+02 -0.26807015534E+02  0.44980522872E+01  0.35700356860E+02  0.00000000000E+00 0.  1.
<mgrwt>
<rscale>  0 0.22828490E+03</rscale>
<asrwt>0</asrwt>
<pdfrwt beam="2">  1        1 0.27709908E-01 0.22828490E+03</pdfrwt>
<pdfrwt beam="1">  1       -1 0.11128396E-01 0.22828490E+03</pdfrwt>
<totfact> 0.84707151E+03</totfact>
</mgrwt>
</event>
<event>
 7    1  0.1111284E-005  0.1470418E+03  0.7546771E-02  0.1212802E+00
         -2   -1    0    0    0  501 -0.00000000000E+00  0.00000000000E+00  0.12047416958E+03  0.12047416958E+03  0.00000000000E+00 0.  1.
          2   -1    0    0  501    0  0.00000000000E+00 -0.00000000000E+00 -0.15393482637E+03  0.15393482637E+03  0.00000000000E+00 0. -1.
         23    2    1    2    0    0 -0.55836443607E+02  0.53661338274E+02 -0.35862834232E+02  0.12734756820E+03  0.94519905775E+02 0.  0.
          5    1    1    2  502    0  0.44067051026E+02 -0.56469895363E+02  0.56548130373E+02  0.91381262396E+02  0.47000000000E+01 0. -1.
         -5    1    1    2    0  502  0.11769392581E+02  0.28085570894E+01 -0.54145952934E+02  0.55680165353E+02  0.47000000000E+01 0. -1.
        -11    1    3    3    0    0  0.22239228943E+02 -0.66159469538E+01 -0.10707131283E+02  0.25553800468E+02  0.00000000000E+00 0. -1.
         11    1    3    3    0    0 -0.78075672550E+02  0.60277285228E+02 -0.25155702949E+02  0.10179376773E+03  0.00000000000E+00 0.  1.
<mgrwt>
<rscale>  0 0.14039210E+03</rscale>
<asrwt>0</asrwt>
<pdfrwt beam="2">  1        2 0.23682281E-01 0.14704181E+03</pdfrwt>
<pdfrwt beam="1">  1       -2 0.18534488E-01 0.14704181E+03</pdfrwt>
<totfact> 0.52528955E+03</totfact>
</mgrwt>
</event>
<event>
 7    1  0.1111284E-005  0.1467687E+03  0.7546771E-02  0.1215320E+00
         -2   -1    0    0    0  501 -0.00000000000E+00  0.00000000000E+00  0.16002023202E+03  0.16002023202E+03  0.00000000000E+00 0.  1.
          2   -1    0    0  501    0  0.00000000000E+00 -0.00000000000E+00 -0.11556979139E+03  0.11556979139E+03  0.00000000000E+00 0. -1.
         23    2    1    2    0    0 -0.70247720356E+02 -0.31315535614E+02 -0.14576743021E+02  0.11739632110E+03  0.87487197827E+02 0.  0.
          5    1    1    2  502    0  0.10043412026E+03  0.47243618294E+02  0.53494210214E+02  0.12329919914E+03  0.47000000000E+01 0. -1.
         -5    1    1    2    0  502 -0.30186399905E+02 -0.15928082680E+02  0.55329734411E+01  0.34894503180E+02  0.47000000000E+01 0. -1.
        -11    1    3    3    0    0 -0.47620371183E+02  0.23725149298E+02 -0.21705623037E+02  0.57460565019E+02  0.00000000000E+00 0.  1.
         11    1    3    3    0    0 -0.22627349173E+02 -0.55040684912E+02  0.71288800168E+01  0.59935756077E+02  0.00000000000E+00 0. -1.
<mgrwt>
<rscale>  0 0.13853041E+03</rscale>
<asrwt>0</asrwt>
<pdfrwt beam="2">  1        2 0.17779968E-01 0.14676866E+03</pdfrwt>
<pdfrwt beam="1">  1       -2 0.24618497E-01 0.14676866E+03</pdfrwt>
<totfact> 0.44681438E+03</totfact>
</mgrwt>
</event>
<event>
 7    1  0.1111284E-005  0.2401879E+03  0.7546771E-02  0.1122359E+00
         -1   -1    0    0    0  501 -0.00000000000E+00  0.00000000000E+00  0.27808481833E+02  0.27808481833E+02  0.00000000000E+00 0.  1.
          1   -1    0    0  501    0  0.00000000000E+00 -0.00000000000E+00 -0.19813296553E+04  0.19813296553E+04  0.00000000000E+00 0. -1.
         23    2    1    2    0    0 -0.97088286581E+00 -0.20509356976E+03 -0.80305103725E+03  0.83386294772E+03  0.91499356208E+02 0.  0.
          5    1    1    2  502    0 -0.59908623978E+02  0.10902969310E+03 -0.67363808084E+03  0.68504515994E+03  0.47000000000E+01 0. -1.
         -5    1    1    2    0  502  0.60879506844E+02  0.96063876666E+02 -0.47683205534E+03  0.49023002943E+03  0.47000000000E+01 0. -1.
        -11    1    3    3    0    0  0.44591367106E+02 -0.83083121054E+02 -0.34572770705E+03  0.35835574845E+03  0.00000000000E+00 0. -1.
         11    1    3    3    0    0 -0.45562249972E+02 -0.12201044871E+03 -0.45732333020E+03  0.47550719927E+03  0.00000000000E+00 0.  1.
<mgrwt>
<rscale>  0 0.23618724E+03</rscale>
<asrwt>0</asrwt>
<pdfrwt beam="2">  1        1 0.30482000E+00 0.24018792E+03</pdfrwt>
<pdfrwt beam="1">  1       -1 0.42782272E-02 0.24018792E+03</pdfrwt>
<totfact> 0.77407591E+02</totfact>
</mgrwt>
</event>
<event>
 7    1  0.1111284E-005  0.1287203E+03  0.7546771E-02  0.1243514E+00
         -1   -1    0    0    0  501 -0.00000000000E+00  0.00000000000E+00  0.51038826551E+03  0.51038826551E+03  0.00000000000E+00 0.  1.
          1   -1    0    0  501    0  0.00000000000E+00 -0.00000000000E+00 -0.41155083821E+02  0.41155083821E+02  0.00000000000E+00 0. -1.
         23    2    1    2    0    0 -0.15500717334E+02  0.26523846975E+02  0.41680492706E+02  0.10503442351E+03  0.91384790602E+02 0.  0.
          5    1    1    2  502    0 -0.41263274101E+01  0.38963887966E+02  0.54920782641E+02  0.67628348414E+02  0.47000000000E+01 0. -1.
         -5    1    1    2    0  502  0.19627044744E+02 -0.65487734941E+02  0.37263190634E+03  0.37888057741E+03  0.47000000000E+01 0. -1.
        -11    1    3    3    0    0 -0.11845512393E+02  0.60417209296E+02  0.20454098757E+02  0.64876232157E+02  0.00000000000E+00 0. -1.
         11    1    3    3    0    0 -0.36552049411E+01 -0.33893362321E+02  0.21226393949E+02  0.40158191352E+02  0.00000000000E+00 0.  1.
<mgrwt>
<rscale>  0 0.11974746E+03</rscale>
<asrwt>0</asrwt>
<pdfrwt beam="2">  1        1 0.63315517E-02 0.12872031E+03</pdfrwt>
<pdfrwt beam="1">  1       -1 0.78521267E-01 0.12872031E+03</pdfrwt>
<totfact> 0.19717434E+03</totfact>
</mgrwt>
</event>
<event>
 7    1  0.1111284E-005  0.1972497E+03  0.7546771E-02  0.1156522E+00
         -1   -1    0    0    0  501 -0.00000000000E+00  0.00000000000E+00  0.36227766639E+02  0.36227766639E+02  0.00000000000E+00 0.  1.
          1   -1    0    0  501    0  0.00000000000E+00 -0.00000000000E+00 -0.97599787947E+03  0.97599787947E+03  0.00000000000E+00 0. -1.
         23    2    1    2    0    0  0.11030370238E+03 -0.10542856370E+03 -0.48480207357E+03  0.51633918801E+03  0.91055025906E+02 0.  0.
          5    1    1    2  502    0  0.15995902817E+02  0.43695518529E+02 -0.19255218996E+03  0.19815045573E+03  0.47000000000E+01 0. -1.
         -5    1    1    2    0  502 -0.12629960520E+03  0.61733045170E+02 -0.26241584930E+03  0.29773600236E+03  0.47000000000E+01 0. -1.
        -11    1    3    3    0    0  0.18387494907E+02 -0.74582538561E+02 -0.26910666989E+03  0.27985541769E+03  0.00000000000E+00 0.  1.
         11    1    3    3    0    0  0.91916207473E+02 -0.30846025138E+02 -0.21569540367E+03  0.23648377033E+03  0.00000000000E+00 0. -1.
<mgrwt>
<rscale>  0 0.19216620E+03</rscale>
<asrwt>0</asrwt>
<pdfrwt beam="2">  1        1 0.15015351E+00 0.19724975E+03</pdfrwt>
<pdfrwt beam="1">  1       -1 0.55735031E-02 0.19724975E+03</pdfrwt>
<totfact> 0.24780300E+03</totfact>
</mgrwt>
</event>
<event>
 6    1  0.1111284E-005  0.2882056E+03  0.7546771E-02  0.1091290E+00
         -1   -1    0    0    0  501 -0.00000000000E+00  0.00000000000E+00  0.64808556886E+02  0.64808556886E+02  0.00000000000E+00 0.  1.
          1   -1    0    0  501    0  0.00000000000E+00 -0.00000000000E+00 -0.32041468967E+03  0.32041468967E+03  0.00000000000E+00 0. -1.
          5    1    1    2  502    0 -0.69311620233E+02 -0.13126848605E+02 -0.84352202165E+02  0.11006270424E+03  0.47000000000E+01 0. -1.
         -5    1    1    2    0  502  0.32574098162E+02  0.15141479834E+02  0.13011074793E+02  0.38493042876E+02  0.47000000000E+01 0. -1.
        -11    1    1    2    0    0 -0.20163735139E+02 -0.55283499355E+02 -0.35512788797E+02  0.68731358810E+02  0.00000000000E+00 0.  1.
         11    1    1    2    0    0  0.56901257210E+02  0.53268868126E+02 -0.14875221661E+03  0.16793614063E+03  0.00000000000E+00 0. -1.
<mgrwt>
<rscale>  0 0.28820558E+03</rscale>
<asrwt>0</asrwt>
<pdfrwt beam="2">  1        1 0.49294566E-01 0.28820558E+03</pdfrwt>
<pdfrwt beam="1">  1       -1 0.99705475E-02 0.28820558E+03</pdfrwt>
<totfact> 0.49139094E+03</totfact>
</mgrwt>
</event>
<event>
 7    1  0.1111284E-005  0.1276008E+03  0.7546771E-02  0.1245819E+00
          1   -1    0    0  501    0  0.00000000000E+00  0.00000000000E+00  0.78302729502E+02  0.78302729502E+02  0.00000000000E+00 0. -1.
         -1   -1    0    0    0  501 -0.00000000000E+00 -0.00000000000E+00 -0.18538213294E+03  0.18538213294E+03  0.00000000000E+00 0.  1.
         23    2    1    2    0    0 -0.15526984110E+02 -0.20375607548E+02  0.39231044600E+01  0.94559103959E+02  0.90938335010E+02 0.  0.
          5    1    1    2  502    0  0.41013048689E+02 -0.19909159875E+02 -0.11221073329E+03  0.12120966742E+03  0.47000000000E+01 0. -1.
         -5    1    1    2    0  502 -0.25486064579E+02  0.40284767423E+02  0.12082253965E+01  0.47916091062E+02  0.47000000000E+01 0. -1.
        -11    1    3    3    0    0 -0.25634359030E+02 -0.67326194015E+01 -0.39708000925E+02  0.47740694007E+02  0.00000000000E+00 0.  1.
         11    1    3    3    0    0  0.10107374919E+02 -0.13642988147E+02  0.43631105385E+02  0.46818409952E+02  0.00000000000E+00 0. -1.
<mgrwt>
<rscale>  0 0.11836475E+03</rscale>
<asrwt>0</asrwt>
<pdfrwt beam="1">  1        1 0.12046574E-01 0.12760080E+03</pdfrwt>
<pdfrwt beam="2">  1       -1 0.28520328E-01 0.12760080E+03</pdfrwt>
<totfact> 0.52767308E+03</totfact>
</mgrwt>
</event>
<event>
 7    1  0.1111284E-005  0.1778739E+03  0.7546771E-02  0.1175762E+00
         -2   -1    0    0    0  501 -0.00000000000E+00  0.00000000000E+00  0.10960829509E+03  0.10960829509E+03  0.00000000000E+00 0.  1.
          2   -1    0    0  501    0  0.00000000000E+00 -0.00000000000E+00 -0.26896171677E+03  0.26896171677E+03  0.00000000000E+00 0. -1.
         23    2    1    2    0    0 -0.81143769462E+02  0.97111485609E+02 -0.11979232253E+03  0.19634978691E+03  0.90488045186E+02 0.  0.
          5    1    1    2  502    0 -0.69398894637E+00 -0.38841737760E+02 -0.67337857495E+02  0.77882214047E+02  0.47000000000E+01 0.  1.
         -5    1    1    2    0  502  0.81837758408E+02 -0.58269747849E+02  0.27776758351E+02  0.10433801091E+03  0.47000000000E+01 0.  1.
        -11    1    3    3    0    0 -0.32072082290E+02  0.78043625548E+02 -0.25141278414E+02  0.88042659157E+02  0.00000000000E+00 0.  1.
         11    1    3    3    0    0 -0.49071687172E+02  0.19067860061E+02 -0.94651044116E+02  0.10830712775E+03  0.00000000000E+00 0. -1.
<mgrwt>
<rscale>  0 0.17201564E+03</rscale>
<asrwt>0</asrwt>
<pdfrwt beam="2">  1        2 0.41378726E-01 0.17787392E+03</pdfrwt>
<pdfrwt beam="1">  1       -2 0.16862815E-01 0.17787392E+03</pdfrwt>
<totfact> 0.33875553E+03</totfact>
</mgrwt>
</event>
<event>
 7    1  0.1111284E-005  0.3360340E+03  0.7546771E-02  0.1069713E+00
         -2   -1    0    0    0  501 -0.00000000000E+00  0.00000000000E+00  0.62712995257E+02  0.62712995257E+02  0.00000000000E+00 0. -1.
          2   -1    0    0  501    0  0.00000000000E+00 -0.00000000000E+00 -0.21678082983E+04  0.21678082983E+04  0.00000000000E+00 0.  1.
         23    2    1    2    0    0  0.31192528662E+03  0.77110182290E+00 -0.15327099110E+04  0.15667864742E+04  0.91226121486E+02 0.  0.
          5    1    1    2  502    0 -0.11366831334E+03 -0.54408084593E+02 -0.27206883208E+03  0.29987374762E+03  0.47000000000E+01 0. -1.
         -5    1    1    2    0  502 -0.19825697328E+03  0.53636982770E+02 -0.30031655996E+03  0.36386107179E+03  0.47000000000E+01 0. -1.
        -11    1    3    3    0    0  0.48185437509E+02  0.77408357047E+01 -0.11814314710E+03  0.12782628890E+03  0.00000000000E+00 0. -1.
         11    1    3    3    0    0  0.26373984911E+03 -0.69697338818E+01 -0.14145667639E+04  0.14389601853E+04  0.00000000000E+00 0.  1.
<mgrwt>
<rscale>  0 0.33323900E+03</rscale>
<asrwt>0</asrwt>
<pdfrwt beam="2">  1        2 0.33350901E+00 0.33603404E+03</pdfrwt>
<pdfrwt beam="1">  1       -2 0.96481520E-02 0.33603404E+03</pdfrwt>
<totfact> 0.42137035E+02</totfact>
</mgrwt>
</event>
<event>
 7    1  0.1111284E-005  0.2233378E+03  0.7546771E-02  0.1134613E+00
         -2   -1    0    0    0  501 -0.00000000000E+00  0.00000000000E+00  0.69665025834E+02  0.69665025834E+02  0.00000000000E+00 0. -1.
          2   -1    0    0  501    0  0.00000000000E+00 -0.00000000000E+00 -0.82993921690E+03  0.82993921690E+03  0.00000000000E+00 0.  1.
         23    2    1    2    0    0 -0.10245523617E+02  0.18479231242E+03 -0.56974281470E+03  0.60603658337E+03  0.91762170805E+02 0.  0.
          5    1    1    2  502    0  0.54334112156E+02 -0.34219019629E+02 -0.38339709933E+02  0.74934373994E+02  0.47000000000E+01 0.  1.
         -5    1    1    2    0  502 -0.44088588538E+02 -0.15057329279E+03 -0.15219166643E+03  0.21863328537E+03  0.47000000000E+01 0.  1.
        -11    1    3    3    0    0 -0.65998985010E+01  0.12715721773E+03 -0.49756680703E+03  0.51360027661E+03  0.00000000000E+00 0.  1.
         11    1    3    3    0    0 -0.36456251163E+01  0.57635094692E+02 -0.72176007673E+02  0.92436306754E+02  0.00000000000E+00 0. -1.
<mgrwt>
<rscale>  0 0.21902384E+03</rscale>
<asrwt>0</asrwt>
<pdfrwt beam="2">  1        2 0.12768296E+00 0.22333778E+03</pdfrwt>
<pdfrwt beam="1">  1       -2 0.10717696E-01 0.22333778E+03</pdfrwt>
<totfact> 0.20020237E+03</totfact>
</mgrwt>
</event>
<event>
 6    1  0.1111284E-005  0.1270322E+03  0.7546771E-02  0.1294690E+00
          1   -1    0    0  501    0  0.00000000000E+00  0.00000000000E+00  0.28853074274E+03  0.28853074274E+03  0.00000000000E+00 0. -1.
         -1   -1    0    0    0  501 -0.00000000000E+00 -0.00000000000E+00 -0.43184169315E+02  0.43184169315E+02  0.00000000000E+00 0.  1.
          5    1    1    2  502    0  0.53990410782E+02 -0.14873552348E+02  0.33303826837E+02  0.65325507253E+02  0.47000000000E+01 0.  1.
         -5    1    1    2    0  502 -0.59199261025E+02  0.36916051229E+02  0.22837740433E+02  0.73559497908E+02  0.47000000000E+01 0.  1.
        -11    1    1    2    0    0  0.15640986420E+02 -0.37629887061E+01  0.75786926004E+02  0.77475536096E+02  0.00000000000E+00 0.  1.
         11    1    1    2    0    0 -0.10432136177E+02 -0.18279510176E+02  0.11341808015E+03  0.11535437080E+03  0.00000000000E+00 0. -1.
<mgrwt>
<rscale>  0 0.93456638E+02</rscale>
<asrwt>0</asrwt>
<pdfrwt beam="1">  1        1 0.44389344E-01 0.12703216E+03</pdfrwt>
<pdfrwt beam="2">  1       -1 0.66437185E-02 0.12703216E+03</pdfrwt>
<totfact> 0.99112962E+03</totfact>
</mgrwt>
</event>
<event>
 7    1  0.1111284E-005  0.1530422E+03  0.7546771E-02  0.1206463E+00
          1   -1    0    0  501    0  0.00000000000E+00  0.00000000000E+00  0.37780605193E+03  0.37780605193E+03  0.00000000000E+00 0. -1.
         -1   -1    0    0    0  501 -0.00000000000E+00 -0.00000000000E+00 -0.51580904002E+02  0.51580904002E+02  0.00000000000E+00 0.  1.
         23    2    1    2    0    0 -0.56100435563E+02  0.68211222590E+02  0.12046844938E+03  0.17295425877E+03  0.87180838333E+02 0.  0.
          5    1    1    2  502    0  0.31497870685E+02 -0.24237196586E+02  0.20173450028E+03  0.20566588477E+03  0.47000000000E+01 0.  1.
         -5    1    1    2    0  502  0.24602564879E+02 -0.43974026004E+02  0.40221982685E+01  0.50766812392E+02  0.47000000000E+01 0.  1.
        -11    1    3    3    0    0 -0.38341058667E+02  0.63581764678E+02  0.29076603481E+02  0.79737860827E+02  0.00000000000E+00 0. -1.
         11    1    3    3    0    0 -0.17759376897E+02  0.46294579122E+01  0.91391845900E+02  0.93216397942E+02  0.00000000000E+00 0.  1.
<mgrwt>
<rscale>  0 0.14522799E+03</rscale>
<asrwt>0</asrwt>
<pdfrwt beam="1">  1        1 0.58124006E-01 0.15304218E+03</pdfrwt>
<pdfrwt beam="2">  1       -1 0.79355239E-02 0.15304218E+03</pdfrwt>
<totfact> 0.54923396E+03</totfact>
</mgrwt>
</event>
<event>
 7    1  0.1111284E-005  0.1288660E+03  0.7546771E-02  0.1242990E+00
          3   -1    0    0  501    0  0.00000000000E+00  0.00000000000E+00  0.15540101067E+02  0.15540101067E+02  0.00000000000E+00 0. -1.
         -3   -1    0    0    0  501 -0.00000000000E+00 -0.00000000000E+00 -0.82772445402E+03  0.82772445402E+03  0.00000000000E+00 0.  1.
         23    2    1    2    0    0  0.28496529779E+02 -0.12996291033E+02 -0.31317734560E+03  0.32788660552E+03  0.91916377721E+02 0.  0.
          5    1    1    2  502    0  0.18733559796E+02  0.46764374237E+02 -0.99281555688E+02  0.11143056250E+03  0.47000000000E+01 0.  1.
         -5    1    1    2    0  502 -0.47230089575E+02 -0.33768083204E+02 -0.39972545167E+03  0.40394738706E+03  0.47000000000E+01 0.  1.
        -11    1    3    3    0    0  0.60881207225E+02  0.10689539617E+01 -0.17587794867E+03  0.18612016786E+03  0.00000000000E+00 0. -1.
         11    1    3    3    0    0 -0.32384677445E+02 -0.14065244995E+02 -0.13729939693E+03  0.14176643766E+03  0.00000000000E+00 0.  1.
<mgrwt>
<rscale>  0 0.12006466E+03</rscale>
<asrwt>0</asrwt>
<pdfrwt beam="1">  1        3 0.23907838E-02 0.12886597E+03</pdfrwt>
<pdfrwt beam="2">  1       -3 0.12734228E+00 0.12886597E+03</pdfrwt>
<totfact> 0.85252725E+02</totfact>
</mgrwt>
</event>
<event>
 7    1  0.1111284E-005  0.1342751E+03  0.7546771E-02  0.1230764E+00
          2   -1    0    0  501    0  0.00000000000E+00  0.00000000000E+00  0.82436745585E+02  0.82436745585E+02  0.00000000000E+00 0. -1.
         -2   -1    0    0    0  501 -0.00000000000E+00 -0.00000000000E+00 -0.25234565403E+03  0.25234565403E+03  0.00000000000E+00 0.  1.
         23    2    1    2    0    0  0.45051577602E+02 -0.19452539728E+02  0.96224039685E+01  0.11059207656E+03  0.98640614320E+02 0.  0.
          5    1    1    2  502    0 -0.59195879966E+02 -0.34461051102E+02 -0.56050815242E+02  0.88631259369E+02  0.47000000000E+01 0. -1.
         -5    1    1    2    0  502  0.14144302364E+02  0.53913590830E+02 -0.12348049717E+03  0.13555906368E+03  0.47000000000E+01 0. -1.
        -11    1    3    3    0    0  0.40259072190E+02  0.30874818388E+02 -0.16933900169E+02  0.53486486882E+02  0.00000000000E+00 0. -1.
         11    1    3    3    0    0  0.47925054123E+01 -0.50327358116E+02  0.26556304137E+02  0.57105589678E+02  0.00000000000E+00 0.  1.
<mgrwt>
<rscale>  0 0.12779538E+03</rscale>
<asrwt>0</asrwt>
<pdfrwt beam="1">  1        2 0.12682576E-01 0.13427512E+03</pdfrwt>
<pdfrwt beam="2">  1       -2 0.38822408E-01 0.13427512E+03</pdfrwt>
<totfact> 0.28956344E+03</totfact>
</mgrwt>
</event>
<event>
 7    1  0.1111284E-005  0.1446635E+03  0.7546771E-02  0.1217402E+00
         -2   -1    0    0    0  501 -0.00000000000E+00  0.00000000000E+00  0.55985887679E+02  0.55985887679E+02  0.00000000000E+00 0.  1.
          2   -1    0    0  501    0  0.00000000000E+00 -0.00000000000E+00 -0.34107535603E+03  0.34107535603E+03  0.00000000000E+00 0. -1.
         23    2    1    2    0    0 -0.58069418117E+02  0.43990958497E+02 -0.19356724943E+03  0.22587760338E+03  0.90802807816E+02 0.  0.
          5    1    1    2  502    0 -0.13192819206E+02 -0.59154742295E+02 -0.97593849145E+01  0.61568414049E+02  0.47000000000E+01 0.  1.
         -5    1    1    2    0  502  0.71262237323E+02  0.15163783797E+02 -0.81762834001E+02  0.10961522627E+03  0.47000000000E+01 0.  1.
        -11    1    3    3    0    0 -0.20950723797E+02  0.30011480390E+02 -0.98160407859E+01  0.37894279774E+02  0.00000000000E+00 0.  1.
         11    1    3    3    0    0 -0.37118694320E+02  0.13979478107E+02 -0.18375120865E+03  0.18798332361E+03  0.00000000000E+00 0. -1.
<mgrwt>
<rscale>  0 0.13701599E+03</rscale>
<asrwt>0</asrwt>
<pdfrwt beam="2">  1        2 0.52473132E-01 0.14466348E+03</pdfrwt>
<pdfrwt beam="1">  1       -2 0.86132134E-02 0.14466348E+03</pdfrwt>
<totfact> 0.76500954E+03</totfact>
</mgrwt>
</event>
<event>
 7    1  0.1111284E-005  0.2243914E+03  0.7546771E-02  0.1130651E+00
          1   -1    0    0  501    0  0.00000000000E+00  0.00000000000E+00  0.25532974775E+02  0.25532974775E+02  0.00000000000E+00 0. -1.
         -1   -1    0    0    0  501 -0.00000000000E+00 -0.00000000000E+00 -0.49300474561E+03  0.49300474561E+03  0.00000000000E+00 0.  1.
         23    2    1    2    0    0 -0.51629936013E+02 -0.93802119228E+01 -0.18340632291E+03  0.20377890496E+03  0.71654198460E+02 0.  0.
          5    1    1    2  502    0 -0.24151440953E+02  0.28517487109E+02 -0.27842409780E+02  0.46838327825E+02  0.47000000000E+01 0.  1.
         -5    1    1    2    0  502  0.75781376966E+02 -0.19137275186E+02 -0.25622303815E+03  0.26792048760E+03  0.47000000000E+01 0.  1.
        -11    1    3    3    0    0  0.85018916505E+01 -0.14142978708E+02 -0.80946470303E+01  0.18380133811E+02  0.00000000000E+00 0. -1.
         11    1    3    3    0    0 -0.60131827664E+02  0.47627667856E+01 -0.17531167588E+03  0.18539877115E+03  0.00000000000E+00 0.  1.
<mgrwt>
<rscale>  0 0.22439142E+03</rscale>
<asrwt>0</asrwt>
<pdfrwt beam="1">  1        1 0.39281500E-02 0.22439142E+03</pdfrwt>
<pdfrwt beam="2">  1       -1 0.75846883E-01 0.22439142E+03</pdfrwt>
<totfact> 0.41943286E+03</totfact>
</mgrwt>
</event>
<event>
 7    1  0.1111284E-005  0.1282209E+03  0.7546771E-02  0.1244753E+00
          3   -1    0    0  501    0  0.00000000000E+00  0.00000000000E+00  0.93140453039E+03  0.93140453039E+03  0.00000000000E+00 0. -1.
         -3   -1    0    0    0  501 -0.00000000000E+00 -0.00000000000E+00 -0.14146179694E+02  0.14146179694E+02  0.00000000000E+00 0.  1.
         23    2    1    2    0    0  0.52323706060E+01 -0.28081652703E+02  0.50245590018E+03  0.51138290321E+03  0.90744614968E+02 0.  0.
          5    1    1    2  502    0 -0.38768010554E+02 -0.23855492966E+02  0.68635778841E+02  0.82492444043E+02  0.47000000000E+01 0.  1.
         -5    1    1    2    0  502  0.33535639948E+02  0.51937145669E+02  0.34616667167E+03  0.35167536283E+03  0.47000000000E+01 0.  1.
        -11    1    3    3    0    0 -0.54781672555E+01  0.32680115352E+02  0.15669374717E+03  0.16015907923E+03  0.00000000000E+00 0.  1.
         11    1    3    3    0    0  0.10710537862E+02 -0.60761768055E+02  0.34576215301E+03  0.35122382398E+03  0.00000000000E+00 0. -1.
<mgrwt>
<rscale>  0 0.11900181E+03</rscale>
<asrwt>0</asrwt>
<pdfrwt beam="1">  1        3 0.14329296E+00 0.12822095E+03</pdfrwt>
<pdfrwt beam="2">  1       -3 0.21763361E-02 0.12822095E+03</pdfrwt>
<totfact> 0.74178243E+02</totfact>
</mgrwt>
</event>
<event>
 7    1  0.1111284E-005  0.1263118E+03  0.7546771E-02  0.1248431E+00
          2   -1    0    0  501    0  0.00000000000E+00  0.00000000000E+00  0.32398720040E+02  0.32398720040E+02  0.00000000000E+00 0. -1.
         -2   -1    0    0    0  501 -0.00000000000E+00 -0.00000000000E+00 -0.51338168125E+03  0.51338168125E+03  0.00000000000E+00 0.  1.
         23    2    1    2    0    0 -0.97586078839E+01 -0.15308133449E+02 -0.70333127450E+02  0.11614340805E+03  0.90625454697E+02 0.  0.
          5    1    1    2  502    0 -0.63032809749E+01  0.61069542272E+02 -0.11942236673E+03  0.13436149753E+03  0.47000000000E+01 0. -1.
         -5    1    1    2    0  502  0.16061888859E+02 -0.45761408822E+02 -0.29122746703E+03  0.29527549571E+03  0.47000000000E+01 0. -1.
        -11    1    3    3    0    0 -0.81680555519E+01 -0.53498623624E+02 -0.43642993413E+02  0.69523598405E+02  0.00000000000E+00 0. -1.
         11    1    3    3    0    0 -0.15905523319E+01  0.38190490174E+02 -0.26690134038E+02  0.46619809646E+02  0.00000000000E+00 0.  1.
<mgrwt>
<rscale>  0 0.11682377E+03</rscale>
<asrwt>0</asrwt>
<pdfrwt beam="1">  1        2 0.49844187E-02 0.12631176E+03</pdfrwt>
<pdfrwt beam="2">  1       -2 0.78981793E-01 0.12631176E+03</pdfrwt>
<totfact> 0.22100007E+03</totfact>
</mgrwt>
</event>
<event>
 7    1  0.1111284E-005  0.1765774E+03  0.7546771E-02  0.1177421E+00
          2   -1    0    0  501    0  0.00000000000E+00  0.00000000000E+00  0.29579423293E+03  0.29579423293E+03  0.00000000000E+00 0. -1.
         -2   -1    0    0    0  501 -0.00000000000E+00 -0.00000000000E+00 -0.92092581147E+02  0.92092581147E+02  0.00000000000E+00 0.  1.
         23    2    1    2    0    0 -0.70415780127E+02 -0.10294073006E+03  0.85790209691E+02  0.17555993664E+03  0.88916563575E+02 0.  0.
          5    1    1    2  502    0  0.50965654960E+01  0.10448430930E+03  0.44050062770E+02  0.11360212982E+03  0.47000000000E+01 0.  1.
         -5    1    1    2    0  502  0.65319214631E+02 -0.15435792443E+01  0.73861379318E+02  0.98724747615E+02  0.47000000000E+01 0.  1.
        -11    1    3    3    0    0 -0.48909887311E+02 -0.60861177283E+02  0.53133284410E+00  0.78080357912E+02  0.00000000000E+00 0.  1.
         11    1    3    3    0    0 -0.21505892817E+02 -0.42079552773E+02  0.85258876846E+02  0.97479578726E+02  0.00000000000E+00 0. -1.
<mgrwt>
<rscale>  0 0.17041017E+03</rscale>
<asrwt>0</asrwt>
<pdfrwt beam="1">  1        2 0.45506805E-01 0.17657745E+03</pdfrwt>
<pdfrwt beam="2">  1       -2 0.14168090E-01 0.17657745E+03</pdfrwt>
<totfact> 0.40768653E+03</totfact>
</mgrwt>
</event>
<event>
 7    1  0.1111284E-005  0.1730655E+03  0.7546771E-02  0.1181778E+00
         -2   -1    0    0    0  501 -0.00000000000E+00  0.00000000000E+00  0.25948650666E+03  0.25948650666E+03  0.00000000000E+00 0.  1.
          2   -1    0    0  501    0  0.00000000000E+00 -0.00000000000E+00 -0.21117038223E+03  0.21117038223E+03  0.00000000000E+00 0. -1.
         23    2    1    2    0    0  0.72458045448E+02  0.93738865166E+02 -0.14799985141E+03  0.20894786046E+03  0.87852769904E+02 0.  0.
          5    1    1    2  502    0 -0.16857515962E+02 -0.11045453712E+03  0.10501808991E+03  0.15341209152E+03  0.47000000000E+01 0. -1.
         -5    1    1    2    0  502 -0.55600529486E+02  0.16715671959E+02  0.91297885937E+02  0.10829693691E+03  0.47000000000E+01 0.  1.
        -11    1    3    3    0    0  0.80699977103E+02  0.43294677343E+02 -0.11907152484E+03  0.15021632208E+03  0.00000000000E+00 0. -1.
         11    1    3    3    0    0 -0.82419316544E+01  0.50444187823E+02 -0.28928326571E+02  0.58731538382E+02  0.00000000000E+00 0.  1.
<mgrwt>
<rscale>  0 0.16628509E+03</rscale>
<asrwt>0</asrwt>
<pdfrwt beam="2">  1        2 0.32487751E-01 0.17306546E+03</pdfrwt>
<pdfrwt beam="1">  1       -2 0.39921001E-01 0.17306546E+03</pdfrwt>
<totfact> 0.95378439E+02</totfact>
</mgrwt>
</event>
<event>
 7    1  0.1111284E-005  0.1445011E+03  0.7546771E-02  0.1216970E+00
          1   -1    0    0  501    0  0.00000000000E+00  0.00000000000E+00  0.53625263006E+03  0.53625263006E+03  0.00000000000E+00 0. -1.
         -1   -1    0    0    0  501 -0.00000000000E+00 -0.00000000000E+00 -0.32476833002E+02  0.32476833002E+02  0.00000000000E+00 0.  1.
         23    2    1    2    0    0 -0.20129008122E+02  0.69654182727E+02  0.25734987295E+03  0.28306128923E+03  0.92940057101E+02 0.  0.
          5    1    1    2  502    0  0.70708524700E+02 -0.27177787096E+02  0.10553373295E+03  0.12999148575E+03  0.47000000000E+01 0.  1.
         -5    1    1    2    0  502 -0.50579516578E+02 -0.42476395631E+02  0.14089219116E+03  0.15567668809E+03  0.47000000000E+01 0.  1.
        -11    1    3    3    0    0 -0.16745517778E+02  0.47806406142E+02  0.25594401077E+03  0.26090841589E+03  0.00000000000E+00 0. -1.
         11    1    3    3    0    0 -0.33834903439E+01  0.21847776586E+02  0.14058621782E+01  0.22152873337E+02  0.00000000000E+00 0.  1.
<mgrwt>
<rscale>  0 0.13732818E+03</rscale>
<asrwt>0</asrwt>
<pdfrwt beam="1">  1        1 0.82500398E-01 0.14450111E+03</pdfrwt>
<pdfrwt beam="2">  1       -1 0.49964362E-02 0.14450111E+03</pdfrwt>
<totfact> 0.69694982E+03</totfact>
</mgrwt>
</event>
<event>
 7    1  0.1111284E-005  0.1880568E+03  0.7546771E-02  0.1165286E+00
         -3   -1    0    0    0  501 -0.00000000000E+00  0.00000000000E+00  0.32549075766E+03  0.32549075766E+03  0.00000000000E+00 0.  1.
          3   -1    0    0  501    0  0.00000000000E+00 -0.00000000000E+00 -0.13438645864E+03  0.13438645864E+03  0.00000000000E+00 0. -1.
         23    2    1    2    0    0  0.10326224748E+03  0.95275968372E+02 -0.29670229683E+02  0.16986554650E+03  0.90737971402E+02 0.  0.
          5    1    1    2  502    0 -0.92167162555E+02 -0.48367297043E+01  0.14226096139E+03  0.16964212609E+03  0.47000000000E+01 0.  1.
         -5    1    1    2    0  502 -0.11095084925E+02 -0.90439238668E+02  0.78513567312E+02  0.12036954371E+03  0.47000000000E+01 0.  1.
        -11    1    3    3    0    0  0.54964770566E+02  0.10178252493E+03 -0.63768607366E+01  0.11585108000E+03  0.00000000000E+00 0.  1.
         11    1    3    3    0    0  0.48297476914E+02 -0.65065565549E+01 -0.23293368947E+02  0.54014466501E+02  0.00000000000E+00 0. -1.
<mgrwt>
<rscale>  0 0.18262538E+03</rscale>
<asrwt>0</asrwt>
<pdfrwt beam="2">  1        3 0.20674840E-01 0.18805684E+03</pdfrwt>
<pdfrwt beam="1">  1       -3 0.50075501E-01 0.18805684E+03</pdfrwt>
<totfact> 0.20444802E+02</totfact>
</mgrwt>
</event>
<event>
 7    1  0.1111284E-005  0.1711440E+03  0.7546771E-02  0.1183236E+00
         -3   -1    0    0    0  501 -0.00000000000E+00  0.00000000000E+00  0.16876040993E+04  0.16876040993E+04  0.00000000000E+00 0.  1.
          3   -1    0    0  501    0  0.00000000000E+00 -0.00000000000E+00 -0.15752097291E+02  0.15752097291E+02  0.00000000000E+00 0. -1.
         23    2    1    2    0    0 -0.80921175309E+02 -0.84369999353E+02  0.59801856221E+03  0.61597009725E+03  0.90146694690E+02 0.  0.
          5    1    1    2  502    0  0.19173639967E+02  0.58388957150E+02  0.16602025611E+03  0.17709238895E+03  0.47000000000E+01 0.  1.
         -5    1    1    2    0  502  0.61747535342E+02  0.25981042203E+02  0.90781318374E+03  0.91029371043E+03  0.47000000000E+01 0.  1.
        -11    1    3    3    0    0  0.28414253685E+01 -0.57258377590E+02  0.18530510965E+03  0.19397056263E+03  0.00000000000E+00 0.  1.
         11    1    3    3    0    0 -0.83762600677E+02 -0.27111621764E+02  0.41271345255E+03  0.42199953463E+03  0.00000000000E+00 0. -1.
<mgrwt>
<rscale>  0 0.16493423E+03</rscale>
<asrwt>0</asrwt>
<pdfrwt beam="2">  1        3 0.24234009E-02 0.17114401E+03</pdfrwt>
<pdfrwt beam="1">  1       -3 0.25963126E+00 0.17114401E+03</pdfrwt>
<totfact> 0.12546401E+02</totfact>
</mgrwt>
</event>
<event>
 7    1  0.1111284E-005  0.1320090E+03  0.7546771E-02  0.1235881E+00
         -1   -1    0    0    0  501 -0.00000000000E+00  0.00000000000E+00  0.91193960224E+02  0.91193960224E+02  0.00000000000E+00 0.  1.
          1   -1    0    0  501    0  0.00000000000E+00 -0.00000000000E+00 -0.17384214829E+03  0.17384214829E+03  0.00000000000E+00 0. -1.
         23    2    1    2    0    0 -0.63384767222E+01 -0.41974199193E+02 -0.82468807674E+02  0.13302693993E+03  0.95357500087E+02 0.  0.
          5    1    1    2  502    0 -0.39618779316E+02  0.63038157764E+02  0.20216281724E+02  0.77293240684E+02  0.47000000000E+01 0.  1.
         -5    1    1    2    0  502  0.45957256038E+02 -0.21063958571E+02 -0.20395662120E+02  0.54715927905E+02  0.47000000000E+01 0.  1.
        -11    1    3    3    0    0 -0.21096205965E+02 -0.45026530617E+02 -0.54297569704E+00  0.49726584320E+02  0.00000000000E+00 0.  1.
         11    1    3    3    0    0  0.14757729243E+02  0.30523314243E+01 -0.81925831977E+02  0.83300355610E+02  0.00000000000E+00 0. -1.
<mgrwt>
<rscale>  0 0.12448198E+03</rscale>
<asrwt>0</asrwt>
<pdfrwt beam="2">  1        1 0.26744946E-01 0.13200905E+03</pdfrwt>
<pdfrwt beam="1">  1       -1 0.14029840E-01 0.13200905E+03</pdfrwt>
<totfact> 0.59629764E+03</totfact>
</mgrwt>
</event>
<event>
 7    1  0.1111284E-005  0.2638879E+03  0.7546771E-02  0.1104830E+00
          1   -1    0    0  501    0  0.00000000000E+00  0.00000000000E+00  0.34576441258E+03  0.34576441258E+03  0.00000000000E+00 0. -1.
         -1   -1    0    0    0  501 -0.00000000000E+00 -0.00000000000E+00 -0.50349892494E+02  0.50349892494E+02  0.00000000000E+00 0.  1.
         23    2    1    2    0    0  0.24223919557E+01 -0.53777573437E+02  0.11002161160E+03  0.15203117888E+03  0.90060140704E+02 0.  0.
          5    1    1    2  502    0 -0.38382332611E+02 -0.40907968574E+02  0.80163486289E+02  0.97953764009E+02  0.47000000000E+01 0. -1.
         -5    1    1    2    0  502  0.35959940656E+02  0.94685542011E+02  0.10522942219E+03  0.14612936218E+03  0.47000000000E+01 0.  1.
        -11    1    3    3    0    0  0.27659087974E+02  0.12599857591E+02  0.52418839921E+02  0.60593038689E+02  0.00000000000E+00 0.  1.
         11    1    3    3    0    0 -0.25236696018E+02 -0.66377431028E+02  0.57602771682E+02  0.91438140189E+02  0.00000000000E+00 0. -1.
<mgrwt>
<rscale>  0 0.26388786E+03</rscale>
<asrwt>0</asrwt>
<pdfrwt beam="1">  1        1 0.53194524E-01 0.26388786E+03</pdfrwt>
<pdfrwt beam="2">  1       -1 0.77461375E-02 0.26388786E+03</pdfrwt>
<totfact> 0.65569172E+03</totfact>
</mgrwt>
</event>
<event>
 7    1  0.1111284E-005  0.1632637E+03  0.7546771E-02  0.1191933E+00
         -1   -1    0    0    0  501 -0.00000000000E+00  0.00000000000E+00  0.21124348110E+03  0.21124348110E+03  0.00000000000E+00 0.  1.
          1   -1    0    0  501    0  0.00000000000E+00 -0.00000000000E+00 -0.11212699532E+03  0.11212699532E+03  0.00000000000E+00 0. -1.
         23    2    1    2    0    0  0.97797532862E+02 -0.38192343480E+02  0.18935321159E+02  0.14148025154E+03  0.92925253041E+02 0.  0.
          5    1    1    2  502    0 -0.27894577178E+02  0.64447798536E+02 -0.24422810670E+01  0.70425002016E+02  0.47000000000E+01 0. -1.
         -5    1    1    2    0  502 -0.69902955684E+02 -0.26255455056E+02  0.82623445681E+02  0.11146522287E+03  0.47000000000E+01 0. -1.
        -11    1    3    3    0    0  0.97688096441E+02 -0.52802327953E+02 -0.74765150913E+01  0.11129666797E+03  0.00000000000E+00 0. -1.
         11    1    3    3    0    0  0.10943642064E+00  0.14609984473E+02  0.26411836250E+02  0.30183583564E+02  0.00000000000E+00 0.  1.
<mgrwt>
<rscale>  0 0.15716649E+03</rscale>
<asrwt>0</asrwt>
<pdfrwt beam="2">  1        1 0.17250307E-01 0.16326370E+03</pdfrwt>
<pdfrwt beam="1">  1       -1 0.32498997E-01 0.16326370E+03</pdfrwt>
<totfact> 0.26917132E+03</totfact>
</mgrwt>
</event>
<event>
 7    1  0.1111284E-005  0.1319810E+03  0.7546771E-02  0.1231214E+00
          1   -1    0    0  501    0  0.00000000000E+00  0.00000000000E+00  0.70780004585E+03  0.70780004585E+03  0.00000000000E+00 0. -1.
         -1   -1    0    0    0  501 -0.00000000000E+00 -0.00000000000E+00 -0.25861420236E+02  0.25861420236E+02  0.00000000000E+00 0.  1.
         23    2    1    2    0    0  0.40512971889E+02  0.12311024688E+02  0.47109896113E+03  0.48491995851E+03  0.10686567629E+03 0.  0.
          5    1    1    2  502    0 -0.62780822990E+02 -0.24563568000E+02  0.45674720369E+02  0.81566357581E+02  0.47000000000E+01 0.  1.
         -5    1    1    2    0  502  0.22267851101E+02  0.12252543312E+02  0.16516494412E+03  0.16717514999E+03  0.47000000000E+01 0.  1.
        -11    1    3    3    0    0  0.73811874964E+02  0.19788128903E+02  0.38068547962E+03  0.38827979258E+03  0.00000000000E+00 0. -1.
         11    1    3    3    0    0 -0.33298903075E+02 -0.74771042154E+01  0.90413481510E+02  0.96640165936E+02  0.00000000000E+00 0.  1.
<mgrwt>
<rscale>  0 0.12749971E+03</rscale>
<asrwt>0</asrwt>
<pdfrwt beam="1">  1        1 0.10889230E+00 0.13198096E+03</pdfrwt>
<pdfrwt beam="2">  1       -1 0.39786806E-02 0.13198096E+03</pdfrwt>
<totfact> 0.66234988E+03</totfact>
</mgrwt>
</event>
<event>
 7    1  0.1111284E-005  0.1255842E+03  0.7546771E-02  0.1245538E+00
          1   -1    0    0  501    0  0.00000000000E+00  0.00000000000E+00  0.13527927661E+03  0.13527927661E+03  0.00000000000E+00 0. -1.
         -1   -1    0    0    0  501 -0.00000000000E+00 -0.00000000000E+00 -0.94740662620E+02  0.94740662620E+02  0.00000000000E+00 0.  1.
         23    2    1    2    0    0 -0.50578820374E+01  0.11025839418E+02  0.29562370272E+02  0.10395695337E+03  0.98924026975E+02 0.  0.
          5    1    1    2  502    0 -0.27634397124E+01 -0.24075631757E+02 -0.53887930207E+02  0.59272857747E+02  0.47000000000E+01 0.  1.
         -5    1    1    2    0  502  0.78213217498E+01  0.13049792339E+02  0.64864173928E+02  0.66790128113E+02  0.47000000000E+01 0.  1.
        -11    1    3    3    0    0  0.29942678517E+02  0.38983655715E+02 -0.19385033247E+01  0.49193975290E+02  0.00000000000E+00 0.  1.
         11    1    3    3    0    0 -0.35000560554E+02 -0.27957816297E+02  0.31500873597E+02  0.54762978084E+02  0.00000000000E+00 0. -1.
<mgrwt>
<rscale>  0 0.11853238E+03</rscale>
<asrwt>0</asrwt>
<pdfrwt beam="1">  1        1 0.20812197E-01 0.12558423E+03</pdfrwt>
<pdfrwt beam="2">  1       -1 0.14575486E-01 0.12558423E+03</pdfrwt>
<totfact> 0.76735170E+03</totfact>
</mgrwt>
</event>
<event>
 7    1  0.1111284E-005  0.1945998E+03  0.7546771E-02  0.1158933E+00
         -2   -1    0    0    0  501 -0.00000000000E+00  0.00000000000E+00  0.77005314832E+02  0.77005314832E+02  0.00000000000E+00 0.  1.
          2   -1    0    0  501    0  0.00000000000E+00 -0.00000000000E+00 -0.46303371975E+03  0.46303371975E+03  0.00000000000E+00 0. -1.
         23    2    1    2    0    0  0.10709400157E+03 -0.10379853292E+03 -0.23887651046E+03  0.29606618849E+03  0.91378006691E+02 0.  0.
          5    1    1    2  502    0 -0.34004424757E+02 -0.18664548897E+02 -0.73857187696E+02  0.83556211397E+02  0.47000000000E+01 0. -1.
         -5    1    1    2    0  502 -0.73089576817E+02  0.12246308182E+03 -0.73294706763E+02  0.16041663470E+03  0.47000000000E+01 0. -1.
        -11    1    3    3    0    0  0.50750994863E+02 -0.12218374088E+01 -0.37360694481E+02  0.63031562398E+02  0.00000000000E+00 0.  1.
         11    1    3    3    0    0  0.56343006710E+02 -0.10257669551E+03 -0.20151581598E+03  0.23303462609E+03  0.00000000000E+00 0. -1.
<mgrwt>
<rscale>  0 0.18947846E+03</rscale>
<asrwt>0</asrwt>
<pdfrwt beam="2">  1        2 0.71235956E-01 0.19459977E+03</pdfrwt>
<pdfrwt beam="1">  1       -2 0.11846972E-01 0.19459977E+03</pdfrwt>
<totfact> 0.33742228E+03</totfact>
</mgrwt>
</event>
<event>
 7    1  0.1111284E-005  0.2557658E+03  0.7546771E-02  0.1112062E+00
          2   -1    0    0  501    0  0.00000000000E+00  0.00000000000E+00  0.99829195005E+03  0.99829195005E+03  0.00000000000E+00 0. -1.
         -2   -1    0    0    0  501 -0.00000000000E+00 -0.00000000000E+00 -0.71570331720E+02  0.71570331720E+02  0.00000000000E+00 0.  1.
         23    2    1    2    0    0 -0.97985715479E+02  0.20046846976E+03  0.64914039025E+03  0.69241364285E+03  0.90909838519E+02 0.  0.
          5    1    1    2  502    0  0.52194166848E+01 -0.14115793055E+03  0.18931730050E+03  0.23625396068E+03  0.47000000000E+01 0.  1.
         -5    1    1    2    0  502  0.92766298794E+02 -0.59310539213E+02  0.88263927578E+02  0.14119467825E+03  0.47000000000E+01 0.  1.
        -11    1    3    3    0    0  0.16000056564E+02  0.22625686830E+02  0.50587211882E+02  0.57680061725E+02  0.00000000000E+00 0.  1.
         11    1    3    3    0    0 -0.11398577204E+03  0.17784278293E+03  0.59855317837E+03  0.63473358112E+03  0.00000000000E+00 0. -1.
<mgrwt>
<rscale>  0 0.25197665E+03</rscale>
<asrwt>0</asrwt>
<pdfrwt beam="1">  1        2 0.15358337E+00 0.25576579E+03</pdfrwt>
<pdfrwt beam="2">  1       -2 0.11010821E-01 0.25576579E+03</pdfrwt>
<totfact> 0.14963143E+03</totfact>
</mgrwt>
</event>
<event>
 7    1  0.1111284E-005  0.1345572E+03  0.7546771E-02  0.1235680E+00
          1   -1    0    0  501    0  0.00000000000E+00  0.00000000000E+00  0.10291744980E+03  0.10291744980E+03  0.00000000000E+00 0. -1.
         -1   -1    0    0    0  501 -0.00000000000E+00 -0.00000000000E+00 -0.13295316837E+03  0.13295316837E+03  0.00000000000E+00 0.  1.
         23    2    1    2    0    0  0.18424816817E+02 -0.46273614600E+02 -0.19767914495E+02  0.10092220405E+03  0.85520755053E+02 0.  0.
          5    1    1    2  502    0  0.34663073365E+02  0.26059779794E+02 -0.49328719610E+02  0.65848715677E+02  0.47000000000E+01 0. -1.
         -5    1    1    2    0  502 -0.53087890182E+02  0.20213834806E+02  0.39060915537E+02  0.69099698437E+02  0.47000000000E+01 0. -1.
        -11    1    3    3    0    0 -0.66758683469E+00 -0.36095597385E+02 -0.51270325461E+02  0.62705534809E+02  0.00000000000E+00 0.  1.
         11    1    3    3    0    0  0.19092403651E+02 -0.10178017215E+02  0.31502410965E+02  0.38216669246E+02  0.00000000000E+00 0. -1.
<mgrwt>
<rscale>  0 0.12461008E+03</rscale>
<asrwt>0</asrwt>
<pdfrwt beam="1">  1        1 0.15833454E-01 0.13455722E+03</pdfrwt>
<pdfrwt beam="2">  1       -1 0.20454334E-01 0.13455722E+03</pdfrwt>
<totfact> 0.63951722E+03</totfact>
</mgrwt>
</event>
<event>
 7    1  0.1111284E-005  0.1518453E+03  0.7546771E-02  0.1211842E+00
         -3   -1    0    0    0  501 -0.00000000000E+00  0.00000000000E+00  0.17281988507E+03  0.17281988507E+03  0.00000000000E+00 0.  1.
          3   -1    0    0  501    0  0.00000000000E+00 -0.00000000000E+00 -0.10481818099E+03  0.10481818099E+03  0.00000000000E+00 0. -1.
         23    2    1    2    0    0  0.36309734276E+02 -0.78231222274E+02  0.53492298506E+01  0.11337509027E+03  0.73394658469E+02 0.  0.
          5    1    1    2  502    0  0.16153932335E+02 -0.23108305145E+02 -0.83523524029E+01  0.29779104877E+02  0.47000000000E+01 0. -1.
         -5    1    1    2    0  502 -0.52463666611E+02  0.10133952742E+03  0.71004826626E+02  0.13448387091E+03  0.47000000000E+01 0. -1.
        -11    1    3    3    0    0  0.20335869480E+01  0.11758993651E+02  0.11903561303E+02  0.16855390214E+02  0.00000000000E+00 0.  1.
         11    1    3    3    0    0  0.34276147328E+02 -0.89990215925E+02 -0.65543314520E+01  0.96519700055E+02  0.00000000000E+00 0. -1.
<mgrwt>
<rscale>  0 0.14111053E+03</rscale>
<asrwt>0</asrwt>
<pdfrwt beam="2">  1        3 0.16125874E-01 0.15184529E+03</pdfrwt>
<pdfrwt beam="1">  1       -3 0.26587675E-01 0.15184529E+03</pdfrwt>
<totfact> 0.10313037E+03</totfact>
</mgrwt>
</event>
<event>
 7    1  0.1111284E-005  0.1726239E+03  0.7546771E-02  0.1181198E+00
         -2   -1    0    0    0  501 -0.00000000000E+00  0.00000000000E+00  0.16197539862E+03  0.16197539862E+03  0.00000000000E+00 0.  1.
          2   -1    0    0  501    0  0.00000000000E+00 -0.00000000000E+00 -0.16521675380E+03  0.16521675380E+03  0.00000000000E+00 0. -1.
         23    2    1    2    0    0  0.87346311524E+02  0.80896528632E+02 -0.26881140661E+02  0.15295706398E+03  0.92193498784E+02 0.  0.
          5    1    1    2  502    0 -0.82744952921E+02 -0.89684387217E+02  0.60139336853E+02  0.13612070519E+03  0.47000000000E+01 0.  1.
         -5    1    1    2    0  502 -0.46013586025E+01  0.87878585854E+01 -0.36499551373E+02  0.38114383242E+02  0.47000000000E+01 0.  1.
        -11    1    3    3    0    0  0.25901872914E+02  0.70103436044E+02  0.17050313961E+02  0.76655801945E+02  0.00000000000E+00 0.  1.
         11    1    3    3    0    0  0.61444438609E+02  0.10793092587E+02 -0.43931454622E+02  0.76301262040E+02  0.00000000000E+00 0. -1.
<mgrwt>
<rscale>  0 0.16682650E+03</rscale>
<asrwt>0</asrwt>
<pdfrwt beam="2">  1        2 0.25417962E-01 0.17262395E+03</pdfrwt>
<pdfrwt beam="1">  1       -2 0.24919292E-01 0.17262395E+03</pdfrwt>
<totfact> 0.29479108E+03</totfact>
</mgrwt>
</event>
<event>
 7    1  0.1111284E-005  0.1258644E+03  0.7546771E-02  0.1269244E+00
         -1   -1    0    0    0  501 -0.00000000000E+00  0.00000000000E+00  0.25937857216E+03  0.25937857216E+03  0.00000000000E+00 0.  1.
          1   -1    0    0  501    0  0.00000000000E+00 -0.00000000000E+00 -0.34427928931E+02  0.34427928931E+02  0.00000000000E+00 0. -1.
         23    2    1    2    0    0  0.11818227531E+02  0.87908846577E+01  0.59602643308E+02  0.86004196876E+02  0.60227042398E+02 0.  0.
          5    1    1    2  502    0  0.36138108152E+02  0.38910236332E+02  0.10160036668E+03  0.11473749981E+03  0.47000000000E+01 0.  1.
         -5    1    1    2    0  502 -0.47956335683E+02 -0.47701120990E+02  0.63747633240E+02  0.93064804408E+02  0.47000000000E+01 0.  1.
        -11    1    3    3    0    0 -0.14228275840E+02  0.26391100357E+02  0.23221286069E+02  0.37923108234E+02  0.00000000000E+00 0. -1.
         11    1    3    3    0    0  0.26046503371E+02 -0.17600215699E+02  0.36381357238E+02  0.48081088642E+02  0.00000000000E+00 0.  1.
<mgrwt>
<rscale>  0 0.10544560E+03</rscale>
<asrwt>0</asrwt>
<pdfrwt beam="2">  1        1 0.52966046E-02 0.12586436E+03</pdfrwt>
<pdfrwt beam="1">  1       -1 0.39904394E-01 0.12586436E+03</pdfrwt>
<totfact> 0.89220402E+03</totfact>
</mgrwt>
</event>
<event>
 7    1  0.1111284E-005  0.1457958E+03  0.7546771E-02  0.1211438E+00
         -2   -1    0    0    0  501 -0.00000000000E+00  0.00000000000E+00  0.12626182149E+03  0.12626182149E+03  0.00000000000E+00 0.  1.
          2   -1    0    0  501    0  0.00000000000E+00 -0.00000000000E+00 -0.15056303582E+03  0.15056303582E+03  0.00000000000E+00 0. -1.
         23    2    1    2    0    0 -0.57999376887E+02  0.47627498436E+02 -0.22658701176E+02  0.13101975647E+03  0.10497834786E+03 0.  0.
          5    1    1    2  502    0  0.89606521625E+02 -0.60651552684E+02  0.11426224018E+02  0.10890632744E+03  0.47000000000E+01 0. -1.
         -5    1    1    2    0  502 -0.31607144738E+02  0.13024054248E+02 -0.13068737166E+02  0.36898773403E+02  0.47000000000E+01 0. -1.
        -11    1    3    3    0    0 -0.52021223433E+02  0.56831687122E+02 -0.56435878108E+02  0.95504223396E+02  0.00000000000E+00 0. -1.
         11    1    3    3    0    0 -0.59781534536E+01 -0.92041886863E+01  0.33777176932E+02  0.35515533074E+02  0.00000000000E+00 0.  1.
<mgrwt>
<rscale>  0 0.14141473E+03</rscale>
<asrwt>0</asrwt>
<pdfrwt beam="2">  1        2 0.23163544E-01 0.14579585E+03</pdfrwt>
<pdfrwt beam="1">  1       -2 0.19424896E-01 0.14579585E+03</pdfrwt>
<totfact> 0.49724634E+03</totfact>
</mgrwt>
</event>
<event>
 7    1  0.1113231E-005  0.1562793E+03  0.7546771E-02  0.1201150E+00
         -2   -1    0    0    0  501 -0.00000000000E+00  0.00000000000E+00  0.83762808529E+02  0.83762808529E+02  0.00000000000E+00 0.  1.
          2   -1    0    0  501    0  0.00000000000E+00 -0.00000000000E+00 -0.25184824925E+03  0.25184824925E+03  0.00000000000E+00 0. -1.
         23    2    1    2    0    0  0.57827696520E+02  0.73856563183E+02 -0.10261422352E+03  0.16617168260E+03  0.91019310137E+02 0.  0.
          5    1    1    2  502    0 -0.41554411945E+02 -0.32594055120E+02  0.32222795032E+02  0.62044662147E+02  0.47000000000E+01 0.  1.
         -5    1    1    2    0  502 -0.16273284576E+02 -0.41262508063E+02 -0.97694012229E+02  0.10739471304E+03  0.47000000000E+01 0.  1.
        -11    1    3    3    0    0  0.11196377335E+02  0.81685471734E+02 -0.74740295649E+02  0.11128336332E+03  0.00000000000E+00 0.  1.
         11    1    3    3    0    0  0.46631319185E+02 -0.78289085516E+01 -0.27873927874E+02  0.54888319278E+02  0.00000000000E+00 0. -1.
<mgrwt>
<rscale>  0 0.14945062E+03</rscale>
<asrwt>0</asrwt>
<pdfrwt beam="2">  1        2 0.38745884E-01 0.15627931E+03</pdfrwt>
<pdfrwt beam="1">  1       -2 0.12886586E-01 0.15627931E+03</pdfrwt>
<totfact> 0.56103338E+03</totfact>
</mgrwt>
</event>
<event>
 7    1  0.1111284E-005  0.2168849E+03  0.7546771E-02  0.1136227E+00
         -2   -1    0    0    0  501 -0.00000000000E+00  0.00000000000E+00  0.17388977032E+02  0.17388977032E+02  0.00000000000E+00 0.  1.
          2   -1    0    0  501    0  0.00000000000E+00 -0.00000000000E+00 -0.67627691848E+03  0.67627691848E+03  0.00000000000E+00 0. -1.
         23    2    1    2    0    0 -0.15374268209E+02 -0.72919086952E+01 -0.37097561073E+03  0.38284012080E+03  0.93027492073E+02 0.  0.
          5    1    1    2  502    0 -0.29763580061E+02 -0.24097221304E+02 -0.21982992471E+03  0.22319012651E+03  0.47000000000E+01 0. -1.
         -5    1    1    2    0  502  0.45137848270E+02  0.31389130000E+02 -0.68082406008E+02  0.87635648206E+02  0.47000000000E+01 0.  1.
        -11    1    3    3    0    0 -0.52673188659E+02  0.24934523657E+01 -0.26171280739E+03  0.26697242491E+03  0.00000000000E+00 0. -1.
         11    1    3    3    0    0  0.37298920450E+02 -0.97853610609E+01 -0.10926280334E+03  0.11586769589E+03  0.00000000000E+00 0.  1.
<mgrwt>
<rscale>  0 0.21688489E+03</rscale>
<asrwt>0</asrwt>
<pdfrwt beam="2">  1        2 0.10404259E+00 0.21688489E+03</pdfrwt>
<pdfrwt beam="1">  1       -2 0.26752274E-02 0.21688489E+03</pdfrwt>
<totfact> 0.21530469E+04</totfact>
</mgrwt>
</event>
<event>
 7    1  0.1111284E-005  0.1378843E+03  0.7546771E-02  0.1227996E+00
          2   -1    0    0  501    0  0.00000000000E+00  0.00000000000E+00  0.95107960641E+03  0.95107960641E+03  0.00000000000E+00 0.  1.
         -2   -1    0    0    0  501 -0.00000000000E+00 -0.00000000000E+00 -0.16064064885E+02  0.16064064885E+02  0.00000000000E+00 0. -1.
         23    2    1    2    0    0  0.55854482586E+02  0.16387273537E+02  0.35654366049E+03  0.37246577081E+03  0.90659266639E+02 0.  0.
          5    1    1    2  502    0  0.17796948399E+02 -0.32933260930E+02  0.38661001324E+03  0.38844655152E+03  0.47000000000E+01 0.  1.
         -5    1    1    2    0  502 -0.73651430985E+02  0.16545987393E+02  0.19186186779E+03  0.20623134897E+03  0.47000000000E+01 0.  1.
        -11    1    3    3    0    0  0.35468591118E+02 -0.32671816006E+02  0.10753036865E+03  0.11784841407E+03  0.00000000000E+00 0. -1.
         11    1    3    3    0    0  0.20385891468E+02  0.49059089543E+02  0.24901329184E+03  0.25461735673E+03  0.00000000000E+00 0.  1.
<mgrwt>
<rscale>  0 0.12963668E+03</rscale>
<asrwt>0</asrwt>
<pdfrwt beam="1">  1        2 0.14631990E+00 0.13788433E+03</pdfrwt>
<pdfrwt beam="2">  1       -2 0.24713953E-02 0.13788433E+03</pdfrwt>
<totfact> 0.15249647E+04</totfact>
</mgrwt>
</event>
<event>
 7    1  0.1111284E-005  0.1303902E+03  0.7546771E-02  0.1239959E+00
          2   -1    0    0  501    0  0.00000000000E+00  0.00000000000E+00  0.39822087309E+03  0.39822087309E+03  0.00000000000E+00 0. -1.
         -2   -1    0    0    0  501 -0.00000000000E+00 -0.00000000000E+00 -0.56254516751E+02  0.56254516751E+02  0.00000000000E+00 0.  1.
         23    2    1    2    0    0  0.34425814405E+02 -0.13854349308E+02  0.30211069735E+03  0.31812995626E+03  0.92513328359E+02 0.  0.
          5    1    1    2  502    0 -0.40225155158E+02  0.63062808277E+02  0.40947147366E+01  0.75058894104E+02  0.47000000000E+01 0.  1.
         -5    1    1    2    0  502  0.57993407530E+01 -0.49208458970E+02  0.35760944253E+02  0.61286539478E+02  0.47000000000E+01 0.  1.
        -11    1    3    3    0    0  0.30180136948E+02  0.36192351366E+02  0.18062023338E+03  0.18666653602E+03  0.00000000000E+00 0. -1.
         11    1    3    3    0    0  0.42456774564E+01 -0.50046700673E+02  0.12149046398E+03  0.13146342025E+03  0.00000000000E+00 0.  1.
<mgrwt>
<rscale>  0 0.12192255E+03</rscale>
<asrwt>0</asrwt>
<pdfrwt beam="1">  1        2 0.61264748E-01 0.13039020E+03</pdfrwt>
<pdfrwt beam="2">  1       -2 0.86545413E-02 0.13039020E+03</pdfrwt>
<totfact> 0.63968788E+03</totfact>
</mgrwt>
</event>
<event>
 7    1  0.1111284E-005  0.2560310E+03  0.7546771E-02  0.1111998E+00
         -2   -1    0    0    0  501 -0.00000000000E+00  0.00000000000E+00  0.14565911207E+03  0.14565911207E+03  0.00000000000E+00 0.  1.
          2   -1    0    0  501    0  0.00000000000E+00 -0.00000000000E+00 -0.44701568004E+03  0.44701568004E+03  0.00000000000E+00 0. -1.
         23    2    1    2    0    0 -0.17812669648E+03 -0.13490044906E+03 -0.21446572732E+03  0.32230118497E+03  0.89192233294E+02 0.  0.
          5    1    1    2  502    0  0.65491881369E+02  0.57415334561E+02 -0.10030378962E+03  0.13292346437E+03  0.47000000000E+01 0.  1.
         -5    1    1    2    0  502  0.11263481512E+03  0.77485114500E+02  0.13412948971E+02  0.13745014276E+03  0.47000000000E+01 0.  1.
        -11    1    3    3    0    0 -0.12207341264E+02 -0.53122416209E+02 -0.62295914915E+02  0.82775547716E+02  0.00000000000E+00 0. -1.
         11    1    3    3    0    0 -0.16591935522E+03 -0.81778032852E+02 -0.15216981240E+03  0.23952563725E+03  0.00000000000E+00 0.  1.
<mgrwt>
<rscale>  0 0.25207967E+03</rscale>
<asrwt>0</asrwt>
<pdfrwt beam="2">  1        2 0.68771644E-01 0.25603099E+03</pdfrwt>
<pdfrwt beam="1">  1       -2 0.22409094E-01 0.25603099E+03</pdfrwt>
<totfact> 0.12174279E+03</totfact>
</mgrwt>
</event>
<event>
 7    1  0.1111284E-005  0.4180094E+03  0.7546771E-02  0.1038395E+00
         -2   -1    0    0    0  501 -0.00000000000E+00  0.00000000000E+00  0.16068073462E+03  0.16068073462E+03  0.00000000000E+00 0.  1.
          2   -1    0    0  501    0  0.00000000000E+00 -0.00000000000E+00 -0.10688310481E+04  0.10688310481E+04  0.00000000000E+00 0. -1.
         23    2    1    2    0    0  0.12502758687E+03 -0.37877908798E+03 -0.48003120864E+03  0.63116589297E+03  0.93994298795E+02 0.  0.
          5    1    1    2  502    0  0.52753706392E-01  0.26121040368E+01  0.75690985952E+01  0.92847791571E+01  0.47000000000E+01 0. -1.
         -5    1    1    2    0  502 -0.12508034058E+03  0.37616698395E+03 -0.43568820345E+03  0.58906111061E+03  0.47000000000E+01 0. -1.
        -11    1    3    3    0    0  0.32889194997E+02 -0.31005157206E+02 -0.26976953702E+02  0.52638151107E+02  0.00000000000E+00 0.  1.
         11    1    3    3    0    0  0.92138391873E+02 -0.34777393078E+03 -0.45305425494E+03  0.57852774186E+03  0.00000000000E+00 0. -1.
<mgrwt>
<rscale>  0 0.41594310E+03</rscale>
<asrwt>0</asrwt>
<pdfrwt beam="2">  1        2 0.16443554E+00 0.41800937E+03</pdfrwt>
<pdfrwt beam="1">  1       -2 0.24720113E-01 0.41800937E+03</pdfrwt>
<totfact> 0.34311933E+02</totfact>
</mgrwt>
</event>
<event>
 7    1  0.1111284E-005  0.1390218E+03  0.7546771E-02  0.1222686E+00
          2   -1    0    0  501    0  0.00000000000E+00  0.00000000000E+00  0.10327667904E+03  0.10327667904E+03  0.00000000000E+00 0. -1.
         -2   -1    0    0    0  501 -0.00000000000E+00 -0.00000000000E+00 -0.17617201737E+03  0.17617201737E+03  0.00000000000E+00 0.  1.
         23    2    1    2    0    0  0.12593741693E+01 -0.60807166596E+02  0.96116076908E+01  0.11778716474E+03  0.10041083428E+03 0.  0.
          5    1    1    2  502    0 -0.39414996451E+02  0.40487989010E+01 -0.84105791980E+02  0.93090326900E+02  0.47000000000E+01 0.  1.
         -5    1    1    2    0  502  0.38155622282E+02  0.56758367695E+02  0.15988459645E+01  0.68571204769E+02  0.47000000000E+01 0.  1.
        -11    1    3    3    0    0 -0.20810737636E+02 -0.66944310549E+02 -0.26564101724E+02  0.74968520168E+02  0.00000000000E+00 0.  1.
         11    1    3    3    0    0  0.22070111805E+02  0.61371439528E+01  0.36175709415E+02  0.42818644568E+02  0.00000000000E+00 0. -1.
<mgrwt>
<rscale>  0 0.13326740E+03</rscale>
<asrwt>0</asrwt>
<pdfrwt beam="1">  1        2 0.15888720E-01 0.13902178E+03</pdfrwt>
<pdfrwt beam="2">  1       -2 0.27103387E-01 0.13902178E+03</pdfrwt>
<totfact> 0.42835743E+03</totfact>
</mgrwt>
</event>
<event>
 7    1  0.1111284E-005  0.1976825E+03  0.7546771E-02  0.1156156E+00
         -2   -1    0    0    0  501 -0.00000000000E+00  0.00000000000E+00  0.35701849636E+02  0.35701849636E+02  0.00000000000E+00 0.  1.
          2   -1    0    0  501    0  0.00000000000E+00 -0.00000000000E+00 -0.99087921285E+03  0.99087921285E+03  0.00000000000E+00 0. -1.
         23    2    1    2    0    0 -0.72010232460E+02 -0.13515930518E+03 -0.42770660526E+03  0.46328384260E+03  0.90804555405E+02 0.  0.
          5    1    1    2  502    0  0.10222042360E+03  0.71631269753E+02 -0.37641872983E+03  0.39660207258E+03  0.47000000000E+01 0.  1.
         -5    1    1    2    0  502 -0.30210191135E+02  0.63528035422E+02 -0.15105202812E+03  0.16669514730E+03  0.47000000000E+01 0.  1.
        -11    1    3    3    0    0  0.18352138646E+02 -0.40241044000E+01 -0.45036429698E+02  0.48798303342E+02  0.00000000000E+00 0. -1.
         11    1    3    3    0    0 -0.90362371107E+02 -0.13113520078E+03 -0.38267017556E+03  0.41448553926E+03  0.00000000000E+00 0.  1.
<mgrwt>
<rscale>  0 0.19257804E+03</rscale>
<asrwt>0</asrwt>
<pdfrwt beam="2">  1        2 0.15244294E+00 0.19768247E+03</pdfrwt>
<pdfrwt beam="1">  1       -2 0.54925927E-02 0.19768247E+03</pdfrwt>
<totfact> 0.44637726E+03</totfact>
</mgrwt>
</event>
<event>
 7    1  0.1111284E-005  0.1437606E+03  0.7546771E-02  0.1217727E+00
          2   -1    0    0  501    0  0.00000000000E+00  0.00000000000E+00  0.56044618689E+03  0.56044618689E+03  0.00000000000E+00 0. -1.
         -2   -1    0    0    0  501 -0.00000000000E+00 -0.00000000000E+00 -0.47321173816E+02  0.47321173816E+02  0.00000000000E+00 0.  1.
         23    2    1    2    0    0  0.59345205020E+02 -0.39001548573E+02  0.42064107049E+03  0.43682761417E+03  0.94002554018E+02 0.  0.
          5    1    1    2  502    0 -0.10515100029E+01 -0.42699485095E+02  0.32968165356E+02  0.54160332602E+02  0.47000000000E+01 0.  1.
         -5    1    1    2    0  502 -0.58293695017E+02  0.81701033669E+02  0.59515777227E+02  0.11677941394E+03  0.47000000000E+01 0.  1.
        -11    1    3    3    0    0  0.31796489981E+02 -0.69086398131E+02  0.24611392296E+03  0.25759660373E+03  0.00000000000E+00 0. -1.
         11    1    3    3    0    0  0.27548715039E+02  0.30084849558E+02  0.17452714754E+03  0.17923101043E+03  0.00000000000E+00 0.  1.
<mgrwt>
<rscale>  0 0.13678123E+03</rscale>
<asrwt>0</asrwt>
<pdfrwt beam="1">  1        2 0.86222486E-01 0.14376063E+03</pdfrwt>
<pdfrwt beam="2">  1       -2 0.72801810E-02 0.14376063E+03</pdfrwt>
<totfact> 0.57861026E+03</totfact>
</mgrwt>
</event>
<event>
 7    1  0.1111284E-005  0.1649591E+03  0.7546771E-02  0.1190856E+00
          2   -1    0    0  501    0  0.00000000000E+00  0.00000000000E+00  0.70138661819E+03  0.70138661819E+03  0.00000000000E+00 0. -1.
         -2   -1    0    0    0  501 -0.00000000000E+00 -0.00000000000E+00 -0.35479347119E+02  0.35479347119E+02  0.00000000000E+00 0.  1.
         23    2    1    2    0    0 -0.10727993758E+03 -0.88194812681E+01  0.40432232891E+03  0.42761172937E+03  0.88252349454E+02 0.  0.
          5    1    1    2  502    0  0.12464673836E+02 -0.29573841527E+02  0.16611529750E+03  0.16925236264E+03  0.47000000000E+01 0.  1.
         -5    1    1    2    0  502  0.94815263747E+02  0.38393322795E+02  0.95469644666E+02  0.14000187330E+03  0.47000000000E+01 0.  1.
        -11    1    3    3    0    0 -0.27684953087E+02  0.37538281186E+02  0.15240908784E+03  0.15938666581E+03  0.00000000000E+00 0. -1.
         11    1    3    3    0    0 -0.79594984496E+02 -0.46357762454E+02  0.25191324106E+03  0.26822506356E+03  0.00000000000E+00 0.  1.
<mgrwt>
<rscale>  0 0.15810226E+03</rscale>
<asrwt>0</asrwt>
<pdfrwt beam="1">  1        2 0.10790562E+00 0.16495909E+03</pdfrwt>
<pdfrwt beam="2">  1       -2 0.54583616E-02 0.16495909E+03</pdfrwt>
<totfact> 0.69741762E+03</totfact>
</mgrwt>
</event>
<event>
 7    1  0.1111284E-005  0.2371515E+03  0.7546771E-02  0.1124157E+00
         -2   -1    0    0    0  501 -0.00000000000E+00  0.00000000000E+00  0.48383565700E+02  0.48383565700E+02  0.00000000000E+00 0.  1.
          2   -1    0    0  501    0  0.00000000000E+00 -0.00000000000E+00 -0.10999148458E+04  0.10999148458E+04  0.00000000000E+00 0. -1.
         23    2    1    2    0    0 -0.12136936028E+03  0.16088399962E+03 -0.54955500335E+03  0.59312184545E+03  0.95753009844E+02 0.  0.
          5    1    1    2  502    0  0.84212941724E+02 -0.15247096466E+02 -0.20813952961E+03  0.22509652883E+03  0.47000000000E+01 0.  1.
         -5    1    1    2    0  502  0.37156418555E+02 -0.14563690316E+03 -0.29383674712E+03  0.33008003720E+03  0.47000000000E+01 0.  1.
        -11    1    3    3    0    0 -0.13308065136E+03  0.12234845023E+03 -0.47750712507E+03  0.51058070618E+03  0.00000000000E+00 0.  1.
         11    1    3    3    0    0  0.11711291082E+02  0.38535549396E+02 -0.72047878288E+02  0.82541139269E+02  0.00000000000E+00 0. -1.
<mgrwt>
<rscale>  0 0.23356317E+03</rscale>
<asrwt>0</asrwt>
<pdfrwt beam="2">  1        2 0.16921767E+00 0.23715151E+03</pdfrwt>
<pdfrwt beam="1">  1       -2 0.74436253E-02 0.23715151E+03</pdfrwt>
<totfact> 0.24143659E+03</totfact>
</mgrwt>
</event>
<event>
 7    1  0.1111284E-005  0.7118345E+03  0.7546771E-02  0.1011876E+00
         -1   -1    0    0    0  501 -0.00000000000E+00  0.00000000000E+00  0.62693379979E+03  0.62693379979E+03  0.00000000000E+00 0.  1.
          1   -1    0    0  501    0  0.00000000000E+00 -0.00000000000E+00 -0.54994658343E+03  0.54994658343E+03  0.00000000000E+00 0. -1.
         23    2    1    2    0    0  0.63857065894E+02  0.14651382153E+03 -0.31470322505E+03  0.36439667748E+03  0.90569277041E+02 0.  0.
          5    1    1    2  502    0 -0.27370059505E+03  0.11856377639E+03  0.43732652402E+01  0.29834644333E+03  0.47000000000E+01 0. -1.
         -5    1    1    2    0  502  0.20984352915E+03 -0.26507759792E+03  0.38731717616E+03  0.51413726241E+03  0.47000000000E+01 0.  1.
        -11    1    3    3    0    0 -0.91254264265E+01  0.71820210516E+02 -0.82317162816E+02  0.10962450155E+03  0.00000000000E+00 0.  1.
         11    1    3    3    0    0  0.72982492320E+02  0.74693611012E+02 -0.23238606223E+03  0.25477217593E+03  0.00000000000E+00 0. -1.
<mgrwt>
<rscale>  0 0.50735668E+03</rscale>
<asrwt>0</asrwt>
<pdfrwt beam="2">  1        1 0.84607167E-01 0.71183451E+03</pdfrwt>
<pdfrwt beam="1">  1       -1 0.96451354E-01 0.71183451E+03</pdfrwt>
<totfact> 0.41195525E+01</totfact>
</mgrwt>
</event>
<event>
 7    1  0.1111284E-005  0.2086445E+03  0.7546771E-02  0.1146489E+00
          2   -1    0    0  501    0  0.00000000000E+00  0.00000000000E+00  0.52940556201E+03  0.52940556201E+03  0.00000000000E+00 0. -1.
         -2   -1    0    0    0  501 -0.00000000000E+00 -0.00000000000E+00 -0.75664819145E+02  0.75664819145E+02  0.00000000000E+00 0.  1.
         23    2    1    2    0    0  0.90966742153E+02 -0.14011420851E+03  0.24119481370E+03  0.30723096321E+03  0.91153645013E+02 0.  0.
          5    1    1    2  502    0 -0.43961551736E+02  0.80346128085E+02  0.20080779701E+03  0.22075773977E+03  0.47000000000E+01 0. -1.
         -5    1    1    2    0  502 -0.47005190417E+02  0.59768080421E+02  0.11738132162E+02  0.77081678173E+02  0.47000000000E+01 0. -1.
        -11    1    3    3    0    0  0.82812676297E+02 -0.67032430773E+02  0.91462438570E+02  0.14041603826E+03  0.00000000000E+00 0.  1.
         11    1    3    3    0    0  0.81540658559E+01 -0.73081777733E+02  0.14973237513E+03  0.16681492496E+03  0.00000000000E+00 0. -1.
<mgrwt>
<rscale>  0 0.20390024E+03</rscale>
<asrwt>0</asrwt>
<pdfrwt beam="1">  1        2 0.81447007E-01 0.20864455E+03</pdfrwt>
<pdfrwt beam="2">  1       -2 0.11640742E-01 0.20864455E+03</pdfrwt>
<totfact> 0.29970800E+03</totfact>
</mgrwt>
</event>
<event>
 7    1  0.1111284E-005  0.1640612E+03  0.7546771E-02  0.1188661E+00
         -2   -1    0    0    0  501 -0.00000000000E+00  0.00000000000E+00  0.32385619357E+02  0.32385619357E+02  0.00000000000E+00 0.  1.
          2   -1    0    0  501    0  0.00000000000E+00 -0.00000000000E+00 -0.10188017477E+04  0.10188017477E+04  0.00000000000E+00 0. -1.
         23    2    1    2    0    0 -0.11318118688E+03  0.25784527653E+02 -0.74263073544E+03  0.75733809330E+03  0.92659351469E+02 0.  0.
          5    1    1    2  502    0  0.86320857234E+02 -0.69188539881E+02 -0.18722860794E+03  0.21752008201E+03  0.47000000000E+01 0. -1.
         -5    1    1    2    0  502  0.26860329650E+02  0.43404012228E+02 -0.56556784924E+02  0.76329191711E+02  0.47000000000E+01 0.  1.
        -11    1    3    3    0    0 -0.11734789084E+03  0.38381838457E+02 -0.72407845345E+03  0.73452930490E+03  0.00000000000E+00 0. -1.
         11    1    3    3    0    0  0.41667039523E+01 -0.12597310804E+02 -0.18552281993E+02  0.22808788404E+02  0.00000000000E+00 0.  1.
<mgrwt>
<rscale>  0 0.16003189E+03</rscale>
<asrwt>0</asrwt>
<pdfrwt beam="2">  1        2 0.15673873E+00 0.16406120E+03</pdfrwt>
<pdfrwt beam="1">  1       -2 0.49824029E-02 0.16406120E+03</pdfrwt>
<totfact> 0.49492579E+03</totfact>
</mgrwt>
</event>
<event>
 7    1  0.1111284E-005  0.1528151E+03  0.7546771E-02  0.1205446E+00
         -2   -1    0    0    0  501 -0.00000000000E+00  0.00000000000E+00  0.20854819839E+03  0.20854819839E+03  0.00000000000E+00 0.  1.
          2   -1    0    0  501    0  0.00000000000E+00 -0.00000000000E+00 -0.99818877446E+02  0.99818877446E+02  0.00000000000E+00 0. -1.
         23    2    1    2    0    0 -0.21508232989E+02 -0.85235329340E+02  0.13058471027E+02  0.12807458770E+03  0.92222073795E+02 0.  0.
          5    1    1    2  502    0 -0.23687934646E+02  0.39276861715E+02 -0.18029841508E+02  0.49507123718E+02  0.47000000000E+01 0.  1.
         -5    1    1    2    0  502  0.45196167635E+02  0.45958467625E+02  0.11370069143E+03  0.13078536442E+03  0.47000000000E+01 0.  1.
        -11    1    3    3    0    0 -0.16110000334E+02 -0.10517672573E+03  0.14392882342E+02  0.10737239314E+03  0.00000000000E+00 0.  1.
         11    1    3    3    0    0 -0.53982326555E+01  0.19941396394E+02 -0.13344113144E+01  0.20702194558E+02  0.00000000000E+00 0. -1.
<mgrwt>
<rscale>  0 0.14602366E+03</rscale>
<asrwt>0</asrwt>
<pdfrwt beam="2">  1        2 0.15356750E-01 0.15281515E+03</pdfrwt>
<pdfrwt beam="1">  1       -2 0.32084338E-01 0.15281515E+03</pdfrwt>
<totfact> 0.33103865E+03</totfact>
</mgrwt>
</event>
<event>
 7    1  0.1111284E-005  0.1698967E+03  0.7546771E-02  0.1184452E+00
          2   -1    0    0  501    0  0.00000000000E+00  0.00000000000E+00  0.76068337310E+03  0.76068337310E+03  0.00000000000E+00 0. -1.
         -2   -1    0    0    0  501 -0.00000000000E+00 -0.00000000000E+00 -0.33372564892E+02  0.33372564892E+02  0.00000000000E+00 0.  1.
         23    2    1    2    0    0 -0.73447216315E+02  0.88577342500E+02  0.38074389290E+03  0.40808505449E+03  0.91252728885E+02 0.  0.
          5    1    1    2  502    0  0.34170056112E+02 -0.34146288354E+02  0.30057326015E+03  0.30446664261E+03  0.47000000000E+01 0. -1.
         -5    1    1    2    0  502  0.39277160203E+02 -0.54431054146E+02  0.45993655159E+02  0.81504240895E+02  0.47000000000E+01 0. -1.
        -11    1    3    3    0    0  0.62715563266E+01  0.23868936206E+02  0.16599918611E+02  0.29742492032E+02  0.00000000000E+00 0.  1.
         11    1    3    3    0    0 -0.79718772642E+02  0.64708406294E+02  0.36414397429E+03  0.37834256246E+03  0.00000000000E+00 0. -1.
<mgrwt>
<rscale>  0 0.16381879E+03</rscale>
<asrwt>0</asrwt>
<pdfrwt beam="1">  1        2 0.11702820E+00 0.16989672E+03</pdfrwt>
<pdfrwt beam="2">  1       -2 0.51342413E-02 0.16989672E+03</pdfrwt>
<totfact> 0.69430941E+03</totfact>
</mgrwt>
</event>
<event>
 7    1  0.1111284E-005  0.1835861E+03  0.7546771E-02  0.1169596E+00
          3   -1    0    0  501    0  0.00000000000E+00  0.00000000000E+00  0.10752247845E+04  0.10752247845E+04  0.00000000000E+00 0. -1.
         -3   -1    0    0    0  501 -0.00000000000E+00 -0.00000000000E+00 -0.35526121324E+02  0.35526121324E+02  0.00000000000E+00 0.  1.
         23    2    1    2    0    0 -0.13304108213E+03  0.19439547531E+02  0.75230989587E+03  0.76972867964E+03  0.91838092758E+02 0.  0.
          5    1    1    2  502    0  0.60665046586E+02 -0.70645714578E+02  0.12493482586E+03  0.15589055641E+03  0.47000000000E+01 0. -1.
         -5    1    1    2    0  502  0.72376035548E+02  0.51206167046E+02  0.16245394148E+03  0.18513166981E+03  0.47000000000E+01 0. -1.
        -11    1    3    3    0    0 -0.14446945684E+03  0.55866883963E+01  0.65373043569E+03  0.66952678631E+03  0.00000000000E+00 0.  1.
         11    1    3    3    0    0  0.11428374710E+02  0.13852859135E+02  0.98579460188E+02  0.10020189332E+03  0.00000000000E+00 0. -1.
<mgrwt>
<rscale>  0 0.17816003E+03</rscale>
<asrwt>0</asrwt>
<pdfrwt beam="1">  1        3 0.16541917E+00 0.18358610E+03</pdfrwt>
<pdfrwt beam="2">  1       -3 0.54655579E-02 0.18358610E+03</pdfrwt>
<totfact> 0.12845514E+02</totfact>
</mgrwt>
</event>
<event>
 7    1  0.1111284E-005  0.1745275E+03  0.7546771E-02  0.1196282E+00
          2   -1    0    0  501    0  0.00000000000E+00  0.00000000000E+00  0.23127013160E+03  0.23127013160E+03  0.00000000000E+00 0. -1.
         -2   -1    0    0    0  501 -0.00000000000E+00 -0.00000000000E+00 -0.84329561926E+02  0.84329561926E+02  0.00000000000E+00 0.  1.
         23    2    1    2    0    0 -0.26641915332E+02 -0.36901066920E+02  0.63679743637E+02  0.12222904937E+03  0.93879445926E+02 0.  0.
          5    1    1    2  502    0  0.72821212967E+01  0.12842196304E+02  0.13340034120E+03  0.13429703023E+03  0.47000000000E+01 0. -1.
         -5    1    1    2    0  502  0.19359794035E+02  0.24058870616E+02 -0.50139515169E+02  0.59073613922E+02  0.47000000000E+01 0.  1.
        -11    1    3    3    0    0  0.12901243158E+01 -0.42688937591E+02  0.79032892426E+02  0.89834335856E+02  0.00000000000E+00 0.  1.
         11    1    3    3    0    0 -0.27932039648E+02  0.57878706708E+01 -0.15353148790E+02  0.32394713512E+02  0.00000000000E+00 0. -1.
<mgrwt>
<rscale>  0 0.15346190E+03</rscale>
<asrwt>0</asrwt>
<pdfrwt beam="1">  1        2 0.35580020E-01 0.17452748E+03</pdfrwt>
<pdfrwt beam="2">  1       -2 0.12973779E-01 0.17452748E+03</pdfrwt>
<totfact> 0.61210181E+03</totfact>
</mgrwt>
</event>
<event>
 7    1  0.2844050E-005  0.3502684E+03  0.7546771E-02  0.1062649E+00
         -2   -1    0    0    0  501 -0.00000000000E+00  0.00000000000E+00  0.44069700753E+02  0.44069700753E+02  0.00000000000E+00 0.  1.
          2   -1    0    0  501    0  0.00000000000E+00 -0.00000000000E+00 -0.28007514259E+04  0.28007514259E+04  0.00000000000E+00 0. -1.
         23    2    1    2    0    0  0.31168425865E+03  0.99582811453E+02 -0.15177232999E+04  0.15573018452E+04  0.12100086148E+03 0.  0.
          5    1    1    2  502    0  0.84671237115E+01 -0.83781221888E+01 -0.10260201578E+03  0.10339801138E+03  0.47000000000E+01 0.  1.
         -5    1    1    2    0  502 -0.32015138236E+03 -0.91204689265E+02 -0.11363564094E+04  0.11841212701E+04  0.47000000000E+01 0.  1.
        -11    1    3    3    0    0  0.28073628250E+03  0.59267421931E+02 -0.13996150505E+04  0.14287224283E+04  0.00000000000E+00 0. -1.
         11    1    3    3    0    0  0.30947976151E+02  0.40315389522E+02 -0.11810824945E+03  0.12857941689E+03  0.00000000000E+00 0.  1.
<mgrwt>
<rscale>  0 0.34991635E+03</rscale>
<asrwt>0</asrwt>
<pdfrwt beam="2">  1        2 0.43088492E+00 0.35026836E+03</pdfrwt>
<pdfrwt beam="1">  1       -2 0.67799526E-02 0.35026836E+03</pdfrwt>
<totfact> 0.32756299E+02</totfact>
</mgrwt>
</event>
<event>
 7    1  0.1111284E-005  0.1390655E+03  0.7546771E-02  0.1226003E+00
         -3   -1    0    0    0  501 -0.00000000000E+00  0.00000000000E+00  0.36514390211E+02  0.36514390211E+02  0.00000000000E+00 0.  1.
          3   -1    0    0  501    0  0.00000000000E+00 -0.00000000000E+00 -0.46352053377E+03  0.46352053377E+03  0.00000000000E+00 0. -1.
         23    2    1    2    0    0 -0.51041681846E+01  0.60744293435E+02 -0.26387235253E+03  0.28567110247E+03  0.90903457770E+02 0.  0.
          5    1    1    2  502    0 -0.31781875465E+02  0.17955425259E+02 -0.10078592482E+03  0.10729574804E+03  0.47000000000E+01 0. -1.
         -5    1    1    2    0  502  0.36886043650E+02 -0.78699718694E+02 -0.62347866205E+02  0.10706807348E+03  0.47000000000E+01 0. -1.
        -11    1    3    3    0    0 -0.47750870125E+02  0.34077533704E+02 -0.12852939650E+03  0.14128421591E+03  0.00000000000E+00 0.  1.
         11    1    3    3    0    0  0.42646701940E+02  0.26666759731E+02 -0.13534295603E+03  0.14438688655E+03  0.00000000000E+00 0. -1.
<mgrwt>
<rscale>  0 0.13098415E+03</rscale>
<asrwt>0</asrwt>
<pdfrwt beam="2">  1        3 0.71310850E-01 0.13906550E+03</pdfrwt>
<pdfrwt beam="1">  1       -3 0.56175986E-02 0.13906550E+03</pdfrwt>
<totfact> 0.84005286E+02</totfact>
</mgrwt>
</event>
<event>
 7    1  0.1111284E-005  0.1333581E+03  0.7546771E-02  0.1235509E+00
         -1   -1    0    0    0  501 -0.00000000000E+00  0.00000000000E+00  0.78598498291E+03  0.78598498291E+03  0.00000000000E+00 0.  1.
          1   -1    0    0  501    0  0.00000000000E+00 -0.00000000000E+00 -0.18002827783E+02  0.18002827783E+02  0.00000000000E+00 0. -1.
         23    2    1    2    0    0  0.23134429319E+02  0.40300336716E+02  0.27597312192E+03  0.29422583557E+03  0.90820478618E+02 0.  0.
          5    1    1    2  502    0 -0.34912572924E+02 -0.19183147799E+02  0.48118905427E+03  0.48285802971E+03  0.47000000000E+01 0. -1.
         -5    1    1    2    0  502  0.11778143604E+02 -0.21117188918E+02  0.10819978943E+02  0.26903945415E+02  0.47000000000E+01 0. -1.
        -11    1    3    3    0    0 -0.18042194263E+01  0.62543314088E+02  0.22284312635E+03  0.23146053725E+03  0.00000000000E+00 0.  1.
         11    1    3    3    0    0  0.24938648745E+02 -0.22242977372E+02  0.53129995570E+02  0.62765298318E+02  0.00000000000E+00 0. -1.
<mgrwt>
<rscale>  0 0.12471933E+03</rscale>
<asrwt>0</asrwt>
<pdfrwt beam="2">  1        1 0.27696664E-02 0.13335810E+03</pdfrwt>
<pdfrwt beam="1">  1       -1 0.12092074E+00 0.13335810E+03</pdfrwt>
<totfact> 0.23933953E+03</totfact>
</mgrwt>
</event>
<event>
 7    1  0.1111284E-005  0.2337229E+03  0.7546771E-02  0.1128576E+00
          1   -1    0    0  501    0  0.00000000000E+00  0.00000000000E+00  0.21079456373E+03  0.21079456373E+03  0.00000000000E+00 0. -1.
         -1   -1    0    0    0  501 -0.00000000000E+00 -0.00000000000E+00 -0.23590783375E+03  0.23590783375E+03  0.00000000000E+00 0.  1.
         23    2    1    2    0    0 -0.87053059148E+02  0.17726466529E+03  0.15250627930E+02  0.20951967367E+03  0.68300185476E+02 0.  0.
          5    1    1    2  502    0 -0.29384790017E+02 -0.66611427137E+02 -0.15259290827E+02  0.74535119683E+02  0.47000000000E+01 0. -1.
         -5    1    1    2    0  502  0.11643784917E+03 -0.11065323815E+03 -0.25104607119E+02  0.16264760413E+03  0.47000000000E+01 0. -1.
        -11    1    3    3    0    0 -0.60227658881E+02  0.55842490569E+02 -0.96610147857E+01  0.82698789918E+02  0.00000000000E+00 0.  1.
         11    1    3    3    0    0 -0.26825400267E+02  0.12142217472E+03  0.24911642715E+02  0.12682088375E+03  0.00000000000E+00 0. -1.
<mgrwt>
<rscale>  0 0.22727088E+03</rscale>
<asrwt>0</asrwt>
<pdfrwt beam="1">  1        1 0.32429933E-01 0.23372291E+03</pdfrwt>
<pdfrwt beam="2">  1       -1 0.36293513E-01 0.23372291E+03</pdfrwt>
<totfact> 0.10058135E+03</totfact>
</mgrwt>
</event>
<event>
 7    1  0.1111284E-005  0.1303993E+03  0.7546771E-02  0.1239865E+00
          2   -1    0    0  501    0  0.00000000000E+00  0.00000000000E+00  0.13059967016E+03  0.13059967016E+03  0.00000000000E+00 0. -1.
         -2   -1    0    0    0  501 -0.00000000000E+00 -0.00000000000E+00 -0.10341308140E+03  0.10341308140E+03  0.00000000000E+00 0.  1.
         23    2    1    2    0    0  0.16649088792E+02  0.33197788714E+02  0.27676961915E+02  0.10361253731E+03  0.92683646527E+02 0.  0.
          5    1    1    2  502    0 -0.52070601138E+02 -0.35846510961E+02 -0.41635138678E+02  0.75841246190E+02  0.47000000000E+01 0. -1.
         -5    1    1    2    0  502  0.35421512346E+02  0.26487222472E+01  0.41144765517E+02  0.54558968061E+02  0.47000000000E+01 0. -1.
        -11    1    3    3    0    0 -0.11517623578E+02 -0.39293376214E+01 -0.28282263254E+02  0.30789312461E+02  0.00000000000E+00 0.  1.
         11    1    3    3    0    0  0.28166712370E+02  0.37127126335E+02  0.55959225169E+02  0.72823224847E+02  0.00000000000E+00 0. -1.
<mgrwt>
<rscale>  0 0.12198062E+03</rscale>
<asrwt>0</asrwt>
<pdfrwt beam="1">  1        2 0.20092257E-01 0.13039929E+03</pdfrwt>
<pdfrwt beam="2">  1       -2 0.15909705E-01 0.13039929E+03</pdfrwt>
<totfact> 0.80702367E+03</totfact>
</mgrwt>
</event>
<event>
 7    1  0.1111284E-005  0.2172995E+03  0.7546771E-02  0.1139392E+00
          3   -1    0    0  501    0  0.00000000000E+00  0.00000000000E+00  0.25691523731E+03  0.25691523731E+03  0.00000000000E+00 0. -1.
         -3   -1    0    0    0  501 -0.00000000000E+00 -0.00000000000E+00 -0.30140205834E+03  0.30140205834E+03  0.00000000000E+00 0.  1.
         23    2    1    2    0    0 -0.15322361965E+03 -0.90059157654E+02  0.16304749322E+03  0.25783509454E+03  0.91139022571E+02 0.  0.
          5    1    1    2  502    0  0.27610055277E+02  0.84450042360E+02 -0.10876530984E+03  0.14052084341E+03  0.47000000000E+01 0.  1.
         -5    1    1    2    0  502  0.12561356437E+03  0.56091152944E+01 -0.98769004396E+02  0.15996135770E+03  0.47000000000E+01 0.  1.
        -11    1    3    3    0    0 -0.11566540394E+02 -0.70730016754E+01  0.65453510305E+02  0.66842907033E+02  0.00000000000E+00 0. -1.
         11    1    3    3    0    0 -0.14165707925E+03 -0.82986155979E+02  0.97593982913E+02  0.19099218750E+03  0.00000000000E+00 0.  1.
<mgrwt>
<rscale>  0 0.21276886E+03</rscale>
<asrwt>0</asrwt>
<pdfrwt beam="1">  1        3 0.39525421E-01 0.21729947E+03</pdfrwt>
<pdfrwt beam="2">  1       -3 0.46369547E-01 0.21729947E+03</pdfrwt>
<totfact> 0.72618988E+01</totfact>
</mgrwt>
</event>
<event>
 7    1  0.1111284E-005  0.1844529E+03  0.7546771E-02  0.1168285E+00
          2   -1    0    0  501    0  0.00000000000E+00  0.00000000000E+00  0.11143377264E+04  0.11143377264E+04  0.00000000000E+00 0. -1.
         -2   -1    0    0    0  501 -0.00000000000E+00 -0.00000000000E+00 -0.27686303386E+02  0.27686303386E+02  0.00000000000E+00 0.  1.
         23    2    1    2    0    0  0.44484848585E+02 -0.12812422371E+03  0.56497035535E+03  0.58869411331E+03  0.94734039171E+02 0.  0.
          5    1    1    2  502    0 -0.44112691612E+02  0.12241219514E+03  0.25291876858E+03  0.28446558418E+03  0.47000000000E+01 0.  1.
         -5    1    1    2    0  502 -0.37215697304E+00  0.57120285725E+01  0.26876229910E+03  0.26886433231E+03  0.47000000000E+01 0.  1.
        -11    1    3    3    0    0 -0.23881636707E+02 -0.74546013925E+02  0.25019536806E+03  0.26215484540E+03  0.00000000000E+00 0.  1.
         11    1    3    3    0    0  0.68366485292E+02 -0.53578209782E+02  0.31477498728E+03  0.32653926792E+03  0.00000000000E+00 0. -1.
<mgrwt>
<rscale>  0 0.17950309E+03</rscale>
<asrwt>0</asrwt>
<pdfrwt beam="1">  1        2 0.17143654E+00 0.18445287E+03</pdfrwt>
<pdfrwt beam="2">  1       -2 0.42594321E-02 0.18445287E+03</pdfrwt>
<totfact> 0.55283581E+03</totfact>
</mgrwt>
</event>
<event>
 7    1  0.1111284E-005  0.1664086E+03  0.7546771E-02  0.1188507E+00
          2   -1    0    0  501    0  0.00000000000E+00  0.00000000000E+00  0.11186339046E+03  0.11186339046E+03  0.00000000000E+00 0. -1.
         -2   -1    0    0    0  501 -0.00000000000E+00 -0.00000000000E+00 -0.23355407226E+03  0.23355407226E+03  0.00000000000E+00 0.  1.
         23    2    1    2    0    0 -0.74575350766E+02 -0.80657998906E+02 -0.63722791426E+01  0.14295722760E+03  0.91263175779E+02 0.  0.
          5    1    1    2  502    0 -0.20750772927E+02  0.66407244301E+02 -0.43797587712E+02  0.82345827837E+02  0.47000000000E+01 0. -1.
         -5    1    1    2    0  502  0.95326123693E+02  0.14250754605E+02 -0.71520814943E+02  0.12011440728E+03  0.47000000000E+01 0. -1.
        -11    1    3    3    0    0 -0.14442675820E+02  0.48915512084E+01 -0.31865119498E+02  0.35325684688E+02  0.00000000000E+00 0.  1.
         11    1    3    3    0    0 -0.60132674946E+02 -0.85549550115E+02  0.25492840355E+02  0.10763154292E+03  0.00000000000E+00 0. -1.
<mgrwt>
<rscale>  0 0.16016784E+03</rscale>
<asrwt>0</asrwt>
<pdfrwt beam="1">  1        2 0.17209752E-01 0.16640857E+03</pdfrwt>
<pdfrwt beam="2">  1       -2 0.35931396E-01 0.16640857E+03</pdfrwt>
<totfact> 0.23630488E+03</totfact>
</mgrwt>
</event>
<event>
 7    1  0.1111284E-005  0.1667631E+03  0.7546771E-02  0.1189107E+00
          3   -1    0    0  501    0  0.00000000000E+00  0.00000000000E+00  0.49849091493E+03  0.49849091493E+03  0.00000000000E+00 0. -1.
         -3   -1    0    0    0  501 -0.00000000000E+00 -0.00000000000E+00 -0.48059201687E+02  0.48059201687E+02  0.00000000000E+00 0.  1.
         23    2    1    2    0    0  0.47148767045E+02  0.99807552605E+02  0.24223554725E+03  0.27980007582E+03  0.86171156905E+02 0.  0.
          5    1    1    2  502    0 -0.79159855660E+02 -0.74492576268E+02  0.88654498456E+02  0.14034648825E+03  0.47000000000E+01 0.  1.
         -5    1    1    2    0  502  0.32011088614E+02 -0.25314976337E+02  0.11954166754E+03  0.12640355256E+03  0.47000000000E+01 0.  1.
        -11    1    3    3    0    0 -0.14904101569E+02  0.53726925379E+02  0.14654482542E+03  0.15679317782E+03  0.00000000000E+00 0. -1.
         11    1    3    3    0    0  0.62052868615E+02  0.46080627227E+02  0.95690721833E+02  0.12300689799E+03  0.00000000000E+00 0.  1.
<mgrwt>
<rscale>  0 0.15963745E+03</rscale>
<asrwt>0</asrwt>
<pdfrwt beam="1">  1        3 0.76690906E-01 0.16676313E+03</pdfrwt>
<pdfrwt beam="2">  1       -3 0.73937237E-02 0.16676313E+03</pdfrwt>
<totfact> 0.47413922E+02</totfact>
</mgrwt>
</event>
<event>
 7    1  0.1111284E-005  0.1451577E+03  0.7546771E-02  0.1216812E+00
         -1   -1    0    0    0  501 -0.00000000000E+00  0.00000000000E+00  0.23517046729E+02  0.23517046729E+02  0.00000000000E+00 0.  1.
          1   -1    0    0  501    0  0.00000000000E+00 -0.00000000000E+00 -0.76886715367E+03  0.76886715367E+03  0.00000000000E+00 0. -1.
         23    2    1    2    0    0 -0.73260719250E+01 -0.73435264051E+02 -0.42420620242E+03  0.43995809166E+03  0.90364876512E+02 0.  0.
          5    1    1    2  502    0  0.46883946336E+02  0.89393170424E+02 -0.20369620207E+03  0.22738398378E+03  0.47000000000E+01 0.  1.
         -5    1    1    2    0  502 -0.39557874411E+02 -0.15957906373E+02 -0.11744770245E+03  0.12504212496E+03  0.47000000000E+01 0.  1.
        -11    1    3    3    0    0 -0.42527695274E+02 -0.24338462941E+02 -0.26866404647E+03  0.27309583576E+03  0.00000000000E+00 0.  1.
         11    1    3    3    0    0  0.35201623349E+02 -0.49096801110E+02 -0.15554215595E+03  0.16686225590E+03  0.00000000000E+00 0. -1.
<mgrwt>
<rscale>  0 0.13744253E+03</rscale>
<asrwt>0</asrwt>
<pdfrwt beam="2">  1        1 0.11828725E+00 0.14515769E+03</pdfrwt>
<pdfrwt beam="1">  1       -1 0.36180072E-02 0.14515769E+03</pdfrwt>
<totfact> 0.67822389E+03</totfact>
</mgrwt>
</event>
<event>
 7    1  0.1111284E-005  0.1483119E+03  0.7546771E-02  0.1212134E+00
          1   -1    0    0  501    0  0.00000000000E+00  0.00000000000E+00  0.19407122728E+03  0.19407122728E+03  0.00000000000E+00 0. -1.
         -1   -1    0    0    0  501 -0.00000000000E+00 -0.00000000000E+00 -0.13367337588E+03  0.13367337588E+03  0.00000000000E+00 0.  1.
         23    2    1    2    0    0  0.71893472366E+02  0.34676883811E+02  0.11779356508E+03  0.16871413106E+03  0.90653055132E+02 0.  0.
          5    1    1    2  502    0 -0.54183060442E+01  0.19791861519E+02 -0.69039218684E+02  0.72177417100E+02  0.47000000000E+01 0.  1.
         -5    1    1    2    0  502 -0.66475166322E+02 -0.54468745330E+02  0.11643505003E+02  0.86853055007E+02  0.47000000000E+01 0.  1.
        -11    1    3    3    0    0  0.43696487643E+02  0.86818795509E+01 -0.29758438003E+00  0.44551617494E+02  0.00000000000E+00 0.  1.
         11    1    3    3    0    0  0.28196984723E+02  0.25995004260E+02  0.11809114946E+03  0.12416251356E+03  0.00000000000E+00 0. -1.
<mgrwt>
<rscale>  0 0.14089180E+03</rscale>
<asrwt>0</asrwt>
<pdfrwt beam="1">  1        1 0.29857112E-01 0.14831191E+03</pdfrwt>
<pdfrwt beam="2">  1       -1 0.20565135E-01 0.14831191E+03</pdfrwt>
<totfact> 0.28537683E+03</totfact>
</mgrwt>
</event>
<event>
 7    1  0.1111284E-005  0.1356294E+03  0.7546771E-02  0.1231143E+00
          2   -1    0    0  501    0  0.00000000000E+00  0.00000000000E+00  0.41006691964E+03  0.41006691964E+03  0.00000000000E+00 0. -1.
         -2   -1    0    0    0  501 -0.00000000000E+00 -0.00000000000E+00 -0.43352944470E+02  0.43352944470E+02  0.00000000000E+00 0.  1.
         23    2    1    2    0    0 -0.52262354346E+02  0.69193503508E+01  0.26011981705E+03  0.28091580550E+03  0.92044225605E+02 0.  0.
          5    1    1    2  502    0 -0.12771118886E+02 -0.47643663056E+02  0.73879549116E+02  0.88956719165E+02  0.47000000000E+01 0.  1.
         -5    1    1    2    0  502  0.65033473232E+02  0.40724312705E+02  0.32714609005E+02  0.83547339444E+02  0.47000000000E+01 0.  1.
        -11    1    3    3    0    0 -0.20048063964E+02 -0.34444993571E+02  0.18541075456E+03  0.18964580238E+03  0.00000000000E+00 0.  1.
         11    1    3    3    0    0 -0.32214290382E+02  0.41364343922E+02  0.74709062483E+02  0.91270003123E+02  0.00000000000E+00 0. -1.
<mgrwt>
<rscale>  0 0.12754577E+03</rscale>
<asrwt>0</asrwt>
<pdfrwt beam="1">  1        2 0.63087216E-01 0.13562941E+03</pdfrwt>
<pdfrwt beam="2">  1       -2 0.66696841E-02 0.13562941E+03</pdfrwt>
<totfact> 0.92792284E+03</totfact>
</mgrwt>
</event>
<event>
 6    1  0.1111284E-005  0.1634218E+03  0.7546771E-02  0.1233449E+00
         -1   -1    0    0    0  501 -0.00000000000E+00  0.00000000000E+00  0.25783523585E+03  0.25783523585E+03  0.00000000000E+00 0.  1.
          1   -1    0    0  501    0  0.00000000000E+00 -0.00000000000E+00 -0.56081231169E+02  0.56081231169E+02  0.00000000000E+00 0. -1.
          5    1    1    2  502    0 -0.76107709031E+02  0.30347316634E+02  0.63620074992E+02  0.10384096948E+03  0.47000000000E+01 0. -1.
         -5    1    1    2    0  502  0.43065324228E+02 -0.58962274694E+02  0.13328244598E+03  0.15204431062E+03  0.47000000000E+01 0.  1.
        -11    1    1    2    0    0  0.58284545624E+01  0.24750087634E+02 -0.93506928228E+01  0.27091939332E+02  0.00000000000E+00 0. -1.
         11    1    1    2    0    0  0.27213930240E+02  0.38648704254E+01  0.14202176534E+02  0.30939247580E+02  0.00000000000E+00 0.  1.
<mgrwt>
<rscale>  0 0.12604251E+03</rscale>
<asrwt>0</asrwt>
<pdfrwt beam="2">  1        1 0.86278819E-02 0.16342177E+03</pdfrwt>
<pdfrwt beam="1">  1       -1 0.39666959E-01 0.16342177E+03</pdfrwt>
<totfact> 0.47489045E+03</totfact>
</mgrwt>
</event>
<event>
 7    1  0.1111284E-005  0.1703699E+03  0.7546771E-02  0.1189380E+00
          1   -1    0    0  501    0  0.00000000000E+00  0.00000000000E+00  0.21528399545E+03  0.21528399545E+03  0.00000000000E+00 0. -1.
         -1   -1    0    0    0  501 -0.00000000000E+00 -0.00000000000E+00 -0.16585635384E+03  0.16585635384E+03  0.00000000000E+00 0.  1.
         23    2    1    2    0    0 -0.34731931541E+02 -0.86968431309E+02  0.13729554037E+03  0.18944614952E+03  0.90939337199E+02 0.  0.
          5    1    1    2  502    0 -0.13585292843E+02 -0.59746870236E+01  0.30083511959E+02  0.33872773114E+02  0.47000000000E+01 0. -1.
         -5    1    1    2    0  502  0.48317224384E+02  0.92943118333E+02 -0.11795141072E+03  0.15782142665E+03  0.47000000000E+01 0.  1.
        -11    1    3    3    0    0 -0.19465722317E+02 -0.59104668019E+02  0.14409275649E+03  0.15695540322E+03  0.00000000000E+00 0. -1.
         11    1    3    3    0    0 -0.15266209224E+02 -0.27863763290E+02 -0.67972161131E+01  0.32490746308E+02  0.00000000000E+00 0.  1.
<mgrwt>
<rscale>  0 0.15939607E+03</rscale>
<asrwt>0</asrwt>
<pdfrwt beam="1">  1        1 0.33120615E-01 0.17036989E+03</pdfrwt>
<pdfrwt beam="2">  1       -1 0.25516362E-01 0.17036989E+03</pdfrwt>
<totfact> 0.17714788E+03</totfact>
</mgrwt>
</event>
<event>
 7    1  0.1111284E-005  0.1349085E+03  0.7546771E-02  0.1233156E+00
          3   -1    0    0  501    0  0.00000000000E+00  0.00000000000E+00  0.35698167023E+03  0.35698167023E+03  0.00000000000E+00 0. -1.
         -3   -1    0    0    0  501 -0.00000000000E+00 -0.00000000000E+00 -0.41425666927E+02  0.41425666927E+02  0.00000000000E+00 0.  1.
         23    2    1    2    0    0 -0.34226111975E+02 -0.37240188530E+02  0.17718546364E+03  0.20515437829E+03  0.90196297172E+02 0.  0.
          5    1    1    2  502    0 -0.36369901915E+02  0.86736797279E+01  0.29291133463E+01  0.37797780230E+02  0.47000000000E+01 0.  1.
         -5    1    1    2    0  502  0.70596013889E+02  0.28566508802E+02  0.13544142631E+03  0.15545517863E+03  0.47000000000E+01 0.  1.
        -11    1    3    3    0    0  0.76626408083E+01  0.24920216432E+02  0.28390471808E+02  0.38545455512E+02  0.00000000000E+00 0.  1.
         11    1    3    3    0    0 -0.41888752783E+02 -0.62160404962E+02  0.14879499183E+03  0.16660892278E+03  0.00000000000E+00 0. -1.
<mgrwt>
<rscale>  0 0.12623219E+03</rscale>
<asrwt>0</asrwt>
<pdfrwt beam="1">  1        3 0.54920255E-01 0.13490849E+03</pdfrwt>
<pdfrwt beam="2">  1       -3 0.63731798E-02 0.13490849E+03</pdfrwt>
<totfact> 0.11746251E+03</totfact>
</mgrwt>
</event>
<event>
 7    1  0.1111284E-005  0.2233535E+03  0.7546771E-02  0.1131407E+00
          1   -1    0    0  501    0  0.00000000000E+00  0.00000000000E+00  0.20414326583E+02  0.20414326583E+02  0.00000000000E+00 0. -1.
         -1   -1    0    0    0  501 -0.00000000000E+00 -0.00000000000E+00 -0.61092872793E+03  0.61092872793E+03  0.00000000000E+00 0.  1.
         23    2    1    2    0    0 -0.26207608377E+02  0.20001578671E+02 -0.22095702169E+03  0.24078347330E+03  0.89820786541E+02 0.  0.
          5    1    1    2  502    0  0.73393922446E+02 -0.20439194276E+02 -0.18785362398E+03  0.20276957996E+03  0.47000000000E+01 0. -1.
         -5    1    1    2    0  502 -0.47186314069E+02  0.43761560499E+00 -0.18170375567E+03  0.18779000125E+03  0.47000000000E+01 0.  1.
        -11    1    3    3    0    0 -0.45982094414E+02  0.40244320974E+02 -0.10559248734E+03  0.12199890065E+03  0.00000000000E+00 0.  1.
         11    1    3    3    0    0  0.19774486037E+02 -0.20242742303E+02 -0.11536453435E+03  0.11878457265E+03  0.00000000000E+00 0. -1.
<mgrwt>
<rscale>  0 0.22335352E+03</rscale>
<asrwt>0</asrwt>
<pdfrwt beam="1">  1        1 0.31406659E-02 0.22335352E+03</pdfrwt>
<pdfrwt beam="2">  1       -1 0.93989028E-01 0.22335352E+03</pdfrwt>
<totfact> 0.36509149E+03</totfact>
</mgrwt>
</event>
<event>
 7    1  0.1111284E-005  0.1559279E+03  0.7546771E-02  0.1201516E+00
          1   -1    0    0  501    0  0.00000000000E+00  0.00000000000E+00  0.85500462342E+03  0.85500462342E+03  0.00000000000E+00 0. -1.
         -1   -1    0    0    0  501 -0.00000000000E+00 -0.00000000000E+00 -0.24018404170E+02  0.24018404170E+02  0.00000000000E+00 0.  1.
         23    2    1    2    0    0  0.24668150355E+01  0.93185890339E+02  0.36547973120E+03  0.38809554414E+03  0.91394869288E+02 0.  0.
          5    1    1    2  502    0  0.45349811463E+02 -0.95193595449E+02  0.27829700110E+03  0.29764028093E+03  0.47000000000E+01 0.  1.
         -5    1    1    2    0  502 -0.47816626498E+02  0.20077051100E+01  0.18720948695E+03  0.19328720251E+03  0.47000000000E+01 0.  1.
        -11    1    3    3    0    0 -0.12552861819E+02  0.78349014739E+02  0.35637856719E+03  0.36510522538E+03  0.00000000000E+00 0. -1.
         11    1    3    3    0    0  0.15019676855E+02  0.14836875600E+02  0.91011640107E+01  0.22990318761E+02  0.00000000000E+00 0.  1.
<mgrwt>
<rscale>  0 0.14915410E+03</rscale>
<asrwt>0</asrwt>
<pdfrwt beam="1">  1        1 0.13153915E+00 0.15592788E+03</pdfrwt>
<pdfrwt beam="2">  1       -1 0.36951398E-02 0.15592788E+03</pdfrwt>
<totfact> 0.56130441E+03</totfact>
</mgrwt>
</event>
<event>
 7    1  0.1111284E-005  0.1407115E+03  0.7546771E-02  0.1223086E+00
         -1   -1    0    0    0  501 -0.00000000000E+00  0.00000000000E+00  0.14895703850E+03  0.14895703850E+03  0.00000000000E+00 0.  1.
          1   -1    0    0  501    0  0.00000000000E+00 -0.00000000000E+00 -0.11200436726E+03  0.11200436726E+03  0.00000000000E+00 0. -1.
         23    2    1    2    0    0 -0.64566519649E+02 -0.25792102296E+01 -0.97608476740E+01  0.11269855284E+03  0.91816130826E+02 0.  0.
          5    1    1    2  502    0  0.44270700944E+01  0.28065440691E+02  0.72401642433E+02  0.77918904880E+02  0.47000000000E+01 0. -1.
         -5    1    1    2    0  502  0.60139449555E+02 -0.25486230461E+02 -0.25688123519E+02  0.70343948039E+02  0.47000000000E+01 0. -1.
        -11    1    3    3    0    0 -0.36199440569E+02 -0.38739444801E+02  0.21395117858E+02  0.57174252502E+02  0.00000000000E+00 0.  1.
         11    1    3    3    0    0 -0.28367079080E+02  0.36160234571E+02 -0.31155965532E+02  0.55524300338E+02  0.00000000000E+00 0. -1.
<mgrwt>
<rscale>  0 0.13298969E+03</rscale>
<asrwt>0</asrwt>
<pdfrwt beam="2">  1        1 0.17231441E-01 0.14071148E+03</pdfrwt>
<pdfrwt beam="1">  1       -1 0.22916468E-01 0.14071148E+03</pdfrwt>
<totfact> 0.47853073E+03</totfact>
</mgrwt>
</event>
<event>
 7    1  0.1205362E-005  0.1725289E+03  0.7546771E-02  0.1181560E+00
          1   -1    0    0  501    0  0.00000000000E+00  0.00000000000E+00  0.73287356026E+02  0.73287356026E+02  0.00000000000E+00 0. -1.
         -1   -1    0    0    0  501 -0.00000000000E+00 -0.00000000000E+00 -0.36789491894E+03  0.36789491894E+03  0.00000000000E+00 0.  1.
         23    2    1    2    0    0  0.71945280617E+02  0.94681858111E+02 -0.94438144050E+02  0.17692103437E+03  0.90783873534E+02 0.  0.
          5    1    1    2  502    0 -0.95682879878E+01 -0.76470270618E+02 -0.31395322693E+02  0.83348729507E+02  0.47000000000E+01 0. -1.
         -5    1    1    2    0  502 -0.62376992629E+02 -0.18211587493E+02 -0.16877409618E+03  0.18091251109E+03  0.47000000000E+01 0. -1.
        -11    1    3    3    0    0  0.32579621843E+02  0.62207767391E+02 -0.10351715703E+03  0.12508812846E+03  0.00000000000E+00 0. -1.
         11    1    3    3    0    0  0.39365658774E+02  0.32474090721E+02  0.90790129750E+01  0.51832905914E+02  0.00000000000E+00 0.  1.
<mgrwt>
<rscale>  0 0.16648874E+03</rscale>
<asrwt>0</asrwt>
<pdfrwt beam="1">  1        1 0.11274978E-01 0.17252886E+03</pdfrwt>
<pdfrwt beam="2">  1       -1 0.56599219E-01 0.17252886E+03</pdfrwt>
<totfact> 0.17456412E+03</totfact>
</mgrwt>
</event>
<event>
 7    1  0.1111284E-005  0.1317399E+03  0.7546771E-02  0.1238554E+00
         -1   -1    0    0    0  501 -0.00000000000E+00  0.00000000000E+00  0.13323632422E+03  0.13323632422E+03  0.00000000000E+00 0.  1.
          1   -1    0    0  501    0  0.00000000000E+00 -0.00000000000E+00 -0.13659117933E+03  0.13659117933E+03  0.00000000000E+00 0. -1.
         23    2    1    2    0    0 -0.35389402231E+02 -0.18071833270E+02 -0.70560707304E+02  0.12193557021E+03  0.91161773348E+02 0.  0.
          5    1    1    2  502    0  0.48921040388E+02 -0.38938853476E+02  0.59345116706E+01  0.62982624043E+02  0.47000000000E+01 0. -1.
         -5    1    1    2    0  502 -0.13531638157E+02  0.57010686746E+02  0.61271340523E+02  0.84909309289E+02  0.47000000000E+01 0.  1.
        -11    1    3    3    0    0 -0.15338163389E+02 -0.11105169315E+02 -0.90711624532E+02  0.92667053837E+02  0.00000000000E+00 0. -1.
         11    1    3    3    0    0 -0.20051238842E+02 -0.69666639556E+01  0.20150917228E+02  0.29268516376E+02  0.00000000000E+00 0.  1.
<mgrwt>
<rscale>  0 0.12279610E+03</rscale>
<asrwt>0</asrwt>
<pdfrwt beam="2">  1        1 0.21014028E-01 0.13173989E+03</pdfrwt>
<pdfrwt beam="1">  1       -1 0.20497896E-01 0.13173989E+03</pdfrwt>
<totfact> 0.44328666E+03</totfact>
</mgrwt>
</event>
<event>
 7    1  0.1111284E-005  0.1538037E+03  0.7546771E-02  0.1204091E+00
          2   -1    0    0  501    0  0.00000000000E+00  0.00000000000E+00  0.74379790116E+03  0.74379790116E+03  0.00000000000E+00 0. -1.
         -2   -1    0    0    0  501 -0.00000000000E+00 -0.00000000000E+00 -0.27860494457E+02  0.27860494457E+02  0.00000000000E+00 0.  1.
         23    2    1    2    0    0  0.68496632100E+02  0.59109374472E+02  0.40163443411E+03  0.42174136359E+03  0.91486897096E+02 0.  0.
          5    1    1    2  502    0 -0.24505357465E+02 -0.49541743853E+01  0.26035962121E+03  0.26159946244E+03  0.47000000000E+01 0. -1.
         -5    1    1    2    0  502 -0.43991274634E+02 -0.54155200087E+02  0.53943351379E+02  0.88317569591E+02  0.47000000000E+01 0.  1.
        -11    1    3    3    0    0  0.52971200847E+02 -0.35413640047E+01  0.26956483368E+03  0.27474295066E+03  0.00000000000E+00 0. -1.
         11    1    3    3    0    0  0.15525431253E+02  0.62650738477E+02  0.13206960043E+03  0.14699841293E+03  0.00000000000E+00 0.  1.
<mgrwt>
<rscale>  0 0.14709334E+03</rscale>
<asrwt>0</asrwt>
<pdfrwt beam="1">  1        2 0.11443043E+00 0.15380368E+03</pdfrwt>
<pdfrwt beam="2">  1       -2 0.42862305E-02 0.15380368E+03</pdfrwt>
<totfact> 0.93133602E+03</totfact>
</mgrwt>
</event>
<event>
 7    1  0.1111284E-005  0.1292327E+03  0.7546771E-02  0.1241743E+00
          2   -1    0    0  501    0  0.00000000000E+00  0.00000000000E+00  0.67841008477E+03  0.67841008477E+03  0.00000000000E+00 0. -1.
         -2   -1    0    0    0  501 -0.00000000000E+00 -0.00000000000E+00 -0.20128231229E+02  0.20128231229E+02  0.00000000000E+00 0.  1.
         23    2    1    2    0    0  0.32278472342E+02  0.57728159637E+01  0.36350241919E+03  0.37667497510E+03  0.93138622115E+02 0.  0.
          5    1    1    2  502    0 -0.42585894004E+02 -0.37628801215E+02  0.27861004704E+03  0.28438553648E+03  0.47000000000E+01 0.  1.
         -5    1    1    2    0  502  0.10307421662E+02  0.31855985251E+02  0.16169387308E+02  0.37477804412E+02  0.47000000000E+01 0.  1.
        -11    1    3    3    0    0  0.45530355345E+02 -0.28327699647E+02  0.28584551753E+03  0.29083179282E+03  0.00000000000E+00 0.  1.
         11    1    3    3    0    0 -0.13251883004E+02  0.34100515611E+02  0.77656901666E+02  0.85843182283E+02  0.00000000000E+00 0. -1.
<mgrwt>
<rscale>  0 0.12082452E+03</rscale>
<asrwt>0</asrwt>
<pdfrwt beam="1">  1        2 0.10437076E+00 0.12923272E+03</pdfrwt>
<pdfrwt beam="2">  1       -2 0.30966515E-02 0.12923272E+03</pdfrwt>
<totfact> 0.16633134E+04</totfact>
</mgrwt>
</event>
<event>
 7    1  0.1111284E-005  0.1832570E+03  0.7546771E-02  0.1182968E+00
          2   -1    0    0  501    0  0.00000000000E+00  0.00000000000E+00  0.85671197381E+03  0.85671197381E+03  0.00000000000E+00 0. -1.
         -2   -1    0    0    0  501 -0.00000000000E+00 -0.00000000000E+00 -0.49886023406E+02  0.49886023406E+02  0.00000000000E+00 0.  1.
         23    2    1    2    0    0  0.68869345276E+02 -0.36626762198E+02  0.66216713116E+03  0.67312571654E+03  0.92457634864E+02 0.  0.
          5    1    1    2  502    0 -0.77637347749E+02  0.28534126992E+01  0.17206854090E+03  0.18885277996E+03  0.47000000000E+01 0. -1.
         -5    1    1    2    0  502  0.87680024729E+01  0.33773349499E+02 -0.27409721655E+02  0.44619500725E+02  0.47000000000E+01 0.  1.
        -11    1    3    3    0    0  0.84120782312E+02 -0.52323967702E+02  0.54626785040E+03  0.55517805072E+03  0.00000000000E+00 0. -1.
         11    1    3    3    0    0 -0.15251437036E+02  0.15697205503E+02  0.11589928076E+03  0.11794766582E+03  0.00000000000E+00 0.  1.
<mgrwt>
<rscale>  0 0.16518166E+03</rscale>
<asrwt>0</asrwt>
<pdfrwt beam="1">  1        2 0.13180183E+00 0.18325701E+03</pdfrwt>
<pdfrwt beam="2">  1       -2 0.76747734E-02 0.18325701E+03</pdfrwt>
<totfact> 0.32386232E+03</totfact>
</mgrwt>
</event>
<event>
 7    1  0.1177861E-005  0.2292600E+03  0.7546771E-02  0.1129940E+00
         -2   -1    0    0    0  501 -0.00000000000E+00  0.00000000000E+00  0.37827261256E+02  0.37827261256E+02  0.00000000000E+00 0. -1.
          2   -1    0    0  501    0  0.00000000000E+00 -0.00000000000E+00 -0.13002939721E+04  0.13002939721E+04  0.00000000000E+00 0.  1.
         23    2    1    2    0    0 -0.18858262897E+03 -0.37020695937E+02 -0.58963829997E+03  0.62730606493E+03  0.94369669023E+02 0.  0.
          5    1    1    2  502    0  0.68565874957E+02  0.74670693086E+02 -0.25547474685E+03  0.27489348463E+03  0.47000000000E+01 0.  1.
         -5    1    1    2    0  502  0.12001675401E+03 -0.37649997149E+02 -0.41735366408E+03  0.43592168385E+03  0.47000000000E+01 0.  1.
        -11    1    3    3    0    0 -0.96585791209E+02  0.11537961903E+01 -0.16546447293E+03  0.19159498457E+03  0.00000000000E+00 0. -1.
         11    1    3    3    0    0 -0.91996837761E+02 -0.38174492127E+02 -0.42417382703E+03  0.43571108036E+03  0.00000000000E+00 0.  1.
<mgrwt>
<rscale>  0 0.22537267E+03</rscale>
<asrwt>0</asrwt>
<pdfrwt beam="2">  1        2 0.20004519E+00 0.22925997E+03</pdfrwt>
<pdfrwt beam="1">  1       -2 0.58195797E-02 0.22925997E+03</pdfrwt>
<totfact> 0.27171945E+03</totfact>
</mgrwt>
</event>
<event>
 7    1  0.1111284E-005  0.3545806E+03  0.7546771E-02  0.1060751E+00
          1   -1    0    0  501    0  0.00000000000E+00  0.00000000000E+00  0.77043278934E+02  0.77043278934E+02  0.00000000000E+00 0. -1.
         -1   -1    0    0    0  501 -0.00000000000E+00 -0.00000000000E+00 -0.40797661330E+03  0.40797661330E+03  0.00000000000E+00 0.  1.
         23    2    1    2    0    0  0.48767310679E+02 -0.79605191265E+02 -0.92860014654E+02  0.16005465286E+03  0.90990507819E+02 0.  0.
          5    1    1    2  502    0  0.42217408946E+02 -0.39657742618E+02 -0.22548167055E+02  0.62334228199E+02  0.47000000000E+01 0. -1.
         -5    1    1    2    0  502 -0.90984719624E+02  0.11926293388E+03 -0.21552515266E+03  0.26263101118E+03  0.47000000000E+01 0.  1.
        -11    1    3    3    0    0  0.45369872648E+02 -0.93949803713E+02 -0.51909246316E+02  0.11653137266E+03  0.00000000000E+00 0.  1.
         11    1    3    3    0    0  0.33974380306E+01  0.14344612448E+02 -0.40950768338E+02  0.43523280195E+02  0.00000000000E+00 0. -1.
<mgrwt>
<rscale>  0 0.35458063E+03</rscale>
<asrwt>0</asrwt>
<pdfrwt beam="1">  1        1 0.11852812E-01 0.35458063E+03</pdfrwt>
<pdfrwt beam="2">  1       -1 0.62765635E-01 0.35458063E+03</pdfrwt>
<totfact> 0.13628034E+03</totfact>
</mgrwt>
</event>
<event>
 7    1  0.1111284E-005  0.1315992E+03  0.7546771E-02  0.1237925E+00
          4   -1    0    0  501    0  0.00000000000E+00  0.00000000000E+00  0.70981363587E+03  0.70981363587E+03  0.00000000000E+00 0. -1.
         -4   -1    0    0    0  501 -0.00000000000E+00 -0.00000000000E+00 -0.19128094640E+02  0.19128094640E+02  0.00000000000E+00 0.  1.
         23    2    1    2    0    0  0.31127314607E+02  0.26926415090E+02  0.32114429958E+03  0.33666748852E+03  0.92289734678E+02 0.  0.
          5    1    1    2  502    0 -0.23652121933E+02 -0.11414909343E+02  0.48141516730E+01  0.27110682093E+02  0.47000000000E+01 0. -1.
         -5    1    1    2    0  502 -0.74751926740E+01 -0.15511505747E+02  0.36472708997E+03  0.36516355990E+03  0.47000000000E+01 0. -1.
        -11    1    3    3    0    0 -0.55700879081E+01  0.52203449303E+02  0.12599358152E+03  0.13649398735E+03  0.00000000000E+00 0.  1.
         11    1    3    3    0    0  0.36697402515E+02 -0.25277034213E+02  0.19515071806E+03  0.20017350116E+03  0.00000000000E+00 0. -1.
<mgrwt>
<rscale>  0 0.12318995E+03</rscale>
<asrwt>0</asrwt>
<pdfrwt beam="1">  1        4 0.10920208E+00 0.13159921E+03</pdfrwt>
<pdfrwt beam="2">  1       -4 0.29427843E-02 0.13159921E+03</pdfrwt>
<totfact> 0.63827948E+02</totfact>
</mgrwt>
</event>
<event>
 7    1  0.1111284E-005  0.1834206E+03  0.7546771E-02  0.1169572E+00
         -2   -1    0    0    0  501 -0.00000000000E+00  0.00000000000E+00  0.61783745932E+02  0.61783745932E+02  0.00000000000E+00 0.  1.
          2   -1    0    0  501    0  0.00000000000E+00 -0.00000000000E+00 -0.56534311801E+03  0.56534311801E+03  0.00000000000E+00 0. -1.
         23    2    1    2    0    0 -0.59078692727E+02 -0.12053801388E+03 -0.35610202469E+03  0.39178286069E+03  0.93088416164E+02 0.  0.
          5    1    1    2  502    0  0.11601103744E+02  0.13339954468E+03 -0.10609227844E+03  0.17090256193E+03  0.47000000000E+01 0. -1.
         -5    1    1    2    0  502  0.47477588984E+02 -0.12861530801E+02 -0.41365068950E+02  0.64441441321E+02  0.47000000000E+01 0. -1.
        -11    1    3    3    0    0  0.11579109501E+02 -0.74267343902E+02 -0.12658897906E+03  0.14722256541E+03  0.00000000000E+00 0. -1.
         11    1    3    3    0    0 -0.70657802228E+02 -0.46270669976E+02 -0.22951304563E+03  0.24456029528E+03  0.00000000000E+00 0.  1.
<mgrwt>
<rscale>  0 0.17818448E+03</rscale>
<asrwt>0</asrwt>
<pdfrwt beam="2">  1        2 0.86975867E-01 0.18342064E+03</pdfrwt>
<pdfrwt beam="1">  1       -2 0.95051914E-02 0.18342064E+03</pdfrwt>
<totfact> 0.38252462E+03</totfact>
</mgrwt>
</event>
<event>
 7    1  0.1111284E-005  0.1590404E+03  0.7546771E-02  0.1197275E+00
         -1   -1    0    0    0  501 -0.00000000000E+00  0.00000000000E+00  0.13788176539E+03  0.13788176539E+03  0.00000000000E+00 0.  1.
          1   -1    0    0  501    0  0.00000000000E+00 -0.00000000000E+00 -0.17708377734E+03  0.17708377734E+03  0.00000000000E+00 0. -1.
         23    2    1    2    0    0 -0.97811749893E+02 -0.10019848383E+02 -0.71478968057E+02  0.15268290449E+03  0.92386636859E+02 0.  0.
          5    1    1    2  502    0 -0.18543598713E+02  0.29746411358E+02 -0.10133517968E+02  0.36789838656E+02  0.47000000000E+01 0.  1.
         -5    1    1    2    0  502  0.11635534861E+03 -0.19726562975E+02  0.42410474078E+02  0.12549279958E+03  0.47000000000E+01 0.  1.
        -11    1    3    3    0    0 -0.26856195458E+02 -0.10568128387E+02  0.21307437839E+02  0.35874050222E+02  0.00000000000E+00 0.  1.
         11    1    3    3    0    0 -0.70955554436E+02  0.54828000407E+00 -0.92786405896E+02  0.11680885427E+03  0.00000000000E+00 0. -1.
<mgrwt>
<rscale>  0 0.15263284E+03</rscale>
<asrwt>0</asrwt>
<pdfrwt beam="2">  1        1 0.27243658E-01 0.15904041E+03</pdfrwt>
<pdfrwt beam="1">  1       -1 0.21212579E-01 0.15904041E+03</pdfrwt>
<totfact> 0.30534714E+03</totfact>
</mgrwt>
</event>
<event>
 7    1  0.1111284E-005  0.1512997E+03  0.7546771E-02  0.1208157E+00
         -1   -1    0    0    0  501 -0.00000000000E+00  0.00000000000E+00  0.24523734934E+03  0.24523734934E+03  0.00000000000E+00 0.  1.
          1   -1    0    0  501    0  0.00000000000E+00 -0.00000000000E+00 -0.79643765000E+02  0.79643765000E+02  0.00000000000E+00 0. -1.
         23    2    1    2    0    0  0.83703236750E+02  0.16123351799E+02  0.46353899474E+02  0.13224229992E+03  0.89850696029E+02 0.  0.
          5    1    1    2  502    0 -0.89757565052E+02 -0.26721975705E+02  0.13976172408E+03  0.16830304212E+03  0.47000000000E+01 0.  1.
         -5    1    1    2    0  502  0.60543283016E+01  0.10598623906E+02 -0.20522039212E+02  0.24335772297E+02  0.47000000000E+01 0.  1.
        -11    1    3    3    0    0  0.23903392048E+02 -0.10240973451E+02  0.60076728395E+02  0.65463447689E+02  0.00000000000E+00 0.  1.
         11    1    3    3    0    0  0.59799844702E+02  0.26364325250E+02 -0.13722828921E+02  0.66778852235E+02  0.00000000000E+00 0. -1.
<mgrwt>
<rscale>  0 0.14391447E+03</rscale>
<asrwt>0</asrwt>
<pdfrwt beam="2">  1        1 0.12252887E-01 0.15129974E+03</pdfrwt>
<pdfrwt beam="1">  1       -1 0.37728823E-01 0.15129974E+03</pdfrwt>
<totfact> 0.32380259E+03</totfact>
</mgrwt>
</event>
<event>
 7    1  0.1186218E-005  0.1709419E+03  0.7546771E-02  0.1183219E+00
          2   -1    0    0  501    0  0.00000000000E+00  0.00000000000E+00  0.15048669452E+03  0.15048669452E+03  0.00000000000E+00 0. -1.
         -2   -1    0    0    0  501 -0.00000000000E+00 -0.00000000000E+00 -0.17189806456E+03  0.17189806456E+03  0.00000000000E+00 0.  1.
         23    2    1    2    0    0  0.51819144549E+02 -0.10445334213E+03 -0.30063637125E+02  0.15122403237E+03  0.91483120104E+02 0.  0.
          5    1    1    2  502    0 -0.72054020278E+02  0.52478121645E+02 -0.39228699136E+02  0.97502389333E+02  0.47000000000E+01 0.  1.
         -5    1    1    2    0  502  0.20234875730E+02  0.51975220486E+02  0.47880966220E+02  0.73658337387E+02  0.47000000000E+01 0.  1.
        -11    1    3    3    0    0  0.13750974232E+02 -0.37082560657E+02  0.32913307690E+02  0.51453779456E+02  0.00000000000E+00 0. -1.
         11    1    3    3    0    0  0.38068170316E+02 -0.67370781474E+02 -0.62976944815E+02  0.99770252911E+02  0.00000000000E+00 0.  1.
<mgrwt>
<rscale>  0 0.16495007E+03</rscale>
<asrwt>0</asrwt>
<pdfrwt beam="1">  1        2 0.23151799E-01 0.17094190E+03</pdfrwt>
<pdfrwt beam="2">  1       -2 0.26445856E-01 0.17094190E+03</pdfrwt>
<totfact> 0.29444705E+03</totfact>
</mgrwt>
</event>
<event>
 7    1  0.1111284E-005  0.1565826E+03  0.7546771E-02  0.1202349E+00
         -3   -1    0    0    0  501 -0.00000000000E+00  0.00000000000E+00  0.31812054378E+02  0.31812054378E+02  0.00000000000E+00 0.  1.
          3   -1    0    0  501    0  0.00000000000E+00 -0.00000000000E+00 -0.66831207843E+03  0.66831207843E+03  0.00000000000E+00 0. -1.
         23    2    1    2    0    0 -0.65860962385E+02 -0.67499533224E+02 -0.36957421142E+03  0.39066091254E+03  0.84480752144E+02 0.  0.
          5    1    1    2  502    0  0.10022707536E+03  0.44627268106E+02 -0.22536559590E+03  0.25069663242E+03  0.47000000000E+01 0. -1.
         -5    1    1    2    0  502 -0.34366112976E+02  0.22872265118E+02 -0.41560216736E+02  0.58766587853E+02  0.47000000000E+01 0. -1.
        -11    1    3    3    0    0 -0.44626774318E+02  0.22374836328E-01 -0.22859529897E+03  0.23291062706E+03  0.00000000000E+00 0.  1.
         11    1    3    3    0    0 -0.21234188067E+02 -0.67521908060E+02 -0.14097891245E+03  0.15775028547E+03  0.00000000000E+00 0. -1.
<mgrwt>
<rscale>  0 0.14848312E+03</rscale>
<asrwt>0</asrwt>
<pdfrwt beam="2">  1        3 0.10281723E+00 0.15658255E+03</pdfrwt>
<pdfrwt beam="1">  1       -3 0.48941628E-02 0.15658255E+03</pdfrwt>
<totfact> 0.47526380E+02</totfact>
</mgrwt>
</event>
<event>
 7    1  0.1111284E-005  0.1341645E+03  0.7546771E-02  0.1232561E+00
          1   -1    0    0  501    0  0.00000000000E+00  0.00000000000E+00  0.14028986528E+03  0.14028986528E+03  0.00000000000E+00 0. -1.
         -1   -1    0    0    0  501 -0.00000000000E+00 -0.00000000000E+00 -0.17484659383E+03  0.17484659383E+03  0.00000000000E+00 0.  1.
         23    2    1    2    0    0 -0.18776687347E+02 -0.44968381766E+02  0.84395401728E+02  0.13583303502E+03  0.94621933103E+02 0.  0.
          5    1    1    2  502    0 -0.42802272953E+02  0.10125398358E+02 -0.42299290488E+01  0.44435802700E+02  0.47000000000E+01 0. -1.
         -5    1    1    2    0  502  0.61578960300E+02  0.34842983408E+02 -0.11472220123E+03  0.13486762139E+03  0.47000000000E+01 0. -1.
        -11    1    3    3    0    0  0.25142301674E+02 -0.55586353850E+02  0.43940769372E+02  0.75184900617E+02  0.00000000000E+00 0.  1.
         11    1    3    3    0    0 -0.43918989020E+02  0.10617972084E+02  0.40454632357E+02  0.60648134405E+02  0.00000000000E+00 0. -1.
<mgrwt>
<rscale>  0 0.12661859E+03</rscale>
<asrwt>0</asrwt>
<pdfrwt beam="1">  1        1 0.21583056E-01 0.13416448E+03</pdfrwt>
<pdfrwt beam="2">  1       -1 0.26899476E-01 0.13416448E+03</pdfrwt>
<totfact> 0.27535395E+03</totfact>
</mgrwt>
</event>
<event>
 7    1  0.1111284E-005  0.1524648E+03  0.7546771E-02  0.1205666E+00
         -1   -1    0    0    0  501 -0.00000000000E+00  0.00000000000E+00  0.38110145849E+02  0.38110145849E+02  0.00000000000E+00 0.  1.
          1   -1    0    0  501    0  0.00000000000E+00 -0.00000000000E+00 -0.63073163898E+03  0.63073163898E+03  0.00000000000E+00 0. -1.
         23    2    1    2    0    0  0.84063960893E+02  0.23530078367E+02 -0.41780837611E+03  0.43688244358E+03  0.93177337660E+02 0.  0.
          5    1    1    2  502    0  0.17067356310E+02 -0.44763686487E+02 -0.67509349571E+02  0.82913717555E+02  0.47000000000E+01 0.  1.
         -5    1    1    2    0  502 -0.10113131720E+03  0.21233608120E+02 -0.10730376745E+03  0.14904562369E+03  0.47000000000E+01 0.  1.
        -11    1    3    3    0    0 -0.91613342464E+01  0.31538506284E+02 -0.13757176650E+03  0.14143761296E+03  0.00000000000E+00 0.  1.
         11    1    3    3    0    0  0.93225295140E+02 -0.80084279170E+01 -0.28023660961E+03  0.29544483061E+03  0.00000000000E+00 0. -1.
<mgrwt>
<rscale>  0 0.14585076E+03</rscale>
<asrwt>0</asrwt>
<pdfrwt beam="2">  1        1 0.97035642E-01 0.15246478E+03</pdfrwt>
<pdfrwt beam="1">  1       -1 0.58630991E-02 0.15246478E+03</pdfrwt>
<totfact> 0.44216677E+03</totfact>
</mgrwt>
</event>
<event>
 7    1  0.1111284E-005  0.1334949E+03  0.7546771E-02  0.1234727E+00
          2   -1    0    0  501    0  0.00000000000E+00  0.00000000000E+00  0.52968513482E+02  0.52968513482E+02  0.00000000000E+00 0. -1.
         -2   -1    0    0    0  501 -0.00000000000E+00 -0.00000000000E+00 -0.26713515005E+03  0.26713515005E+03  0.00000000000E+00 0.  1.
         23    2    1    2    0    0 -0.38627567972E+02  0.26528281091E+02 -0.78560220110E+02  0.12981447438E+03  0.92109993322E+02 0.  0.
          5    1    1    2  502    0  0.16368747502E+02 -0.37873681032E+02  0.98083405220E+01  0.42669018660E+02  0.47000000000E+01 0. -1.
         -5    1    1    2    0  502  0.22258820470E+02  0.11345399940E+02 -0.14541475698E+03  0.14762017049E+03  0.47000000000E+01 0. -1.
        -11    1    3    3    0    0 -0.52141101149E+02  0.48130379705E+02 -0.76357641790E+02  0.10423875162E+03  0.00000000000E+00 0.  1.
         11    1    3    3    0    0  0.13513533177E+02 -0.21602098613E+02 -0.22025783193E+01  0.25575722760E+02  0.00000000000E+00 0. -1.
<mgrwt>
<rscale>  0 0.12521901E+03</rscale>
<asrwt>0</asrwt>
<pdfrwt beam="1">  1        2 0.81490020E-02 0.13349485E+03</pdfrwt>
<pdfrwt beam="2">  1       -2 0.41097716E-01 0.13349485E+03</pdfrwt>
<totfact> 0.44658547E+03</totfact>
</mgrwt>
</event>
<event>
 7    1  0.1111284E-005  0.1653994E+03  0.7546771E-02  0.1189282E+00
          2   -1    0    0  501    0  0.00000000000E+00  0.00000000000E+00  0.58210962761E+03  0.58210962761E+03  0.00000000000E+00 0. -1.
         -2   -1    0    0    0  501 -0.00000000000E+00 -0.00000000000E+00 -0.42448793922E+02  0.42448793922E+02  0.00000000000E+00 0.  1.
         23    2    1    2    0    0 -0.97313244187E+02 -0.47555774165E+02  0.31159197083E+03  0.34282737803E+03  0.93325428948E+02 0.  0.
          5    1    1    2  502    0  0.11776877840E+03  0.57532127897E+01  0.17396234633E+03  0.21020840269E+03  0.47000000000E+01 0. -1.
         -5    1    1    2    0  502 -0.20455534212E+02  0.41802561376E+02  0.54106516525E+02  0.71522640807E+02  0.47000000000E+01 0. -1.
        -11    1    3    3    0    0  0.17460409811E+02 -0.14352041499E+02  0.64931917160E+02  0.68753188086E+02  0.00000000000E+00 0. -1.
         11    1    3    3    0    0 -0.11477365400E+03 -0.33203732667E+02  0.24666005367E+03  0.27407418994E+03  0.00000000000E+00 0.  1.
<mgrwt>
<rscale>  0 0.15948265E+03</rscale>
<asrwt>0</asrwt>
<pdfrwt beam="1">  1        2 0.89555322E-01 0.16539944E+03</pdfrwt>
<pdfrwt beam="2">  1       -2 0.65305841E-02 0.16539944E+03</pdfrwt>
<totfact> 0.65965880E+03</totfact>
</mgrwt>
</event>
<event>
 7    1  0.1111284E-005  0.1604852E+03  0.7546771E-02  0.1195209E+00
          2   -1    0    0  501    0  0.00000000000E+00  0.00000000000E+00  0.45789884889E+03  0.45789884889E+03  0.00000000000E+00 0. -1.
         -2   -1    0    0    0  501 -0.00000000000E+00 -0.00000000000E+00 -0.48438268695E+02  0.48438268695E+02  0.00000000000E+00 0.  1.
         23    2    1    2    0    0  0.18302420467E+02 -0.98968146432E+02  0.18899274499E+03  0.23364397490E+03  0.93496399631E+02 0.  0.
          5    1    1    2  502    0 -0.36336083524E+02  0.11662780769E+03  0.21361258886E+03  0.24611945191E+03  0.47000000000E+01 0. -1.
         -5    1    1    2    0  502  0.18033663057E+02 -0.17659661255E+02  0.68552463502E+01  0.26573690775E+02  0.47000000000E+01 0. -1.
        -11    1    3    3    0    0 -0.19817355964E+02 -0.66452231560E+02  0.16313410662E+03  0.17726072159E+03  0.00000000000E+00 0. -1.
         11    1    3    3    0    0  0.38119776431E+02 -0.32515914872E+02  0.25858638372E+02  0.56383253308E+02  0.00000000000E+00 0.  1.
<mgrwt>
<rscale>  0 0.15436585E+03</rscale>
<asrwt>0</asrwt>
<pdfrwt beam="1">  1        2 0.70445974E-01 0.16048515E+03</pdfrwt>
<pdfrwt beam="2">  1       -2 0.74520416E-02 0.16048515E+03</pdfrwt>
<totfact> 0.70221003E+03</totfact>
</mgrwt>
</event>
<event>
 7    1  0.1111284E-005  0.1266111E+03  0.7546771E-02  0.1250299E+00
          3   -1    0    0  501    0  0.00000000000E+00  0.00000000000E+00  0.81466895933E+02  0.81466895933E+02  0.00000000000E+00 0. -1.
         -3   -1    0    0    0  501 -0.00000000000E+00 -0.00000000000E+00 -0.21011603818E+03  0.21011603818E+03  0.00000000000E+00 0.  1.
         23    2    1    2    0    0 -0.33516787447E+01 -0.19857283325E+02  0.25587732446E+02  0.92034957938E+02  0.86082262862E+02 0.  0.
          5    1    1    2  502    0 -0.35311617987E+02 -0.30297811585E+02 -0.19636895019E+02  0.50720463303E+02  0.47000000000E+01 0. -1.
         -5    1    1    2    0  502  0.38663296732E+02  0.50155094910E+02 -0.13459997967E+03  0.14882751287E+03  0.47000000000E+01 0. -1.
        -11    1    3    3    0    0  0.22539192887E+02 -0.17309137203E+02 -0.23238390824E+02  0.36710274513E+02  0.00000000000E+00 0.  1.
         11    1    3    3    0    0 -0.25890871632E+02 -0.25481461217E+01  0.48826123270E+02  0.55324683425E+02  0.00000000000E+00 0. -1.
<mgrwt>
<rscale>  0 0.11573772E+03</rscale>
<asrwt>0</asrwt>
<pdfrwt beam="1">  1        3 0.12533369E-01 0.12661114E+03</pdfrwt>
<pdfrwt beam="2">  1       -3 0.32325544E-01 0.12661114E+03</pdfrwt>
<totfact> 0.10734079E+03</totfact>
</mgrwt>
</event>
<event>
 7    1  0.1111284E-005  0.1349874E+03  0.7546771E-02  0.1234312E+00
          2   -1    0    0  501    0  0.00000000000E+00  0.00000000000E+00  0.11756809683E+03  0.11756809683E+03  0.00000000000E+00 0. -1.
         -2   -1    0    0    0  501 -0.00000000000E+00 -0.00000000000E+00 -0.12093108696E+03  0.12093108696E+03  0.00000000000E+00 0.  1.
         23    2    1    2    0    0 -0.33735084774E+02 -0.38167022565E+02  0.16197588188E+02  0.10210190016E+03  0.86992290440E+02 0.  0.
          5    1    1    2  502    0  0.40063088156E+02  0.73955850956E+02 -0.41265404392E+02  0.93805343786E+02  0.47000000000E+01 0. -1.
         -5    1    1    2    0  502 -0.63280033826E+01 -0.35788828391E+02  0.21704826075E+02  0.42591939840E+02  0.47000000000E+01 0. -1.
        -11    1    3    3    0    0 -0.38062470141E+01  0.17262095705E+02 -0.22162127616E+02  0.28348322083E+02  0.00000000000E+00 0.  1.
         11    1    3    3    0    0 -0.29928837760E+02 -0.55429118270E+02  0.38359715805E+02  0.73753578072E+02  0.00000000000E+00 0. -1.
<mgrwt>
<rscale>  0 0.12548583E+03</rscale>
<asrwt>0</asrwt>
<pdfrwt beam="1">  1        2 0.18087399E-01 0.13498742E+03</pdfrwt>
<pdfrwt beam="2">  1       -2 0.18604783E-01 0.13498742E+03</pdfrwt>
<totfact> 0.70330072E+03</totfact>
</mgrwt>
</event>
<event>
 7    1  0.1111284E-005  0.1286277E+03  0.7546771E-02  0.1242071E+00
         -1   -1    0    0    0  501 -0.00000000000E+00  0.00000000000E+00  0.10420309624E+03  0.10420309624E+03  0.00000000000E+00 0.  1.
          1   -1    0    0  501    0  0.00000000000E+00 -0.00000000000E+00 -0.14759450391E+03  0.14759450391E+03  0.00000000000E+00 0. -1.
         23    2    1    2    0    0  0.28293465818E+02  0.10940765336E+02 -0.68447392000E+02  0.12075221503E+03  0.94740864514E+02 0.  0.
          5    1    1    2  502    0 -0.47136153712E+02 -0.31385235661E+02  0.62305768412E+02  0.84326441770E+02  0.47000000000E+01 0. -1.
         -5    1    1    2    0  502  0.18842687894E+02  0.20444470325E+02 -0.37249784080E+02  0.46718943352E+02  0.47000000000E+01 0. -1.
        -11    1    3    3    0    0  0.17111087982E+02  0.46714438611E+02 -0.91223053850E+01  0.50579092145E+02  0.00000000000E+00 0.  1.
         11    1    3    3    0    0  0.11182377836E+02 -0.35773673274E+02 -0.59325086615E+02  0.70173122885E+02  0.00000000000E+00 0. -1.
<mgrwt>
<rscale>  0 0.12062399E+03</rscale>
<asrwt>0</asrwt>
<pdfrwt beam="2">  1        1 0.22706847E-01 0.12862772E+03</pdfrwt>
<pdfrwt beam="1">  1       -1 0.16031246E-01 0.12862772E+03</pdfrwt>
<totfact> 0.59321833E+03</totfact>
</mgrwt>
</event>
<event>
 7    1  0.1111284E-005  0.1843026E+03  0.7546771E-02  0.1168813E+00
          2   -1    0    0  501    0  0.00000000000E+00  0.00000000000E+00  0.42497946306E+03  0.42497946306E+03  0.00000000000E+00 0. -1.
         -2   -1    0    0    0  501 -0.00000000000E+00 -0.00000000000E+00 -0.72012435476E+02  0.72012435476E+02  0.00000000000E+00 0.  1.
         23    2    1    2    0    0  0.10130235018E+03  0.89872762229E+02  0.14157444858E+03  0.21653822324E+03  0.92229052328E+02 0.  0.
          5    1    1    2  502    0 -0.88314178673E+02 -0.91462386660E+01  0.16204973339E+03  0.18483845360E+03  0.47000000000E+01 0.  1.
         -5    1    1    2    0  502 -0.12988171506E+02 -0.80726523563E+02  0.49342845613E+02  0.95615221690E+02  0.47000000000E+01 0.  1.
        -11    1    3    3    0    0  0.18273745053E+01  0.59122661422E+02  0.60147047901E+02  0.84359325285E+02  0.00000000000E+00 0.  1.
         11    1    3    3    0    0  0.99474975674E+02  0.30750100807E+02  0.81427400674E+02  0.13217889796E+03  0.00000000000E+00 0. -1.
<mgrwt>
<rscale>  0 0.17896061E+03</rscale>
<asrwt>0</asrwt>
<pdfrwt beam="1">  1        2 0.65381454E-01 0.18430258E+03</pdfrwt>
<pdfrwt beam="2">  1       -2 0.11078837E-01 0.18430258E+03</pdfrwt>
<totfact> 0.41169655E+03</totfact>
</mgrwt>
</event>
<event>
 7    1  0.1111284E-005  0.1429372E+03  0.7546771E-02  0.1222314E+00
         -4   -1    0    0    0  501 -0.00000000000E+00  0.00000000000E+00  0.68559933540E+02  0.68559933540E+02  0.00000000000E+00 0.  1.
          4   -1    0    0  501    0  0.00000000000E+00 -0.00000000000E+00 -0.23209501731E+03  0.23209501731E+03  0.00000000000E+00 0. -1.
         23    2    1    2    0    0 -0.93542000333E+01 -0.68696048393E+02 -0.61379597625E+02  0.12496551747E+03  0.83918278281E+02 0.  0.
          5    1    1    2  502    0 -0.45011796572E+02  0.74927227126E+02 -0.69691970163E+02  0.11188928412E+03  0.47000000000E+01 0.  1.
         -5    1    1    2    0  502  0.54365996605E+02 -0.62311787328E+01 -0.32463515978E+02  0.63800149255E+02  0.47000000000E+01 0.  1.
        -11    1    3    3    0    0  0.26188205374E+02 -0.63375783724E+02 -0.56189637471E+02  0.88654314178E+02  0.00000000000E+00 0.  1.
         11    1    3    3    0    0 -0.35542405408E+02 -0.53202646697E+01 -0.51899601545E+01  0.36311203295E+02  0.00000000000E+00 0. -1.
<mgrwt>
<rscale>  0 0.13352689E+03</rscale>
<asrwt>0</asrwt>
<pdfrwt beam="2">  1        4 0.35706926E-01 0.14293717E+03</pdfrwt>
<pdfrwt beam="1">  1       -4 0.10547682E-01 0.14293717E+03</pdfrwt>
<totfact> 0.88006956E+02</totfact>
</mgrwt>
</event>
<event>
 7    1  0.1111284E-005  0.2814923E+03  0.7546771E-02  0.1100058E+00
          1   -1    0    0  501    0  0.00000000000E+00  0.00000000000E+00  0.80562383236E+03  0.80562383236E+03  0.00000000000E+00 0. -1.
         -1   -1    0    0    0  501 -0.00000000000E+00 -0.00000000000E+00 -0.17395452907E+03  0.17395452907E+03  0.00000000000E+00 0.  1.
         23    2    1    2    0    0  0.22746228159E+03  0.17741013506E+02  0.65251034909E+03  0.69731565209E+03  0.91790685181E+02 0.  0.
          5    1    1    2  502    0 -0.14162015795E+02  0.27447651005E+02  0.44705874810E+02  0.54540273923E+02  0.47000000000E+01 0. -1.
         -5    1    1    2    0  502 -0.21330026579E+03 -0.45188664511E+02 -0.65546920605E+02  0.22772243541E+03  0.47000000000E+01 0.  1.
        -11    1    3    3    0    0  0.30455588060E+02  0.36334024371E+02  0.14692729807E+03  0.15438696541E+03  0.00000000000E+00 0.  1.
         11    1    3    3    0    0  0.19700669353E+03 -0.18593010865E+02  0.50558305102E+03  0.54292868668E+03  0.00000000000E+00 0. -1.
<mgrwt>
<rscale>  0 0.27214524E+03</rscale>
<asrwt>0</asrwt>
<pdfrwt beam="1">  1        1 0.12394213E+00 0.28149225E+03</pdfrwt>
<pdfrwt beam="2">  1       -1 0.26762236E-01 0.28149225E+03</pdfrwt>
<totfact> 0.28493440E+02</totfact>
</mgrwt>
</event>
<event>
 7    1  0.1111284E-005  0.1329468E+03  0.7546771E-02  0.1235684E+00
         -3   -1    0    0    0  501 -0.00000000000E+00  0.00000000000E+00  0.10917789319E+03  0.10917789319E+03  0.00000000000E+00 0.  1.
          3   -1    0    0  501    0  0.00000000000E+00 -0.00000000000E+00 -0.12715900240E+03  0.12715900240E+03  0.00000000000E+00 0. -1.
         23    2    1    2    0    0  0.36587233014E+00 -0.45288132230E+02 -0.43126559085E+01  0.10268931726E+03  0.92061653775E+02 0.  0.
          5    1    1    2  502    0 -0.26890138899E+02  0.47138799681E+02  0.43966048281E+02  0.70001781455E+02  0.47000000000E+01 0.  1.
         -5    1    1    2    0  502  0.26524266569E+02 -0.18506674509E+01 -0.57634501582E+02  0.63645796874E+02  0.47000000000E+01 0.  1.
        -11    1    3    3    0    0 -0.10238994608E+02 -0.18797128379E+02  0.42659918397E+02  0.47728793024E+02  0.00000000000E+00 0.  1.
         11    1    3    3    0    0  0.10604866939E+02 -0.26491003852E+02 -0.46972574306E+02  0.54960524240E+02  0.00000000000E+00 0. -1.
<mgrwt>
<rscale>  0 0.12460741E+03</rscale>
<asrwt>0</asrwt>
<pdfrwt beam="2">  1        3 0.19562923E-01 0.13294679E+03</pdfrwt>
<pdfrwt beam="1">  1       -3 0.16796599E-01 0.13294679E+03</pdfrwt>
<totfact> 0.16294294E+03</totfact>
</mgrwt>
</event>
<event>
 7    1  0.1111284E-005  0.1869513E+03  0.7546771E-02  0.1165023E+00
          1   -1    0    0  501    0  0.00000000000E+00  0.00000000000E+00  0.38584654561E+03  0.38584654561E+03  0.00000000000E+00 0. -1.
         -1   -1    0    0    0  501 -0.00000000000E+00 -0.00000000000E+00 -0.15958577609E+03  0.15958577609E+03  0.00000000000E+00 0.  1.
         23    2    1    2    0    0 -0.12392996969E+03 -0.73963538130E+02  0.29920056538E+03  0.34475594683E+03  0.92230375619E+02 0.  0.
          5    1    1    2  502    0 -0.15572743344E+02  0.33813361379E+02  0.13321064066E+01  0.37546214862E+02  0.47000000000E+01 0. -1.
         -5    1    1    2    0  502  0.13950271304E+03  0.40150176751E+02 -0.74271902268E+02  0.16313016001E+03  0.47000000000E+01 0.  1.
        -11    1    3    3    0    0 -0.13573366261E+03 -0.50248599424E+02  0.24982608045E+03  0.28872412331E+03  0.00000000000E+00 0. -1.
         11    1    3    3    0    0  0.11803692914E+02 -0.23714938706E+02  0.49374484935E+02  0.56031823519E+02  0.00000000000E+00 0.  1.
<mgrwt>
<rscale>  0 0.18290304E+03</rscale>
<asrwt>0</asrwt>
<pdfrwt beam="1">  1        1 0.59361007E-01 0.18695131E+03</pdfrwt>
<pdfrwt beam="2">  1       -1 0.24551658E-01 0.18695131E+03</pdfrwt>
<totfact> 0.91128260E+02</totfact>
</mgrwt>
</event>
<event>
 7    1  0.1111284E-005  0.1544919E+03  0.7546771E-02  0.1203412E+00
          1   -1    0    0  501    0  0.00000000000E+00  0.00000000000E+00  0.79714711931E+03  0.79714711931E+03  0.00000000000E+00 0.  1.
         -1   -1    0    0    0  501 -0.00000000000E+00 -0.00000000000E+00 -0.25189984886E+02  0.25189984886E+02  0.00000000000E+00 0. -1.
         23    2    1    2    0    0 -0.90702564486E+02  0.39218503187E+01  0.34086993805E+03  0.36440270276E+03  0.91403933144E+02 0.  0.
          5    1    1    2  502    0  0.23284857205E+01  0.37781926842E+02  0.24249464768E+03  0.24547635323E+03  0.47000000000E+01 0.  1.
         -5    1    1    2    0  502  0.88374078766E+02 -0.41703777161E+02  0.18859254870E+03  0.21245804822E+03  0.47000000000E+01 0.  1.
        -11    1    3    3    0    0 -0.39589510207E+02 -0.39134102997E+02  0.21259692329E+03  0.21976409882E+03  0.00000000000E+00 0.  1.
         11    1    3    3    0    0 -0.51113054280E+02  0.43055953316E+02  0.12827301476E+03  0.14463860394E+03  0.00000000000E+00 0. -1.
<mgrwt>
<rscale>  0 0.14763286E+03</rscale>
<asrwt>0</asrwt>
<pdfrwt beam="1">  1        1 0.12263800E+00 0.15449189E+03</pdfrwt>
<pdfrwt beam="2">  1       -1 0.38753829E-02 0.15449189E+03</pdfrwt>
<totfact> 0.58255947E+03</totfact>
</mgrwt>
</event>
<event>
 7    1  0.1111284E-005  0.2338353E+03  0.7546771E-02  0.1123969E+00
          1   -1    0    0  501    0  0.00000000000E+00  0.00000000000E+00  0.29485314670E+03  0.29485314670E+03  0.00000000000E+00 0. -1.
         -1   -1    0    0    0  501 -0.00000000000E+00 -0.00000000000E+00 -0.46361150293E+02  0.46361150293E+02  0.00000000000E+00 0.  1.
         23    2    1    2    0    0  0.88800699584E+01 -0.22928449106E+02  0.16257062663E+03  0.18756302867E+03  0.90255812343E+02 0.  0.
          5    1    1    2  502    0 -0.15929146761E+02 -0.24310850983E+02  0.99507881472E+02  0.10377217193E+03  0.47000000000E+01 0.  1.
         -5    1    1    2    0  502  0.70490768027E+01  0.47239300089E+02 -0.13586511694E+02  0.49879096390E+02  0.47000000000E+01 0.  1.
        -11    1    3    3    0    0  0.34634292603E+02  0.60011698366E+01  0.21348054943E+02  0.41125268550E+02  0.00000000000E+00 0.  1.
         11    1    3    3    0    0 -0.25754222644E+02 -0.28929618943E+02  0.14122257169E+03  0.14643776012E+03  0.00000000000E+00 0. -1.
<mgrwt>
<rscale>  0 0.23383525E+03</rscale>
<asrwt>0</asrwt>
<pdfrwt beam="1">  1        1 0.45362021E-01 0.23383525E+03</pdfrwt>
<pdfrwt beam="2">  1       -1 0.71324849E-02 0.23383525E+03</pdfrwt>
<totfact> 0.90371648E+03</totfact>
</mgrwt>
</event>
<event>
 7    1  0.1111284E-005  0.1172347E+03  0.7546771E-02  0.1258340E+00
          2   -1    0    0  501    0  0.00000000000E+00  0.00000000000E+00  0.19248688782E+03  0.19248688782E+03  0.00000000000E+00 0. -1.
         -2   -1    0    0    0  501 -0.00000000000E+00 -0.00000000000E+00 -0.67532782832E+02  0.67532782832E+02  0.00000000000E+00 0.  1.
         23    2    1    2    0    0 -0.20084322948E+02 -0.18779846646E+02  0.10419226744E+03  0.14096070502E+03  0.90872598167E+02 0.  0.
          5    1    1    2  502    0 -0.12697952623E+02 -0.27751890596E+02  0.46976535656E+02  0.56216459643E+02  0.47000000000E+01 0. -1.
         -5    1    1    2    0  502  0.32782275572E+02  0.46531737242E+02 -0.26214698105E+02  0.62842505990E+02  0.47000000000E+01 0.  1.
        -11    1    3    3    0    0 -0.53983207467E+02 -0.22884378863E+02  0.79674686552E+02  0.98923895806E+02  0.00000000000E+00 0. -1.
         11    1    3    3    0    0  0.33898884519E+02  0.41045322178E+01  0.24517580888E+02  0.42036809215E+02  0.00000000000E+00 0.  1.
<mgrwt>
<rscale>  0 0.11121318E+03</rscale>
<asrwt>0</asrwt>
<pdfrwt beam="1">  1        2 0.29613367E-01 0.11723474E+03</pdfrwt>
<pdfrwt beam="2">  1       -2 0.10389659E-01 0.11723474E+03</pdfrwt>
<totfact> 0.10336093E+04</totfact>
</mgrwt>
</event>
<event>
 7    1  0.1111284E-005  0.1337144E+03  0.7546771E-02  0.1236013E+00
          2   -1    0    0  501    0  0.00000000000E+00  0.00000000000E+00  0.29499705688E+03  0.29499705688E+03  0.00000000000E+00 0. -1.
         -2   -1    0    0    0  501 -0.00000000000E+00 -0.00000000000E+00 -0.46513667360E+02  0.46513667360E+02  0.00000000000E+00 0.  1.
         23    2    1    2    0    0  0.38738925950E+02 -0.27465631540E+02  0.11630405974E+03  0.15349235191E+03  0.88194118201E+02 0.  0.
          5    1    1    2  502    0 -0.69872221006E+02  0.56899302213E+02  0.95959151191E+02  0.13171904402E+03  0.47000000000E+01 0. -1.
         -5    1    1    2    0  502  0.31133295055E+02 -0.29433670672E+02  0.36220178592E+02  0.56299328304E+02  0.47000000000E+01 0. -1.
        -11    1    3    3    0    0  0.63385279124E+02 -0.23357670209E+01  0.87147930706E+02  0.10778641493E+03  0.00000000000E+00 0. -1.
         11    1    3    3    0    0 -0.24646353174E+02 -0.25129864519E+02  0.29156129029E+02  0.45705936983E+02  0.00000000000E+00 0.  1.
<mgrwt>
<rscale>  0 0.12439813E+03</rscale>
<asrwt>0</asrwt>
<pdfrwt beam="1">  1        2 0.45384161E-01 0.13371437E+03</pdfrwt>
<pdfrwt beam="2">  1       -2 0.71559490E-02 0.13371437E+03</pdfrwt>
<totfact> 0.11812118E+04</totfact>
</mgrwt>
</event>
<event>
 7    1  0.1111284E-005  0.2225075E+03  0.7546771E-02  0.1132027E+00
         -2   -1    0    0    0  501 -0.00000000000E+00  0.00000000000E+00  0.10193544462E+04  0.10193544462E+04  0.00000000000E+00 0.  1.
          2   -1    0    0  501    0  0.00000000000E+00 -0.00000000000E+00 -0.12142390912E+02  0.12142390912E+02  0.00000000000E+00 0. -1.
         23    2    1    2    0    0 -0.21784861517E+02  0.10997278799E+01  0.35494663102E+03  0.36700392711E+03  0.90713736825E+02 0.  0.
          5    1    1    2  502    0  0.52089424167E+02  0.15491879146E+02  0.59466350675E+03  0.59716001430E+03  0.47000000000E+01 0. -1.
         -5    1    1    2    0  502 -0.30304562650E+02 -0.16591607026E+02  0.57601917544E+02  0.67332895719E+02  0.47000000000E+01 0. -1.
        -11    1    3    3    0    0  0.12140997805E+02 -0.36518867050E+02  0.10164088278E+03  0.10868256774E+03  0.00000000000E+00 0. -1.
         11    1    3    3    0    0 -0.33925859322E+02  0.37618594930E+02  0.25330574823E+03  0.25832135936E+03  0.00000000000E+00 0.  1.
<mgrwt>
<rscale>  0 0.22250753E+03</rscale>
<asrwt>0</asrwt>
<pdfrwt beam="2">  1        2 0.18680609E-02 0.22250753E+03</pdfrwt>
<pdfrwt beam="1">  1       -2 0.15682369E+00 0.22250753E+03</pdfrwt>
<totfact> 0.16833541E+03</totfact>
</mgrwt>
</event>
<event>
 7    1  0.1111284E-005  0.1809178E+03  0.7546771E-02  0.1172313E+00
         -4   -1    0    0    0  501 -0.00000000000E+00  0.00000000000E+00  0.25868193036E+02  0.25868193036E+02  0.00000000000E+00 0.  1.
          4   -1    0    0  501    0  0.00000000000E+00 -0.00000000000E+00 -0.11530859039E+04  0.11530859039E+04  0.00000000000E+00 0. -1.
         23    2    1    2    0    0 -0.12063845906E+03  0.50534908495E+02 -0.43407660764E+03  0.46259117997E+03  0.91981974895E+02 0.  0.
          5    1    1    2  502    0  0.86034667674E+02 -0.71024978054E+02 -0.28307198986E+03  0.30429977488E+03  0.47000000000E+01 0.  1.
         -5    1    1    2    0  502  0.34603791386E+02  0.20490069559E+02 -0.41006911334E+03  0.41206314206E+03  0.47000000000E+01 0.  1.
        -11    1    3    3    0    0 -0.23173036335E+02  0.51969048294E+02 -0.22215878032E+03  0.22933010109E+03  0.00000000000E+00 0.  1.
         11    1    3    3    0    0 -0.97465422725E+02 -0.14341397984E+01 -0.21191782732E+03  0.23326107888E+03  0.00000000000E+00 0. -1.
<mgrwt>
<rscale>  0 0.17541762E+03</rscale>
<asrwt>0</asrwt>
<pdfrwt beam="2">  1        4 0.17739781E+00 0.18091777E+03</pdfrwt>
<pdfrwt beam="1">  1       -4 0.39797224E-02 0.18091777E+03</pdfrwt>
<totfact> 0.12324016E+02</totfact>
</mgrwt>
</event>
<event>
 7    1  0.1111284E-005  0.1538904E+03  0.7546771E-02  0.1204705E+00
          2   -1    0    0  501    0  0.00000000000E+00  0.00000000000E+00  0.28433139833E+03  0.28433139833E+03  0.00000000000E+00 0. -1.
         -2   -1    0    0    0  501 -0.00000000000E+00 -0.00000000000E+00 -0.70379235853E+02  0.70379235853E+02  0.00000000000E+00 0.  1.
         23    2    1    2    0    0 -0.75809405271E+02 -0.48061075244E+02  0.74484128454E+02  0.14702432923E+03  0.89506061870E+02 0.  0.
          5    1    1    2  502    0  0.39105116511E+02 -0.34614228952E+02  0.16521739914E+02  0.54976475633E+02  0.47000000000E+01 0.  1.
         -5    1    1    2    0  502  0.36704288760E+02  0.82675304196E+02  0.12294629411E+03  0.15270982932E+03  0.47000000000E+01 0.  1.
        -11    1    3    3    0    0 -0.18978581507E+02  0.22850678188E+02  0.28527523714E+00  0.29705579133E+02  0.00000000000E+00 0.  1.
         11    1    3    3    0    0 -0.56830823764E+02 -0.70911753432E+02  0.74198853217E+02  0.11731875009E+03  0.00000000000E+00 0. -1.
<mgrwt>
<rscale>  0 0.14660706E+03</rscale>
<asrwt>0</asrwt>
<pdfrwt beam="1">  1        2 0.43743291E-01 0.15389044E+03</pdfrwt>
<pdfrwt beam="2">  1       -2 0.10827575E-01 0.15389044E+03</pdfrwt>
<totfact> 0.65063842E+03</totfact>
</mgrwt>
</event>
<event>
 7    1  0.1111284E-005  0.1492006E+03  0.7546771E-02  0.1210416E+00
         -1   -1    0    0    0  501 -0.00000000000E+00  0.00000000000E+00  0.37314248231E+02  0.37314248231E+02  0.00000000000E+00 0.  1.
          1   -1    0    0  501    0  0.00000000000E+00 -0.00000000000E+00 -0.51020793641E+03  0.51020793641E+03  0.00000000000E+00 0. -1.
         23    2    1    2    0    0 -0.76126969176E+02 -0.28991708134E+02 -0.25878178297E+03  0.28655333865E+03  0.92244079035E+02 0.  0.
          5    1    1    2  502    0  0.35779924218E+02 -0.32604661567E+02 -0.16577369200E+03  0.17276074176E+03  0.47000000000E+01 0.  1.
         -5    1    1    2    0  502  0.40347044958E+02  0.61596369700E+02 -0.48338213214E+02  0.88208104241E+02  0.47000000000E+01 0.  1.
        -11    1    3    3    0    0 -0.21410793503E+01  0.23555263252E+02 -0.10808368896E+03  0.11064139581E+03  0.00000000000E+00 0. -1.
         11    1    3    3    0    0 -0.73985889826E+02 -0.52546971385E+02 -0.15069809401E+03  0.17591194284E+03  0.00000000000E+00 0.  1.
<mgrwt>
<rscale>  0 0.14218735E+03</rscale>
<asrwt>0</asrwt>
<pdfrwt beam="2">  1        1 0.78493532E-01 0.14920064E+03</pdfrwt>
<pdfrwt beam="1">  1       -1 0.57406534E-02 0.14920064E+03</pdfrwt>
<totfact> 0.60662158E+03</totfact>
</mgrwt>
</event>
<event>
 7    1  0.1111284E-005  0.1409276E+03  0.7546771E-02  0.1223608E+00
          1   -1    0    0  501    0  0.00000000000E+00  0.00000000000E+00  0.44201268743E+02  0.44201268743E+02  0.00000000000E+00 0. -1.
         -1   -1    0    0    0  501 -0.00000000000E+00 -0.00000000000E+00 -0.36887474493E+03  0.36887474493E+03  0.00000000000E+00 0.  1.
         23    2    1    2    0    0  0.25003371956E+02  0.60093131777E+02 -0.10759412681E+03  0.15426328364E+03  0.89354974456E+02 0.  0.
          5    1    1    2  502    0  0.17283300990E+02  0.31840477995E+02 -0.83698770738E+02  0.91324163041E+02  0.47000000000E+01 0.  1.
         -5    1    1    2    0  502 -0.42286672946E+02 -0.91933609772E+02 -0.13338057864E+03  0.16748856700E+03  0.47000000000E+01 0.  1.
        -11    1    3    3    0    0  0.44234581180E+02  0.54943603944E+02 -0.34530258997E+02  0.78535575206E+02  0.00000000000E+00 0. -1.
         11    1    3    3    0    0 -0.19231209225E+02  0.51495278329E+01 -0.73063867813E+02  0.75727708435E+02  0.00000000000E+00 0.  1.
<mgrwt>
<rscale>  0 0.13262759E+03</rscale>
<asrwt>0</asrwt>
<pdfrwt beam="1">  1        1 0.68001952E-02 0.14092759E+03</pdfrwt>
<pdfrwt beam="2">  1       -1 0.56749960E-01 0.14092759E+03</pdfrwt>
<totfact> 0.33887439E+03</totfact>
</mgrwt>
</event>
<event>
 7    1  0.1111284E-005  0.1252799E+03  0.7546771E-02  0.1250379E+00
          1   -1    0    0  501    0  0.00000000000E+00  0.00000000000E+00  0.11222097408E+03  0.11222097408E+03  0.00000000000E+00 0. -1.
         -1   -1    0    0    0  501 -0.00000000000E+00 -0.00000000000E+00 -0.13963934870E+03  0.13963934870E+03  0.00000000000E+00 0.  1.
         23    2    1    2    0    0  0.33551407014E+01 -0.76877975881E+01  0.50655743534E+02  0.10424388256E+03  0.90721681517E+02 0.  0.
          5    1    1    2  502    0  0.46826175708E+02 -0.34416235041E+02 -0.47364403668E+02  0.75117539235E+02  0.47000000000E+01 0.  1.
         -5    1    1    2    0  502 -0.50181316410E+02  0.42104032629E+02 -0.30709714482E+02  0.72498900983E+02  0.47000000000E+01 0.  1.
        -11    1    3    3    0    0 -0.32288789324E+02  0.24475505245E+02  0.35582026231E+02  0.53923064302E+02  0.00000000000E+00 0.  1.
         11    1    3    3    0    0  0.35643930025E+02 -0.32163302833E+02  0.15073717303E+02  0.50320818257E+02  0.00000000000E+00 0. -1.
<mgrwt>
<rscale>  0 0.11569134E+03</rscale>
<asrwt>0</asrwt>
<pdfrwt beam="1">  1        1 0.17264765E-01 0.12527987E+03</pdfrwt>
<pdfrwt beam="2">  1       -1 0.21482977E-01 0.12527987E+03</pdfrwt>
<totfact> 0.52612262E+03</totfact>
</mgrwt>
</event>
<event>
 7    1  0.1111284E-005  0.1310745E+03  0.7546771E-02  0.1239112E+00
         -1   -1    0    0    0  501 -0.00000000000E+00  0.00000000000E+00  0.92239263283E+02  0.92239263283E+02  0.00000000000E+00 0.  1.
          1   -1    0    0  501    0  0.00000000000E+00 -0.00000000000E+00 -0.17593969578E+03  0.17593969578E+03  0.00000000000E+00 0. -1.
         23    2    1    2    0    0 -0.39825300790E+02 -0.59108763394E+01 -0.93448990274E+02  0.13674247382E+03  0.91349862184E+02 0.  0.
          5    1    1    2  502    0  0.41026682798E+01 -0.50614183873E+02 -0.24029490932E+02  0.56374940627E+02  0.47000000000E+01 0. -1.
         -5    1    1    2    0  502  0.35722632510E+02  0.56525060213E+02  0.33778048709E+02  0.75061544616E+02  0.47000000000E+01 0.  1.
        -11    1    3    3    0    0 -0.37639318288E+02  0.38817273279E+02 -0.60533994923E+02  0.81165654851E+02  0.00000000000E+00 0.  1.
         11    1    3    3    0    0 -0.21859825024E+01 -0.44728149619E+02 -0.32914995351E+02  0.55576818969E+02  0.00000000000E+00 0. -1.
<mgrwt>
<rscale>  0 0.12244824E+03</rscale>
<asrwt>0</asrwt>
<pdfrwt beam="2">  1        1 0.27067645E-01 0.13107446E+03</pdfrwt>
<pdfrwt beam="1">  1       -1 0.14190656E-01 0.13107446E+03</pdfrwt>
<totfact> 0.57680704E+03</totfact>
</mgrwt>
</event>
<event>
 7    1  0.1111284E-005  0.1896400E+03  0.7546771E-02  0.1163492E+00
         -3   -1    0    0    0  501 -0.00000000000E+00  0.00000000000E+00  0.48782391113E+02  0.48782391113E+02  0.00000000000E+00 0.  1.
          3   -1    0    0  501    0  0.00000000000E+00 -0.00000000000E+00 -0.66723494398E+03  0.66723494398E+03  0.00000000000E+00 0. -1.
         23    2    1    2    0    0 -0.10371935624E+03  0.97858074997E+02 -0.32141263438E+03  0.36360275656E+03  0.92557956675E+02 0.  0.
          5    1    1    2  502    0  0.48735309468E+02 -0.31966531476E+02 -0.19137574258E+02  0.61525005259E+02  0.47000000000E+01 0.  1.
         -5    1    1    2    0  502  0.54984046769E+02 -0.65891543521E+02 -0.27790234423E+03  0.29088957327E+03  0.47000000000E+01 0.  1.
        -11    1    3    3    0    0 -0.11192179016E+03  0.78743973622E+02 -0.21271067262E+03  0.25292870684E+03  0.00000000000E+00 0.  1.
         11    1    3    3    0    0  0.82024339250E+01  0.19114101376E+02 -0.10870196176E+03  0.11067404973E+03  0.00000000000E+00 0. -1.
<mgrwt>
<rscale>  0 0.18452759E+03</rscale>
<asrwt>0</asrwt>
<pdfrwt beam="2">  1        3 0.10265153E+00 0.18963998E+03</pdfrwt>
<pdfrwt beam="1">  1       -3 0.75049830E-02 0.18963998E+03</pdfrwt>
<totfact> 0.24560703E+02</totfact>
</mgrwt>
</event>
<event>
 7    1  0.1111284E-005  0.1262152E+03  0.7546771E-02  0.1249293E+00
          3   -1    0    0  501    0  0.00000000000E+00  0.00000000000E+00  0.35582474141E+03  0.35582474141E+03  0.00000000000E+00 0. -1.
         -3   -1    0    0    0  501 -0.00000000000E+00 -0.00000000000E+00 -0.33951680208E+02  0.33951680208E+02  0.00000000000E+00 0.  1.
         23    2    1    2    0    0 -0.49176856435E+01 -0.16827358536E+02  0.16475663962E+03  0.18824267345E+03  0.89348811865E+02 0.  0.
          5    1    1    2  502    0  0.34180239046E+02  0.19119442685E+01  0.16403995495E+03  0.16763991497E+03  0.47000000000E+01 0. -1.
         -5    1    1    2    0  502 -0.29262553402E+02  0.14915414268E+02 -0.69235333664E+01  0.33893833195E+02  0.47000000000E+01 0. -1.
        -11    1    3    3    0    0 -0.42418309472E+02  0.19437557129E+01  0.47502484430E+02  0.63714811400E+02  0.00000000000E+00 0.  1.
         11    1    3    3    0    0  0.37500623829E+02 -0.18771114249E+02  0.11725415519E+03  0.12452786205E+03  0.00000000000E+00 0. -1.
<mgrwt>
<rscale>  0 0.11632063E+03</rscale>
<asrwt>0</asrwt>
<pdfrwt beam="1">  1        3 0.54742265E-01 0.12621522E+03</pdfrwt>
<pdfrwt beam="2">  1       -3 0.52233357E-02 0.12621522E+03</pdfrwt>
<totfact> 0.16050245E+03</totfact>
</mgrwt>
</event>
<event>
 7    1  0.1111284E-005  0.1378741E+03  0.7546771E-02  0.1227622E+00
         -1   -1    0    0    0  501 -0.00000000000E+00  0.00000000000E+00  0.33509045245E+03  0.33509045245E+03  0.00000000000E+00 0.  1.
          1   -1    0    0  501    0  0.00000000000E+00 -0.00000000000E+00 -0.54942849536E+02  0.54942849536E+02  0.00000000000E+00 0. -1.
         23    2    1    2    0    0  0.38818186244E+01 -0.58063449251E+02  0.45223792685E+02  0.11763935842E+03  0.91691845707E+02 0.  0.
          5    1    1    2  502    0  0.41340959277E+02  0.72339621930E+01  0.17983272191E+03  0.18472493874E+03  0.47000000000E+01 0.  1.
         -5    1    1    2    0  502 -0.45222777902E+02  0.50829487058E+02  0.55091088320E+02  0.87669004830E+02  0.47000000000E+01 0.  1.
        -11    1    3    3    0    0 -0.13580201640E+02 -0.28907849597E+02 -0.24380945663E+02  0.40181042250E+02  0.00000000000E+00 0. -1.
         11    1    3    3    0    0  0.17462020265E+02 -0.29155599654E+02  0.69604738348E+02  0.77458316167E+02  0.00000000000E+00 0.  1.
<mgrwt>
<rscale>  0 0.12988794E+03</rscale>
<asrwt>0</asrwt>
<pdfrwt beam="2">  1        1 0.84527463E-02 0.13787409E+03</pdfrwt>
<pdfrwt beam="1">  1       -1 0.51552376E-01 0.13787409E+03</pdfrwt>
<totfact> 0.30189368E+03</totfact>
</mgrwt>
</event>
<event>
 7    1  0.1111284E-005  0.1423600E+03  0.7546771E-02  0.1220599E+00
          2   -1    0    0  501    0  0.00000000000E+00  0.00000000000E+00  0.28337396940E+03  0.28337396940E+03  0.00000000000E+00 0.  1.
         -2   -1    0    0    0  501 -0.00000000000E+00 -0.00000000000E+00 -0.69723756784E+02  0.69723756784E+02  0.00000000000E+00 0. -1.
         23    2    1    2    0    0  0.60932009009E+02  0.30477582006E+02  0.16885959460E+03  0.20385774830E+03  0.91666930392E+02 0.  0.
          5    1    1    2  502    0 -0.27407758106E+02 -0.48626606676E+02 -0.31181401084E+02  0.64110076078E+02  0.47000000000E+01 0.  1.
         -5    1    1    2    0  502 -0.33524250903E+02  0.18149024670E+02  0.75972019101E+02  0.85129901805E+02  0.47000000000E+01 0.  1.
        -11    1    3    3    0    0  0.55917798275E+02  0.50161236098E+02  0.16741298464E+03  0.18349402496E+03  0.00000000000E+00 0.  1.
         11    1    3    3    0    0  0.50142107339E+01 -0.19683654091E+02  0.14466099534E+01  0.20363723334E+02  0.00000000000E+00 0. -1.
<mgrwt>
<rscale>  0 0.13473148E+03</rscale>
<asrwt>0</asrwt>
<pdfrwt beam="1">  1        2 0.43595995E-01 0.14236001E+03</pdfrwt>
<pdfrwt beam="2">  1       -2 0.10726732E-01 0.14236001E+03</pdfrwt>
<totfact> 0.65949307E+03</totfact>
</mgrwt>
</event>
<event>
 7    1  0.1111284E-005  0.2609825E+03  0.7546771E-02  0.1109824E+00
         -1   -1    0    0    0  501 -0.00000000000E+00  0.00000000000E+00  0.29241912469E+03  0.29241912469E+03  0.00000000000E+00 0.  1.
          1   -1    0    0  501    0  0.00000000000E+00 -0.00000000000E+00 -0.35970337802E+03  0.35970337802E+03  0.00000000000E+00 0. -1.
         23    2    1    2    0    0  0.14270249015E+03 -0.17922673999E+03 -0.23977021959E+03  0.33929143727E+03  0.71712594299E+02 0.  0.
          5    1    1    2  502    0  0.27024400266E+01  0.65654647579E+02  0.94143894112E+01  0.66547401593E+02  0.47000000000E+01 0.  1.
         -5    1    1    2    0  502 -0.14540493018E+03  0.11357209241E+03  0.16307157685E+03  0.24628366383E+03  0.47000000000E+01 0.  1.
        -11    1    3    3    0    0  0.50795412843E+02 -0.67585346370E+02 -0.14020642438E+03  0.16372475209E+03  0.00000000000E+00 0. -1.
         11    1    3    3    0    0  0.91907077310E+02 -0.11164139362E+03 -0.99563795212E+02  0.17556668518E+03  0.00000000000E+00 0.  1.
<mgrwt>
<rscale>  0 0.25558691E+03</rscale>
<asrwt>0</asrwt>
<pdfrwt beam="2">  1        1 0.55338981E-01 0.26098250E+03</pdfrwt>
<pdfrwt beam="1">  1       -1 0.44987558E-01 0.26098250E+03</pdfrwt>
<totfact> 0.34944995E+02</totfact>
</mgrwt>
</event>
<event>
 7    1  0.1111284E-005  0.1906137E+03  0.7546771E-02  0.1165090E+00
          2   -1    0    0  501    0  0.00000000000E+00  0.00000000000E+00  0.24029393682E+02  0.24029393682E+02  0.00000000000E+00 0. -1.
         -2   -1    0    0    0  501 -0.00000000000E+00 -0.00000000000E+00 -0.13371970425E+04  0.13371970425E+04  0.00000000000E+00 0.  1.
         23    2    1    2    0    0 -0.57200450681E+02  0.12224185330E+03 -0.47487362543E+03  0.50153436631E+03  0.88412658619E+02 0.  0.
          5    1    1    2  502    0  0.19186736099E+02 -0.12671234449E+03 -0.40815685840E+03  0.42782970928E+03  0.47000000000E+01 0. -1.
         -5    1    1    2    0  502  0.38013714582E+02  0.44704911808E+01 -0.43013716502E+03  0.43186236061E+03  0.47000000000E+01 0.  1.
        -11    1    3    3    0    0 -0.28594580796E+02  0.12604139819E+03 -0.34304177404E+03  0.36658115452E+03  0.00000000000E+00 0. -1.
         11    1    3    3    0    0 -0.28605869885E+02 -0.37995448854E+01 -0.13183185139E+03  0.13495321179E+03  0.00000000000E+00 0.  1.
<mgrwt>
<rscale>  0 0.18283256E+03</rscale>
<asrwt>0</asrwt>
<pdfrwt beam="1">  1        2 0.36968299E-02 0.19061371E+03</pdfrwt>
<pdfrwt beam="2">  1       -2 0.20572262E+00 0.19061371E+03</pdfrwt>
<totfact> 0.31103477E+02</totfact>
</mgrwt>
</event>
<event>
 7    1  0.1111284E-005  0.1438615E+03  0.7546771E-02  0.1218193E+00
          1   -1    0    0  501    0  0.00000000000E+00  0.00000000000E+00  0.39139913382E+03  0.39139913382E+03  0.00000000000E+00 0. -1.
         -1   -1    0    0    0  501 -0.00000000000E+00 -0.00000000000E+00 -0.43278311173E+02  0.43278311173E+02  0.00000000000E+00 0.  1.
         23    2    1    2    0    0  0.33604710796E+02  0.62788125273E+02  0.15268503921E+03  0.19200222187E+03  0.92089666865E+02 0.  0.
          5    1    1    2  502    0  0.33992411918E+02  0.12935215288E+02  0.25468504907E+02  0.44649060514E+02  0.47000000000E+01 0.  1.
         -5    1    1    2    0  502 -0.67597122715E+02 -0.75723340561E+02  0.16996727853E+03  0.19802616260E+03  0.47000000000E+01 0.  1.
        -11    1    3    3    0    0 -0.13384655716E+02  0.65437438805E+02  0.69273466031E+02  0.96229000317E+02  0.00000000000E+00 0.  1.
         11    1    3    3    0    0  0.46989366513E+02 -0.26493135317E+01  0.83411573179E+02  0.95773221558E+02  0.00000000000E+00 0. -1.
<mgrwt>
<rscale>  0 0.13644552E+03</rscale>
<asrwt>0</asrwt>
<pdfrwt beam="1">  1        1 0.60215249E-01 0.14386146E+03</pdfrwt>
<pdfrwt beam="2">  1       -1 0.66582020E-02 0.14386146E+03</pdfrwt>
<totfact> 0.68168462E+03</totfact>
</mgrwt>
</event>
<event>
 7    1  0.1111284E-005  0.1736263E+03  0.7546771E-02  0.1180210E+00
          2   -1    0    0  501    0  0.00000000000E+00  0.00000000000E+00  0.63696064394E+03  0.63696064394E+03  0.00000000000E+00 0. -1.
         -2   -1    0    0    0  501 -0.00000000000E+00 -0.00000000000E+00 -0.41677791103E+02  0.41677791103E+02  0.00000000000E+00 0.  1.
         23    2    1    2    0    0  0.29077294701E+02  0.11694251464E+03  0.30294305164E+03  0.33862573173E+03  0.91497829796E+02 0.  0.
          5    1    1    2  502    0  0.43193623248E+02 -0.75722765035E+02  0.18086988788E+03  0.20083732864E+03  0.47000000000E+01 0.  1.
         -5    1    1    2    0  502 -0.72270917949E+02 -0.41219749608E+02  0.11146991331E+03  0.13917537466E+03  0.47000000000E+01 0.  1.
        -11    1    3    3    0    0  0.58867058827E+02  0.97915816364E+02  0.20792632743E+03  0.23724711873E+03  0.00000000000E+00 0.  1.
         11    1    3    3    0    0 -0.29789764127E+02  0.19026698280E+02  0.95016724214E+02  0.10137861300E+03  0.00000000000E+00 0. -1.
<mgrwt>
<rscale>  0 0.16775449E+03</rscale>
<asrwt>0</asrwt>
<pdfrwt beam="1">  1        2 0.97993938E-01 0.17362626E+03</pdfrwt>
<pdfrwt beam="2">  1       -2 0.64119683E-02 0.17362626E+03</pdfrwt>
<totfact> 0.61303229E+03</totfact>
</mgrwt>
</event>
<event>
 7    1  0.1111284E-005  0.1432524E+03  0.7546771E-02  0.1219312E+00
          2   -1    0    0  501    0  0.00000000000E+00  0.00000000000E+00  0.10075704601E+03  0.10075704601E+03  0.00000000000E+00 0. -1.
         -2   -1    0    0    0  501 -0.00000000000E+00 -0.00000000000E+00 -0.17290900556E+03  0.17290900556E+03  0.00000000000E+00 0.  1.
         23    2    1    2    0    0  0.23806989845E+02  0.65801173547E+02 -0.45206213384E+01  0.11525129667E+03  0.91465065249E+02 0.  0.
          5    1    1    2  502    0 -0.22536751016E+02  0.10216330081E+02  0.27007064977E+02  0.36928987332E+02  0.47000000000E+01 0.  1.
         -5    1    1    2    0  502 -0.12702388292E+01 -0.76017503627E+02 -0.94638403187E+02  0.12148576757E+03  0.47000000000E+01 0.  1.
        -11    1    3    3    0    0 -0.12932871766E+01 -0.15562781908E+02 -0.23307714374E+02  0.28055700344E+02  0.00000000000E+00 0.  1.
         11    1    3    3    0    0  0.25100277022E+02  0.81363955454E+02  0.18787093036E+02  0.87195596325E+02  0.00000000000E+00 0. -1.
<mgrwt>
<rscale>  0 0.13564513E+03</rscale>
<asrwt>0</asrwt>
<pdfrwt beam="1">  1        2 0.15501084E-01 0.14325235E+03</pdfrwt>
<pdfrwt beam="2">  1       -2 0.26601385E-01 0.14325235E+03</pdfrwt>
<totfact> 0.45652189E+03</totfact>
</mgrwt>
</event>
<event>
 7    1  0.1111284E-005  0.1335306E+03  0.7546771E-02  0.1235732E+00
          2   -1    0    0  501    0  0.00000000000E+00  0.00000000000E+00  0.15461814310E+03  0.15461814310E+03  0.00000000000E+00 0. -1.
         -2   -1    0    0    0  501 -0.00000000000E+00 -0.00000000000E+00 -0.11747414190E+03  0.11747414190E+03  0.00000000000E+00 0.  1.
         23    2    1    2    0    0  0.41411490054E+02 -0.22150606913E+02  0.83057887595E+02  0.13088855195E+03  0.89597095072E+02 0.  0.
          5    1    1    2  502    0 -0.33122123775E+01 -0.12361735977E+02 -0.78817381854E+02  0.79987830009E+02  0.47000000000E+01 0. -1.
         -5    1    1    2    0  502 -0.38099277677E+02  0.34512342890E+02  0.32903495456E+02  0.61215903035E+02  0.47000000000E+01 0. -1.
        -11    1    3    3    0    0  0.18092860748E+00  0.18034588542E+02  0.69415121472E+02  0.71719859231E+02  0.00000000000E+00 0. -1.
         11    1    3    3    0    0  0.41230561447E+02 -0.40185195455E+02  0.13642766123E+02  0.59168692722E+02  0.00000000000E+00 0.  1.
<mgrwt>
<rscale>  0 0.12457673E+03</rscale>
<asrwt>0</asrwt>
<pdfrwt beam="1">  1        2 0.23787407E-01 0.13353056E+03</pdfrwt>
<pdfrwt beam="2">  1       -2 0.18072945E-01 0.13353056E+03</pdfrwt>
<totfact> 0.54194593E+03</totfact>
</mgrwt>
</event>
<event>
 7    1  0.1111284E-005  0.1842167E+03  0.7546771E-02  0.1169653E+00
          2   -1    0    0  501    0  0.00000000000E+00  0.00000000000E+00  0.97626783512E+03  0.97626783512E+03  0.00000000000E+00 0.  1.
         -2   -1    0    0    0  501 -0.00000000000E+00 -0.00000000000E+00 -0.34356707856E+02  0.34356707856E+02  0.00000000000E+00 0. -1.
         23    2    1    2    0    0 -0.69736640936E+02  0.11595813013E+03  0.61153521109E+03  0.63236005541E+03  0.87146074200E+02 0.  0.
          5    1    1    2  502    0  0.32926672494E+02 -0.12950160418E+03  0.18926557866E+03  0.23172911020E+03  0.47000000000E+01 0. -1.
         -5    1    1    2    0  502  0.36809968442E+02  0.13543474055E+02  0.14111033752E+03  0.14653537737E+03  0.47000000000E+01 0. -1.
        -11    1    3    3    0    0 -0.46367708985E+02  0.20599450628E+02  0.10776418522E+03  0.11911096263E+03  0.00000000000E+00 0. -1.
         11    1    3    3    0    0 -0.23368931951E+02  0.95358679499E+02  0.50377102587E+03  0.51324909278E+03  0.00000000000E+00 0.  1.
<mgrwt>
<rscale>  0 0.17810141E+03</rscale>
<asrwt>0</asrwt>
<pdfrwt beam="1">  1        2 0.15019503E+00 0.18421666E+03</pdfrwt>
<pdfrwt beam="2">  1       -2 0.52856481E-02 0.18421666E+03</pdfrwt>
<totfact> 0.48201787E+03</totfact>
</mgrwt>
</event>
<event>
 7    1  0.1111284E-005  0.1561342E+03  0.7546771E-02  0.1201305E+00
          2   -1    0    0  501    0  0.00000000000E+00  0.00000000000E+00  0.52546195346E+03  0.52546195346E+03  0.00000000000E+00 0. -1.
         -2   -1    0    0    0  501 -0.00000000000E+00 -0.00000000000E+00 -0.70123702815E+02  0.70123702815E+02  0.00000000000E+00 0.  1.
         23    2    1    2    0    0 -0.88391441897E+02 -0.30648074604E+02  0.41393160224E+03  0.43405421493E+03  0.91166543711E+02 0.  0.
          5    1    1    2  502    0  0.68702148574E+02  0.44498096759E+02 -0.29006648620E+02  0.86968623641E+02  0.47000000000E+01 0.  1.
         -5    1    1    2    0  502  0.19689293323E+02 -0.13850022155E+02  0.70413297024E+02  0.74562817698E+02  0.47000000000E+01 0.  1.
        -11    1    3    3    0    0 -0.43362065619E+02 -0.39896651348E+02  0.35215577361E+03  0.35705139744E+03  0.00000000000E+00 0. -1.
         11    1    3    3    0    0 -0.45029376278E+02  0.92485767442E+01  0.61775828624E+02  0.77002817494E+02  0.00000000000E+00 0.  1.
<mgrwt>
<rscale>  0 0.14932506E+03</rscale>
<asrwt>0</asrwt>
<pdfrwt beam="1">  1        2 0.80840298E-01 0.15613422E+03</pdfrwt>
<pdfrwt beam="2">  1       -2 0.10788262E-01 0.15613422E+03</pdfrwt>
<totfact> 0.33789358E+03</totfact>
</mgrwt>
</event>
<event>
 7    1  0.1111284E-005  0.1801908E+03  0.7546771E-02  0.1171671E+00
         -2   -1    0    0    0  501 -0.00000000000E+00  0.00000000000E+00  0.35917317564E+02  0.35917317564E+02  0.00000000000E+00 0.  1.
          2   -1    0    0  501    0  0.00000000000E+00 -0.00000000000E+00 -0.10330493520E+04  0.10330493520E+04  0.00000000000E+00 0. -1.
         23    2    1    2    0    0  0.54925282490E+02  0.11758941877E+03 -0.71936164686E+03  0.73786981338E+03  0.10063113067E+03 0.  0.
          5    1    1    2  502    0 -0.11672916316E+02 -0.13257315441E+03 -0.19038864808E+03  0.23233989232E+03  0.47000000000E+01 0. -1.
         -5    1    1    2    0  502 -0.43252366174E+02  0.14983735646E+02 -0.87381739472E+02  0.98756963839E+02  0.47000000000E+01 0. -1.
        -11    1    3    3    0    0  0.60334922633E+02  0.16049813689E+02 -0.26061956576E+03  0.26799339071E+03  0.00000000000E+00 0. -1.
         11    1    3    3    0    0 -0.54096401430E+01  0.10153960508E+03 -0.45874208110E+03  0.46987642267E+03  0.00000000000E+00 0.  1.
<mgrwt>
<rscale>  0 0.17606013E+03</rscale>
<asrwt>0</asrwt>
<pdfrwt beam="2">  1        2 0.15893067E+00 0.18019084E+03</pdfrwt>
<pdfrwt beam="1">  1       -2 0.55257411E-02 0.18019084E+03</pdfrwt>
<totfact> 0.41610544E+03</totfact>
</mgrwt>
</event>
<event>
 7    1  0.1111284E-005  0.1412348E+03  0.7546771E-02  0.1229627E+00
         -1   -1    0    0    0  501 -0.00000000000E+00  0.00000000000E+00  0.67601471975E+03  0.67601471975E+03  0.00000000000E+00 0.  1.
          1   -1    0    0  501    0  0.00000000000E+00 -0.00000000000E+00 -0.14618974456E+03  0.14618974456E+03  0.00000000000E+00 0. -1.
         23    2    1    2    0    0 -0.90399772944E+00  0.15685077963E+02 -0.12168136284E+03  0.15556529740E+03  0.95641877916E+02 0.  0.
          5    1    1    2  502    0 -0.28157433040E+02  0.45021137654E+02  0.12590939433E+03  0.13672969484E+03  0.47000000000E+01 0. -1.
         -5    1    1    2    0  502  0.29061430769E+02 -0.60706215616E+02  0.52559694369E+03  0.52990947207E+03  0.47000000000E+01 0.  1.
        -11    1    3    3    0    0  0.21814627152E+02  0.40117851687E+02 -0.11180481395E+03  0.12077100812E+03  0.00000000000E+00 0. -1.
         11    1    3    3    0    0 -0.22718624882E+02 -0.24432773724E+02 -0.98765488907E+01  0.34794289278E+02  0.00000000000E+00 0.  1.
<mgrwt>
<rscale>  0 0.12854756E+03</rscale>
<asrwt>0</asrwt>
<pdfrwt beam="2">  1        1 0.22490730E-01 0.14123481E+03</pdfrwt>
<pdfrwt beam="1">  1       -1 0.10400226E+00 0.14123481E+03</pdfrwt>
<totfact> 0.20614770E+02</totfact>
</mgrwt>
</event>
<event>
 7    1  0.1111284E-005  0.1439516E+03  0.7546771E-02  0.1219258E+00
         -1   -1    0    0    0  501 -0.00000000000E+00  0.00000000000E+00  0.32220221160E+03  0.32220221160E+03  0.00000000000E+00 0.  1.
          1   -1    0    0  501    0  0.00000000000E+00 -0.00000000000E+00 -0.83035953428E+02  0.83035953428E+02  0.00000000000E+00 0. -1.
         23    2    1    2    0    0 -0.46573202279E+02 -0.54111835839E+02 -0.13521085979E+02  0.11442384778E+03  0.88390289209E+02 0.  0.
          5    1    1    2  502    0 -0.11997053207E+02 -0.33436827971E+02  0.90832120047E+02  0.97644840021E+02  0.47000000000E+01 0. -1.
         -5    1    1    2    0  502  0.58570255485E+02  0.87548663810E+02  0.16185522410E+03  0.19316947722E+03  0.47000000000E+01 0. -1.
        -11    1    3    3    0    0  0.81859146400E+01 -0.36497617935E+02  0.25183694333E+02  0.45092169760E+02  0.00000000000E+00 0.  1.
         11    1    3    3    0    0 -0.54759116919E+02 -0.17614217904E+02 -0.38704780312E+02  0.69331678020E+02  0.00000000000E+00 0. -1.
<mgrwt>
<rscale>  0 0.13568387E+03</rscale>
<asrwt>0</asrwt>
<pdfrwt beam="2">  1        1 0.12774762E-01 0.14395164E+03</pdfrwt>
<pdfrwt beam="1">  1       -1 0.49569571E-01 0.14395164E+03</pdfrwt>
<totfact> 0.18810350E+03</totfact>
</mgrwt>
</event>
<event>
 7    1  0.1111284E-005  0.1493477E+03  0.7546771E-02  0.1219446E+00
         -2   -1    0    0    0  501 -0.00000000000E+00  0.00000000000E+00  0.88425329300E+02  0.88425329300E+02  0.00000000000E+00 0.  1.
          2   -1    0    0  501    0  0.00000000000E+00 -0.00000000000E+00 -0.24614572998E+03  0.24614572998E+03  0.00000000000E+00 0. -1.
         23    2    1    2    0    0 -0.64919704393E+02 -0.49662200139E+02 -0.15501040975E+03  0.18519876146E+03  0.59912035302E+02 0.  0.
          5    1    1    2  502    0 -0.19565392355E+02  0.53346972958E+02  0.22050654379E+02  0.61131215106E+02  0.47000000000E+01 0. -1.
         -5    1    1    2    0  502  0.84485096748E+02 -0.36847728196E+01 -0.24760645314E+02  0.88241082720E+02  0.47000000000E+01 0. -1.
        -11    1    3    3    0    0  0.53715960309E+01 -0.26760701066E+02 -0.45887533444E+02  0.53391524525E+02  0.00000000000E+00 0.  1.
         11    1    3    3    0    0 -0.70291300424E+02 -0.22901499073E+02 -0.10912287630E+03  0.13180723693E+03  0.00000000000E+00 0. -1.
<mgrwt>
<rscale>  0 0.13554925E+03</rscale>
<asrwt>0</asrwt>
<pdfrwt beam="2">  1        2 0.37868574E-01 0.14934771E+03</pdfrwt>
<pdfrwt beam="1">  1       -2 0.13603897E-01 0.14934771E+03</pdfrwt>
<totfact> 0.52531255E+03</totfact>
</mgrwt>
</event>
<event>
 7    1  0.1111284E-005  0.1990573E+03  0.7546771E-02  0.1155015E+00
         -2   -1    0    0    0  501 -0.00000000000E+00  0.00000000000E+00  0.14122581457E+03  0.14122581457E+03  0.00000000000E+00 0.  1.
          2   -1    0    0  501    0  0.00000000000E+00 -0.00000000000E+00 -0.45022956645E+03  0.45022956645E+03  0.00000000000E+00 0. -1.
         23    2    1    2    0    0 -0.11326457040E+03 -0.10571462501E+03 -0.34541909247E+03  0.38909459280E+03  0.89865498697E+02 0.  0.
          5    1    1    2  502    0  0.44625921197E+01  0.30558896847E+02  0.60292501284E+02  0.67904614100E+02  0.47000000000E+01 0.  1.
         -5    1    1    2    0  502  0.10880197828E+03  0.75155728166E+02 -0.23877160692E+02  0.13445617411E+03  0.47000000000E+01 0.  1.
        -11    1    3    3    0    0 -0.52340776890E+02 -0.51356239480E+02 -0.68342656856E+02  0.10023841083E+03  0.00000000000E+00 0.  1.
         11    1    3    3    0    0 -0.60923793512E+02 -0.54358385534E+02 -0.27707643561E+03  0.28885618198E+03  0.00000000000E+00 0. -1.
<mgrwt>
<rscale>  0 0.19387121E+03</rscale>
<asrwt>0</asrwt>
<pdfrwt beam="2">  1        2 0.69266087E-01 0.19905731E+03</pdfrwt>
<pdfrwt beam="1">  1       -2 0.21727048E-01 0.19905731E+03</pdfrwt>
<totfact> 0.12702857E+03</totfact>
</mgrwt>
</event>
<event>
 7    1  0.1111284E-005  0.1335971E+03  0.7546771E-02  0.1234249E+00
          2   -1    0    0  501    0  0.00000000000E+00  0.00000000000E+00  0.16066869383E+03  0.16066869383E+03  0.00000000000E+00 0. -1.
         -2   -1    0    0    0  501 -0.00000000000E+00 -0.00000000000E+00 -0.87989481144E+02  0.87989481144E+02  0.00000000000E+00 0.  1.
         23    2    1    2    0    0  0.11156713056E+02  0.45599327741E+02  0.35002429743E+02  0.10984996784E+03  0.92941241708E+02 0.  0.
          5    1    1    2  502    0 -0.52759154463E+02 -0.62938312423E+02  0.43610320547E+02  0.93105905336E+02  0.47000000000E+01 0. -1.
         -5    1    1    2    0  502  0.41602441406E+02  0.17338984682E+02 -0.59335376051E+01  0.45702301794E+02  0.47000000000E+01 0. -1.
        -11    1    3    3    0    0 -0.26914207018E+02  0.21341929429E+02 -0.19168387347E+02  0.39335474634E+02  0.00000000000E+00 0.  1.
         11    1    3    3    0    0  0.38070920074E+02  0.24257398312E+02  0.54170817090E+02  0.70514493208E+02  0.00000000000E+00 0. -1.
<mgrwt>
<rscale>  0 0.12552656E+03</rscale>
<asrwt>0</asrwt>
<pdfrwt beam="1">  1        2 0.24718261E-01 0.13359707E+03</pdfrwt>
<pdfrwt beam="2">  1       -2 0.13536843E-01 0.13359707E+03</pdfrwt>
<totfact> 0.83471483E+03</totfact>
</mgrwt>
</event>
<event>
 7    1  0.1111284E-005  0.1553032E+03  0.7546771E-02  0.1200218E+00
          1   -1    0    0  501    0  0.00000000000E+00  0.00000000000E+00  0.28519742561E+03  0.28519742561E+03  0.00000000000E+00 0. -1.
         -1   -1    0    0    0  501 -0.00000000000E+00 -0.00000000000E+00 -0.14916365473E+03  0.14916365473E+03  0.00000000000E+00 0.  1.
         23    2    1    2    0    0  0.90643873122E+02 -0.16671123284E+02  0.21941207574E+03  0.25809132181E+03  0.99876089885E+02 0.  0.
          5    1    1    2  502    0  0.10236876729E+02  0.47432567099E+02 -0.35734278846E+02  0.60445601588E+02  0.47000000000E+01 0. -1.
         -5    1    1    2    0  502 -0.10088074985E+03 -0.30761443815E+02 -0.47644026011E+02  0.11582415694E+03  0.47000000000E+01 0. -1.
        -11    1    3    3    0    0  0.10427384807E+03 -0.95497498957E+01  0.21895693567E+03  0.24270635095E+03  0.00000000000E+00 0. -1.
         11    1    3    3    0    0 -0.13629974947E+02 -0.71213733883E+01  0.45514006795E+00  0.15384970864E+02  0.00000000000E+00 0.  1.
<mgrwt>
<rscale>  0 0.15020768E+03</rscale>
<asrwt>0</asrwt>
<pdfrwt beam="1">  1        1 0.43876527E-01 0.15530321E+03</pdfrwt>
<pdfrwt beam="2">  1       -1 0.22948255E-01 0.15530321E+03</pdfrwt>
<totfact> 0.14828492E+03</totfact>
</mgrwt>
</event>
<event>
 7    1  0.1111284E-005  0.1335719E+03  0.7546771E-02  0.1234929E+00
          1   -1    0    0  501    0  0.00000000000E+00  0.00000000000E+00  0.30777811115E+02  0.30777811115E+02  0.00000000000E+00 0. -1.
         -1   -1    0    0    0  501 -0.00000000000E+00 -0.00000000000E+00 -0.51407168625E+03  0.51407168625E+03  0.00000000000E+00 0.  1.
         23    2    1    2    0    0  0.37831188672E+02  0.28072724155E+02 -0.12109632032E+03  0.15880735724E+03  0.91302690211E+02 0.  0.
          5    1    1    2  502    0  0.33439949860E+02 -0.33981416605E+02 -0.67614448696E+02  0.82865979711E+02  0.47000000000E+01 0.  1.
         -5    1    1    2    0  502 -0.71271138532E+02  0.59086924492E+01 -0.29458310611E+03  0.30317616041E+03  0.47000000000E+01 0.  1.
        -11    1    3    3    0    0  0.61031109549E+02 -0.76077015558E+00 -0.97134252350E+02  0.11471895259E+03  0.00000000000E+00 0. -1.
         11    1    3    3    0    0 -0.23199920878E+02  0.28833494311E+02 -0.23962067974E+02  0.44088404649E+02  0.00000000000E+00 0.  1.
<mgrwt>
<rscale>  0 0.12508956E+03</rscale>
<asrwt>0</asrwt>
<pdfrwt beam="1">  1        1 0.47350480E-02 0.13357195E+03</pdfrwt>
<pdfrwt beam="2">  1       -1 0.79087950E-01 0.13357195E+03</pdfrwt>
<totfact> 0.28910978E+03</totfact>
</mgrwt>
</event>
<event>
 7    1  0.1111284E-005  0.1503729E+03  0.7546771E-02  0.1209427E+00
         -1   -1    0    0    0  501 -0.00000000000E+00  0.00000000000E+00  0.77335083612E+02  0.77335083612E+02  0.00000000000E+00 0.  1.
          1   -1    0    0  501    0  0.00000000000E+00 -0.00000000000E+00 -0.25742224910E+03  0.25742224910E+03  0.00000000000E+00 0. -1.
         23    2    1    2    0    0 -0.22998002685E+02 -0.80355809599E+02 -0.12335292050E+03  0.17403778435E+03  0.89929100538E+02 0.  0.
          5    1    1    2  502    0 -0.32655879846E+02  0.21573207348E+02 -0.68254483403E+02  0.78819884981E+02  0.47000000000E+01 0. -1.
         -5    1    1    2    0  502  0.55653882532E+02  0.58782602251E+02  0.11520238412E+02  0.81899663377E+02  0.47000000000E+01 0. -1.
        -11    1    3    3    0    0 -0.21872137686E+02 -0.66988109124E+01  0.73313683808E+01  0.24021103990E+02  0.00000000000E+00 0.  1.
         11    1    3    3    0    0 -0.11258649995E+01 -0.73656998687E+02 -0.13068428888E+03  0.15001668036E+03  0.00000000000E+00 0. -1.
<mgrwt>
<rscale>  0 0.14293968E+03</rscale>
<asrwt>0</asrwt>
<pdfrwt beam="2">  1        1 0.39603423E-01 0.15037287E+03</pdfrwt>
<pdfrwt beam="1">  1       -1 0.11897705E-01 0.15037287E+03</pdfrwt>
<totfact> 0.47650787E+03</totfact>
</mgrwt>
</event>
<event>
 7    1  0.1111284E-005  0.1671797E+03  0.7546771E-02  0.1188276E+00
         -1   -1    0    0    0  501 -0.00000000000E+00  0.00000000000E+00  0.37608840506E+02  0.37608840506E+02  0.00000000000E+00 0.  1.
          1   -1    0    0  501    0  0.00000000000E+00 -0.00000000000E+00 -0.71290976843E+03  0.71290976843E+03  0.00000000000E+00 0. -1.
         23    2    1    2    0    0  0.15690471344E+02  0.10990715215E+03 -0.43747619825E+03  0.45981315855E+03  0.87846136803E+02 0.  0.
          5    1    1    2  502    0  0.54647640813E+02 -0.54444178246E+02 -0.11716700127E+03  0.14035928676E+03  0.47000000000E+01 0.  1.
         -5    1    1    2    0  502 -0.70338112157E+02 -0.55462973909E+02 -0.12065772840E+03  0.15034616363E+03  0.47000000000E+01 0.  1.
        -11    1    3    3    0    0  0.38160523082E+02  0.34946962004E+02 -0.27055244516E+03  0.27545624200E+03  0.00000000000E+00 0.  1.
         11    1    3    3    0    0 -0.22470051738E+02  0.74960190150E+02 -0.16692375309E+03  0.18435691655E+03  0.00000000000E+00 0. -1.
<mgrwt>
<rscale>  0 0.16037337E+03</rscale>
<asrwt>0</asrwt>
<pdfrwt beam="2">  1        1 0.10967842E+00 0.16717971E+03</pdfrwt>
<pdfrwt beam="1">  1       -1 0.57859757E-02 0.16717971E+03</pdfrwt>
<totfact> 0.38049493E+03</totfact>
</mgrwt>
</event>
<event>
 7    1  0.1111284E-005  0.1611633E+03  0.7546771E-02  0.1205978E+00
         -2   -1    0    0    0  501 -0.00000000000E+00  0.00000000000E+00  0.49927008134E+02  0.49927008134E+02  0.00000000000E+00 0.  1.
          2   -1    0    0  501    0  0.00000000000E+00 -0.00000000000E+00 -0.38096531947E+03  0.38096531947E+03  0.00000000000E+00 0. -1.
         23    2    1    2    0    0  0.55649779742E+02 -0.23555609442E+02 -0.18234173107E+03  0.21161104266E+03  0.88763515949E+02 0.  0.
          5    1    1    2  502    0 -0.76362090704E+02 -0.15642099417E+02 -0.15566907894E+03  0.17415738948E+03  0.47000000000E+01 0. -1.
         -5    1    1    2    0  502  0.20712310962E+02  0.39197708859E+02  0.69724986703E+01  0.45123895475E+02  0.47000000000E+01 0.  1.
        -11    1    3    3    0    0  0.67548323192E+02 -0.46157367146E+02 -0.14093083456E+03  0.16295637035E+03  0.00000000000E+00 0. -1.
         11    1    3    3    0    0 -0.11898543451E+02  0.22601757704E+02 -0.41410896510E+02  0.48654672308E+02  0.00000000000E+00 0.  1.
<mgrwt>
<rscale>  0 0.14560681E+03</rscale>
<asrwt>0</asrwt>
<pdfrwt beam="2">  1        2 0.58610049E-01 0.16116330E+03</pdfrwt>
<pdfrwt beam="1">  1       -2 0.76810782E-02 0.16116330E+03</pdfrwt>
<totfact> 0.81759499E+03</totfact>
</mgrwt>
</event>
<event>
 7    1  0.1111284E-005  0.1257693E+03  0.7546771E-02  0.1248499E+00
         -2   -1    0    0    0  501 -0.00000000000E+00  0.00000000000E+00  0.27755241344E+02  0.27755241344E+02  0.00000000000E+00 0.  1.
          2   -1    0    0  501    0  0.00000000000E+00 -0.00000000000E+00 -0.51717061999E+03  0.51717061999E+03  0.00000000000E+00 0. -1.
         23    2    1    2    0    0 -0.10809487584E+02 -0.88746775875E+01 -0.32343139407E+03  0.33667456400E+03  0.92446148951E+02 0.  0.
          5    1    1    2  502    0  0.56981570813E+02  0.28351604692E+02 -0.47609603775E+02  0.79620834412E+02  0.47000000000E+01 0. -1.
         -5    1    1    2    0  502 -0.46172083228E+02 -0.19476927105E+02 -0.11837438081E+03  0.12863046292E+03  0.47000000000E+01 0. -1.
        -11    1    3    3    0    0  0.27144458136E+02 -0.28723719355E+02 -0.77011246030E+02  0.86559838702E+02  0.00000000000E+00 0.  1.
         11    1    3    3    0    0 -0.37953945721E+02  0.19849041767E+02 -0.24642014804E+03  0.25011472530E+03  0.00000000000E+00 0. -1.
<mgrwt>
<rscale>  0 0.11678356E+03</rscale>
<asrwt>0</asrwt>
<pdfrwt beam="2">  1        2 0.79564710E-01 0.12576931E+03</pdfrwt>
<pdfrwt beam="1">  1       -2 0.42700372E-02 0.12576931E+03</pdfrwt>
<totfact> 0.14040361E+04</totfact>
</mgrwt>
</event>
<event>
 7    1  0.1111284E-005  0.1354755E+03  0.7546771E-02  0.1234497E+00
          2   -1    0    0  501    0  0.00000000000E+00  0.00000000000E+00  0.17576442586E+03  0.17576442586E+03  0.00000000000E+00 0.  1.
         -2   -1    0    0    0  501 -0.00000000000E+00 -0.00000000000E+00 -0.93490608457E+02  0.93490608457E+02  0.00000000000E+00 0. -1.
         23    2    1    2    0    0  0.32063575661E+02 -0.41236189679E+02  0.89321448761E+02  0.13359633005E+03  0.84505396102E+02 0.  0.
          5    1    1    2  502    0 -0.66277575608E+02  0.28944291153E+02 -0.43035038957E+02  0.84288751307E+02  0.47000000000E+01 0.  1.
         -5    1    1    2    0  502  0.34213999947E+02  0.12291898525E+02  0.35987407604E+02  0.51369952966E+02  0.47000000000E+01 0.  1.
        -11    1    3    3    0    0  0.15307437438E+02 -0.36653413126E+02 -0.28297352508E+01  0.39822075992E+02  0.00000000000E+00 0. -1.
         11    1    3    3    0    0  0.16756138223E+02 -0.45827765522E+01  0.92151184012E+02  0.93774254056E+02  0.00000000000E+00 0.  1.
<mgrwt>
<rscale>  0 0.12536704E+03</rscale>
<asrwt>0</asrwt>
<pdfrwt beam="1">  1        2 0.27040681E-01 0.13547551E+03</pdfrwt>
<pdfrwt beam="2">  1       -2 0.14383171E-01 0.13547551E+03</pdfrwt>
<totfact> 0.68613184E+03</totfact>
</mgrwt>
</event>
<event>
 7    1  0.1111284E-005  0.1318690E+03  0.7546771E-02  0.1237696E+00
         -2   -1    0    0    0  501 -0.00000000000E+00  0.00000000000E+00  0.43373388781E+02  0.43373388781E+02  0.00000000000E+00 0.  1.
          2   -1    0    0  501    0  0.00000000000E+00 -0.00000000000E+00 -0.37132706179E+03  0.37132706179E+03  0.00000000000E+00 0. -1.
         23    2    1    2    0    0  0.40675605620E+02  0.10569936365E+02 -0.22768029546E+03  0.24903762252E+03  0.91734355833E+02 0.  0.
          5    1    1    2  502    0 -0.49343949295E+02 -0.34932851695E+02 -0.11888519961E+03  0.13345752188E+03  0.47000000000E+01 0.  1.
         -5    1    1    2    0  502  0.86683436755E+01  0.24362915331E+02  0.18611822062E+02  0.32205306177E+02  0.47000000000E+01 0.  1.
        -11    1    3    3    0    0  0.12561135312E+02 -0.18772619268E+02 -0.56018891596E+01  0.23271753623E+02  0.00000000000E+00 0.  1.
         11    1    3    3    0    0  0.28114470308E+02  0.29342555633E+02 -0.22207840630E+03  0.22576586889E+03  0.00000000000E+00 0. -1.
<mgrwt>
<rscale>  0 0.12333405E+03</rscale>
<asrwt>0</asrwt>
<pdfrwt beam="2">  1        2 0.57127238E-01 0.13186896E+03</pdfrwt>
<pdfrwt beam="1">  1       -2 0.66728294E-02 0.13186896E+03</pdfrwt>
<totfact> 0.10287102E+04</totfact>
</mgrwt>
</event>
<event>
 7    1  0.1111284E-005  0.2043780E+03  0.7546771E-02  0.1149882E+00
          1   -1    0    0  501    0  0.00000000000E+00  0.00000000000E+00  0.74498429001E+03  0.74498429001E+03  0.00000000000E+00 0. -1.
         -1   -1    0    0    0  501 -0.00000000000E+00 -0.00000000000E+00 -0.51486814188E+02  0.51486814188E+02  0.00000000000E+00 0.  1.
         23    2    1    2    0    0  0.10409411620E+03  0.12370762715E+03  0.35196443685E+03  0.39845704066E+03  0.93540827456E+02 0.  0.
          5    1    1    2  502    0 -0.77813154279E+02 -0.14413525182E+03  0.23642226033E+03  0.28765853538E+03  0.47000000000E+01 0. -1.
         -5    1    1    2    0  502 -0.26280961921E+02  0.20427624672E+02  0.10511077864E+03  0.11035552816E+03  0.47000000000E+01 0. -1.
        -11    1    3    3    0    0  0.25279589893E+02 -0.94782309364E+01  0.92351766996E+02  0.96217167876E+02  0.00000000000E+00 0. -1.
         11    1    3    3    0    0  0.78814526307E+02  0.13318585808E+03  0.25961266985E+03  0.30223987278E+03  0.00000000000E+00 0.  1.
<mgrwt>
<rscale>  0 0.19983051E+03</rscale>
<asrwt>0</asrwt>
<pdfrwt beam="1">  1        1 0.11461296E+00 0.20437803E+03</pdfrwt>
<pdfrwt beam="2">  1       -1 0.79210489E-02 0.20437803E+03</pdfrwt>
<totfact> 0.22326578E+03</totfact>
</mgrwt>
</event>
<event>
 7    1  0.1111284E-005  0.1444685E+03  0.7546771E-02  0.1217719E+00
          1   -1    0    0  501    0  0.00000000000E+00  0.00000000000E+00  0.52697702734E+03  0.52697702734E+03  0.00000000000E+00 0. -1.
         -1   -1    0    0    0  501 -0.00000000000E+00 -0.00000000000E+00 -0.44597483222E+02  0.44597483222E+02  0.00000000000E+00 0.  1.
         23    2    1    2    0    0 -0.27600653978E+02  0.66972734790E+02  0.37219067956E+03  0.38988041137E+03  0.90739682121E+02 0.  0.
          5    1    1    2  502    0 -0.92188378166E+01 -0.84589645476E+02  0.11179925188E+03  0.14057580807E+03  0.47000000000E+01 0. -1.
         -5    1    1    2    0  502  0.36819491794E+02  0.17616910686E+02 -0.16103873211E+01  0.41118291130E+02  0.47000000000E+01 0. -1.
        -11    1    3    3    0    0  0.20146265268E+02  0.31935943622E+02  0.52025909305E+02  0.64284303981E+02  0.00000000000E+00 0.  1.
         11    1    3    3    0    0 -0.47746919246E+02  0.35036791168E+02  0.32016477025E+03  0.32559610738E+03  0.00000000000E+00 0. -1.
<mgrwt>
<rscale>  0 0.13678692E+03</rscale>
<asrwt>0</asrwt>
<pdfrwt beam="1">  1        1 0.81073384E-01 0.14446854E+03</pdfrwt>
<pdfrwt beam="2">  1       -1 0.68611516E-02 0.14446854E+03</pdfrwt>
<totfact> 0.44453696E+03</totfact>
</mgrwt>
</event>
<event>
 7    1  0.1111284E-005  0.2543112E+03  0.7546771E-02  0.1110610E+00
          2   -1    0    0  501    0  0.00000000000E+00  0.00000000000E+00  0.22583851535E+02  0.22583851535E+02  0.00000000000E+00 0.  1.
         -2   -1    0    0    0  501 -0.00000000000E+00 -0.00000000000E+00 -0.71593383216E+03  0.71593383216E+03  0.00000000000E+00 0. -1.
         23    2    1    2    0    0 -0.41796959208E+02  0.18318989199E+02 -0.16167782647E+03  0.19044707517E+03  0.89709518475E+02 0.  0.
          5    1    1    2  502    0  0.22041638269E+02 -0.14927182595E+02 -0.52602908560E+03  0.52672321337E+03  0.47000000000E+01 0.  1.
         -5    1    1    2    0  502  0.19755320938E+02 -0.33918066043E+01 -0.56430685542E+01  0.21347395160E+02  0.47000000000E+01 0.  1.
        -11    1    3    3    0    0 -0.44539368654E+02  0.44380423343E+02 -0.14818391244E+03  0.16097157899E+03  0.00000000000E+00 0. -1.
         11    1    3    3    0    0  0.27424094458E+01 -0.26061434144E+02 -0.13493914023E+02  0.29475496177E+02  0.00000000000E+00 0.  1.
<mgrwt>
<rscale>  0 0.25431117E+03</rscale>
<asrwt>0</asrwt>
<pdfrwt beam="1">  1        2 0.34744381E-02 0.25431117E+03</pdfrwt>
<pdfrwt beam="2">  1       -2 0.11014369E+00 0.25431117E+03</pdfrwt>
<totfact> 0.17435885E+03</totfact>
</mgrwt>
</event>
<event>
 7    1  0.1111284E-005  0.1284177E+03  0.7546771E-02  0.1243827E+00
          1   -1    0    0  501    0  0.00000000000E+00  0.00000000000E+00  0.48877052853E+02  0.48877052853E+02  0.00000000000E+00 0. -1.
         -1   -1    0    0    0  501 -0.00000000000E+00 -0.00000000000E+00 -0.37843263611E+03  0.37843263611E+03  0.00000000000E+00 0.  1.
         23    2    1    2    0    0  0.68441641628E+01  0.28620885739E+02 -0.29441791002E+02  0.10087531403E+03  0.91885865287E+02 0.  0.
          5    1    1    2  502    0 -0.21319383706E+02  0.46537450872E+02 -0.10912344951E+03  0.12062449041E+03  0.47000000000E+01 0. -1.
         -5    1    1    2    0  502  0.14475219543E+02 -0.75158336612E+02 -0.19099034275E+03  0.20580988452E+03  0.47000000000E+01 0. -1.
        -11    1    3    3    0    0  0.20274370437E+02  0.51720041257E+01 -0.57940009567E+02  0.61602308658E+02  0.00000000000E+00 0.  1.
         11    1    3    3    0    0 -0.13430206274E+02  0.23448881614E+02  0.28498218565E+02  0.39273005371E+02  0.00000000000E+00 0. -1.
<mgrwt>
<rscale>  0 0.11955883E+03</rscale>
<asrwt>0</asrwt>
<pdfrwt beam="1">  1        1 0.75195466E-02 0.12841773E+03</pdfrwt>
<pdfrwt beam="2">  1       -1 0.58220405E-01 0.12841773E+03</pdfrwt>
<totfact> 0.28058964E+03</totfact>
</mgrwt>
</event>
<event>
 7    1  0.1111284E-005  0.1185823E+03  0.7546771E-02  0.1254165E+00
         -3   -1    0    0    0  501 -0.00000000000E+00  0.00000000000E+00  0.24518170826E+03  0.24518170826E+03  0.00000000000E+00 0.  1.
          3   -1    0    0  501    0  0.00000000000E+00 -0.00000000000E+00 -0.52155047195E+02  0.52155047195E+02  0.00000000000E+00 0. -1.
         23    2    1    2    0    0  0.39483999976E+02 -0.12498041967E+02  0.49794133298E+02  0.11138698886E+03  0.90622393859E+02 0.  0.
          5    1    1    2  502    0 -0.30670384044E+02 -0.43692482422E+02  0.10305141372E+03  0.11615244012E+03  0.47000000000E+01 0. -1.
         -5    1    1    2    0  502 -0.88136159319E+01  0.56190524388E+02  0.40181114052E+02  0.69797326477E+02  0.47000000000E+01 0.  1.
        -11    1    3    3    0    0  0.17294770027E+02 -0.21386344480E+02 -0.22315735015E+02  0.35418594407E+02  0.00000000000E+00 0. -1.
         11    1    3    3    0    0  0.22189229950E+02  0.88883025132E+01  0.72109868313E+02  0.75968394451E+02  0.00000000000E+00 0.  1.
<mgrwt>
<rscale>  0 0.11353256E+03</rscale>
<asrwt>0</asrwt>
<pdfrwt beam="2">  1        3 0.80238535E-02 0.11858229E+03</pdfrwt>
<pdfrwt beam="1">  1       -3 0.37720262E-01 0.11858229E+03</pdfrwt>
<totfact> 0.16561835E+03</totfact>
</mgrwt>
</event>
<event>
 7    1  0.1111284E-005  0.1331244E+03  0.7546771E-02  0.1236009E+00
         -1   -1    0    0    0  501 -0.00000000000E+00  0.00000000000E+00  0.61777082249E+02  0.61777082249E+02  0.00000000000E+00 0.  1.
          1   -1    0    0  501    0  0.00000000000E+00 -0.00000000000E+00 -0.28970272799E+03  0.28970272799E+03  0.00000000000E+00 0. -1.
         23    2    1    2    0    0  0.28392999516E+02  0.35920290703E+02 -0.18602079811E+03  0.21191581342E+03  0.90598813136E+02 0.  0.
          5    1    1    2  502    0  0.23884550172E+02  0.29355729154E+02  0.11972823017E+02  0.39970852656E+02  0.47000000000E+01 0. -1.
         -5    1    1    2    0  502 -0.52277549688E+02 -0.65276019857E+02 -0.53877670646E+02  0.99593144161E+02  0.47000000000E+01 0. -1.
        -11    1    3    3    0    0 -0.28750361670E+02  0.28141552820E+01 -0.96107574631E+02  0.10035521246E+03  0.00000000000E+00 0.  1.
         11    1    3    3    0    0  0.57143361187E+02  0.33106135421E+02 -0.89913223479E+02  0.11156060096E+03  0.00000000000E+00 0. -1.
<mgrwt>
<rscale>  0 0.12440043E+03</rscale>
<asrwt>0</asrwt>
<pdfrwt beam="2">  1        1 0.44569651E-01 0.13312435E+03</pdfrwt>
<pdfrwt beam="1">  1       -1 0.95041664E-02 0.13312435E+03</pdfrwt>
<totfact> 0.57690531E+03</totfact>
</mgrwt>
</event>
<event>
 7    1  0.1111284E-005  0.2741251E+03  0.7546771E-02  0.1100899E+00
          4   -1    0    0  501    0  0.00000000000E+00  0.00000000000E+00  0.69369095303E+02  0.69369095303E+02  0.00000000000E+00 0. -1.
         -4   -1    0    0    0  501 -0.00000000000E+00 -0.00000000000E+00 -0.15694261613E+04  0.15694261613E+04  0.00000000000E+00 0.  1.
         23    2    1    2    0    0  0.81585838017E+01 -0.24383016988E+03 -0.25737188480E+03  0.36623445078E+03  0.91474978131E+02 0.  0.
          5    1    1    2  502    0  0.22125758919E+02  0.10414631524E+03 -0.80698348707E+03  0.81399044380E+03  0.47000000000E+01 0.  1.
         -5    1    1    2    0  502 -0.30284342721E+02  0.13968385464E+03 -0.43570169410E+03  0.45857036200E+03  0.47000000000E+01 0.  1.
        -11    1    3    3    0    0 -0.20980750730E+00 -0.19621354407E+03 -0.24924288852E+03  0.31720942037E+03  0.00000000000E+00 0.  1.
         11    1    3    3    0    0  0.83683913090E+01 -0.47616625805E+02 -0.81289962789E+01  0.49025030409E+02  0.00000000000E+00 0. -1.
<mgrwt>
<rscale>  0 0.27066692E+03</rscale>
<asrwt>0</asrwt>
<pdfrwt beam="1">  1        4 0.10672168E-01 0.27412505E+03</pdfrwt>
<pdfrwt beam="2">  1       -4 0.24145019E+00 0.27412505E+03</pdfrwt>
<totfact> 0.99820401E+00</totfact>
</mgrwt>
</event>
<event>
 7    1  0.1111284E-005  0.1566508E+03  0.7546771E-02  0.1202276E+00
          2   -1    0    0  501    0  0.00000000000E+00  0.00000000000E+00  0.14243321108E+04  0.14243321108E+04  0.00000000000E+00 0. -1.
         -2   -1    0    0    0  501 -0.00000000000E+00 -0.00000000000E+00 -0.14087503385E+02  0.14087503385E+02  0.00000000000E+00 0.  1.
         23    2    1    2    0    0  0.59326103917E+02 -0.65281272039E+02  0.63394665891E+03  0.64647392698E+03  0.90878714982E+02 0.  0.
          5    1    1    2  502    0 -0.98382778476E+02  0.29115419151E+02  0.54002297686E+03  0.54970336025E+03  0.47000000000E+01 0. -1.
         -5    1    1    2    0  502  0.39056674559E+02  0.36165852888E+02  0.23627497161E+03  0.24224232692E+03  0.47000000000E+01 0.  1.
        -11    1    3    3    0    0  0.49784095018E+02  0.92497547225E+01  0.21887133139E+03  0.22465233981E+03  0.00000000000E+00 0.  1.
         11    1    3    3    0    0  0.95420088989E+01 -0.74531026761E+02  0.41507532752E+03  0.42182158717E+03  0.00000000000E+00 0. -1.
<mgrwt>
<rscale>  0 0.14854244E+03</rscale>
<asrwt>0</asrwt>
<pdfrwt beam="1">  1        2 0.21912790E+00 0.15665078E+03</pdfrwt>
<pdfrwt beam="2">  1       -2 0.21673093E-02 0.15665078E+03</pdfrwt>
<totfact> 0.10082492E+04</totfact>
</mgrwt>
</event>
<event>
 6    1  0.1111284E-005  0.1349508E+03  0.7546771E-02  0.1257921E+00
          1   -1    0    0  501    0  0.00000000000E+00  0.00000000000E+00  0.28827607562E+03  0.28827607562E+03  0.00000000000E+00 0. -1.
         -1   -1    0    0    0  501 -0.00000000000E+00 -0.00000000000E+00 -0.36963610590E+02  0.36963610590E+02  0.00000000000E+00 0.  1.
          5    1    1    2  502    0  0.93850009025E+01  0.42775775069E+02  0.14244544274E+03  0.14909942768E+03  0.47000000000E+01 0. -1.
         -5    1    1    2    0  502 -0.27805505159E+02  0.46025629180E+01 -0.18576952465E+02  0.34081121834E+02  0.47000000000E+01 0. -1.
        -11    1    1    2    0    0  0.64212183228E+01 -0.10504627839E+02  0.44403063455E+01  0.13087993399E+02  0.00000000000E+00 0.  1.
         11    1    1    2    0    0  0.11999285934E+02 -0.36873710149E+02  0.12300366840E+03  0.12897114330E+03  0.00000000000E+00 0. -1.
<mgrwt>
<rscale>  0 0.11144291E+03</rscale>
<asrwt>0</asrwt>
<pdfrwt beam="1">  1        1 0.44350164E-01 0.13495077E+03</pdfrwt>
<pdfrwt beam="2">  1       -1 0.56867095E-02 0.13495077E+03</pdfrwt>
<totfact> 0.12569898E+04</totfact>
</mgrwt>
</event>
<event>
 7    1  0.1111284E-005  0.1296668E+03  0.7546771E-02  0.1241430E+00
          2   -1    0    0  501    0  0.00000000000E+00  0.00000000000E+00  0.36508781870E+02  0.36508781870E+02  0.00000000000E+00 0.  1.
         -2   -1    0    0    0  501 -0.00000000000E+00 -0.00000000000E+00 -0.43769643325E+03  0.43769643325E+03  0.00000000000E+00 0. -1.
         23    2    1    2    0    0  0.31650338099E+02 -0.13666624980E+02 -0.76613401657E+02  0.12468851800E+03  0.92136272264E+02 0.  0.
          5    1    1    2  502    0 -0.57833466446E+02 -0.13787096719E+01 -0.61088634348E+02  0.84264594748E+02  0.47000000000E+01 0.  1.
         -5    1    1    2    0  502  0.26183128347E+02  0.15045334652E+02 -0.26348561537E+03  0.26525210237E+03  0.47000000000E+01 0.  1.
        -11    1    3    3    0    0 -0.76482168026E+00 -0.42798925551E+02 -0.67864325279E+02  0.80236523018E+02  0.00000000000E+00 0. -1.
         11    1    3    3    0    0  0.32415159779E+02  0.29132300571E+02 -0.87490763780E+01  0.44451994978E+02  0.00000000000E+00 0.  1.
<mgrwt>
<rscale>  0 0.12101595E+03</rscale>
<asrwt>0</asrwt>
<pdfrwt beam="1">  1        2 0.56167357E-02 0.12966680E+03</pdfrwt>
<pdfrwt beam="2">  1       -2 0.67337912E-01 0.12966680E+03</pdfrwt>
<totfact> 0.26678229E+03</totfact>
</mgrwt>
</event>
<event>
 7    1  0.1111284E-005  0.1311926E+03  0.7546771E-02  0.1238509E+00
          2   -1    0    0  501    0  0.00000000000E+00  0.00000000000E+00  0.30432329283E+02  0.30432329283E+02  0.00000000000E+00 0. -1.
         -2   -1    0    0    0  501 -0.00000000000E+00 -0.00000000000E+00 -0.56363939562E+03  0.56363939562E+03  0.00000000000E+00 0.  1.
         23    2    1    2    0    0 -0.34494880541E+02  0.19885660422E+02 -0.10219390284E+03  0.14353445099E+03  0.92591622566E+02 0.  0.
          5    1    1    2  502    0  0.40627701190E+02  0.42773485545E+02 -0.29087799854E+03  0.29683712909E+03  0.47000000000E+01 0.  1.
         -5    1    1    2    0  502 -0.61328206486E+01 -0.62659145968E+02 -0.14013516496E+03  0.15370014483E+03  0.47000000000E+01 0.  1.
        -11    1    3    3    0    0 -0.44301815881E+02 -0.26205918556E+02 -0.68132401353E+02  0.85389842323E+02  0.00000000000E+00 0.  1.
         11    1    3    3    0    0  0.98069353398E+01  0.46091578979E+02 -0.34061501486E+02  0.58144608667E+02  0.00000000000E+00 0. -1.
<mgrwt>
<rscale>  0 0.12282474E+03</rscale>
<asrwt>0</asrwt>
<pdfrwt beam="1">  1        2 0.46818972E-02 0.13119256E+03</pdfrwt>
<pdfrwt beam="2">  1       -2 0.86713746E-01 0.13119256E+03</pdfrwt>
<totfact> 0.19575175E+03</totfact>
</mgrwt>
</event>
<event>
 7    1  0.1111284E-005  0.2339479E+03  0.7546771E-02  0.1126437E+00
          1   -1    0    0  501    0  0.00000000000E+00  0.00000000000E+00  0.86677188110E+03  0.86677188110E+03  0.00000000000E+00 0. -1.
         -1   -1    0    0    0  501 -0.00000000000E+00 -0.00000000000E+00 -0.62117532959E+02  0.62117532959E+02  0.00000000000E+00 0.  1.
         23    2    1    2    0    0 -0.18488069129E+03 -0.70184092540E+02  0.48831150479E+03  0.53543749621E+03  0.95595553112E+02 0.  0.
          5    1    1    2  502    0 -0.45733111412E+01 -0.74632447560E+01 -0.59587679319E+01  0.11584995138E+02  0.47000000000E+01 0.  1.
         -5    1    1    2    0  502  0.18945400244E+03  0.77647337296E+02  0.32230161129E+03  0.38186692272E+03  0.47000000000E+01 0.  1.
        -11    1    3    3    0    0 -0.64158452310E+01 -0.37320593250E+02  0.73929915094E+02  0.83063963885E+02  0.00000000000E+00 0.  1.
         11    1    3    3    0    0 -0.17846484606E+03 -0.32863499290E+02  0.41438158970E+03  0.45237353232E+03  0.00000000000E+00 0. -1.
<mgrwt>
<rscale>  0 0.23028789E+03</rscale>
<asrwt>0</asrwt>
<pdfrwt beam="1">  1        1 0.13334951E+00 0.23394789E+03</pdfrwt>
<pdfrwt beam="2">  1       -1 0.95565442E-02 0.23394789E+03</pdfrwt>
<totfact> 0.13284741E+03</totfact>
</mgrwt>
</event>
<event>
 7    1  0.1111284E-005  0.1652702E+03  0.7546771E-02  0.1190147E+00
         -1   -1    0    0    0  501 -0.00000000000E+00  0.00000000000E+00  0.52382928283E+03  0.52382928283E+03  0.00000000000E+00 0.  1.
          1   -1    0    0  501    0  0.00000000000E+00 -0.00000000000E+00 -0.46520639373E+02  0.46520639373E+02  0.00000000000E+00 0. -1.
         23    2    1    2    0    0  0.56335300811E+02 -0.92273586137E+02  0.16315382102E+03  0.21537456449E+03  0.89882995613E+02 0.  0.
          5    1    1    2  502    0 -0.48683904849E+02  0.72647075346E+02  0.76328364584E+02  0.11617155154E+03  0.47000000000E+01 0.  1.
         -5    1    1    2    0  502 -0.76513959617E+01  0.19626510791E+02  0.23782645785E+03  0.23880380617E+03  0.47000000000E+01 0.  1.
        -11    1    3    3    0    0  0.19331295188E+02 -0.91380572154E+02  0.14877562391E+03  0.17566529028E+03  0.00000000000E+00 0.  1.
         11    1    3    3    0    0  0.37004005623E+02 -0.89301398319E+00  0.14378197115E+02  0.39709274211E+02  0.00000000000E+00 0. -1.
<mgrwt>
<rscale>  0 0.15872257E+03</rscale>
<asrwt>0</asrwt>
<pdfrwt beam="2">  1        1 0.71570218E-02 0.16527024E+03</pdfrwt>
<pdfrwt beam="1">  1       -1 0.80589116E-01 0.16527024E+03</pdfrwt>
<totfact> 0.15997792E+03</totfact>
</mgrwt>
</event>
<event>
 7    1  0.1111284E-005  0.1703076E+03  0.7546771E-02  0.1184032E+00
         -1   -1    0    0    0  501 -0.00000000000E+00  0.00000000000E+00  0.11457909955E+03  0.11457909955E+03  0.00000000000E+00 0.  1.
          1   -1    0    0  501    0  0.00000000000E+00 -0.00000000000E+00 -0.28740764234E+03  0.28740764234E+03  0.00000000000E+00 0. -1.
         23    2    1    2    0    0  0.11549216928E+03 -0.63452315981E+01 -0.17879641938E+03  0.23157457739E+03  0.90994077715E+02 0.  0.
          5    1    1    2  502    0  0.10282226848E+02 -0.31407103082E+02 -0.16282529426E+02  0.37139481384E+02  0.47000000000E+01 0.  1.
         -5    1    1    2    0  502 -0.12577439613E+03  0.37752334680E+02  0.22250406017E+02  0.13327268311E+03  0.47000000000E+01 0.  1.
        -11    1    3    3    0    0  0.61599563402E+02  0.20164261252E+02 -0.30611402815E+02  0.71680971153E+02  0.00000000000E+00 0.  1.
         11    1    3    3    0    0  0.53892605879E+02 -0.26509492851E+02 -0.14818501657E+03  0.15989360624E+03  0.00000000000E+00 0. -1.
<mgrwt>
<rscale>  0 0.16420238E+03</rscale>
<asrwt>0</asrwt>
<pdfrwt beam="2">  1        1 0.44216560E-01 0.17030763E+03</pdfrwt>
<pdfrwt beam="1">  1       -1 0.17627554E-01 0.17030763E+03</pdfrwt>
<totfact> 0.22541273E+03</totfact>
</mgrwt>
</event>
<event>
 7    1  0.1111284E-005  0.1286446E+03  0.7546771E-02  0.1229776E+00
         -1   -1    0    0    0  501 -0.00000000000E+00  0.00000000000E+00  0.22642096048E+03  0.22642096048E+03  0.00000000000E+00 0. -1.
          1   -1    0    0  501    0  0.00000000000E+00 -0.00000000000E+00 -0.91307830223E+02  0.91307830223E+02  0.00000000000E+00 0.  1.
         23    2    1    2    0    0 -0.13009694025E+02 -0.13765356267E+02 -0.44243339904E+01  0.12793904954E+03  0.12645192167E+03 0.  0.
          5    1    1    2  502    0  0.17640806053E+02  0.68111051743E+02  0.99557647391E+02  0.12200052689E+03  0.47000000000E+01 0.  1.
         -5    1    1    2    0  502 -0.46311120282E+01 -0.54345695476E+02  0.39979816861E+02  0.67789214272E+02  0.47000000000E+01 0.  1.
        -11    1    3    3    0    0 -0.27150047846E+02 -0.55700397493E+02  0.32799833935E+02  0.70110544750E+02  0.00000000000E+00 0. -1.
         11    1    3    3    0    0  0.14140353821E+02  0.41935041227E+02 -0.37224167926E+02  0.57828504793E+02  0.00000000000E+00 0.  1.
<mgrwt>
<rscale>  0 0.12844866E+03</rscale>
<asrwt>0</asrwt>
<pdfrwt beam="2">  1        1 0.14047359E-01 0.12864463E+03</pdfrwt>
<pdfrwt beam="1">  1       -1 0.34833994E-01 0.12864463E+03</pdfrwt>
<totfact> 0.30827384E+03</totfact>
</mgrwt>
</event>
<event>
 7    1  0.1111284E-005  0.1369706E+03  0.7546771E-02  0.1229130E+00
         -1   -1    0    0    0  501 -0.00000000000E+00  0.00000000000E+00  0.14599964935E+03  0.14599964935E+03  0.00000000000E+00 0. -1.
          1   -1    0    0  501    0  0.00000000000E+00 -0.00000000000E+00 -0.11852564945E+03  0.11852564945E+03  0.00000000000E+00 0.  1.
         23    2    1    2    0    0  0.53492902108E+02  0.16611998073E+02 -0.36443680178E+02  0.11337501407E+03  0.91587678939E+02 0.  0.
          5    1    1    2  502    0 -0.79440330833E+02 -0.43259174410E+02  0.68249637131E+02  0.11341175116E+03  0.47000000000E+01 0.  1.
         -5    1    1    2    0  502  0.25947428726E+02  0.26647176337E+02 -0.43319570612E+01  0.37738533573E+02  0.47000000000E+01 0.  1.
        -11    1    3    3    0    0  0.36591823646E+02 -0.10382735997E+01 -0.65727674492E+02  0.75234079804E+02  0.00000000000E+00 0.  1.
         11    1    3    3    0    0  0.16901078462E+02  0.17650271673E+02  0.29283994315E+02  0.38140934261E+02  0.00000000000E+00 0. -1.
<mgrwt>
<rscale>  0 0.12887810E+03</rscale>
<asrwt>0</asrwt>
<pdfrwt beam="2">  1        1 0.18234715E-01 0.13697058E+03</pdfrwt>
<pdfrwt beam="1">  1       -1 0.22461484E-01 0.13697058E+03</pdfrwt>
<totfact> 0.45906117E+03</totfact>
</mgrwt>
</event>
<event>
 7    1  0.1111284E-005  0.2065032E+03  0.7546771E-02  0.1148430E+00
         -2   -1    0    0    0  501 -0.00000000000E+00  0.00000000000E+00  0.34198862691E+03  0.34198862691E+03  0.00000000000E+00 0. -1.
          2   -1    0    0  501    0  0.00000000000E+00 -0.00000000000E+00 -0.13084314685E+03  0.13084314685E+03  0.00000000000E+00 0.  1.
         23    2    1    2    0    0  0.13036388150E+03  0.10012329305E+03  0.15009716762E+02  0.18802866140E+03  0.90055929843E+02 0.  0.
          5    1    1    2  502    0 -0.88931854075E+02 -0.69960124895E+01  0.14588948004E+03  0.17106621305E+03  0.47000000000E+01 0.  1.
         -5    1    1    2    0  502 -0.41432027429E+02 -0.93127280561E+02  0.50246283262E+02  0.11373689930E+03  0.47000000000E+01 0.  1.
        -11    1    3    3    0    0  0.73870979742E+02  0.96171867960E+02 -0.17819201322E+02  0.12257028094E+03  0.00000000000E+00 0.  1.
         11    1    3    3    0    0  0.56492901762E+02  0.39514250896E+01  0.32828918084E+02  0.65458380459E+02  0.00000000000E+00 0. -1.
<mgrwt>
<rscale>  0 0.20155987E+03</rscale>
<asrwt>0</asrwt>
<pdfrwt beam="2">  1        2 0.20129715E-01 0.20650321E+03</pdfrwt>
<pdfrwt beam="1">  1       -2 0.52613635E-01 0.20650321E+03</pdfrwt>
<totfact> 0.94992358E+02</totfact>
</mgrwt>
</event>
<event>
 7    1  0.1111284E-005  0.1447730E+03  0.7546771E-02  0.1215960E+00
         -3   -1    0    0    0  501 -0.00000000000E+00  0.00000000000E+00  0.33886369002E+03  0.33886369002E+03  0.00000000000E+00 0.  1.
          3   -1    0    0  501    0  0.00000000000E+00 -0.00000000000E+00 -0.52854925387E+02  0.52854925387E+02  0.00000000000E+00 0. -1.
         23    2    1    2    0    0 -0.71882042440E+02  0.12091440669E+02  0.99963142959E+02  0.15598102973E+03  0.94995898450E+02 0.  0.
          5    1    1    2  502    0 -0.65160082438E+01 -0.36027483990E+01  0.14763633663E+03  0.14789866819E+03  0.47000000000E+01 0.  1.
         -5    1    1    2    0  502  0.78398050684E+02 -0.84886922702E+01  0.38409285045E+02  0.87838917486E+02  0.47000000000E+01 0.  1.
        -11    1    3    3    0    0  0.21369397022E+02 -0.81087130703E+01  0.10378389977E+02  0.25102058387E+02  0.00000000000E+00 0.  1.
         11    1    3    3    0    0 -0.93251439462E+02  0.20200153739E+02  0.89584752981E+02  0.13087897134E+03  0.00000000000E+00 0. -1.
<mgrwt>
<rscale>  0 0.13806220E+03</rscale>
<asrwt>0</asrwt>
<pdfrwt beam="2">  1        3 0.81315272E-02 0.14477305E+03</pdfrwt>
<pdfrwt beam="1">  1       -3 0.52132874E-01 0.14477305E+03</pdfrwt>
<totfact> 0.88921537E+02</totfact>
</mgrwt>
</event>
<event>
 7    1  0.1111284E-005  0.1369299E+03  0.7546771E-02  0.1229991E+00
          2   -1    0    0  501    0  0.00000000000E+00  0.00000000000E+00  0.51888300757E+03  0.51888300757E+03  0.00000000000E+00 0.  1.
         -2   -1    0    0    0  501 -0.00000000000E+00 -0.00000000000E+00 -0.28718266949E+02  0.28718266949E+02  0.00000000000E+00 0. -1.
         23    2    1    2    0    0 -0.31988742499E+02 -0.45848135129E+02  0.24535013900E+03  0.26709462562E+03  0.89540589616E+02 0.  0.
          5    1    1    2  502    0  0.66292279549E+01  0.68868741392E+02  0.23433774720E+03  0.24438314174E+03  0.47000000000E+01 0. -1.
         -5    1    1    2    0  502  0.25359514544E+02 -0.23020606263E+02  0.10476854423E+02  0.36123507155E+02  0.47000000000E+01 0. -1.
        -11    1    3    3    0    0  0.22574118246E+01  0.17152702909E+02  0.78367127221E+01  0.18992766821E+02  0.00000000000E+00 0. -1.
         11    1    3    3    0    0 -0.34246154324E+02 -0.63000838039E+02  0.23751342627E+03  0.24810185880E+03  0.00000000000E+00 0.  1.
<mgrwt>
<rscale>  0 0.12830636E+03</rscale>
<asrwt>0</asrwt>
<pdfrwt beam="1">  1        2 0.79828148E-01 0.13692988E+03</pdfrwt>
<pdfrwt beam="2">  1       -2 0.44181953E-02 0.13692988E+03</pdfrwt>
<totfact> 0.13383797E+04</totfact>
</mgrwt>
</event>
<event>
 7    1  0.1111284E-005  0.1271587E+03  0.7546771E-02  0.1246748E+00
         -2   -1    0    0    0  501 -0.00000000000E+00  0.00000000000E+00  0.36688518388E+02  0.36688518388E+02  0.00000000000E+00 0.  1.
          2   -1    0    0  501    0  0.00000000000E+00 -0.00000000000E+00 -0.53911482978E+03  0.53911482978E+03  0.00000000000E+00 0. -1.
         23    2    1    2    0    0  0.17667210328E+01  0.23277736817E+02 -0.40476534225E+03  0.41546936060E+03  0.90745980504E+02 0.  0.
          5    1    1    2  502    0  0.17137783280E+02  0.38061544879E+02 -0.84899513674E+02  0.94722765144E+02  0.47000000000E+01 0.  1.
         -5    1    1    2    0  502 -0.18904504313E+02 -0.61339281696E+02 -0.12761455470E+02  0.65611222424E+02  0.47000000000E+01 0.  1.
        -11    1    3    3    0    0  0.36716088353E+02 -0.15134417220E+02 -0.13366664824E+03  0.13944136610E+03  0.00000000000E+00 0.  1.
         11    1    3    3    0    0 -0.34949367320E+02  0.38412154037E+02 -0.27109869401E+03  0.27602799450E+03  0.00000000000E+00 0. -1.
<mgrwt>
<rscale>  0 0.11781350E+03</rscale>
<asrwt>0</asrwt>
<pdfrwt beam="2">  1        2 0.82940740E-01 0.12715865E+03</pdfrwt>
<pdfrwt beam="1">  1       -2 0.56443877E-02 0.12715865E+03</pdfrwt>
<totfact> 0.88367426E+03</totfact>
</mgrwt>
</event>
<event>
 7    1  0.1111284E-005  0.1634532E+03  0.7546771E-02  0.1191901E+00
         -3   -1    0    0    0  501 -0.00000000000E+00  0.00000000000E+00  0.63516672649E+02  0.63516672649E+02  0.00000000000E+00 0.  1.
          3   -1    0    0  501    0  0.00000000000E+00 -0.00000000000E+00 -0.41005609292E+03  0.41005609292E+03  0.00000000000E+00 0. -1.
         23    2    1    2    0    0 -0.25764059877E+02 -0.10211807251E+03 -0.24218547077E+03  0.27964826987E+03  0.91964477243E+02 0.  0.
          5    1    1    2  502    0  0.35537053822E+02  0.87649643840E+02 -0.13104876698E+03  0.16168244056E+03  0.47000000000E+01 0. -1.
         -5    1    1    2    0  502 -0.97729939450E+01  0.14468428672E+02  0.26694817481E+02  0.32242055134E+02  0.47000000000E+01 0. -1.
        -11    1    3    3    0    0 -0.55235793787E+02 -0.60352535825E+02 -0.18865826001E+03  0.20563404525E+03  0.00000000000E+00 0. -1.
         11    1    3    3    0    0  0.29471733911E+02 -0.41765536687E+02 -0.53527210760E+02  0.74014224621E+02  0.00000000000E+00 0.  1.
<mgrwt>
<rscale>  0 0.15719427E+03</rscale>
<asrwt>0</asrwt>
<pdfrwt beam="2">  1        3 0.63085552E-01 0.16345324E+03</pdfrwt>
<pdfrwt beam="1">  1       -3 0.97717959E-02 0.16345324E+03</pdfrwt>
<totfact> 0.45297959E+02</totfact>
</mgrwt>
</event>
<event>
 7    1  0.1111284E-005  0.1339485E+03  0.7546771E-02  0.1234957E+00
          2   -1    0    0  501    0  0.00000000000E+00  0.00000000000E+00  0.18423511731E+02  0.18423511731E+02  0.00000000000E+00 0. -1.
         -2   -1    0    0    0  501 -0.00000000000E+00 -0.00000000000E+00 -0.75446114014E+03  0.75446114014E+03  0.00000000000E+00 0.  1.
         23    2    1    2    0    0  0.19852398218E+02  0.43856484651E+02 -0.31189083565E+03  0.32808951278E+03  0.89718036525E+02 0.  0.
          5    1    1    2  502    0  0.52501694888E+02 -0.18153492962E+02 -0.14868289572E+03  0.15879128047E+03  0.47000000000E+01 0. -1.
         -5    1    1    2    0  502 -0.72354093106E+02 -0.25702991689E+02 -0.27546389704E+03  0.28600385862E+03  0.47000000000E+01 0. -1.
        -11    1    3    3    0    0  0.46918897443E+02  0.32083481053E+02 -0.27515784220E+03  0.28096720595E+03  0.00000000000E+00 0.  1.
         11    1    3    3    0    0 -0.27066499225E+02  0.11773003598E+02 -0.36732993443E+02  0.47122306833E+02  0.00000000000E+00 0. -1.
<mgrwt>
<rscale>  0 0.12507177E+03</rscale>
<asrwt>0</asrwt>
<pdfrwt beam="1">  1        2 0.28343863E-02 0.13394855E+03</pdfrwt>
<pdfrwt beam="2">  1       -2 0.11607095E+00 0.13394855E+03</pdfrwt>
<totfact> 0.19523328E+03</totfact>
</mgrwt>
</event>
<event>
 7    1  0.1111284E-005  0.1613291E+03  0.7546771E-02  0.1194690E+00
          2   -1    0    0  501    0  0.00000000000E+00  0.00000000000E+00  0.49688884919E+03  0.49688884919E+03  0.00000000000E+00 0. -1.
         -2   -1    0    0    0  501 -0.00000000000E+00 -0.00000000000E+00 -0.48698818056E+02  0.48698818056E+02  0.00000000000E+00 0.  1.
         23    2    1    2    0    0  0.86546913490E+02  0.53949375611E+02  0.28497066344E+03  0.31609336343E+03  0.91136337541E+02 0.  0.
          5    1    1    2  502    0 -0.44298304848E+02  0.38621244091E+02  0.68734317552E+02  0.90556262715E+02  0.47000000000E+01 0.  1.
         -5    1    1    2    0  502 -0.42248608642E+02 -0.92570619702E+02  0.94485050141E+02  0.13893804110E+03  0.47000000000E+01 0.  1.
        -11    1    3    3    0    0  0.10647171480E+02 -0.30549922901E+00 -0.47929945803E+01  0.11680256305E+02  0.00000000000E+00 0.  1.
         11    1    3    3    0    0  0.75899742011E+02  0.54254874840E+02  0.28976365802E+03  0.30441310713E+03  0.00000000000E+00 0. -1.
<mgrwt>
<rscale>  0 0.15480474E+03</rscale>
<asrwt>0</asrwt>
<pdfrwt beam="1">  1        2 0.76444435E-01 0.16132908E+03</pdfrwt>
<pdfrwt beam="2">  1       -2 0.74921262E-02 0.16132908E+03</pdfrwt>
<totfact> 0.63687600E+03</totfact>
</mgrwt>
</event>
<event>
 7    1  0.1111284E-005  0.1409130E+03  0.7546771E-02  0.1222641E+00
         -2   -1    0    0    0  501 -0.00000000000E+00  0.00000000000E+00  0.63444351950E+02  0.63444351950E+02  0.00000000000E+00 0.  1.
          2   -1    0    0  501    0  0.00000000000E+00 -0.00000000000E+00 -0.29208403427E+03  0.29208403427E+03  0.00000000000E+00 0. -1.
         23    2    1    2    0    0  0.59049264790E+02 -0.27282061836E+02 -0.16740905178E+03  0.20188700943E+03  0.92203293815E+02 0.  0.
          5    1    1    2  502    0 -0.27899692934E+02 -0.42242368799E+02  0.69262748078E+01  0.51311537399E+02  0.47000000000E+01 0.  1.
         -5    1    1    2    0  502 -0.31149571856E+02  0.69524430635E+02 -0.68156905345E+02  0.10232983938E+03  0.47000000000E+01 0.  1.
        -11    1    3    3    0    0 -0.21881325326E+02  0.94195890924E+01 -0.31238472281E+02  0.39285661597E+02  0.00000000000E+00 0.  1.
         11    1    3    3    0    0  0.80930590116E+02 -0.36701650928E+02 -0.13617057950E+03  0.16260134784E+03  0.00000000000E+00 0. -1.
<mgrwt>
<rscale>  0 0.13329931E+03</rscale>
<asrwt>0</asrwt>
<pdfrwt beam="2">  1        2 0.44936005E-01 0.14091303E+03</pdfrwt>
<pdfrwt beam="1">  1       -2 0.97606697E-02 0.14091303E+03</pdfrwt>
<totfact> 0.74057038E+03</totfact>
</mgrwt>
</event>
<event>
 7    1  0.1111284E-005  0.1556183E+03  0.7546771E-02  0.1203702E+00
          3   -1    0    0  501    0  0.00000000000E+00  0.00000000000E+00  0.33573436211E+02  0.33573436211E+02  0.00000000000E+00 0. -1.
         -3   -1    0    0    0  501 -0.00000000000E+00 -0.00000000000E+00 -0.61444433961E+03  0.61444433961E+03  0.00000000000E+00 0.  1.
         23    2    1    2    0    0 -0.19580589930E+02  0.90600089413E+02 -0.19294611348E+03  0.23004327135E+03  0.84261072184E+02 0.  0.
          5    1    1    2  502    0  0.32026399699E+02 -0.11679738794E+03 -0.34728130196E+03  0.36782293675E+03  0.47000000000E+01 0.  1.
         -5    1    1    2    0  502 -0.12445809769E+02  0.26197298528E+02 -0.40643487968E+02  0.50151567725E+02  0.47000000000E+01 0.  1.
        -11    1    3    3    0    0 -0.47753976424E+02  0.50715739238E+02 -0.14844193136E+03  0.16397419143E+03  0.00000000000E+00 0.  1.
         11    1    3    3    0    0  0.28173386494E+02  0.39884350175E+02 -0.44504182116E+02  0.66069079918E+02  0.00000000000E+00 0. -1.
<mgrwt>
<rscale>  0 0.14740227E+03</rscale>
<asrwt>0</asrwt>
<pdfrwt beam="1">  1        3 0.51651446E-02 0.15561826E+03</pdfrwt>
<pdfrwt beam="2">  1       -3 0.94529888E-01 0.15561826E+03</pdfrwt>
<totfact> 0.52647760E+02</totfact>
</mgrwt>
</event>
<event>
 7    1  0.1111284E-005  0.1463734E+03  0.7546771E-02  0.1214094E+00
          2   -1    0    0  501    0  0.00000000000E+00  0.00000000000E+00  0.35518810789E+02  0.35518810789E+02  0.00000000000E+00 0. -1.
         -2   -1    0    0    0  501 -0.00000000000E+00 -0.00000000000E+00 -0.51886580632E+03  0.51886580632E+03  0.00000000000E+00 0.  1.
         23    2    1    2    0    0  0.61293251375E+02 -0.45276966456E+02 -0.16840606395E+03  0.20709083587E+03  0.93376365162E+02 0.  0.
          5    1    1    2  502    0  0.20037302902E+02  0.59907895255E+02 -0.14684741852E+03  0.15992718264E+03  0.47000000000E+01 0. -1.
         -5    1    1    2    0  502 -0.81330554277E+02 -0.14630928798E+02 -0.16809351307E+03  0.18736659860E+03  0.47000000000E+01 0. -1.
        -11    1    3    3    0    0  0.53925139792E+02  0.63451227912E+01 -0.13409241596E+03  0.14466843921E+03  0.00000000000E+00 0.  1.
         11    1    3    3    0    0  0.73681115833E+01 -0.51622089248E+02 -0.34313647985E+02  0.62422396659E+02  0.00000000000E+00 0. -1.
<mgrwt>
<rscale>  0 0.13943281E+03</rscale>
<asrwt>0</asrwt>
<pdfrwt beam="1">  1        2 0.54644329E-02 0.14637343E+03</pdfrwt>
<pdfrwt beam="2">  1       -2 0.79825502E-01 0.14637343E+03</pdfrwt>
<totfact> 0.19332094E+03</totfact>
</mgrwt>
</event>
<event>
 7    1  0.1111284E-005  0.1357187E+03  0.7546771E-02  0.1232863E+00
         -1   -1    0    0    0  501 -0.00000000000E+00  0.00000000000E+00  0.29861440818E+02  0.29861440818E+02  0.00000000000E+00 0.  1.
          1   -1    0    0  501    0  0.00000000000E+00 -0.00000000000E+00 -0.54466090269E+03  0.54466090269E+03  0.00000000000E+00 0. -1.
         23    2    1    2    0    0 -0.21791383803E+02 -0.48193216819E+02 -0.32852556643E+03  0.34404996754E+03  0.87429296090E+02 0.  0.
          5    1    1    2  502    0 -0.38227321887E+02  0.17754992826E+02 -0.12732797176E+02  0.44280718522E+02  0.47000000000E+01 0.  1.
         -5    1    1    2    0  502  0.60018705690E+02  0.30438223994E+02 -0.17354109826E+03  0.18619165744E+03  0.47000000000E+01 0.  1.
        -11    1    3    3    0    0  0.24457623199E+02 -0.44409058411E+02 -0.11730194956E+03  0.12778922948E+03  0.00000000000E+00 0.  1.
         11    1    3    3    0    0 -0.46249007002E+02 -0.37841584083E+01 -0.21122361687E+03  0.21626073806E+03  0.00000000000E+00 0. -1.
<mgrwt>
<rscale>  0 0.12642243E+03</rscale>
<asrwt>0</asrwt>
<pdfrwt beam="2">  1        1 0.83793982E-01 0.13571865E+03</pdfrwt>
<pdfrwt beam="1">  1       -1 0.45940680E-02 0.13571865E+03</pdfrwt>
<totfact> 0.77004315E+03</totfact>
</mgrwt>
</event>
<event>
 7    1  0.1111284E-005  0.1266399E+03  0.7546771E-02  0.1246105E+00
          2   -1    0    0  501    0  0.00000000000E+00  0.00000000000E+00  0.20435791696E+03  0.20435791696E+03  0.00000000000E+00 0.  1.
         -2   -1    0    0    0  501 -0.00000000000E+00 -0.00000000000E+00 -0.62341391707E+02  0.62341391707E+02  0.00000000000E+00 0. -1.
         23    2    1    2    0    0 -0.18180124061E+02 -0.91225889936E+01  0.83036207206E+02  0.12699839692E+03  0.93914016916E+02 0.  0.
          5    1    1    2  502    0  0.43455461562E+02  0.52550653460E+02  0.57321636599E+02  0.89206548756E+02  0.47000000000E+01 0. -1.
         -5    1    1    2    0  502 -0.25275337501E+02 -0.43428064467E+02  0.16586814476E+01  0.50494362985E+02  0.47000000000E+01 0. -1.
        -11    1    3    3    0    0  0.26152152384E+02  0.16525305138E+02  0.18297931373E+01  0.30989819734E+02  0.00000000000E+00 0. -1.
         11    1    3    3    0    0 -0.44332276445E+02 -0.25647894132E+02  0.81206414068E+02  0.96008577190E+02  0.00000000000E+00 0.  1.
<mgrwt>
<rscale>  0 0.11819503E+03</rscale>
<asrwt>0</asrwt>
<pdfrwt beam="1">  1        2 0.31439679E-01 0.12663991E+03</pdfrwt>
<pdfrwt beam="2">  1       -2 0.95909834E-02 0.12663991E+03</pdfrwt>
<totfact> 0.11054473E+04</totfact>
</mgrwt>
</event>
<event>
 7    1  0.1111284E-005  0.2149876E+03  0.7546771E-02  0.1137676E+00
         -1   -1    0    0    0  501 -0.00000000000E+00  0.00000000000E+00  0.27467594590E+02  0.27467594590E+02  0.00000000000E+00 0.  1.
          1   -1    0    0  501    0  0.00000000000E+00 -0.00000000000E+00 -0.42067458974E+03  0.42067458974E+03  0.00000000000E+00 0. -1.
         23    2    1    2    0    0 -0.93724229009E+01  0.11731122200E+02 -0.19009595351E+03  0.20917717578E+03  0.85983473931E+02 0.  0.
          5    1    1    2  502    0 -0.10363767028E+01 -0.62295552275E+02 -0.59479879709E+02  0.86265613080E+02  0.47000000000E+01 0.  1.
         -5    1    1    2    0  502  0.10408799604E+02  0.50564430075E+02 -0.14363116193E+03  0.15269939547E+03  0.47000000000E+01 0.  1.
        -11    1    3    3    0    0 -0.37425479948E+02  0.34429897201E+02 -0.10190906740E+03  0.11389267926E+03  0.00000000000E+00 0.  1.
         11    1    3    3    0    0  0.28053057047E+02 -0.22698775001E+02 -0.88186886104E+02  0.95284496520E+02  0.00000000000E+00 0. -1.
<mgrwt>
<rscale>  0 0.21498762E+03</rscale>
<asrwt>0</asrwt>
<pdfrwt beam="2">  1        1 0.64719160E-01 0.21498762E+03</pdfrwt>
<pdfrwt beam="1">  1       -1 0.42257843E-02 0.21498762E+03</pdfrwt>
<totfact> 0.12576053E+04</totfact>
</mgrwt>
</event>
<event>
 7    1  0.1111284E-005  0.2232964E+03  0.7546771E-02  0.1144057E+00
          1   -1    0    0  501    0  0.00000000000E+00  0.00000000000E+00  0.90101948948E+03  0.90101948948E+03  0.00000000000E+00 0. -1.
         -1   -1    0    0    0  501 -0.00000000000E+00 -0.00000000000E+00 -0.98768302799E+02  0.98768302799E+02  0.00000000000E+00 0.  1.
         23    2    1    2    0    0  0.12097344533E+03 -0.64221245022E+02  0.75346840914E+03  0.77122476721E+03  0.91181441020E+02 0.  0.
          5    1    1    2  502    0  0.41650063309E+02 -0.85722524978E+01  0.22697741872E+02  0.48430246464E+02  0.47000000000E+01 0. -1.
         -5    1    1    2    0  502 -0.16262350864E+03  0.72793497519E+02  0.26085035664E+02  0.18013277861E+03  0.47000000000E+01 0.  1.
        -11    1    3    3    0    0 -0.71549373996E+01 -0.21468608235E+02  0.49671221875E+02  0.54583189274E+02  0.00000000000E+00 0.  1.
         11    1    3    3    0    0  0.12812838273E+03 -0.42752636787E+02  0.70379718727E+03  0.71664157793E+03  0.00000000000E+00 0. -1.
<mgrwt>
<rscale>  0 0.20688470E+03</rscale>
<asrwt>0</asrwt>
<pdfrwt beam="1">  1        1 0.13861838E+00 0.22329643E+03</pdfrwt>
<pdfrwt beam="2">  1       -1 0.15195124E-01 0.22329643E+03</pdfrwt>
<totfact> 0.60460699E+02</totfact>
</mgrwt>
</event>
<event>
 7    1  0.1111284E-005  0.2394864E+03  0.7546771E-02  0.1121113E+00
         -2   -1    0    0    0  501 -0.00000000000E+00  0.00000000000E+00  0.62826886632E+02  0.62826886632E+02  0.00000000000E+00 0.  1.
          2   -1    0    0  501    0  0.00000000000E+00 -0.00000000000E+00 -0.10436346746E+04  0.10436346746E+04  0.00000000000E+00 0. -1.
         23    2    1    2    0    0 -0.19931821159E+03 -0.44736982375E+02 -0.69684927792E+03  0.73499664979E+03  0.11354299625E+03 0.  0.
          5    1    1    2  502    0  0.14587320208E+03 -0.21524233719E+02 -0.21998887909E+03  0.26487634973E+03  0.47000000000E+01 0. -1.
         -5    1    1    2    0  502  0.53445009513E+02  0.66261216095E+02 -0.63969630922E+02  0.10658856168E+03  0.47000000000E+01 0. -1.
        -11    1    3    3    0    0 -0.19881288657E+03 -0.11619190017E+02 -0.62307171684E+03  0.65412531962E+03  0.00000000000E+00 0. -1.
         11    1    3    3    0    0 -0.50532502213E+00 -0.33117792359E+02 -0.73777561081E+02  0.80871330168E+02  0.00000000000E+00 0.  1.
<mgrwt>
<rscale>  0 0.23802950E+03</rscale>
<asrwt>0</asrwt>
<pdfrwt beam="2">  1        2 0.16055918E+00 0.23948642E+03</pdfrwt>
<pdfrwt beam="1">  1       -2 0.96656747E-02 0.23948642E+03</pdfrwt>
<totfact> 0.17293412E+03</totfact>
</mgrwt>
</event>
<event>
 7    1  0.1111284E-005  0.1713542E+03  0.7546771E-02  0.1182361E+00
          2   -1    0    0  501    0  0.00000000000E+00  0.00000000000E+00  0.93405537873E+02  0.93405537873E+02  0.00000000000E+00 0. -1.
         -2   -1    0    0    0  501 -0.00000000000E+00 -0.00000000000E+00 -0.33996392215E+03  0.33996392215E+03  0.00000000000E+00 0.  1.
         23    2    1    2    0    0 -0.24932799451E+02 -0.11451932626E+03 -0.23074864039E+02  0.15175420312E+03  0.93597907238E+02 0.  0.
          5    1    1    2  502    0 -0.26858763748E+02  0.27192480744E+02 -0.27513728050E+01  0.38606790224E+02  0.47000000000E+01 0.  1.
         -5    1    1    2    0  502  0.51791563199E+02  0.87326845516E+02 -0.22073214743E+03  0.24300846668E+03  0.47000000000E+01 0.  1.
        -11    1    3    3    0    0 -0.40951254846E+02 -0.11460648159E+03 -0.40328498726E+02  0.12821091492E+03  0.00000000000E+00 0.  1.
         11    1    3    3    0    0  0.16018455395E+02  0.87155329712E-01  0.17253634688E+02  0.23543288199E+02  0.00000000000E+00 0. -1.
<mgrwt>
<rscale>  0 0.16574346E+03</rscale>
<asrwt>0</asrwt>
<pdfrwt beam="1">  1        2 0.14370083E-01 0.17135422E+03</pdfrwt>
<pdfrwt beam="2">  1       -2 0.52302141E-01 0.17135422E+03</pdfrwt>
<totfact> 0.14152425E+03</totfact>
</mgrwt>
</event>
<event>
 7    1  0.1111284E-005  0.1288951E+03  0.7546771E-02  0.1243342E+00
         -3   -1    0    0    0  501 -0.00000000000E+00  0.00000000000E+00  0.15743620931E+03  0.15743620931E+03  0.00000000000E+00 0.  1.
          3   -1    0    0  501    0  0.00000000000E+00 -0.00000000000E+00 -0.87043153614E+02  0.87043153614E+02  0.00000000000E+00 0. -1.
         23    2    1    2    0    0 -0.23163139324E+02  0.21362692536E+02 -0.25277762517E+01  0.96386872464E+02  0.91055718518E+02 0.  0.
          5    1    1    2  502    0  0.52351751611E+02 -0.92833241025E+01 -0.14258451560E+02  0.55247438348E+02  0.47000000000E+01 0. -1.
         -5    1    1    2    0  502 -0.29188612287E+02 -0.12079368434E+02  0.87179283508E+02  0.92845052114E+02  0.47000000000E+01 0. -1.
        -11    1    3    3    0    0  0.29495145060E+02  0.26314364717E+02 -0.14597428490E+02  0.42136614614E+02  0.00000000000E+00 0. -1.
         11    1    3    3    0    0 -0.52658284384E+02 -0.49516721808E+01  0.12069652238E+02  0.54250257850E+02  0.00000000000E+00 0.  1.
<mgrwt>
<rscale>  0 0.11985174E+03</rscale>
<asrwt>0</asrwt>
<pdfrwt beam="2">  1        3 0.13391254E-01 0.12889507E+03</pdfrwt>
<pdfrwt beam="1">  1       -3 0.24220955E-01 0.12889507E+03</pdfrwt>
<totfact> 0.16333648E+03</totfact>
</mgrwt>
</event>
<event>
 7    1  0.1111284E-005  0.1685737E+03  0.7546771E-02  0.1186360E+00
         -2   -1    0    0    0  501 -0.00000000000E+00  0.00000000000E+00  0.68400572439E+02  0.68400572439E+02  0.00000000000E+00 0.  1.
          2   -1    0    0  501    0  0.00000000000E+00 -0.00000000000E+00 -0.38597539488E+03  0.38597539488E+03  0.00000000000E+00 0. -1.
         23    2    1    2    0    0  0.95568283437E+01 -0.11270315237E+03 -0.20902781215E+03  0.25387774670E+03  0.89263377145E+02 0.  0.
          5    1    1    2  502    0 -0.22375696249E+02  0.91488334098E+02 -0.55596674198E+01  0.94465797834E+02  0.47000000000E+01 0.  1.
         -5    1    1    2    0  502  0.12818867905E+02  0.21214818269E+02 -0.10298734288E+03  0.10603242279E+03  0.47000000000E+01 0.  1.
        -11    1    3    3    0    0 -0.39775064157E+02 -0.59021550720E+02 -0.10461864525E+03  0.12653323719E+03  0.00000000000E+00 0.  1.
         11    1    3    3    0    0  0.49331892501E+02 -0.53681601647E+02 -0.10440916689E+03  0.12734450952E+03  0.00000000000E+00 0. -1.
<mgrwt>
<rscale>  0 0.16208734E+03</rscale>
<asrwt>0</asrwt>
<pdfrwt beam="2">  1        2 0.59380830E-01 0.16857367E+03</pdfrwt>
<pdfrwt beam="1">  1       -2 0.10523165E-01 0.16857367E+03</pdfrwt>
<totfact> 0.49372982E+03</totfact>
</mgrwt>
</event>
<event>
 7    1  0.1111284E-005  0.1376753E+03  0.7546771E-02  0.1230807E+00
         -1   -1    0    0    0  501 -0.00000000000E+00  0.00000000000E+00  0.86059294753E+03  0.86059294753E+03  0.00000000000E+00 0.  1.
          1   -1    0    0  501    0  0.00000000000E+00 -0.00000000000E+00 -0.16737377624E+02  0.16737377624E+02  0.00000000000E+00 0. -1.
         23    2    1    2    0    0  0.45303457501E+02  0.35689812281E+02  0.34010814416E+03  0.35510818618E+03  0.84274006723E+02 0.  0.
          5    1    1    2  502    0  0.18548067615E+02 -0.64176017992E+02  0.22122878128E+03  0.23114250099E+03  0.47000000000E+01 0.  1.
         -5    1    1    2    0  502 -0.63851525116E+02  0.28486205710E+02  0.28251864447E+03  0.29107963798E+03  0.47000000000E+01 0.  1.
        -11    1    3    3    0    0  0.70454496809E+02  0.26457081452E+02  0.25643112736E+03  0.26724658343E+03  0.00000000000E+00 0.  1.
         11    1    3    3    0    0 -0.25151039308E+02  0.92327308298E+01  0.83677016799E+02  0.87861602747E+02  0.00000000000E+00 0. -1.
<mgrwt>
<rscale>  0 0.12776698E+03</rscale>
<asrwt>0</asrwt>
<pdfrwt beam="2">  1        1 0.25749818E-02 0.13767532E+03</pdfrwt>
<pdfrwt beam="1">  1       -1 0.13239888E+00 0.13767532E+03</pdfrwt>
<totfact> 0.21334222E+03</totfact>
</mgrwt>
</event>
<event>
 7    1  0.1111284E-005  0.1264698E+03  0.7546771E-02  0.1247867E+00
          1   -1    0    0  501    0  0.00000000000E+00  0.00000000000E+00  0.40604321625E+02  0.40604321625E+02  0.00000000000E+00 0. -1.
         -1   -1    0    0    0  501 -0.00000000000E+00 -0.00000000000E+00 -0.30603643303E+03  0.30603643303E+03  0.00000000000E+00 0.  1.
         23    2    1    2    0    0  0.76499704230E+01 -0.17661209241E+02 -0.83560688407E+02  0.12511914721E+03  0.91115157867E+02 0.  0.
          5    1    1    2  502    0  0.13459135650E+02  0.60635205558E+02 -0.46139195214E+02  0.77515752080E+02  0.47000000000E+01 0.  1.
         -5    1    1    2    0  502 -0.21109106073E+02 -0.42973996317E+02 -0.13573222779E+03  0.14400585536E+03  0.47000000000E+01 0.  1.
        -11    1    3    3    0    0  0.26844512605E+02 -0.64857138239E+01 -0.95840207244E+02  0.99739849937E+02  0.00000000000E+00 0.  1.
         11    1    3    3    0    0 -0.19194542182E+02 -0.11175495417E+02  0.12279518837E+02  0.25379297277E+02  0.00000000000E+00 0. -1.
<mgrwt>
<rscale>  0 0.11715413E+03</rscale>
<asrwt>0</asrwt>
<pdfrwt beam="1">  1        1 0.62468185E-02 0.12646979E+03</pdfrwt>
<pdfrwt beam="2">  1       -1 0.47082530E-01 0.12646979E+03</pdfrwt>
<totfact> 0.53199551E+03</totfact>
</mgrwt>
</event>
<event>
 7    1  0.1111284E-005  0.1368610E+03  0.7546771E-02  0.1228784E+00
         -2   -1    0    0    0  501 -0.00000000000E+00  0.00000000000E+00  0.31647433871E+03  0.31647433871E+03  0.00000000000E+00 0.  1.
          2   -1    0    0  501    0  0.00000000000E+00 -0.00000000000E+00 -0.50702563230E+02  0.50702563230E+02  0.00000000000E+00 0. -1.
         23    2    1    2    0    0  0.51113670910E+02  0.22231386502E+02  0.72681470489E+02  0.13050242715E+03  0.92959375219E+02 0.  0.
          5    1    1    2  502    0 -0.32433591101E+02 -0.66915385706E+02  0.62292034259E+02  0.97118454518E+02  0.47000000000E+01 0.  1.
         -5    1    1    2    0  502 -0.18680079808E+02  0.44683999204E+02  0.13079827074E+03  0.13955602027E+03  0.47000000000E+01 0.  1.
        -11    1    3    3    0    0  0.76189313948E+01  0.23378556872E+02  0.82340364775E+02  0.85933350384E+02  0.00000000000E+00 0.  1.
         11    1    3    3    0    0  0.43494739515E+02 -0.11471703694E+01 -0.96588942857E+01  0.44569076770E+02  0.00000000000E+00 0. -1.
<mgrwt>
<rscale>  0 0.12910905E+03</rscale>
<asrwt>0</asrwt>
<pdfrwt beam="2">  1        2 0.78003945E-02 0.13686103E+03</pdfrwt>
<pdfrwt beam="1">  1       -2 0.48688359E-01 0.13686103E+03</pdfrwt>
<totfact> 0.34049780E+03</totfact>
</mgrwt>
</event>
<event>
 7    1  0.1111284E-005  0.1784248E+03  0.7546771E-02  0.1174944E+00
         -2   -1    0    0    0  501 -0.00000000000E+00  0.00000000000E+00  0.10020127817E+03  0.10020127817E+03  0.00000000000E+00 0.  1.
          2   -1    0    0  501    0  0.00000000000E+00 -0.00000000000E+00 -0.33442398674E+03  0.33442398674E+03  0.00000000000E+00 0. -1.
         23    2    1    2    0    0  0.11570551433E+03  0.53122751489E+02 -0.19775276259E+03  0.25251140110E+03  0.91902447191E+02 0.  0.
          5    1    1    2  502    0  0.38675951409E+01  0.14986975500E+02 -0.41283014429E+02  0.44338978418E+02  0.47000000000E+01 0. -1.
         -5    1    1    2    0  502 -0.11957310948E+03 -0.68109726989E+02  0.48130684441E+01  0.13777488540E+03  0.47000000000E+01 0. -1.
        -11    1    3    3    0    0  0.45225889808E+02  0.64167576214E+02 -0.65483318344E+02  0.10222976048E+03  0.00000000000E+00 0.  1.
         11    1    3    3    0    0  0.70479624527E+02 -0.11044824725E+02 -0.13226944424E+03  0.15028164062E+03  0.00000000000E+00 0. -1.
<mgrwt>
<rscale>  0 0.17281498E+03</rscale>
<asrwt>0</asrwt>
<pdfrwt beam="2">  1        2 0.51449844E-01 0.17842478E+03</pdfrwt>
<pdfrwt beam="1">  1       -2 0.15415581E-01 0.17842478E+03</pdfrwt>
<totfact> 0.31144133E+03</totfact>
</mgrwt>
</event>
<event>
 7    1  0.1111284E-005  0.1390800E+03  0.7546771E-02  0.1225794E+00
          1   -1    0    0  501    0  0.00000000000E+00  0.00000000000E+00  0.70830755668E+02  0.70830755668E+02  0.00000000000E+00 0. -1.
         -1   -1    0    0    0  501 -0.00000000000E+00 -0.00000000000E+00 -0.21904432073E+03  0.21904432073E+03  0.00000000000E+00 0.  1.
         23    2    1    2    0    0 -0.28919720497E+02  0.53675933560E+02 -0.60485358262E+02  0.12543820999E+03  0.91426527249E+02 0.  0.
          5    1    1    2  502    0  0.60544034607E+02 -0.77097419946E+02 -0.51945280925E+02  0.11104050837E+03  0.47000000000E+01 0.  1.
         -5    1    1    2    0  502 -0.31624314110E+02  0.23421486385E+02 -0.35782925878E+02  0.53396358039E+02  0.47000000000E+01 0.  1.
        -11    1    3    3    0    0  0.14778859591E+02  0.52532818181E+02 -0.60832446869E+02  0.81723303096E+02  0.00000000000E+00 0.  1.
         11    1    3    3    0    0 -0.43698580088E+02  0.11431153796E+01  0.34708860646E+00  0.43714906897E+02  0.00000000000E+00 0. -1.
<mgrwt>
<rscale>  0 0.13112638E+03</rscale>
<asrwt>0</asrwt>
<pdfrwt beam="1">  1        1 0.10897040E-01 0.13907999E+03</pdfrwt>
<pdfrwt beam="2">  1       -1 0.33699126E-01 0.13907999E+03</pdfrwt>
<totfact> 0.45694144E+03</totfact>
</mgrwt>
</event>
<event>
 7    1  0.1111284E-005  0.2210182E+03  0.7546771E-02  0.1133126E+00
          1   -1    0    0  501    0  0.00000000000E+00  0.00000000000E+00  0.93230507749E+02  0.93230507749E+02  0.00000000000E+00 0. -1.
         -1   -1    0    0    0  501 -0.00000000000E+00 -0.00000000000E+00 -0.13098999491E+03  0.13098999491E+03  0.00000000000E+00 0.  1.
         23    2    1    2    0    0  0.72821147748E+01  0.22630988448E+02 -0.10619740428E+02  0.94137093720E+02  0.90464483050E+02 0.  0.
          5    1    1    2  502    0 -0.51759042490E+02 -0.46919340636E+02 -0.35506406016E+02  0.78506164556E+02  0.47000000000E+01 0.  1.
         -5    1    1    2    0  502  0.44476927715E+02  0.24288352188E+02  0.83666592800E+01  0.51577244386E+02  0.47000000000E+01 0.  1.
        -11    1    3    3    0    0 -0.66664420484E+01  0.84271944858E+01 -0.49394904830E+02  0.50550130362E+02  0.00000000000E+00 0.  1.
         11    1    3    3    0    0  0.13948556823E+02  0.14203793962E+02  0.38775164401E+02  0.43586963358E+02  0.00000000000E+00 0. -1.
<mgrwt>
<rscale>  0 0.22101822E+03</rscale>
<asrwt>0</asrwt>
<pdfrwt beam="1">  1        1 0.14343155E-01 0.22101822E+03</pdfrwt>
<pdfrwt beam="2">  1       -1 0.20152307E-01 0.22101822E+03</pdfrwt>
<totfact> 0.77009804E+03</totfact>
</mgrwt>
</event>
<event>
 7    1  0.1111284E-005  0.1489634E+03  0.7546771E-02  0.1211957E+00
         -2   -1    0    0    0  501 -0.00000000000E+00  0.00000000000E+00  0.23947089914E+02  0.23947089914E+02  0.00000000000E+00 0.  1.
          2   -1    0    0  501    0  0.00000000000E+00 -0.00000000000E+00 -0.78332426884E+03  0.78332426884E+03  0.00000000000E+00 0. -1.
         23    2    1    2    0    0 -0.80667220045E+02 -0.76312147892E+01 -0.41843298204E+03  0.43520543159E+03  0.88046416154E+02 0.  0.
          5    1    1    2  502    0  0.95770855760E+02  0.44761560463E+02 -0.21182257170E+03  0.23678375365E+03  0.47000000000E+01 0.  1.
         -5    1    1    2    0  502 -0.15103635715E+02 -0.37130345674E+02 -0.12912162518E+03  0.13528217351E+03  0.47000000000E+01 0.  1.
        -11    1    3    3    0    0 -0.18918419439E+02  0.34399748319E+02 -0.86815994983E+02  0.95279936311E+02  0.00000000000E+00 0.  1.
         11    1    3    3    0    0 -0.61748800606E+02 -0.42030963108E+02 -0.33161698706E+03  0.33992549528E+03  0.00000000000E+00 0. -1.
<mgrwt>
<rscale>  0 0.14102418E+03</rscale>
<asrwt>0</asrwt>
<pdfrwt beam="2">  1        2 0.12051141E+00 0.14896345E+03</pdfrwt>
<pdfrwt beam="1">  1       -2 0.36841681E-02 0.14896345E+03</pdfrwt>
<totfact> 0.10929407E+04</totfact>
</mgrwt>
</event>
<event>
 7    1  0.1111284E-005  0.1327822E+03  0.7546771E-02  0.1236658E+00
         -1   -1    0    0    0  501 -0.00000000000E+00  0.00000000000E+00  0.79725621749E+02  0.79725621749E+02  0.00000000000E+00 0.  1.
          1   -1    0    0  501    0  0.00000000000E+00 -0.00000000000E+00 -0.17449697806E+03  0.17449697806E+03  0.00000000000E+00 0. -1.
         23    2    1    2    0    0  0.44474656234E+02  0.68202063882E+01 -0.58074174419E+02  0.11646267427E+03  0.90368326877E+02 0.  0.
          5    1    1    2  502    0 -0.85018589134E+02 -0.13266805166E+02 -0.61914219416E+01  0.86397872215E+02  0.47000000000E+01 0. -1.
         -5    1    1    2    0  502  0.40543932901E+02  0.64465987776E+01 -0.30505759946E+02  0.51362053315E+02  0.47000000000E+01 0. -1.
        -11    1    3    3    0    0  0.33087199772E+02  0.83950978943E+01 -0.82600385818E+02  0.89375971014E+02  0.00000000000E+00 0. -1.
         11    1    3    3    0    0  0.11387456462E+02 -0.15748915061E+01  0.24526211399E+02  0.27086703261E+02  0.00000000000E+00 0.  1.
<mgrwt>
<rscale>  0 0.12398859E+03</rscale>
<asrwt>0</asrwt>
<pdfrwt beam="2">  1        1 0.26845689E-01 0.13278220E+03</pdfrwt>
<pdfrwt beam="1">  1       -1 0.12265480E-01 0.13278220E+03</pdfrwt>
<totfact> 0.73136506E+03</totfact>
</mgrwt>
</event>
<event>
 7    1  0.1111284E-005  0.5066980E+03  0.7546771E-02  0.1055034E+00
          1   -1    0    0  501    0  0.00000000000E+00  0.00000000000E+00  0.37319050868E+03  0.37319050868E+03  0.00000000000E+00 0. -1.
         -1   -1    0    0    0  501 -0.00000000000E+00 -0.00000000000E+00 -0.30475010181E+03  0.30475010181E+03  0.00000000000E+00 0.  1.
         23    2    1    2    0    0  0.10247359650E+03  0.36081758875E+02  0.93558964762E+02  0.17062042784E+03  0.92494968537E+02 0.  0.
          5    1    1    2  502    0  0.37537899316E+02 -0.22799153553E+03  0.83945642688E+02  0.24588248226E+03  0.47000000000E+01 0. -1.
         -5    1    1    2    0  502 -0.14001149582E+03  0.19190977665E+03 -0.10906420058E+03  0.26143770039E+03  0.47000000000E+01 0.  1.
        -11    1    3    3    0    0  0.11921497345E+03  0.37776056026E+02  0.76194888781E+02  0.14644077772E+03  0.00000000000E+00 0. -1.
         11    1    3    3    0    0 -0.16741376949E+02 -0.16942971513E+01  0.17364075981E+02  0.24179650114E+02  0.00000000000E+00 0.  1.
<mgrwt>
<rscale>  0 0.36910837E+03</rscale>
<asrwt>0</asrwt>
<pdfrwt beam="1">  1        1 0.57413925E-01 0.50669796E+03</pdfrwt>
<pdfrwt beam="2">  1       -1 0.46884631E-01 0.50669796E+03</pdfrwt>
<totfact> 0.30457811E+02</totfact>
</mgrwt>
</event>
<event>
 6    1  0.1111284E-005  0.1307697E+03  0.7546771E-02  0.1283198E+00
          3   -1    0    0  501    0  0.00000000000E+00  0.00000000000E+00  0.29283925851E+02  0.29283925851E+02  0.00000000000E+00 0. -1.
         -3   -1    0    0    0  501 -0.00000000000E+00 -0.00000000000E+00 -0.26985625099E+03  0.26985625099E+03  0.00000000000E+00 0.  1.
          5    1    1    2  502    0 -0.38284631245E+02  0.51068437923E+02 -0.64329469810E+02  0.90741771128E+02  0.47000000000E+01 0. -1.
         -5    1    1    2    0  502  0.55542181069E+02 -0.16028419784E+02 -0.14385122874E+03  0.15510354647E+03  0.47000000000E+01 0.  1.
        -11    1    1    2    0    0 -0.25442209124E+01 -0.21335740210E+02 -0.21632931053E+02  0.30490499771E+02  0.00000000000E+00 0. -1.
         11    1    1    2    0    0 -0.14713328911E+02 -0.13704277928E+02 -0.10758695540E+02  0.22804359472E+02  0.00000000000E+00 0.  1.
<mgrwt>
<rscale>  0 0.98632739E+02</rscale>
<asrwt>0</asrwt>
<pdfrwt beam="1">  1        3 0.45052192E-02 0.13076971E+03</pdfrwt>
<pdfrwt beam="2">  1       -3 0.41516348E-01 0.13076971E+03</pdfrwt>
<totfact> 0.35236146E+03</totfact>
</mgrwt>
</event>
<event>
 7    1  0.1111284E-005  0.1985774E+03  0.7546771E-02  0.1155338E+00
          1   -1    0    0  501    0  0.00000000000E+00  0.00000000000E+00  0.12132038503E+04  0.12132038503E+04  0.00000000000E+00 0. -1.
         -1   -1    0    0    0  501 -0.00000000000E+00 -0.00000000000E+00 -0.31525260284E+02  0.31525260284E+02  0.00000000000E+00 0.  1.
         23    2    1    2    0    0  0.68513013364E+02  0.13825382366E+03  0.72430711920E+03  0.74610935976E+03  0.90830727408E+02 0.  0.
          5    1    1    2  502    0 -0.67385192100E+02 -0.11996324295E+03  0.45940678161E+03  0.47959214418E+03  0.47000000000E+01 0. -1.
         -5    1    1    2    0  502 -0.11278212640E+01 -0.18290580711E+02 -0.20353108157E+01  0.19027606619E+02  0.47000000000E+01 0. -1.
        -11    1    3    3    0    0  0.39544831289E+02  0.24031664144E+02  0.92747005012E+02  0.10364999518E+03  0.00000000000E+00 0.  1.
         11    1    3    3    0    0  0.28968182075E+02  0.11422215951E+03  0.63156011418E+03  0.64245936457E+03  0.00000000000E+00 0. -1.
<mgrwt>
<rscale>  0 0.19350406E+03</rscale>
<asrwt>0</asrwt>
<pdfrwt beam="1">  1        1 0.18664671E+00 0.19857742E+03</pdfrwt>
<pdfrwt beam="2">  1       -1 0.48500410E-02 0.19857742E+03</pdfrwt>
<totfact> 0.20617318E+03</totfact>
</mgrwt>
</event>
<event>
 7    1  0.1111284E-005  0.1616113E+03  0.7546771E-02  0.1194223E+00
         -1   -1    0    0    0  501 -0.00000000000E+00  0.00000000000E+00  0.35276488197E+03  0.35276488197E+03  0.00000000000E+00 0.  1.
          1   -1    0    0  501    0  0.00000000000E+00 -0.00000000000E+00 -0.63394907384E+02  0.63394907384E+02  0.00000000000E+00 0. -1.
         23    2    1    2    0    0 -0.51730984528E+02  0.88436542846E+02  0.13534516759E+03  0.19290692759E+03  0.91638700614E+02 0.  0.
          5    1    1    2  502    0 -0.11293600975E+02  0.26488646783E+02  0.17931091888E+02  0.34246282830E+02  0.47000000000E+01 0. -1.
         -5    1    1    2    0  502  0.63024585503E+02 -0.11492518963E+03  0.13609371510E+03  0.18900657893E+03  0.47000000000E+01 0. -1.
        -11    1    3    3    0    0  0.13254545973E+02  0.54878453128E+02  0.91846513344E+02  0.10781052648E+03  0.00000000000E+00 0.  1.
         11    1    3    3    0    0 -0.64985530501E+02  0.33558089718E+02  0.43498654248E+02  0.85096401107E+02  0.00000000000E+00 0. -1.
<mgrwt>
<rscale>  0 0.15520168E+03</rscale>
<asrwt>0</asrwt>
<pdfrwt beam="2">  1        1 0.97530629E-02 0.16161126E+03</pdfrwt>
<pdfrwt beam="1">  1       -1 0.54271519E-01 0.16161126E+03</pdfrwt>
<totfact> 0.22847012E+03</totfact>
</mgrwt>
</event>
<event>
 7    1  0.1111284E-005  0.2077528E+03  0.7546771E-02  0.1147169E+00
         -1   -1    0    0    0  501 -0.00000000000E+00  0.00000000000E+00  0.32142846534E+03  0.32142846534E+03  0.00000000000E+00 0.  1.
          1   -1    0    0  501    0  0.00000000000E+00 -0.00000000000E+00 -0.18159576031E+03  0.18159576031E+03  0.00000000000E+00 0. -1.
         23    2    1    2    0    0  0.13569969472E+02 -0.16538743667E+03 -0.75193094629E+02  0.20403034766E+03  0.91854412018E+02 0.  0.
          5    1    1    2  502    0 -0.87382377030E+01  0.18387375593E+03  0.17331893250E+03  0.25287834482E+03  0.47000000000E+01 0. -1.
         -5    1    1    2    0  502 -0.48317317688E+01 -0.18486319256E+02  0.41706867155E+02  0.46115533168E+02  0.47000000000E+01 0. -1.
        -11    1    3    3    0    0  0.44573607895E+02 -0.89108889403E+02 -0.12242407387E+02  0.10038464639E+03  0.00000000000E+00 0.  1.
         11    1    3    3    0    0 -0.31003638423E+02 -0.76278547269E+02 -0.62950687243E+02  0.10364570128E+03  0.00000000000E+00 0. -1.
<mgrwt>
<rscale>  0 0.20307637E+03</rscale>
<asrwt>0</asrwt>
<pdfrwt beam="2">  1        1 0.27937809E-01 0.20775284E+03</pdfrwt>
<pdfrwt beam="1">  1       -1 0.49450533E-01 0.20775284E+03</pdfrwt>
<totfact> 0.69663288E+02</totfact>
</mgrwt>
</event>
<event>
 7    1  0.1332414E-005  0.1649791E+03  0.7546771E-02  0.1189452E+00
          2   -1    0    0  501    0  0.00000000000E+00  0.00000000000E+00  0.43926047111E+03  0.43926047111E+03  0.00000000000E+00 0. -1.
         -2   -1    0    0    0  501 -0.00000000000E+00 -0.00000000000E+00 -0.60872737813E+02  0.60872737813E+02  0.00000000000E+00 0.  1.
         23    2    1    2    0    0 -0.46183318663E+02  0.97265283602E+02  0.26029851853E+03  0.29724616770E+03  0.94902745746E+02 0.  0.
          5    1    1    2  502    0  0.54206824443E+02  0.59171266109E+01  0.15032768171E+02  0.56757962635E+02  0.47000000000E+01 0.  1.
         -5    1    1    2    0  502 -0.80235057799E+01 -0.10318241021E+03  0.10305644660E+03  0.14612907858E+03  0.47000000000E+01 0.  1.
        -11    1    3    3    0    0 -0.17566279034E+02 -0.90367928641E+01  0.10526710195E+03  0.10710462426E+03  0.00000000000E+00 0. -1.
         11    1    3    3    0    0 -0.28617039629E+02  0.10630207647E+03  0.15503141658E+03  0.19014154345E+03  0.00000000000E+00 0.  1.
<mgrwt>
<rscale>  0 0.15933270E+03</rscale>
<asrwt>0</asrwt>
<pdfrwt beam="1">  1        2 0.67578532E-01 0.16497906E+03</pdfrwt>
<pdfrwt beam="2">  1       -2 0.93650369E-02 0.16497906E+03</pdfrwt>
<totfact> 0.51559882E+03</totfact>
</mgrwt>
</event>
<event>
 7    1  0.1111284E-005  0.1325313E+03  0.7546771E-02  0.1236931E+00
         -2   -1    0    0    0  501 -0.00000000000E+00  0.00000000000E+00  0.60070554995E+02  0.60070554995E+02  0.00000000000E+00 0.  1.
          2   -1    0    0  501    0  0.00000000000E+00 -0.00000000000E+00 -0.41587920680E+03  0.41587920680E+03  0.00000000000E+00 0. -1.
         23    2    1    2    0    0 -0.40698902558E+02  0.16787824195E+02 -0.32439987312E+03  0.33974749998E+03  0.90856228996E+02 0.  0.
          5    1    1    2  502    0 -0.14729153312E+01  0.37501914615E+02  0.26509342872E+02  0.46188725235E+02  0.47000000000E+01 0.  1.
         -5    1    1    2    0  502  0.42171817889E+02 -0.54289738810E+02 -0.57918121557E+02  0.90013536587E+02  0.47000000000E+01 0.  1.
        -11    1    3    3    0    0 -0.30557187098E+02  0.50951034059E+02 -0.14249136219E+03  0.15438114474E+03  0.00000000000E+00 0. -1.
         11    1    3    3    0    0 -0.10141715460E+02 -0.34163209863E+02 -0.18190851094E+03  0.18536635523E+03  0.00000000000E+00 0.  1.
<mgrwt>
<rscale>  0 0.12381608E+03</rscale>
<asrwt>0</asrwt>
<pdfrwt beam="2">  1        2 0.63981418E-01 0.13253130E+03</pdfrwt>
<pdfrwt beam="1">  1       -2 0.92416236E-02 0.13253130E+03</pdfrwt>
<totfact> 0.55195157E+03</totfact>
</mgrwt>
</event>
<event>
 6    1  0.1111284E-005  0.1504303E+03  0.7546771E-02  0.1222854E+00
          1   -1    0    0  501    0  0.00000000000E+00  0.00000000000E+00  0.27115608296E+03  0.27115608296E+03  0.00000000000E+00 0. -1.
         -1   -1    0    0    0  501 -0.00000000000E+00 -0.00000000000E+00 -0.91499499969E+02  0.91499499969E+02  0.00000000000E+00 0.  1.
          5    1    1    2  502    0  0.14840377954E+02 -0.47067344729E+00 -0.60644410330E+02  0.62612242059E+02  0.47000000000E+01 0. -1.
         -5    1    1    2    0  502  0.48469073460E+02 -0.54268382344E+02  0.49660027841E+02  0.88218573835E+02  0.47000000000E+01 0. -1.
        -11    1    1    2    0    0 -0.56464366454E+01  0.12131398679E+02  0.71761442890E+02  0.72998340847E+02  0.00000000000E+00 0. -1.
         11    1    1    2    0    0 -0.57663014768E+02  0.42607657113E+02  0.11887952259E+03  0.13882642619E+03  0.00000000000E+00 0.  1.
<mgrwt>
<rscale>  0 0.13315060E+03</rscale>
<asrwt>0</asrwt>
<pdfrwt beam="1">  1        1 0.41716320E-01 0.15043031E+03</pdfrwt>
<pdfrwt beam="2">  1       -1 0.14076846E-01 0.15043031E+03</pdfrwt>
<totfact> 0.34398974E+03</totfact>
</mgrwt>
</event>
<event>
 7    1  0.1111284E-005  0.1803938E+03  0.7546771E-02  0.1173299E+00
         -2   -1    0    0    0  501 -0.00000000000E+00  0.00000000000E+00  0.72366037396E+02  0.72366037396E+02  0.00000000000E+00 0.  1.
          2   -1    0    0  501    0  0.00000000000E+00 -0.00000000000E+00 -0.71639653201E+03  0.71639653201E+03  0.00000000000E+00 0. -1.
         23    2    1    2    0    0  0.26155795042E+02 -0.12740777285E+03 -0.57396446917E+03  0.59523950096E+03  0.89207541319E+02 0.  0.
          5    1    1    2  502    0 -0.28943952849E+02  0.10821983626E+03 -0.10479516654E+03  0.15347117741E+03  0.47000000000E+01 0. -1.
         -5    1    1    2    0  502  0.27881578066E+01  0.19187936593E+02  0.34729141096E+02  0.40051891040E+02  0.47000000000E+01 0. -1.
        -11    1    3    3    0    0  0.58728677715E+02 -0.90541574486E+02 -0.36931003791E+03  0.38475542673E+03  0.00000000000E+00 0.  1.
         11    1    3    3    0    0 -0.32572882673E+02 -0.36866198365E+02 -0.20465443126E+03  0.21048407423E+03  0.00000000000E+00 0. -1.
<mgrwt>
<rscale>  0 0.17443607E+03</rscale>
<asrwt>0</asrwt>
<pdfrwt beam="2">  1        2 0.11021485E+00 0.18039382E+03</pdfrwt>
<pdfrwt beam="1">  1       -2 0.11133237E-01 0.18039382E+03</pdfrwt>
<totfact> 0.22554362E+03</totfact>
</mgrwt>
</event>
<event>
 7    1  0.1111284E-005  0.1416609E+03  0.7546771E-02  0.1221856E+00
         -2   -1    0    0    0  501 -0.00000000000E+00  0.00000000000E+00  0.42113518737E+02  0.42113518737E+02  0.00000000000E+00 0.  1.
          2   -1    0    0  501    0  0.00000000000E+00 -0.00000000000E+00 -0.38930511664E+03  0.38930511664E+03  0.00000000000E+00 0. -1.
         23    2    1    2    0    0 -0.19226635489E+02  0.63816851950E+02 -0.17758420482E+03  0.21043341207E+03  0.91125281937E+02 0.  0.
          5    1    1    2  502    0  0.20947894631E+02 -0.34100949553E+02  0.77936980523E+01  0.41042913874E+02  0.47000000000E+01 0.  1.
         -5    1    1    2    0  502 -0.17212591424E+01 -0.29715902397E+02 -0.17740109114E+03  0.17994230944E+03  0.47000000000E+01 0.  1.
        -11    1    3    3    0    0 -0.10248859437E+02  0.57645846812E+02 -0.18705120803E+03  0.19600060510E+03  0.00000000000E+00 0. -1.
         11    1    3    3    0    0 -0.89777760514E+01  0.61710051381E+01  0.94670032089E+01  0.14432806969E+02  0.00000000000E+00 0.  1.
<mgrwt>
<rscale>  0 0.13384725E+03</rscale>
<asrwt>0</asrwt>
<pdfrwt beam="2">  1        2 0.59893096E-01 0.14166087E+03</pdfrwt>
<pdfrwt beam="1">  1       -2 0.64790028E-02 0.14166087E+03</pdfrwt>
<totfact> 0.10284347E+04</totfact>
</mgrwt>
</event>
<event>
 7    1  0.1111284E-005  0.1254210E+03  0.7546771E-02  0.1262317E+00
          1   -1    0    0  501    0  0.00000000000E+00  0.00000000000E+00  0.65833259612E+02  0.65833259612E+02  0.00000000000E+00 0. -1.
         -1   -1    0    0    0  501 -0.00000000000E+00 -0.00000000000E+00 -0.14765152613E+03  0.14765152613E+03  0.00000000000E+00 0.  1.
         23    2    1    2    0    0  0.10277613740E+02 -0.11460441234E+01 -0.27386567439E+02  0.76761550440E+02  0.70960332501E+02 0.  0.
          5    1    1    2  502    0 -0.25375560403E+02 -0.55145476181E+02 -0.67167622764E+01  0.61254775361E+02  0.47000000000E+01 0. -1.
         -5    1    1    2    0  502  0.15097946663E+02  0.56291520304E+02 -0.47714936802E+02  0.75468459940E+02  0.47000000000E+01 0. -1.
        -11    1    3    3    0    0 -0.60020115495E+01  0.11120912914E+02 -0.46882151296E+02  0.48555483283E+02  0.00000000000E+00 0.  1.
         11    1    3    3    0    0  0.16279625290E+02 -0.12266957037E+02  0.19495583858E+02  0.28206067157E+02  0.00000000000E+00 0. -1.
<mgrwt>
<rscale>  0 0.10906177E+03</rscale>
<asrwt>0</asrwt>
<pdfrwt beam="1">  1        1 0.10128194E-01 0.12542102E+03</pdfrwt>
<pdfrwt beam="2">  1       -1 0.22715619E-01 0.12542102E+03</pdfrwt>
<totfact> 0.96233913E+03</totfact>
</mgrwt>
</event>
<event>
 7    1  0.1111284E-005  0.1346049E+03  0.7546771E-02  0.1232683E+00
          1   -1    0    0  501    0  0.00000000000E+00  0.00000000000E+00  0.96760519594E+02  0.96760519594E+02  0.00000000000E+00 0. -1.
         -1   -1    0    0    0  501 -0.00000000000E+00 -0.00000000000E+00 -0.14868086088E+03  0.14868086088E+03  0.00000000000E+00 0.  1.
         23    2    1    2    0    0 -0.48033123882E+02  0.13833098105E+02 -0.18402543047E+02  0.10672607836E+03  0.92483872207E+02 0.  0.
          5    1    1    2  502    0 -0.35015726971E+02 -0.10503773869E+02  0.17788994126E+02  0.40926381624E+02  0.47000000000E+01 0. -1.
         -5    1    1    2    0  502  0.83048850853E+02 -0.33293242357E+01 -0.51306792363E+02  0.97788920489E+02  0.47000000000E+01 0. -1.
        -11    1    3    3    0    0  0.21360679319E+02  0.65948528649E+01  0.17378505481E+02  0.28315775780E+02  0.00000000000E+00 0.  1.
         11    1    3    3    0    0 -0.69393803201E+02  0.72382452400E+01 -0.35781048528E+02  0.78410302580E+02  0.00000000000E+00 0. -1.
<mgrwt>
<rscale>  0 0.12653915E+03</rscale>
<asrwt>0</asrwt>
<pdfrwt beam="1">  1        1 0.14886234E-01 0.13460495E+03</pdfrwt>
<pdfrwt beam="2">  1       -1 0.22873978E-01 0.13460495E+03</pdfrwt>
<totfact> 0.57801504E+03</totfact>
</mgrwt>
</event>
<event>
 7    1  0.1111284E-005  0.1859653E+03  0.7546771E-02  0.1169795E+00
          2   -1    0    0  501    0  0.00000000000E+00  0.00000000000E+00  0.57506983526E+03  0.57506983526E+03  0.00000000000E+00 0.  1.
         -2   -1    0    0    0  501 -0.00000000000E+00 -0.00000000000E+00 -0.50914132795E+02  0.50914132795E+02  0.00000000000E+00 0. -1.
         23    2    1    2    0    0 -0.13744514607E+03 -0.81464043993E+01  0.25251536582E+03  0.29678558155E+03  0.73212972609E+02 0.  0.
          5    1    1    2  502    0  0.23838008098E+02  0.20913760587E+02  0.17936443849E+03  0.18220682701E+03  0.47000000000E+01 0.  1.
         -5    1    1    2    0  502  0.11360713797E+03 -0.12767356188E+02  0.92275898146E+02  0.14699155949E+03  0.47000000000E+01 0.  1.
        -11    1    3    3    0    0 -0.83118677358E+02  0.16929638320E+02  0.90328629834E+02  0.12391363342E+03  0.00000000000E+00 0. -1.
         11    1    3    3    0    0 -0.54326468715E+02 -0.25076042719E+02  0.16218673599E+03  0.17287194813E+03  0.00000000000E+00 0.  1.
<mgrwt>
<rscale>  0 0.17795666E+03</rscale>
<asrwt>0</asrwt>
<pdfrwt beam="1">  1        2 0.88472278E-01 0.18596533E+03</pdfrwt>
<pdfrwt beam="2">  1       -2 0.78329439E-02 0.18596533E+03</pdfrwt>
<totfact> 0.50810041E+03</totfact>
</mgrwt>
</event>
<event>
 6    1  0.1111284E-005  0.2892598E+03  0.7546771E-02  0.1090736E+00
         -2   -1    0    0    0  501 -0.00000000000E+00  0.00000000000E+00  0.96510742890E+02  0.96510742890E+02  0.00000000000E+00 0.  1.
          2   -1    0    0  501    0  0.00000000000E+00 -0.00000000000E+00 -0.21674071864E+03  0.21674071864E+03  0.00000000000E+00 0. -1.
          5    1    1    2  502    0  0.43843949669E+02  0.65519350360E+02 -0.11261551700E+01  0.78983766811E+02  0.47000000000E+01 0. -1.
         -5    1    1    2    0  502 -0.22191224684E+02 -0.18918192126E+02 -0.65164270223E+02  0.71545933218E+02  0.47000000000E+01 0. -1.
        -11    1    1    2    0    0  0.10374391613E+02 -0.64258615816E+02  0.29617015281E+02  0.71511994114E+02  0.00000000000E+00 0.  1.
         11    1    1    2    0    0 -0.32027116599E+02  0.17657457583E+02 -0.83556565638E+02  0.91209767389E+02  0.00000000000E+00 0. -1.
<mgrwt>
<rscale>  0 0.28925980E+03</rscale>
<asrwt>0</asrwt>
<pdfrwt beam="2">  1        2 0.33344726E-01 0.28925980E+03</pdfrwt>
<pdfrwt beam="1">  1       -2 0.14847807E-01 0.28925980E+03</pdfrwt>
<totfact> 0.54074317E+03</totfact>
</mgrwt>
</event>
<event>
 7    1  0.1111284E-005  0.1275200E+03  0.7546771E-02  0.1243106E+00
         -1   -1    0    0    0  501 -0.00000000000E+00  0.00000000000E+00  0.93655729238E+03  0.93655729238E+03  0.00000000000E+00 0.  1.
          1   -1    0    0  501    0  0.00000000000E+00 -0.00000000000E+00 -0.15283355776E+02  0.15283355776E+02  0.00000000000E+00 0. -1.
         23    2    1    2    0    0 -0.23702629301E+02 -0.85832081462E+01  0.26371280380E+03  0.28202874343E+03  0.96748556230E+02 0.  0.
          5    1    1    2  502    0  0.73811716753E+02 -0.41049866888E+01  0.43637346350E+03  0.44261598490E+03  0.47000000000E+01 0.  1.
         -5    1    1    2    0  502 -0.50109087453E+02  0.12688194835E+02  0.22118766931E+03  0.22719591983E+03  0.47000000000E+01 0.  1.
        -11    1    3    3    0    0  0.18522557012E+02 -0.27883837683E+02  0.20225082263E+03  0.20500241164E+03  0.00000000000E+00 0.  1.
         11    1    3    3    0    0 -0.42225186312E+02  0.19300629537E+02  0.61461981170E+02  0.77026331790E+02  0.00000000000E+00 0. -1.
<mgrwt>
<rscale>  0 0.11999432E+03</rscale>
<asrwt>0</asrwt>
<pdfrwt beam="2">  1        1 0.23512862E-02 0.12751998E+03</pdfrwt>
<pdfrwt beam="1">  1       -1 0.14408569E+00 0.12751998E+03</pdfrwt>
<totfact> 0.19527781E+03</totfact>
</mgrwt>
</event>
<event>
 7    1  0.1111284E-005  0.1883009E+03  0.7546771E-02  0.1165354E+00
          1   -1    0    0  501    0  0.00000000000E+00  0.00000000000E+00  0.13713239649E+03  0.13713239649E+03  0.00000000000E+00 0. -1.
         -1   -1    0    0    0  501 -0.00000000000E+00 -0.00000000000E+00 -0.34645403776E+03  0.34645403776E+03  0.00000000000E+00 0.  1.
         23    2    1    2    0    0 -0.13456189105E+03 -0.41557712375E+02  0.40059195846E+02  0.17109958999E+03  0.88523355919E+02 0.  0.
          5    1    1    2  502    0  0.15013560735E+03  0.60788448535E+02 -0.20337882231E+03  0.26004032655E+03  0.47000000000E+01 0. -1.
         -5    1    1    2    0  502 -0.15573716300E+02 -0.19230736159E+02 -0.46002014809E+02  0.52446517703E+02  0.47000000000E+01 0. -1.
        -11    1    3    3    0    0 -0.88781470377E+02 -0.48801178083E+02  0.63084520334E+02  0.11934555363E+03  0.00000000000E+00 0. -1.
         11    1    3    3    0    0 -0.45780420673E+02  0.72434657080E+01 -0.23025324488E+02  0.51754036366E+02  0.00000000000E+00 0.  1.
<mgrwt>
<rscale>  0 0.18255388E+03</rscale>
<asrwt>0</asrwt>
<pdfrwt beam="1">  1        1 0.21097292E-01 0.18830089E+03</pdfrwt>
<pdfrwt beam="2">  1       -1 0.53300620E-01 0.18830089E+03</pdfrwt>
<totfact> 0.86560313E+02</totfact>
</mgrwt>
</event>
<event>
 7    1  0.1111284E-005  0.2240111E+03  0.7546771E-02  0.1134065E+00
          1   -1    0    0  501    0  0.00000000000E+00  0.00000000000E+00  0.26186985425E+02  0.26186985425E+02  0.00000000000E+00 0. -1.
         -1   -1    0    0    0  501 -0.00000000000E+00 -0.00000000000E+00 -0.18791250567E+04  0.18791250567E+04  0.00000000000E+00 0.  1.
         23    2    1    2    0    0 -0.18251623503E+03  0.35245487191E+02 -0.67131775660E+03  0.70264519037E+03  0.92132040117E+02 0.  0.
          5    1    1    2  502    0  0.11540237482E+03 -0.46556911682E+02 -0.42202845392E+03  0.44001745426E+03  0.47000000000E+01 0.  1.
         -5    1    1    2    0  502  0.67113860210E+02  0.11311424490E+02 -0.75959186073E+03  0.76264939745E+03  0.47000000000E+01 0.  1.
        -11    1    3    3    0    0 -0.13210981289E+03  0.66225773470E+02 -0.50118414661E+03  0.52251737249E+03  0.00000000000E+00 0.  1.
         11    1    3    3    0    0 -0.50406422139E+02 -0.30980286278E+02 -0.17013360998E+03  0.18012781788E+03  0.00000000000E+00 0. -1.
<mgrwt>
<rscale>  0 0.21975546E+03</rscale>
<asrwt>0</asrwt>
<pdfrwt beam="1">  1        1 0.40287671E-02 0.22401113E+03</pdfrwt>
<pdfrwt beam="2">  1       -1 0.28909616E+00 0.22401113E+03</pdfrwt>
<totfact> 0.10230824E+02</totfact>
</mgrwt>
</event>
<event>
 7    1  0.1111284E-005  0.1631358E+03  0.7546771E-02  0.1194153E+00
          2   -1    0    0  501    0  0.00000000000E+00  0.00000000000E+00  0.65814625088E+03  0.65814625088E+03  0.00000000000E+00 0. -1.
         -2   -1    0    0    0  501 -0.00000000000E+00 -0.00000000000E+00 -0.36432728231E+02  0.36432728231E+02  0.00000000000E+00 0.  1.
         23    2    1    2    0    0  0.60608839628E+02  0.85528202804E+02  0.38071270381E+03  0.40355548891E+03  0.83224785211E+02 0.  0.
          5    1    1    2  502    0  0.27311355867E+00  0.30254642278E+02  0.31035553131E+02  0.43597173401E+02  0.47000000000E+01 0. -1.
         -5    1    1    2    0  502 -0.60881953187E+02 -0.11578284508E+03  0.20996526571E+03  0.24742631679E+03  0.47000000000E+01 0. -1.
        -11    1    3    3    0    0  0.73222683312E+02  0.41886765619E+02  0.29124030271E+03  0.30321110865E+03  0.00000000000E+00 0. -1.
         11    1    3    3    0    0 -0.12613843684E+02  0.43641437185E+02  0.89472401103E+02  0.10034438027E+03  0.00000000000E+00 0.  1.
<mgrwt>
<rscale>  0 0.15526143E+03</rscale>
<asrwt>0</asrwt>
<pdfrwt beam="1">  1        2 0.10125326E+00 0.16313576E+03</pdfrwt>
<pdfrwt beam="2">  1       -2 0.56050356E-02 0.16313576E+03</pdfrwt>
<totfact> 0.72202939E+03</totfact>
</mgrwt>
</event>
<event>
 7    1  0.1111284E-005  0.1988230E+03  0.7546771E-02  0.1155120E+00
          1   -1    0    0  501    0  0.00000000000E+00  0.00000000000E+00  0.58358925556E+02  0.58358925556E+02  0.00000000000E+00 0. -1.
         -1   -1    0    0    0  501 -0.00000000000E+00 -0.00000000000E+00 -0.64505126555E+03  0.64505126555E+03  0.00000000000E+00 0.  1.
         23    2    1    2    0    0  0.46149622793E+02  0.14757013570E+03 -0.20005832702E+03  0.26864999658E+03  0.90789612945E+02 0.  0.
          5    1    1    2  502    0 -0.52313160374E+02 -0.16447401598E+03 -0.29985317428E+03  0.34600922648E+03  0.47000000000E+01 0.  1.
         -5    1    1    2    0  502  0.61635375810E+01  0.16903880280E+02 -0.86780838692E+02  0.88750968041E+02  0.47000000000E+01 0.  1.
        -11    1    3    3    0    0  0.37183896269E+02  0.28504718781E+02 -0.16498694699E+02  0.49672608763E+02  0.00000000000E+00 0. -1.
         11    1    3    3    0    0  0.89657265242E+01  0.11906541692E+03 -0.18355963232E+03  0.21897738782E+03  0.00000000000E+00 0.  1.
<mgrwt>
<rscale>  0 0.19375220E+03</rscale>
<asrwt>0</asrwt>
<pdfrwt beam="1">  1        1 0.89782965E-02 0.19882295E+03</pdfrwt>
<pdfrwt beam="2">  1       -1 0.99238653E-01 0.19882295E+03</pdfrwt>
<totfact> 0.75873029E+02</totfact>
</mgrwt>
</event>
<event>
 7    1  0.1111284E-005  0.1263635E+03  0.7546771E-02  0.1248184E+00
          3   -1    0    0  501    0  0.00000000000E+00  0.00000000000E+00  0.18355498730E+03  0.18355498730E+03  0.00000000000E+00 0. -1.
         -3   -1    0    0    0  501 -0.00000000000E+00 -0.00000000000E+00 -0.70909018999E+02  0.70909018999E+02  0.00000000000E+00 0.  1.
         23    2    1    2    0    0  0.55597057029E+00  0.18541913802E+02  0.83429847982E+02  0.12476703575E+03  0.90896435595E+02 0.  0.
          5    1    1    2  502    0  0.34865350232E+02  0.42411465759E+02  0.65281197847E+01  0.55489020739E+02  0.47000000000E+01 0. -1.
         -5    1    1    2    0  502 -0.35421320802E+02 -0.60953379560E+02  0.22688000533E+02  0.74207949813E+02  0.47000000000E+01 0. -1.
        -11    1    3    3    0    0  0.10812063219E+02 -0.33896881482E+02  0.16764680997E+02  0.39331333745E+02  0.00000000000E+00 0. -1.
         11    1    3    3    0    0 -0.10256092649E+02  0.52438795284E+02  0.66665166985E+02  0.85435702001E+02  0.00000000000E+00 0.  1.
<mgrwt>
<rscale>  0 0.11696825E+03</rscale>
<asrwt>0</asrwt>
<pdfrwt beam="1">  1        3 0.28239229E-01 0.12636345E+03</pdfrwt>
<pdfrwt beam="2">  1       -3 0.10909080E-01 0.12636345E+03</pdfrwt>
<totfact> 0.17371670E+03</totfact>
</mgrwt>
</event>
<event>
 7    1  0.1111284E-005  0.1307234E+03  0.7546771E-02  0.1240495E+00
          1   -1    0    0  501    0  0.00000000000E+00  0.00000000000E+00  0.59771996671E+03  0.59771996671E+03  0.00000000000E+00 0. -1.
         -1   -1    0    0    0  501 -0.00000000000E+00 -0.00000000000E+00 -0.22270216140E+02  0.22270216140E+02  0.00000000000E+00 0.  1.
         23    2    1    2    0    0 -0.27438581217E+01 -0.38149834334E+02  0.20505303101E+03  0.22720226584E+03  0.90062120006E+02 0.  0.
          5    1    1    2  502    0 -0.62700546286E+01  0.72955235606E+02  0.12673669306E+03  0.14644473140E+03  0.47000000000E+01 0.  1.
         -5    1    1    2    0  502  0.90139127503E+01 -0.34805401273E+02  0.24366002650E+03  0.24634318560E+03  0.47000000000E+01 0.  1.
        -11    1    3    3    0    0 -0.19939409203E+02 -0.58581961740E+02  0.18091203451E+03  0.19120300864E+03  0.00000000000E+00 0. -1.
         11    1    3    3    0    0  0.17195551081E+02  0.20432127406E+02  0.24140996497E+02  0.35999257203E+02  0.00000000000E+00 0.  1.
<mgrwt>
<rscale>  0 0.12159129E+03</rscale>
<asrwt>0</asrwt>
<pdfrwt beam="1">  1        1 0.91956906E-01 0.13072344E+03</pdfrwt>
<pdfrwt beam="2">  1       -1 0.34261876E-02 0.13072344E+03</pdfrwt>
<totfact> 0.10426864E+04</totfact>
</mgrwt>
</event>
<event>
 7    1  0.1111284E-005  0.1391358E+03  0.7546771E-02  0.1226008E+00
          1   -1    0    0  501    0  0.00000000000E+00  0.00000000000E+00  0.30034452968E+03  0.30034452968E+03  0.00000000000E+00 0.  1.
         -1   -1    0    0    0  501 -0.00000000000E+00 -0.00000000000E+00 -0.51522038800E+02  0.51522038800E+02  0.00000000000E+00 0. -1.
         23    2    1    2    0    0  0.49255129802E+02 -0.36172236340E+02  0.11920450770E+03  0.16170982138E+03  0.90586164402E+02 0.  0.
          5    1    1    2  502    0  0.10838254455E+02  0.23543427925E+02 -0.16849004893E+02  0.31268829911E+02  0.47000000000E+01 0.  1.
         -5    1    1    2    0  502 -0.60093384257E+02  0.12628808416E+02  0.14646698807E+03  0.15888791719E+03  0.47000000000E+01 0.  1.
        -11    1    3    3    0    0  0.53528051773E+02 -0.52361980971E+02  0.12349644742E+03  0.14442438127E+03  0.00000000000E+00 0.  1.
         11    1    3    3    0    0 -0.42729219709E+01  0.16189744630E+02 -0.42919397231E+01  0.17285440115E+02  0.00000000000E+00 0. -1.
<mgrwt>
<rscale>  0 0.13098039E+03</rscale>
<asrwt>0</asrwt>
<pdfrwt beam="1">  1        1 0.46206850E-01 0.13913579E+03</pdfrwt>
<pdfrwt beam="2">  1       -1 0.79264677E-02 0.13913579E+03</pdfrwt>
<totfact> 0.72835773E+03</totfact>
</mgrwt>
</event>
<event>
 7    1  0.1111284E-005  0.1545856E+03  0.7546771E-02  0.1211157E+00
         -2   -1    0    0    0  501 -0.00000000000E+00  0.00000000000E+00  0.69163063898E+03  0.69163063898E+03  0.00000000000E+00 0.  1.
          2   -1    0    0  501    0  0.00000000000E+00 -0.00000000000E+00 -0.29967592824E+02  0.29967592824E+02  0.00000000000E+00 0. -1.
         23    2    1    2    0    0  0.18866983311E+01  0.57694911977E+02  0.13918433360E+03  0.17673061030E+03  0.92353491527E+02 0.  0.
          5    1    1    2  502    0 -0.94693724811E+01 -0.73012997663E+02  0.11266180255E+03  0.13466751129E+03  0.47000000000E+01 0. -1.
         -5    1    1    2    0  502  0.75826741500E+01  0.15318085686E+02  0.40981691001E+03  0.41020011022E+03  0.47000000000E+01 0.  1.
        -11    1    3    3    0    0 -0.38341236127E+02  0.15105752964E+01  0.36484347961E+02  0.52947519976E+02  0.00000000000E+00 0. -1.
         11    1    3    3    0    0  0.40227934458E+02  0.56184336680E+02  0.10269998564E+03  0.12378309032E+03  0.00000000000E+00 0.  1.
<mgrwt>
<rscale>  0 0.14162633E+03</rscale>
<asrwt>0</asrwt>
<pdfrwt beam="2">  1        2 0.46103994E-02 0.15458564E+03</pdfrwt>
<pdfrwt beam="1">  1       -2 0.10640470E+00 0.15458564E+03</pdfrwt>
<totfact> 0.12637388E+03</totfact>
</mgrwt>
</event>
<event>
 7    1  0.1111284E-005  0.1341370E+03  0.7546771E-02  0.1233820E+00
          1   -1    0    0  501    0  0.00000000000E+00  0.00000000000E+00  0.24485952059E+03  0.24485952059E+03  0.00000000000E+00 0. -1.
         -1   -1    0    0    0  501 -0.00000000000E+00 -0.00000000000E+00 -0.58831111388E+02  0.58831111388E+02  0.00000000000E+00 0.  1.
         23    2    1    2    0    0  0.53813154506E+00  0.48655252526E+02  0.10136031721E+03  0.14506714945E+03  0.91667555652E+02 0.  0.
          5    1    1    2  502    0  0.28062606988E+02 -0.77549107706E+02  0.83828262399E+02  0.11768874880E+03  0.47000000000E+01 0.  1.
         -5    1    1    2    0  502 -0.28600738533E+02  0.28893855179E+02  0.83982958641E+00  0.40934733729E+02  0.47000000000E+01 0.  1.
        -11    1    3    3    0    0 -0.21442418608E+02 -0.11812092832E+02 -0.61894367449E+00  0.24488485949E+02  0.00000000000E+00 0.  1.
         11    1    3    3    0    0  0.21980550153E+02  0.60467345358E+02  0.10197926089E+03  0.12057866350E+03  0.00000000000E+00 0. -1.
<mgrwt>
<rscale>  0 0.12580304E+03</rscale>
<asrwt>0</asrwt>
<pdfrwt beam="1">  1        1 0.37670695E-01 0.13413696E+03</pdfrwt>
<pdfrwt beam="2">  1       -1 0.90509403E-02 0.13413696E+03</pdfrwt>
<totfact> 0.76521052E+03</totfact>
</mgrwt>
</event>
<event>
 7    1  0.1111284E-005  0.1297796E+03  0.7546771E-02  0.1243868E+00
          1   -1    0    0  501    0  0.00000000000E+00  0.00000000000E+00  0.26440665433E+03  0.26440665433E+03  0.00000000000E+00 0. -1.
         -1   -1    0    0    0  501 -0.00000000000E+00 -0.00000000000E+00 -0.62083888990E+02  0.62083888990E+02  0.00000000000E+00 0.  1.
         23    2    1    2    0    0 -0.34852572578E+02 -0.15044170107E+01  0.16805154478E+03  0.19226216951E+03  0.86639800523E+02 0.  0.
          5    1    1    2  502    0  0.60733724292E+02 -0.45420449724E+02  0.20142578086E+02  0.78609261359E+02  0.47000000000E+01 0. -1.
         -5    1    1    2    0  502 -0.25881151714E+02  0.46924866734E+02  0.14128642473E+02  0.55619112454E+02  0.47000000000E+01 0. -1.
        -11    1    3    3    0    0 -0.67927521795E+01 -0.29800685234E+02  0.14885656819E+02  0.33997133725E+02  0.00000000000E+00 0.  1.
         11    1    3    3    0    0 -0.28059820398E+02  0.28296268224E+02  0.15316588796E+03  0.15826503578E+03  0.00000000000E+00 0. -1.
<mgrwt>
<rscale>  0 0.11953377E+03</rscale>
<asrwt>0</asrwt>
<pdfrwt beam="1">  1        1 0.40677946E-01 0.12977958E+03</pdfrwt>
<pdfrwt beam="2">  1       -1 0.95513677E-02 0.12977958E+03</pdfrwt>
<totfact> 0.63987952E+03</totfact>
</mgrwt>
</event>
<event>
 7    1  0.1111284E-005  0.1542643E+03  0.7546771E-02  0.1203704E+00
         -4   -1    0    0    0  501 -0.00000000000E+00  0.00000000000E+00  0.25309653313E+03  0.25309653313E+03  0.00000000000E+00 0.  1.
          4   -1    0    0  501    0  0.00000000000E+00 -0.00000000000E+00 -0.84521379107E+02  0.84521379107E+02  0.00000000000E+00 0. -1.
         23    2    1    2    0    0 -0.51040775062E+02  0.74610772146E+02  0.34259108106E+02  0.13307387806E+03  0.91449671922E+02 0.  0.
          5    1    1    2  502    0  0.90546302916E+02 -0.32858265842E+02  0.88437682295E+02  0.13084957874E+03  0.47000000000E+01 0.  1.
         -5    1    1    2    0  502 -0.39505527855E+02 -0.41752506304E+02  0.45878363618E+02  0.73694455437E+02  0.47000000000E+01 0.  1.
        -11    1    3    3    0    0  0.22589124982E+02  0.41263929869E+02  0.19422788554E+02  0.50894254989E+02  0.00000000000E+00 0.  1.
         11    1    3    3    0    0 -0.73629900044E+02  0.33346842277E+02  0.14836319552E+02  0.82179623071E+02  0.00000000000E+00 0. -1.
<mgrwt>
<rscale>  0 0.14740066E+03</rscale>
<asrwt>0</asrwt>
<pdfrwt beam="2">  1        4 0.13003289E-01 0.15426426E+03</pdfrwt>
<pdfrwt beam="1">  1       -4 0.38937928E-01 0.15426426E+03</pdfrwt>
<totfact> 0.52738310E+02</totfact>
</mgrwt>
</event>
<event>
 7    1  0.1111284E-005  0.3569444E+03  0.7546771E-02  0.1060835E+00
          2   -1    0    0  501    0  0.00000000000E+00  0.00000000000E+00  0.18142420925E+04  0.18142420925E+04  0.00000000000E+00 0. -1.
         -2   -1    0    0    0  501 -0.00000000000E+00 -0.00000000000E+00 -0.77449108992E+02  0.77449108992E+02  0.00000000000E+00 0.  1.
         23    2    1    2    0    0  0.77505799221E+02 -0.32523430654E+03  0.11834875993E+04  0.12332413722E+04  0.91961303992E+02 0.  0.
          5    1    1    2  502    0 -0.19256177268E+02  0.25806212053E+03  0.46982680766E+03  0.53640113499E+03  0.47000000000E+01 0. -1.
         -5    1    1    2    0  502 -0.58249621953E+02  0.67172186004E+02  0.83478576536E+02  0.12204869426E+03  0.47000000000E+01 0. -1.
        -11    1    3    3    0    0  0.71691000000E+02 -0.18924951265E+03  0.57068008611E+03  0.60550040314E+03  0.00000000000E+00 0.  1.
         11    1    3    3    0    0  0.58147992219E+01 -0.13598479389E+03  0.61280751318E+03  0.62774096909E+03  0.00000000000E+00 0. -1.
<mgrwt>
<rscale>  0 0.35437021E+03</rscale>
<asrwt>0</asrwt>
<pdfrwt beam="1">  1        2 0.27911414E+00 0.35694443E+03</pdfrwt>
<pdfrwt beam="2">  1       -2 0.11915249E-01 0.35694443E+03</pdfrwt>
<totfact> 0.46073214E+02</totfact>
</mgrwt>
</event>
<event>
 7    1  0.1111284E-005  0.1312941E+03  0.7546771E-02  0.1238585E+00
         -4   -1    0    0    0  501 -0.00000000000E+00  0.00000000000E+00  0.39132950362E+03  0.39132950362E+03  0.00000000000E+00 0. -1.
          4   -1    0    0  501    0  0.00000000000E+00 -0.00000000000E+00 -0.36497809100E+02  0.36497809100E+02  0.00000000000E+00 0.  1.
         23    2    1    2    0    0  0.18689874120E+02  0.35607208411E+02  0.10307231438E+03  0.14388906962E+03  0.91994443745E+02 0.  0.
          5    1    1    2  502    0  0.24605544014E+02 -0.66515752297E+02  0.18667616392E+03  0.19974948880E+03  0.47000000000E+01 0.  1.
         -5    1    1    2    0  502 -0.43295418133E+02  0.30908543885E+02  0.65083216222E+02  0.84188754298E+02  0.47000000000E+01 0.  1.
        -11    1    3    3    0    0 -0.24352190932E+02 -0.14009864460E+02  0.96887397435E+01  0.29718297111E+02  0.00000000000E+00 0.  1.
         11    1    3    3    0    0  0.43042065052E+02  0.49617072871E+02  0.93383574632E+02  0.11417077251E+03  0.00000000000E+00 0. -1.
<mgrwt>
<rscale>  0 0.12277709E+03</rscale>
<asrwt>0</asrwt>
<pdfrwt beam="2">  1        4 0.56150478E-02 0.13129410E+03</pdfrwt>
<pdfrwt beam="1">  1       -4 0.60204536E-01 0.13129410E+03</pdfrwt>
<totfact> 0.85628929E+02</totfact>
</mgrwt>
</event>
<event>
 7    1  0.1111284E-005  0.1126491E+03  0.7546771E-02  0.1264099E+00
          1   -1    0    0  501    0  0.00000000000E+00  0.00000000000E+00  0.23965392646E+03  0.23965392646E+03  0.00000000000E+00 0. -1.
         -1   -1    0    0    0  501 -0.00000000000E+00 -0.00000000000E+00 -0.80385499992E+02  0.80385499992E+02  0.00000000000E+00 0.  1.
         23    2    1    2    0    0 -0.57070282087E+01 -0.16832807150E+02  0.18158114062E+03  0.20520186230E+03  0.93915813872E+02 0.  0.
          5    1    1    2  502    0 -0.46017915117E+02 -0.14907230826E+02  0.34912472764E+01  0.48725279375E+02  0.47000000000E+01 0. -1.
         -5    1    1    2    0  502  0.51724943326E+02  0.31740037975E+02 -0.25803961429E+02  0.66112284775E+02  0.47000000000E+01 0.  1.
        -11    1    3    3    0    0 -0.36758885542E+02 -0.15722940139E+02  0.16541158186E+03  0.17017466888E+03  0.00000000000E+00 0. -1.
         11    1    3    3    0    0  0.31051857333E+02 -0.11098670110E+01  0.16169558754E+02  0.35027193420E+02  0.00000000000E+00 0.  1.
<mgrwt>
<rscale>  0 0.10811619E+03</rscale>
<asrwt>0</asrwt>
<pdfrwt beam="1">  1        1 0.36869835E-01 0.11264905E+03</pdfrwt>
<pdfrwt beam="2">  1       -1 0.12367000E-01 0.11264905E+03</pdfrwt>
<totfact> 0.48213468E+03</totfact>
</mgrwt>
</event>
<event>
 7    1  0.1111284E-005  0.1515463E+03  0.7546771E-02  0.1207273E+00
         -1   -1    0    0    0  501 -0.00000000000E+00  0.00000000000E+00  0.19881891239E+03  0.19881891239E+03  0.00000000000E+00 0.  1.
          1   -1    0    0  501    0  0.00000000000E+00 -0.00000000000E+00 -0.11457452885E+03  0.11457452885E+03  0.00000000000E+00 0. -1.
         23    2    1    2    0    0  0.90243368012E+01  0.85200539083E+02 -0.23057632263E+02  0.12770553090E+03  0.91850300506E+02 0.  0.
          5    1    1    2  502    0  0.77975438649E+01 -0.55458922439E+02  0.13186654870E+03  0.14334353991E+03  0.47000000000E+01 0. -1.
         -5    1    1    2    0  502 -0.16821880666E+02 -0.29741616645E+02 -0.24564532900E+02  0.42344370422E+02  0.47000000000E+01 0. -1.
        -11    1    3    3    0    0  0.31137405525E+02  0.35912157153E+02  0.26479852153E+02  0.54409591290E+02  0.00000000000E+00 0.  1.
         11    1    3    3    0    0 -0.22113068724E+02  0.49288381930E+02 -0.49537484416E+02  0.73295939614E+02  0.00000000000E+00 0. -1.
<mgrwt>
<rscale>  0 0.14459797E+03</rscale>
<asrwt>0</asrwt>
<pdfrwt beam="2">  1        1 0.17626851E-01 0.15154629E+03</pdfrwt>
<pdfrwt beam="1">  1       -1 0.30587525E-01 0.15154629E+03</pdfrwt>
<totfact> 0.28917038E+03</totfact>
</mgrwt>
</event>
<event>
 7    1  0.1111284E-005  0.1491560E+03  0.7546771E-02  0.1210761E+00
          2   -1    0    0  501    0  0.00000000000E+00  0.00000000000E+00  0.12137396515E+02  0.12137396515E+02  0.00000000000E+00 0. -1.
         -2   -1    0    0    0  501 -0.00000000000E+00 -0.00000000000E+00 -0.16076549902E+04  0.16076549902E+04  0.00000000000E+00 0.  1.
         23    2    1    2    0    0  0.39404081214E+01 -0.81297563417E+02 -0.53225333879E+03  0.54611720737E+03  0.91244544532E+02 0.  0.
          5    1    1    2  502    0  0.30410664920E+02  0.52591131712E+01 -0.67042972592E+02  0.73954830716E+02  0.47000000000E+01 0. -1.
         -5    1    1    2    0  502 -0.34351073042E+02  0.76038450246E+02 -0.99622128226E+03  0.99972034858E+03  0.47000000000E+01 0. -1.
        -11    1    3    3    0    0  0.43159961527E+02 -0.62664016818E+02 -0.28001503214E+03  0.29016888101E+03  0.00000000000E+00 0. -1.
         11    1    3    3    0    0 -0.39219553405E+02 -0.18633546600E+02 -0.25223830665E+03  0.25594832636E+03  0.00000000000E+00 0.  1.
<mgrwt>
<rscale>  0 0.14192605E+03</rscale>
<asrwt>0</asrwt>
<pdfrwt beam="1">  1        2 0.18672933E-02 0.14915601E+03</pdfrwt>
<pdfrwt beam="2">  1       -2 0.24733134E+00 0.14915601E+03</pdfrwt>
<totfact> 0.44171547E+02</totfact>
</mgrwt>
</event>
<event>
 7    1  0.1111284E-005  0.1625891E+03  0.7546771E-02  0.1194522E+00
          2   -1    0    0  501    0  0.00000000000E+00  0.00000000000E+00  0.35436607556E+03  0.35436607556E+03  0.00000000000E+00 0. -1.
         -2   -1    0    0    0  501 -0.00000000000E+00 -0.00000000000E+00 -0.64049370568E+02  0.64049370568E+02  0.00000000000E+00 0.  1.
         23    2    1    2    0    0  0.32656800127E+02  0.98709768881E+02  0.16793898496E+03  0.21491726532E+03  0.84710348819E+02 0.  0.
          5    1    1    2  502    0  0.39431874869E+02 -0.90466497115E+00  0.19629929456E+02  0.44307057055E+02  0.47000000000E+01 0.  1.
         -5    1    1    2    0  502 -0.72088674997E+02 -0.97805103910E+02  0.10274779058E+03  0.15919112376E+03  0.47000000000E+01 0.  1.
        -11    1    3    3    0    0  0.19854361836E+02 -0.82553485892E+01  0.53948605148E+02  0.58075799276E+02  0.00000000000E+00 0. -1.
         11    1    3    3    0    0  0.12802438292E+02  0.10696511747E+03  0.11399037981E+03  0.15684146605E+03  0.00000000000E+00 0.  1.
<mgrwt>
<rscale>  0 0.15494769E+03</rscale>
<asrwt>0</asrwt>
<pdfrwt beam="1">  1        2 0.54517857E-01 0.16258906E+03</pdfrwt>
<pdfrwt beam="2">  1       -2 0.98537495E-02 0.16258906E+03</pdfrwt>
<totfact> 0.59920211E+03</totfact>
</mgrwt>
</event>
<event>
 7    1  0.1111284E-005  0.1557675E+03  0.7546771E-02  0.1201636E+00
          1   -1    0    0  501    0  0.00000000000E+00  0.00000000000E+00  0.22903964003E+03  0.22903964003E+03  0.00000000000E+00 0. -1.
         -1   -1    0    0    0  501 -0.00000000000E+00 -0.00000000000E+00 -0.10703368837E+03  0.10703368837E+03  0.00000000000E+00 0.  1.
         23    2    1    2    0    0 -0.82702363791E+02  0.42415053932E+02  0.12427620818E+03  0.18028930299E+03  0.91765674827E+02 0.  0.
          5    1    1    2  502    0  0.49922267051E+02  0.26151291058E+02  0.39455907575E+02  0.68956373266E+02  0.47000000000E+01 0.  1.
         -5    1    1    2    0  502  0.32780096740E+02 -0.68566344990E+02 -0.41726164088E+02  0.86827652146E+02  0.47000000000E+01 0.  1.
        -11    1    3    3    0    0 -0.68476828868E+02 -0.58412166786E+01  0.33388711819E+02  0.76406818943E+02  0.00000000000E+00 0.  1.
         11    1    3    3    0    0 -0.14225534923E+02  0.48256270610E+02  0.90887496360E+02  0.10388248405E+03  0.00000000000E+00 0. -1.
<mgrwt>
<rscale>  0 0.14905752E+03</rscale>
<asrwt>0</asrwt>
<pdfrwt beam="1">  1        1 0.35236868E-01 0.15576748E+03</pdfrwt>
<pdfrwt beam="2">  1       -1 0.16466721E-01 0.15576748E+03</pdfrwt>
<totfact> 0.33195501E+03</totfact>
</mgrwt>
</event>
<event>
 7    1  0.1111284E-005  0.2646089E+03  0.7546771E-02  0.1106548E+00
         -2   -1    0    0    0  501 -0.00000000000E+00  0.00000000000E+00  0.54950628038E+02  0.54950628038E+02  0.00000000000E+00 0.  1.
          2   -1    0    0  501    0  0.00000000000E+00 -0.00000000000E+00 -0.13263544765E+04  0.13263544765E+04  0.00000000000E+00 0. -1.
         23    2    1    2    0    0 -0.13069273093E+03  0.19316025948E+03 -0.82699942073E+03  0.86408834579E+03  0.91264186175E+02 0.  0.
          5    1    1    2  502    0  0.36899655167E+02 -0.14740052702E+03 -0.19836842391E+03  0.24992123063E+03  0.47000000000E+01 0.  1.
         -5    1    1    2    0  502  0.93793075760E+02 -0.45759732463E+02 -0.24603600384E+03  0.26729552814E+03  0.47000000000E+01 0.  1.
        -11    1    3    3    0    0 -0.51089286888E+02  0.13897562358E+03 -0.40435057138E+03  0.43060855049E+03  0.00000000000E+00 0.  1.
         11    1    3    3    0    0 -0.79603444039E+02  0.54184635904E+02 -0.42264884935E+03  0.43347979529E+03  0.00000000000E+00 0. -1.
<mgrwt>
<rscale>  0 0.26099348E+03</rscale>
<asrwt>0</asrwt>
<pdfrwt beam="2">  1        2 0.20405454E+00 0.26460892E+03</pdfrwt>
<pdfrwt beam="1">  1       -2 0.84539427E-02 0.26460892E+03</pdfrwt>
<totfact> 0.14717840E+03</totfact>
</mgrwt>
</event>
<event>
 7    1  0.1111284E-005  0.1585171E+03  0.7546771E-02  0.1190842E+00
         -4   -1    0    0    0  501 -0.00000000000E+00  0.00000000000E+00  0.47667726630E+03  0.47667726630E+03  0.00000000000E+00 0.  1.
          4   -1    0    0  501    0  0.00000000000E+00 -0.00000000000E+00 -0.73227649405E+02  0.73227649405E+02  0.00000000000E+00 0. -1.
         23    2    1    2    0    0  0.86342839990E+02  0.39262678977E+02  0.55056133505E+02  0.16780602314E+03  0.12700802962E+03 0.  0.
          5    1    1    2  502    0  0.26732259568E+02  0.67410016789E-01  0.23800144871E+02  0.36099240181E+02  0.47000000000E+01 0. -1.
         -5    1    1    2    0  502 -0.11307509956E+03 -0.39330088994E+02  0.32459333852E+03  0.34599965239E+03  0.47000000000E+01 0. -1.
        -11    1    3    3    0    0  0.19812670003E+02  0.32695666447E+02  0.86017913272E+02  0.94130918941E+02  0.00000000000E+00 0.  1.
         11    1    3    3    0    0  0.66530169988E+02  0.65670125301E+01 -0.30961779767E+02  0.73675104197E+02  0.00000000000E+00 0. -1.
<mgrwt>
<rscale>  0 0.15811446E+03</rscale>
<asrwt>0</asrwt>
<pdfrwt beam="2">  1        4 0.11265793E-01 0.15851714E+03</pdfrwt>
<pdfrwt beam="1">  1       -4 0.73334962E-01 0.15851714E+03</pdfrwt>
<totfact> 0.18302114E+02</totfact>
</mgrwt>
</event>
<event>
 7    1  0.1111284E-005  0.1902236E+03  0.7546771E-02  0.1163395E+00
          4   -1    0    0  501    0  0.00000000000E+00  0.00000000000E+00  0.26205590274E+02  0.26205590274E+02  0.00000000000E+00 0. -1.
         -4   -1    0    0    0  501 -0.00000000000E+00 -0.00000000000E+00 -0.12755024706E+04  0.12755024706E+04  0.00000000000E+00 0.  1.
         23    2    1    2    0    0 -0.11054744060E+03 -0.91329337555E+02 -0.46579264354E+03  0.49544265797E+03  0.89100258402E+02 0.  0.
          5    1    1    2  502    0  0.24405383756E+02  0.92130561795E+02 -0.29055365013E+03  0.30582213258E+03  0.47000000000E+01 0.  1.
         -5    1    1    2    0  502  0.86142056844E+02 -0.80122424030E+00 -0.49295058668E+03  0.50044327033E+03  0.47000000000E+01 0.  1.
        -11    1    3    3    0    0 -0.43405808578E+02 -0.91665349323E+02 -0.29346820445E+03  0.31049989937E+03  0.00000000000E+00 0. -1.
         11    1    3    3    0    0 -0.67141632022E+02  0.33601176846E+00 -0.17232443909E+03  0.18494275861E+03  0.00000000000E+00 0.  1.
<mgrwt>
<rscale>  0 0.18463120E+03</rscale>
<asrwt>0</asrwt>
<pdfrwt beam="1">  1        4 0.40316283E-02 0.19022358E+03</pdfrwt>
<pdfrwt beam="2">  1       -4 0.19623120E+00 0.19022358E+03</pdfrwt>
<totfact> 0.91609495E+01</totfact>
</mgrwt>
</event>
<event>
 7    1  0.1111284E-005  0.2913317E+03  0.7546771E-02  0.1091323E+00
          2   -1    0    0  501    0  0.00000000000E+00  0.00000000000E+00  0.17280760170E+04  0.17280760170E+04  0.00000000000E+00 0. -1.
         -2   -1    0    0    0  501 -0.00000000000E+00 -0.00000000000E+00 -0.47534038195E+02  0.47534038195E+02  0.00000000000E+00 0.  1.
         23    2    1    2    0    0 -0.12630092635E+03  0.23086611270E+03  0.72988266549E+03  0.78131267523E+03  0.92031000712E+02 0.  0.
          5    1    1    2  502    0  0.52132969258E+02 -0.13734131055E+03  0.71659011985E+03  0.73150801221E+03  0.47000000000E+01 0.  1.
         -5    1    1    2    0  502  0.74167957094E+02 -0.93524802149E+02  0.23406919347E+03  0.26278936776E+03  0.47000000000E+01 0.  1.
        -11    1    3    3    0    0 -0.20903671232E+02  0.11598260071E+03  0.24286425531E+03  0.26994809435E+03  0.00000000000E+00 0.  1.
         11    1    3    3    0    0 -0.10539725512E+03  0.11488351199E+03  0.48701841019E+03  0.51136458088E+03  0.00000000000E+00 0. -1.
<mgrwt>
<rscale>  0 0.28814291E+03</rscale>
<asrwt>0</asrwt>
<pdfrwt beam="1">  1        2 0.26585780E+00 0.29133168E+03</pdfrwt>
<pdfrwt beam="2">  1       -2 0.73129303E-02 0.29133168E+03</pdfrwt>
<totfact> 0.11226621E+03</totfact>
</mgrwt>
</event>
<event>
 7    1  0.1111284E-005  0.1251100E+03  0.7546771E-02  0.1250612E+00
          2   -1    0    0  501    0  0.00000000000E+00  0.00000000000E+00  0.37454914190E+03  0.37454914190E+03  0.00000000000E+00 0. -1.
         -2   -1    0    0    0  501 -0.00000000000E+00 -0.00000000000E+00 -0.31208767935E+02  0.31208767935E+02  0.00000000000E+00 0.  1.
         23    2    1    2    0    0 -0.51643279421E+00 -0.51476672129E+01  0.13961685145E+03  0.16668516964E+03  0.90908280081E+02 0.  0.
          5    1    1    2  502    0 -0.28931392889E+02  0.63577211169E+01 -0.30587025503E+01  0.30147831988E+02  0.47000000000E+01 0. -1.
         -5    1    1    2    0  502  0.29447825683E+02 -0.12100539040E+01  0.20678222506E+03  0.20892490820E+03  0.47000000000E+01 0. -1.
        -11    1    3    3    0    0 -0.27796866471E+02 -0.38158063868E+02  0.85570255438E+02  0.97729075712E+02  0.00000000000E+00 0.  1.
         11    1    3    3    0    0  0.27280433677E+02  0.33010396655E+02  0.54046596017E+02  0.68956093928E+02  0.00000000000E+00 0. -1.
<mgrwt>
<rscale>  0 0.11555674E+03</rscale>
<asrwt>0</asrwt>
<pdfrwt beam="1">  1        2 0.57622942E-01 0.12510996E+03</pdfrwt>
<pdfrwt beam="2">  1       -2 0.48013492E-02 0.12510996E+03</pdfrwt>
<totfact> 0.16680328E+04</totfact>
</mgrwt>
</event>
<event>
 7    1  0.1111284E-005  0.1296113E+03  0.7546771E-02  0.1246590E+00
          1   -1    0    0  501    0  0.00000000000E+00  0.00000000000E+00  0.61462051402E+02  0.61462051402E+02  0.00000000000E+00 0. -1.
         -1   -1    0    0    0  501 -0.00000000000E+00 -0.00000000000E+00 -0.19642935570E+03  0.19642935570E+03  0.00000000000E+00 0.  1.
         23    2    1    2    0    0 -0.14217926237E+02 -0.31181426924E+02 -0.40847684017E+02  0.97711513623E+02  0.81881474056E+02 0.  0.
          5    1    1    2  502    0  0.66831514754E+02  0.32465082275E+02 -0.39876339869E+02  0.84454990455E+02  0.47000000000E+01 0. -1.
         -5    1    1    2    0  502 -0.52613588517E+02 -0.12836553508E+01 -0.54243280408E+02  0.75724903018E+02  0.47000000000E+01 0. -1.
        -11    1    3    3    0    0 -0.45505541366E+02 -0.34709922504E+02 -0.27842413909E+02  0.63645369255E+02  0.00000000000E+00 0.  1.
         11    1    3    3    0    0  0.31287615130E+02  0.35284955801E+01 -0.13005270108E+02  0.34066144369E+02  0.00000000000E+00 0. -1.
<mgrwt>
<rscale>  0 0.11790742E+03</rscale>
<asrwt>0</asrwt>
<pdfrwt beam="1">  1        1 0.94557003E-02 0.12961132E+03</pdfrwt>
<pdfrwt beam="2">  1       -1 0.30219901E-01 0.12961132E+03</pdfrwt>
<totfact> 0.65994604E+03</totfact>
</mgrwt>
</event>
<event>
 7    1  0.1111284E-005  0.1436130E+03  0.7546771E-02  0.1216823E+00
          1   -1    0    0  501    0  0.00000000000E+00  0.00000000000E+00  0.26178803066E+02  0.26178803066E+02  0.00000000000E+00 0. -1.
         -1   -1    0    0    0  501 -0.00000000000E+00 -0.00000000000E+00 -0.69614397553E+03  0.69614397553E+03  0.00000000000E+00 0.  1.
         23    2    1    2    0    0  0.48599659312E+02 -0.51334860309E+02 -0.23187247708E+03  0.26129143298E+03  0.97525240588E+02 0.  0.
          5    1    1    2  502    0 -0.76591495635E+01 -0.13352155399E+02  0.18262637123E+00  0.16095526652E+02  0.47000000000E+01 0.  1.
         -5    1    1    2    0  502 -0.40940509748E+02  0.64687015707E+02 -0.43827532175E+03  0.44493581897E+03  0.47000000000E+01 0.  1.
        -11    1    3    3    0    0  0.76055451430E+02 -0.43015692995E+02 -0.13986562944E+03  0.16491566279E+03  0.00000000000E+00 0. -1.
         11    1    3    3    0    0 -0.27455792118E+02 -0.83191673139E+01 -0.92006847645E+02  0.96375770187E+02  0.00000000000E+00 0.  1.
<mgrwt>
<rscale>  0 0.13743509E+03</rscale>
<asrwt>0</asrwt>
<pdfrwt beam="1">  1        1 0.40275080E-02 0.14361299E+03</pdfrwt>
<pdfrwt beam="2">  1       -1 0.10709908E+00 0.14361299E+03</pdfrwt>
<totfact> 0.18930753E+03</totfact>
</mgrwt>
</event>
<event>
 7    1  0.1111284E-005  0.1373997E+03  0.7546771E-02  0.1227886E+00
          1   -1    0    0  501    0  0.00000000000E+00  0.00000000000E+00  0.21404861364E+03  0.21404861364E+03  0.00000000000E+00 0. -1.
         -1   -1    0    0    0  501 -0.00000000000E+00 -0.00000000000E+00 -0.10707908218E+03  0.10707908218E+03  0.00000000000E+00 0.  1.
         23    2    1    2    0    0  0.41413144638E+02 -0.39864548157E+02  0.14223285549E+03  0.17927506218E+03  0.92763850678E+02 0.  0.
          5    1    1    2  502    0  0.15281003154E+02 -0.34483508237E+02 -0.29400783170E+02  0.48053277191E+02  0.47000000000E+01 0. -1.
         -5    1    1    2    0  502 -0.56694147792E+02  0.74348056394E+02 -0.58625408525E+01  0.93799356440E+02  0.47000000000E+01 0.  1.
        -11    1    3    3    0    0 -0.40745172700E+01  0.27516125344E+02  0.34916279623E+02  0.44641745348E+02  0.00000000000E+00 0.  1.
         11    1    3    3    0    0  0.45487661908E+02 -0.67380673501E+02  0.10731657586E+03  0.13463331684E+03  0.00000000000E+00 0. -1.
<mgrwt>
<rscale>  0 0.12971056E+03</rscale>
<asrwt>0</asrwt>
<pdfrwt beam="1">  1        1 0.32930556E-01 0.13739966E+03</pdfrwt>
<pdfrwt beam="2">  1       -1 0.16473705E-01 0.13739966E+03</pdfrwt>
<totfact> 0.35863381E+03</totfact>
</mgrwt>
</event>
<event>
 7    1  0.1111284E-005  0.1378444E+03  0.7546771E-02  0.1228349E+00
         -2   -1    0    0    0  501 -0.00000000000E+00  0.00000000000E+00  0.14120194679E+03  0.14120194679E+03  0.00000000000E+00 0.  1.
          2   -1    0    0  501    0  0.00000000000E+00 -0.00000000000E+00 -0.10849672275E+03  0.10849672275E+03  0.00000000000E+00 0. -1.
         23    2    1    2    0    0  0.45482900481E+02  0.36164496096E+02  0.32443007348E+02  0.11185401835E+03  0.89901099440E+02 0.  0.
          5    1    1    2  502    0 -0.17091510393E+02  0.32227461835E+02  0.39446582383E+02  0.53933773144E+02  0.47000000000E+01 0.  1.
         -5    1    1    2    0  502 -0.28391390088E+02 -0.68391957931E+02 -0.39184365695E+02  0.83910878054E+02  0.47000000000E+01 0.  1.
        -11    1    3    3    0    0 -0.11764572333E+02  0.27722415800E+02  0.43532846632E+02  0.52934357802E+02  0.00000000000E+00 0.  1.
         11    1    3    3    0    0  0.57247472814E+02  0.84420802959E+01 -0.11089839285E+02  0.58919660545E+02  0.00000000000E+00 0. -1.
<mgrwt>
<rscale>  0 0.12939995E+03</rscale>
<asrwt>0</asrwt>
<pdfrwt beam="2">  1        2 0.16691804E-01 0.13784440E+03</pdfrwt>
<pdfrwt beam="1">  1       -2 0.21723376E-01 0.13784440E+03</pdfrwt>
<totfact> 0.59415552E+03</totfact>
</mgrwt>
</event>
<event>
 7    1  0.1111284E-005  0.1167600E+03  0.7546771E-02  0.1256662E+00
          1   -1    0    0  501    0  0.00000000000E+00  0.00000000000E+00  0.82803102943E+03  0.82803102943E+03  0.00000000000E+00 0. -1.
         -1   -1    0    0    0  501 -0.00000000000E+00 -0.00000000000E+00 -0.14528532427E+02  0.14528532427E+02  0.00000000000E+00 0.  1.
         23    2    1    2    0    0 -0.19593990917E+02 -0.41696662556E+01  0.44711328743E+03  0.45801573835E+03  0.97297554867E+02 0.  0.
          5    1    1    2  502    0  0.23680122822E+02  0.56993580120E+02  0.16430461691E+03  0.17557651760E+03  0.47000000000E+01 0. -1.
         -5    1    1    2    0  502 -0.40861319056E+01 -0.52823913865E+02  0.20208459265E+03  0.20896730591E+03  0.47000000000E+01 0.  1.
        -11    1    3    3    0    0 -0.29094339857E+02 -0.45954294475E+02  0.20248346713E+03  0.20966123212E+03  0.00000000000E+00 0.  1.
         11    1    3    3    0    0  0.95003489407E+01  0.41784628220E+02  0.24462982030E+03  0.24835450623E+03  0.00000000000E+00 0. -1.
<mgrwt>
<rscale>  0 0.11213725E+03</rscale>
<asrwt>0</asrwt>
<pdfrwt beam="1">  1        1 0.12738935E+00 0.11676001E+03</pdfrwt>
<pdfrwt beam="2">  1       -1 0.22351595E-02 0.11676001E+03</pdfrwt>
<totfact> 0.12052884E+04</totfact>
</mgrwt>
</event>
<event>
 7    1  0.1111284E-005  0.3216390E+03  0.7546771E-02  0.1076276E+00
          2   -1    0    0  501    0  0.00000000000E+00  0.00000000000E+00  0.13619713692E+04  0.13619713692E+04  0.00000000000E+00 0. -1.
         -2   -1    0    0    0  501 -0.00000000000E+00 -0.00000000000E+00 -0.73330348272E+02  0.73330348272E+02  0.00000000000E+00 0.  1.
         23    2    1    2    0    0 -0.29432748942E+03 -0.34662771231E+02  0.66359868520E+03  0.73235823108E+03  0.90306062316E+02 0.  0.
          5    1    1    2  502    0  0.18753915514E+03  0.76879357836E+02  0.44976956178E+03  0.49335192213E+03  0.47000000000E+01 0. -1.
         -5    1    1    2    0  502  0.10678833428E+03 -0.42216586604E+02  0.17527277396E+03  0.20959156427E+03  0.47000000000E+01 0. -1.
        -11    1    3    3    0    0 -0.26613179980E+03 -0.54831548394E+02  0.61783649860E+03  0.67494782951E+03  0.00000000000E+00 0. -1.
         11    1    3    3    0    0 -0.28195689617E+02  0.20168777163E+02  0.45762186605E+02  0.57410401567E+02  0.00000000000E+00 0.  1.
<mgrwt>
<rscale>  0 0.31864134E+03</rscale>
<asrwt>0</asrwt>
<pdfrwt beam="1">  1        2 0.20953404E+00 0.32163896E+03</pdfrwt>
<pdfrwt beam="2">  1       -2 0.11281593E-01 0.32163896E+03</pdfrwt>
<totfact> 0.88477373E+02</totfact>
</mgrwt>
</event>
<event>
 7    1  0.1111284E-005  0.1295381E+03  0.7546771E-02  0.1242036E+00
          2   -1    0    0  501    0  0.00000000000E+00  0.00000000000E+00  0.54920475730E+03  0.54920475730E+03  0.00000000000E+00 0.  1.
         -2   -1    0    0    0  501 -0.00000000000E+00 -0.00000000000E+00 -0.24021958969E+02  0.24021958969E+02  0.00000000000E+00 0. -1.
         23    2    1    2    0    0 -0.27133012600E+02  0.20468735989E+02  0.26988531893E+03  0.28694549933E+03  0.91348041513E+02 0.  0.
          5    1    1    2  502    0 -0.25799621915E+02 -0.46985397598E+02  0.53314648071E+02  0.75748199829E+02  0.47000000000E+01 0.  1.
         -5    1    1    2    0  502  0.52932634515E+02  0.26516661609E+02  0.20198283133E+03  0.21053301710E+03  0.47000000000E+01 0.  1.
        -11    1    3    3    0    0 -0.36654534582E+02  0.31861824031E+02  0.26754120970E+03  0.27191364369E+03  0.00000000000E+00 0.  1.
         11    1    3    3    0    0  0.95215219819E+01 -0.11393088041E+02  0.23441092257E+01  0.15031855642E+02  0.00000000000E+00 0. -1.
<mgrwt>
<rscale>  0 0.12064564E+03</rscale>
<asrwt>0</asrwt>
<pdfrwt beam="1">  1        2 0.84493030E-01 0.12953815E+03</pdfrwt>
<pdfrwt beam="2">  1       -2 0.36956864E-02 0.12953815E+03</pdfrwt>
<totfact> 0.16314210E+04</totfact>
</mgrwt>
</event>
<event>
 7    1  0.1111284E-005  0.1468882E+03  0.7546771E-02  0.1213975E+00
         -2   -1    0    0    0  501 -0.00000000000E+00  0.00000000000E+00  0.29830389496E+02  0.29830389496E+02  0.00000000000E+00 0. -1.
          2   -1    0    0  501    0  0.00000000000E+00 -0.00000000000E+00 -0.59613421410E+03  0.59613421410E+03  0.00000000000E+00 0.  1.
         23    2    1    2    0    0 -0.50649064499E+02  0.58179601041E+02 -0.24061723743E+03  0.26868614499E+03  0.91353138143E+02 0.  0.
          5    1    1    2  502    0  0.22153036972E+02 -0.62861815662E+02 -0.32071467773E+03  0.32760091487E+03  0.47000000000E+01 0.  1.
         -5    1    1    2    0  502  0.28496027527E+02  0.46822146210E+01 -0.49719094465E+01  0.29677543735E+02  0.47000000000E+01 0.  1.
        -11    1    3    3    0    0 -0.19428326777E+02  0.22879739480E+02 -0.76157944725E+01  0.30966799730E+02  0.00000000000E+00 0. -1.
         11    1    3    3    0    0 -0.31220737722E+02  0.35299861561E+02 -0.23300144296E+03  0.23771934526E+03  0.00000000000E+00 0.  1.
<mgrwt>
<rscale>  0 0.13952128E+03</rscale>
<asrwt>0</asrwt>
<pdfrwt beam="2">  1        2 0.91712950E-01 0.14688820E+03</pdfrwt>
<pdfrwt beam="1">  1       -2 0.45892910E-02 0.14688820E+03</pdfrwt>
<totfact> 0.10875704E+04</totfact>
</mgrwt>
</event>
<event>
 7    1  0.1111284E-005  0.3010364E+03  0.7546771E-02  0.1086320E+00
          1   -1    0    0  501    0  0.00000000000E+00  0.00000000000E+00  0.77267224477E+02  0.77267224477E+02  0.00000000000E+00 0. -1.
         -1   -1    0    0    0  501 -0.00000000000E+00 -0.00000000000E+00 -0.11850650720E+04  0.11850650720E+04  0.00000000000E+00 0.  1.
         23    2    1    2    0    0  0.24409439730E+03 -0.12415340402E+03 -0.40003843176E+03  0.49321183802E+03  0.90725011763E+02 0.  0.
          5    1    1    2  502    0 -0.86181895147E+02  0.11510176741E+02 -0.36511055098E+03  0.37534998022E+03  0.47000000000E+01 0. -1.
         -5    1    1    2    0  502 -0.15791250215E+03  0.11264322728E+03 -0.34264886479E+03  0.39377047824E+03  0.47000000000E+01 0. -1.
        -11    1    3    3    0    0  0.56802208764E+02 -0.53738649158E+02 -0.59570534989E+02  0.98300467815E+02  0.00000000000E+00 0.  1.
         11    1    3    3    0    0  0.18729218853E+03 -0.70414754864E+02 -0.34046789677E+03  0.39491137021E+03  0.00000000000E+00 0. -1.
<mgrwt>
<rscale>  0 0.29784983E+03</rscale>
<asrwt>0</asrwt>
<pdfrwt beam="1">  1        1 0.11887266E-01 0.30103636E+03</pdfrwt>
<pdfrwt beam="2">  1       -1 0.18231770E+00 0.30103636E+03</pdfrwt>
<totfact> 0.11185519E+02</totfact>
</mgrwt>
</event>
<event>
 7    1  0.1111284E-005  0.1291646E+03  0.7546771E-02  0.1243740E+00
          2   -1    0    0  501    0  0.00000000000E+00  0.00000000000E+00  0.24848948952E+03  0.24848948952E+03  0.00000000000E+00 0.  1.
         -2   -1    0    0    0  501 -0.00000000000E+00 -0.00000000000E+00 -0.68582692959E+02  0.68582692959E+02  0.00000000000E+00 0. -1.
         23    2    1    2    0    0  0.32379550336E+02  0.32249504757E+01  0.16044062010E+03  0.18644895616E+03  0.89236680174E+02 0.  0.
          5    1    1    2  502    0 -0.76916357905E+02 -0.22544900857E+02  0.14608358878E+02  0.81608166363E+02  0.47000000000E+01 0.  1.
         -5    1    1    2    0  502  0.44536807569E+02  0.19319950381E+02  0.48578175833E+01  0.49015059959E+02  0.47000000000E+01 0.  1.
        -11    1    3    3    0    0 -0.16897267242E+02 -0.27350855625E+02  0.31228704674E+02  0.44819849836E+02  0.00000000000E+00 0. -1.
         11    1    3    3    0    0  0.49276817578E+02  0.30575806101E+02  0.12921191543E+03  0.14162910632E+03  0.00000000000E+00 0.  1.
<mgrwt>
<rscale>  0 0.11961086E+03</rscale>
<asrwt>0</asrwt>
<pdfrwt beam="1">  1        2 0.38229152E-01 0.12916461E+03</pdfrwt>
<pdfrwt beam="2">  1       -2 0.10551184E-01 0.12916461E+03</pdfrwt>
<totfact> 0.77320704E+03</totfact>
</mgrwt>
</event>
<event>
 7    1  0.1111284E-005  0.1713656E+03  0.7546771E-02  0.1182716E+00
         -2   -1    0    0    0  501 -0.00000000000E+00  0.00000000000E+00  0.67437229204E+02  0.67437229204E+02  0.00000000000E+00 0.  1.
          2   -1    0    0  501    0  0.00000000000E+00 -0.00000000000E+00 -0.41150494175E+03  0.41150494175E+03  0.00000000000E+00 0. -1.
         23    2    1    2    0    0  0.25467391892E+02 -0.11442731134E+03 -0.22699342886E+03  0.27140285775E+03  0.91604021845E+02 0.  0.
          5    1    1    2  502    0  0.47747958079E+02  0.71313418821E+02 -0.52506053596E+02  0.10071964490E+03  0.47000000000E+01 0.  1.
         -5    1    1    2    0  502 -0.73215349971E+02  0.43113892519E+02 -0.64568230087E+02  0.10681966830E+03  0.47000000000E+01 0.  1.
        -11    1    3    3    0    0 -0.73175109790E+01 -0.90450121820E+02 -0.87287062089E+02  0.12591188074E+03  0.00000000000E+00 0. -1.
         11    1    3    3    0    0  0.32784902871E+02 -0.23977189520E+02 -0.13970636677E+03  0.14549097701E+03  0.00000000000E+00 0.  1.
<mgrwt>
<rscale>  0 0.16541468E+03</rscale>
<asrwt>0</asrwt>
<pdfrwt beam="2">  1        2 0.63308451E-01 0.17136563E+03</pdfrwt>
<pdfrwt beam="1">  1       -2 0.10374959E-01 0.17136563E+03</pdfrwt>
<totfact> 0.47167711E+03</totfact>
</mgrwt>
</event>
<event>
 7    1  0.1111284E-005  0.1321431E+03  0.7546771E-02  0.1233407E+00
         -1   -1    0    0    0  501 -0.00000000000E+00  0.00000000000E+00  0.15661647191E+04  0.15661647191E+04  0.00000000000E+00 0.  1.
          1   -1    0    0  501    0  0.00000000000E+00 -0.00000000000E+00 -0.10698420417E+02  0.10698420417E+02  0.00000000000E+00 0. -1.
         23    2    1    2    0    0  0.36970166813E+02 -0.41329371796E+02  0.43212662679E+03  0.44577790459E+03  0.94390722158E+02 0.  0.
          5    1    1    2  502    0 -0.51076271613E+02 -0.28521575886E+02  0.40991257602E+03  0.41409259326E+03  0.47000000000E+01 0. -1.
         -5    1    1    2    0  502  0.14106104800E+02  0.69850947682E+02  0.71342709584E+03  0.71699264164E+03  0.47000000000E+01 0.  1.
        -11    1    3    3    0    0  0.58731332906E+02 -0.41795371546E+02  0.40311249348E+03  0.40950690464E+03  0.00000000000E+00 0. -1.
         11    1    3    3    0    0 -0.21761166092E+02  0.46599975010E+00  0.29014133312E+02  0.36270999949E+02  0.00000000000E+00 0.  1.
<mgrwt>
<rscale>  0 0.12606974E+03</rscale>
<asrwt>0</asrwt>
<pdfrwt beam="2">  1        1 0.16459121E-02 0.13214307E+03</pdfrwt>
<pdfrwt beam="1">  1       -1 0.24094824E+00 0.13214307E+03</pdfrwt>
<totfact> 0.71202980E+02</totfact>
</mgrwt>
</event>
<event>
 7    1  0.1111284E-005  0.2292159E+03  0.7546771E-02  0.1127193E+00
         -1   -1    0    0    0  501 -0.00000000000E+00  0.00000000000E+00  0.66047313743E+02  0.66047313743E+02  0.00000000000E+00 0.  1.
          1   -1    0    0  501    0  0.00000000000E+00 -0.00000000000E+00 -0.19887228738E+03  0.19887228738E+03  0.00000000000E+00 0. -1.
         23    2    1    2    0    0 -0.14879173307E+02  0.25130041144E+02 -0.83353993117E+02  0.12734711189E+03  0.91741429962E+02 0.  0.
          5    1    1    2  502    0 -0.32518034529E+02  0.78109218609E+01 -0.68700331672E+02  0.76552326169E+02  0.47000000000E+01 0.  1.
         -5    1    1    2    0  502  0.47397207836E+02 -0.32940963005E+02  0.19229351156E+02  0.61020163063E+02  0.47000000000E+01 0.  1.
        -11    1    3    3    0    0  0.22153482276E+02 -0.19492411601E+02 -0.50936773909E+01  0.29944556038E+02  0.00000000000E+00 0.  1.
         11    1    3    3    0    0 -0.37032655583E+02  0.44622452745E+02 -0.78260315726E+02  0.97402555849E+02  0.00000000000E+00 0. -1.
<mgrwt>
<rscale>  0 0.22921588E+03</rscale>
<asrwt>0</asrwt>
<pdfrwt beam="2">  1        1 0.30595736E-01 0.22921588E+03</pdfrwt>
<pdfrwt beam="1">  1       -1 0.10161125E-01 0.22921588E+03</pdfrwt>
<totfact> 0.86080189E+03</totfact>
</mgrwt>
</event>
<event>
 7    1  0.1111284E-005  0.1266823E+03  0.7546771E-02  0.1248063E+00
         -1   -1    0    0    0  501 -0.00000000000E+00  0.00000000000E+00  0.42317460036E+03  0.42317460036E+03  0.00000000000E+00 0.  1.
          1   -1    0    0  501    0  0.00000000000E+00 -0.00000000000E+00 -0.29086490873E+02  0.29086490873E+02  0.00000000000E+00 0. -1.
         23    2    1    2    0    0  0.20271875245E+02 -0.34547865426E+01  0.13083348433E+03  0.16011148177E+03  0.89974449130E+02 0.  0.
          5    1    1    2  502    0 -0.12430429090E+02 -0.32846489736E+02  0.10954905580E+02  0.37087833741E+02  0.47000000000E+01 0.  1.
         -5    1    1    2    0  502 -0.78414461552E+01  0.36301276278E+02  0.25229971957E+03  0.25506177572E+03  0.47000000000E+01 0.  1.
        -11    1    3    3    0    0 -0.21110694603E+02 -0.34466506183E+02  0.52695882340E+02  0.66411275327E+02  0.00000000000E+00 0. -1.
         11    1    3    3    0    0  0.41382569848E+02  0.31011719640E+02  0.78137601994E+02  0.93700206444E+02  0.00000000000E+00 0.  1.
<mgrwt>
<rscale>  0 0.11703908E+03</rscale>
<asrwt>0</asrwt>
<pdfrwt beam="2">  1        1 0.44748451E-02 0.12668227E+03</pdfrwt>
<pdfrwt beam="1">  1       -1 0.65103780E-01 0.12668227E+03</pdfrwt>
<totfact> 0.45804126E+03</totfact>
</mgrwt>
</event>
<event>
 7    1  0.1111284E-005  0.1421592E+03  0.7546771E-02  0.1219883E+00
          1   -1    0    0  501    0  0.00000000000E+00  0.00000000000E+00  0.95467512352E+02  0.95467512352E+02  0.00000000000E+00 0. -1.
         -1   -1    0    0    0  501 -0.00000000000E+00 -0.00000000000E+00 -0.19001600940E+03  0.19001600940E+03  0.00000000000E+00 0.  1.
         23    2    1    2    0    0 -0.67286589925E+02 -0.76579643159E+01 -0.31494795635E+01  0.11647758510E+03  0.94715252245E+02 0.  0.
          5    1    1    2  502    0 -0.18302629375E+02 -0.39516962827E+02 -0.21747004442E+02  0.48903975251E+02  0.47000000000E+01 0. -1.
         -5    1    1    2    0  502  0.85589219300E+02  0.47174927143E+02 -0.69652013039E+02  0.12010196140E+03  0.47000000000E+01 0. -1.
        -11    1    3    3    0    0 -0.51866405107E+02 -0.29021473654E+01 -0.46812391182E+02  0.69928151743E+02  0.00000000000E+00 0.  1.
         11    1    3    3    0    0 -0.15420184818E+02 -0.47558169505E+01  0.43662911619E+02  0.46549433356E+02  0.00000000000E+00 0. -1.
<mgrwt>
<rscale>  0 0.13523902E+03</rscale>
<asrwt>0</asrwt>
<pdfrwt beam="1">  1        1 0.14687310E-01 0.14215916E+03</pdfrwt>
<pdfrwt beam="2">  1       -1 0.29233232E-01 0.14215916E+03</pdfrwt>
<totfact> 0.39367780E+03</totfact>
</mgrwt>
</event>
<event>
 7    1  0.1111284E-005  0.1571312E+03  0.7546771E-02  0.1200137E+00
          4   -1    0    0  501    0  0.00000000000E+00  0.00000000000E+00  0.82265371738E+02  0.82265371738E+02  0.00000000000E+00 0. -1.
         -4   -1    0    0    0  501 -0.00000000000E+00 -0.00000000000E+00 -0.33572430768E+03  0.33572430768E+03  0.00000000000E+00 0.  1.
         23    2    1    2    0    0  0.71522266945E+02 -0.62844703845E+02 -0.14839709297E+02  0.13228116756E+03  0.90626700530E+02 0.  0.
          5    1    1    2  502    0 -0.91055120308E+02  0.86751482179E+02 -0.19403654401E+03  0.23127716058E+03  0.47000000000E+01 0. -1.
         -5    1    1    2    0  502  0.19532853363E+02 -0.23906778334E+02 -0.44582682636E+02  0.54431351277E+02  0.47000000000E+01 0. -1.
        -11    1    3    3    0    0  0.73778352062E+02 -0.37119746028E+02  0.23669601095E+02  0.85914904378E+02  0.00000000000E+00 0.  1.
         11    1    3    3    0    0 -0.22560851174E+01 -0.25724957817E+02 -0.38509310392E+02  0.46366263183E+02  0.00000000000E+00 0. -1.
<mgrwt>
<rscale>  0 0.15027399E+03</rscale>
<asrwt>0</asrwt>
<pdfrwt beam="1">  1        4 0.12656211E-01 0.15713121E+03</pdfrwt>
<pdfrwt beam="2">  1       -4 0.51649892E-01 0.15713121E+03</pdfrwt>
<totfact> 0.31435858E+02</totfact>
</mgrwt>
</event>
<event>
 7    1  0.1111284E-005  0.1531643E+03  0.7546771E-02  0.1204849E+00
         -1   -1    0    0    0  501 -0.00000000000E+00  0.00000000000E+00  0.67781136972E+02  0.67781136972E+02  0.00000000000E+00 0.  1.
          1   -1    0    0  501    0  0.00000000000E+00 -0.00000000000E+00 -0.35481918147E+03  0.35481918147E+03  0.00000000000E+00 0. -1.
         23    2    1    2    0    0  0.76112653619E+02  0.45177071457E+02 -0.22169209606E+03  0.25607887210E+03  0.92708680578E+02 0.  0.
          5    1    1    2  502    0 -0.23876512673E+02 -0.84244214574E+02 -0.34805924167E+02  0.94343616126E+02  0.47000000000E+01 0. -1.
         -5    1    1    2    0  502 -0.52236140947E+02  0.39067143116E+02 -0.30540024273E+02  0.72177830217E+02  0.47000000000E+01 0. -1.
        -11    1    3    3    0    0  0.17059500336E+02  0.25616945090E+02 -0.56923140349E+01  0.31299470707E+02  0.00000000000E+00 0.  1.
         11    1    3    3    0    0  0.59053153283E+02  0.19560126367E+02 -0.21599978202E+03  0.22477940139E+03  0.00000000000E+00 0. -1.
<mgrwt>
<rscale>  0 0.14649390E+03</rscale>
<asrwt>0</asrwt>
<pdfrwt beam="2">  1        1 0.54587566E-01 0.15316429E+03</pdfrwt>
<pdfrwt beam="1">  1       -1 0.10427867E-01 0.15316429E+03</pdfrwt>
<totfact> 0.39205397E+03</totfact>
</mgrwt>
</event>
<event>
 7    1  0.1111284E-005  0.1404121E+03  0.7546771E-02  0.1223326E+00
         -1   -1    0    0    0  501 -0.00000000000E+00  0.00000000000E+00  0.51908100818E+03  0.51908100818E+03  0.00000000000E+00 0.  1.
          1   -1    0    0  501    0  0.00000000000E+00 -0.00000000000E+00 -0.32139901156E+02  0.32139901156E+02  0.00000000000E+00 0. -1.
         23    2    1    2    0    0  0.42145778362E+02  0.48066333663E+02  0.16149698366E+03  0.19677848800E+03  0.92487072291E+02 0.  0.
          5    1    1    2  502    0 -0.68305785021E+01 -0.32564080615E+01 -0.10434794035E+02  0.13719909718E+02  0.47000000000E+01 0.  1.
         -5    1    1    2    0  502 -0.35315199860E+02 -0.44809925602E+02  0.33587891739E+03  0.34072251162E+03  0.47000000000E+01 0.  1.
        -11    1    3    3    0    0  0.16339608099E+02  0.72744841456E+02  0.12614833002E+03  0.14653394118E+03  0.00000000000E+00 0.  1.
         11    1    3    3    0    0  0.25806170263E+02 -0.24678507793E+02  0.35348653648E+02  0.50244546821E+02  0.00000000000E+00 0. -1.
<mgrwt>
<rscale>  0 0.13282318E+03</rscale>
<asrwt>0</asrwt>
<pdfrwt beam="2">  1        1 0.49446006E-02 0.14041208E+03</pdfrwt>
<pdfrwt beam="1">  1       -1 0.79858611E-01 0.14041208E+03</pdfrwt>
<totfact> 0.26784451E+03</totfact>
</mgrwt>
</event>
<event>
 7    1  0.1111284E-005  0.3420198E+03  0.7546771E-02  0.1067045E+00
          2   -1    0    0  501    0  0.00000000000E+00  0.00000000000E+00  0.25218936511E+04  0.25218936511E+04  0.00000000000E+00 0. -1.
         -2   -1    0    0    0  501 -0.00000000000E+00 -0.00000000000E+00 -0.45185271317E+02  0.45185271317E+02  0.00000000000E+00 0.  1.
         23    2    1    2    0    0  0.15767351699E+02 -0.31796586570E+03  0.11370578415E+04  0.11844578118E+04  0.93214118692E+02 0.  0.
          5    1    1    2  502    0  0.21728331213E+02  0.12258532209E+03  0.31341299169E+03  0.33726706766E+03  0.47000000000E+01 0. -1.
         -5    1    1    2    0  502 -0.37495682912E+02  0.19538054361E+03  0.10262375467E+04  0.10453540430E+04  0.47000000000E+01 0. -1.
        -11    1    3    3    0    0 -0.14607525591E+02 -0.19152223950E+03  0.53280384285E+03  0.56636921084E+03  0.00000000000E+00 0.  1.
         11    1    3    3    0    0  0.30374877290E+02 -0.12644362620E+03  0.60425399861E+03  0.61808860094E+03  0.00000000000E+00 0. -1.
<mgrwt>
<rscale>  0 0.33941590E+03</rscale>
<asrwt>0</asrwt>
<pdfrwt beam="1">  1        2 0.38798353E+00 0.34201984E+03</pdfrwt>
<pdfrwt beam="2">  1       -2 0.69515822E-02 0.34201984E+03</pdfrwt>
<totfact> 0.45352906E+02</totfact>
</mgrwt>
</event>
<event>
 7    1  0.1111284E-005  0.1773301E+03  0.7546771E-02  0.1176787E+00
          1   -1    0    0  501    0  0.00000000000E+00  0.00000000000E+00  0.23807908083E+03  0.23807908083E+03  0.00000000000E+00 0. -1.
         -1   -1    0    0    0  501 -0.00000000000E+00 -0.00000000000E+00 -0.11954511842E+03  0.11954511842E+03  0.00000000000E+00 0.  1.
         23    2    1    2    0    0  0.12575815545E+03 -0.25123750358E+01  0.19865876817E+02  0.15469225831E+03  0.87827194132E+02 0.  0.
          5    1    1    2  502    0 -0.11459200844E+03  0.49752017730E+02  0.88352643919E+02  0.15308452356E+03  0.47000000000E+01 0. -1.
         -5    1    1    2    0  502 -0.11166147011E+02 -0.47239642694E+02  0.10315441674E+02  0.49847417364E+02  0.47000000000E+01 0. -1.
        -11    1    3    3    0    0  0.60763238159E+02 -0.14961650664E+02 -0.32304455763E+02  0.70424427326E+02  0.00000000000E+00 0.  1.
         11    1    3    3    0    0  0.64994917295E+02  0.12449275628E+02  0.52170332580E+02  0.84267830988E+02  0.00000000000E+00 0. -1.
<mgrwt>
<rscale>  0 0.17102173E+03</rscale>
<asrwt>0</asrwt>
<pdfrwt beam="1">  1        1 0.36627551E-01 0.17733015E+03</pdfrwt>
<pdfrwt beam="2">  1       -1 0.18391557E-01 0.17733015E+03</pdfrwt>
<totfact> 0.26667061E+03</totfact>
</mgrwt>
</event>
<event>
 7    1  0.1111284E-005  0.1388240E+03  0.7546771E-02  0.1226036E+00
          3   -1    0    0  501    0  0.00000000000E+00  0.00000000000E+00  0.53431945533E+02  0.53431945533E+02  0.00000000000E+00 0. -1.
         -3   -1    0    0    0  501 -0.00000000000E+00 -0.00000000000E+00 -0.61879663362E+03  0.61879663362E+03  0.00000000000E+00 0.  1.
         23    2    1    2    0    0 -0.59534869852E+02 -0.12239880703E+02 -0.22931554295E+02  0.11231268824E+03  0.91619148382E+02 0.  0.
          5    1    1    2  502    0 -0.48286945003E+01  0.27673757065E+02 -0.41736313955E+03  0.41833387788E+03  0.47000000000E+01 0.  1.
         -5    1    1    2    0  502  0.64363564353E+02 -0.15433876361E+02 -0.12506999424E+03  0.14158201303E+03  0.47000000000E+01 0.  1.
        -11    1    3    3    0    0 -0.29072473747E+02 -0.23494215272E+02 -0.55113181725E+02  0.66593165422E+02  0.00000000000E+00 0.  1.
         11    1    3    3    0    0 -0.30462396105E+02  0.11254334569E+02  0.32181627430E+02  0.45719522822E+02  0.00000000000E+00 0. -1.
<mgrwt>
<rscale>  0 0.13096160E+03</rscale>
<asrwt>0</asrwt>
<pdfrwt beam="1">  1        3 0.82202992E-02 0.13882399E+03</pdfrwt>
<pdfrwt beam="2">  1       -3 0.95199483E-01 0.13882399E+03</pdfrwt>
<totfact> 0.24171254E+02</totfact>
</mgrwt>
</event>
<event>
 7    1  0.1111284E-005  0.1394103E+03  0.7546771E-02  0.1224983E+00
         -3   -1    0    0    0  501 -0.00000000000E+00  0.00000000000E+00  0.55799958246E+02  0.55799958246E+02  0.00000000000E+00 0.  1.
          3   -1    0    0  501    0  0.00000000000E+00 -0.00000000000E+00 -0.28451815315E+03  0.28451815315E+03  0.00000000000E+00 0. -1.
         23    2    1    2    0    0  0.49400825799E+02 -0.36999985331E+02 -0.12067497766E+03  0.16394191896E+03  0.92222893334E+02 0.  0.
          5    1    1    2  502    0 -0.38631817508E+02  0.70944549855E+02 -0.23100007245E+02  0.84150144461E+02  0.47000000000E+01 0. -1.
         -5    1    1    2    0  502 -0.10769008291E+02 -0.33944564524E+02 -0.84943210005E+02  0.92226047981E+02  0.47000000000E+01 0. -1.
        -11    1    3    3    0    0  0.65506819812E+01 -0.24059294190E+02 -0.11632726496E+03  0.11896971734E+03  0.00000000000E+00 0. -1.
         11    1    3    3    0    0  0.42850143817E+02 -0.12940691141E+02 -0.43477126966E+01  0.44972201615E+02  0.00000000000E+00 0.  1.
<mgrwt>
<rscale>  0 0.13168102E+03</rscale>
<asrwt>0</asrwt>
<pdfrwt beam="2">  1        3 0.43772023E-01 0.13941027E+03</pdfrwt>
<pdfrwt beam="1">  1       -3 0.85846090E-02 0.13941027E+03</pdfrwt>
<totfact> 0.11448230E+03</totfact>
</mgrwt>
</event>
<event>
 7    1  0.1111284E-005  0.1507731E+03  0.7546771E-02  0.1208539E+00
         -1   -1    0    0    0  501 -0.00000000000E+00  0.00000000000E+00  0.10984336655E+03  0.10984336655E+03  0.00000000000E+00 0.  1.
          1   -1    0    0  501    0  0.00000000000E+00 -0.00000000000E+00 -0.17200539978E+03  0.17200539978E+03  0.00000000000E+00 0. -1.
         23    2    1    2    0    0  0.44480401284E+02  0.71623630929E+02 -0.27834915883E+02  0.12721733735E+03  0.91109921388E+02 0.  0.
          5    1    1    2  502    0 -0.83016385299E+02 -0.18896133317E+02 -0.20844901431E+02  0.87780316689E+02  0.47000000000E+01 0. -1.
         -5    1    1    2    0  502  0.38535984015E+02 -0.52727497612E+02 -0.13482215917E+02  0.66851112290E+02  0.47000000000E+01 0. -1.
        -11    1    3    3    0    0  0.13193403325E+02 -0.42800100555E+01  0.25701379113E+02  0.29205226684E+02  0.00000000000E+00 0.  1.
         11    1    3    3    0    0  0.31286997959E+02  0.75903640985E+02 -0.53536294996E+02  0.98012110670E+02  0.00000000000E+00 0. -1.
<mgrwt>
<rscale>  0 0.14362047E+03</rscale>
<asrwt>0</asrwt>
<pdfrwt beam="2">  1        1 0.26462369E-01 0.15077310E+03</pdfrwt>
<pdfrwt beam="1">  1       -1 0.16898980E-01 0.15077310E+03</pdfrwt>
<totfact> 0.45470430E+03</totfact>
</mgrwt>
</event>
<event>
 7    1  0.1111284E-005  0.1684716E+03  0.7546771E-02  0.1185669E+00
          2   -1    0    0  501    0  0.00000000000E+00  0.00000000000E+00  0.36875534556E+03  0.36875534556E+03  0.00000000000E+00 0. -1.
         -2   -1    0    0    0  501 -0.00000000000E+00 -0.00000000000E+00 -0.98211162745E+02  0.98211162745E+02  0.00000000000E+00 0.  1.
         23    2    1    2    0    0 -0.97903415745E+02 -0.56333681464E+02  0.25961624606E+03  0.29814087808E+03  0.93428183557E+02 0.  0.
          5    1    1    2  502    0  0.64931395515E+02  0.71782113488E+02  0.55030543027E+02  0.11144150307E+03  0.47000000000E+01 0. -1.
         -5    1    1    2    0  502  0.32972020230E+02 -0.15448432024E+02 -0.44102606268E+02  0.57384127158E+02  0.47000000000E+01 0. -1.
        -11    1    3    3    0    0 -0.73007554565E+02  0.88837357370E+01  0.10192501886E+03  0.12568903394E+03  0.00000000000E+00 0.  1.
         11    1    3    3    0    0 -0.24895861180E+02 -0.65217417201E+02  0.15769122720E+03  0.17245184414E+03  0.00000000000E+00 0. -1.
<mgrwt>
<rscale>  0 0.16271139E+03</rscale>
<asrwt>0</asrwt>
<pdfrwt beam="1">  1        2 0.56731591E-01 0.16847158E+03</pdfrwt>
<pdfrwt beam="2">  1       -2 0.15109410E-01 0.16847158E+03</pdfrwt>
<totfact> 0.28925228E+03</totfact>
</mgrwt>
</event>
<event>
 7    1  0.1111284E-005  0.2293721E+03  0.7546771E-02  0.1127082E+00
          3   -1    0    0  501    0  0.00000000000E+00  0.00000000000E+00  0.69354382626E+02  0.69354382626E+02  0.00000000000E+00 0. -1.
         -3   -1    0    0    0  501 -0.00000000000E+00 -0.00000000000E+00 -0.18964754183E+03  0.18964754183E+03  0.00000000000E+00 0.  1.
         23    2    1    2    0    0 -0.91459768941E+01 -0.36778384607E+02 -0.36716404614E+02  0.10393332043E+03  0.89541846419E+02 0.  0.
          5    1    1    2  502    0  0.11400345401E+02  0.82736262737E+02 -0.61454069335E+02  0.10379763815E+03  0.47000000000E+01 0. -1.
         -5    1    1    2    0  502 -0.22543685072E+01 -0.45957878130E+02 -0.22122685260E+02  0.51270965884E+02  0.47000000000E+01 0. -1.
        -11    1    3    3    0    0 -0.25819430689E+02 -0.42457531221E+02 -0.57954508619E+02  0.76341404413E+02  0.00000000000E+00 0.  1.
         11    1    3    3    0    0  0.16673453795E+02  0.56791466145E+01  0.21238104005E+02  0.27591916016E+02  0.00000000000E+00 0. -1.
<mgrwt>
<rscale>  0 0.22937208E+03</rscale>
<asrwt>0</asrwt>
<pdfrwt beam="1">  1        3 0.10669905E-01 0.22937208E+03</pdfrwt>
<pdfrwt beam="2">  1       -3 0.29176545E-01 0.22937208E+03</pdfrwt>
<totfact> 0.18642719E+03</totfact>
</mgrwt>
</event>
<event>
 7    1  0.1491787E-005  0.2118525E+03  0.7546771E-02  0.1143871E+00
          1   -1    0    0  501    0  0.00000000000E+00  0.00000000000E+00  0.84330369200E+02  0.84330369200E+02  0.00000000000E+00 0. -1.
         -1   -1    0    0    0  501 -0.00000000000E+00 -0.00000000000E+00 -0.48726971650E+03  0.48726971650E+03  0.00000000000E+00 0.  1.
         23    2    1    2    0    0  0.17063396684E+03 -0.11853181342E+02 -0.19639096749E+03  0.27572222179E+03  0.90536638590E+02 0.  0.
          5    1    1    2  502    0 -0.10660387441E+02  0.29657025790E+02 -0.94429641222E+02  0.99660574854E+02  0.47000000000E+01 0. -1.
         -5    1    1    2    0  502 -0.15997357940E+03 -0.17803844449E+02 -0.11211873859E+03  0.19621728906E+03  0.47000000000E+01 0. -1.
        -11    1    3    3    0    0  0.69356878882E+02  0.39548559445E+02 -0.76434333062E+02  0.11052905714E+03  0.00000000000E+00 0.  1.
         11    1    3    3    0    0  0.10127708796E+03 -0.51401740786E+02 -0.11995663443E+03  0.16519316464E+03  0.00000000000E+00 0. -1.
<mgrwt>
<rscale>  0 0.20711497E+03</rscale>
<asrwt>0</asrwt>
<pdfrwt beam="1">  1        1 0.12973903E-01 0.21185249E+03</pdfrwt>
<pdfrwt beam="2">  1       -1 0.74964572E-01 0.21185249E+03</pdfrwt>
<totfact> 0.84093402E+02</totfact>
</mgrwt>
</event>
<event>
 7    1  0.1111284E-005  0.1776726E+03  0.7546771E-02  0.1176027E+00
          1   -1    0    0  501    0  0.00000000000E+00  0.00000000000E+00  0.50536243733E+02  0.50536243733E+02  0.00000000000E+00 0.  1.
         -1   -1    0    0    0  501 -0.00000000000E+00 -0.00000000000E+00 -0.58655522103E+03  0.58655522103E+03  0.00000000000E+00 0. -1.
         23    2    1    2    0    0  0.10747763340E+03 -0.66263673581E+02 -0.16963296722E+03  0.22989830103E+03  0.90197389804E+02 0.  0.
          5    1    1    2  502    0 -0.88354673932E+02  0.92242922555E+01 -0.99060379042E+02  0.13314159631E+03  0.47000000000E+01 0.  1.
         -5    1    1    2    0  502 -0.19122959469E+02  0.57039381326E+02 -0.26732563104E+03  0.27405156743E+03  0.47000000000E+01 0.  1.
        -11    1    3    3    0    0  0.76932219699E+02 -0.25473561392E+02 -0.15808532677E+03  0.17764695128E+03  0.00000000000E+00 0. -1.
         11    1    3    3    0    0  0.30545413702E+02 -0.40790112189E+02 -0.11547640455E+02  0.52251349750E+02  0.00000000000E+00 0.  1.
<mgrwt>
<rscale>  0 0.17175828E+03</rscale>
<asrwt>0</asrwt>
<pdfrwt beam="1">  1        1 0.77748068E-02 0.17767263E+03</pdfrwt>
<pdfrwt beam="2">  1       -1 0.90239264E-01 0.17767263E+03</pdfrwt>
<totfact> 0.11304445E+03</totfact>
</mgrwt>
</event>
<event>
 7    1  0.1111284E-005  0.1593032E+03  0.7546771E-02  0.1197424E+00
         -2   -1    0    0    0  501 -0.00000000000E+00  0.00000000000E+00  0.26202597777E+03  0.26202597777E+03  0.00000000000E+00 0. -1.
          2   -1    0    0  501    0  0.00000000000E+00 -0.00000000000E+00 -0.16024280850E+03  0.16024280850E+03  0.00000000000E+00 0.  1.
         23    2    1    2    0    0 -0.52737577322E+02 -0.83481520269E+02 -0.98644547088E+02  0.16624380828E+03  0.90309694014E+02 0.  0.
          5    1    1    2  502    0  0.48560534503E+02 -0.16311951800E+02  0.10902885718E+03  0.12055532747E+03  0.47000000000E+01 0. -1.
         -5    1    1    2    0  502  0.41770428189E+01  0.99793472069E+02  0.91398859177E+02  0.13546965052E+03  0.47000000000E+01 0. -1.
        -11    1    3    3    0    0 -0.72375544768E+02 -0.52589623016E+02 -0.42076871689E+02  0.98865317785E+02  0.00000000000E+00 0.  1.
         11    1    3    3    0    0  0.19637967447E+02 -0.30891897252E+02 -0.56567675399E+02  0.67378490494E+02  0.00000000000E+00 0. -1.
<mgrwt>
<rscale>  0 0.15250850E+03</rscale>
<asrwt>0</asrwt>
<pdfrwt beam="2">  1        2 0.24652740E-01 0.15930323E+03</pdfrwt>
<pdfrwt beam="1">  1       -2 0.40311689E-01 0.15930323E+03</pdfrwt>
<totfact> 0.12644293E+03</totfact>
</mgrwt>
</event>
<event>
 7    1  0.1111284E-005  0.1627106E+03  0.7546771E-02  0.1193106E+00
         -1   -1    0    0    0  501 -0.00000000000E+00  0.00000000000E+00  0.59153033152E+03  0.59153033152E+03  0.00000000000E+00 0.  1.
          1   -1    0    0  501    0  0.00000000000E+00 -0.00000000000E+00 -0.40745501240E+02  0.40745501240E+02  0.00000000000E+00 0. -1.
         23    2    1    2    0    0  0.16559075067E+02 -0.10283994340E+03  0.17583286969E+03  0.22354155001E+03  0.90572454914E+02 0.  0.
          5    1    1    2  502    0 -0.42971651130E+02  0.11397621907E+03  0.22406792566E+03  0.25507972601E+03  0.47000000000E+01 0.  1.
         -5    1    1    2    0  502  0.26412576064E+02 -0.11136275665E+02  0.15088403493E+03  0.15365455674E+03  0.47000000000E+01 0.  1.
        -11    1    3    3    0    0 -0.68247511252E-01 -0.75651554190E+02  0.43165735747E+02  0.87100189734E+02  0.00000000000E+00 0. -1.
         11    1    3    3    0    0  0.16627322578E+02 -0.27188389214E+02  0.13266713394E+03  0.13644136027E+03  0.00000000000E+00 0.  1.
<mgrwt>
<rscale>  0 0.15615615E+03</rscale>
<asrwt>0</asrwt>
<pdfrwt beam="2">  1        1 0.62685391E-02 0.16271061E+03</pdfrwt>
<pdfrwt beam="1">  1       -1 0.91004660E-01 0.16271061E+03</pdfrwt>
<totfact> 0.14834634E+03</totfact>
</mgrwt>
</event>
<event>
 7    1  0.1111284E-005  0.2261330E+03  0.7546771E-02  0.1132628E+00
          1   -1    0    0  501    0  0.00000000000E+00  0.00000000000E+00  0.58813572037E+03  0.58813572037E+03  0.00000000000E+00 0. -1.
         -1   -1    0    0    0  501 -0.00000000000E+00 -0.00000000000E+00 -0.88993933524E+02  0.88993933524E+02  0.00000000000E+00 0.  1.
         23    2    1    2    0    0 -0.13256108063E+03  0.13393539570E+03  0.34550931478E+03  0.40374518335E+03  0.90124115277E+02 0.  0.
          5    1    1    2  502    0  0.22127153786E+02 -0.73492119061E+02  0.29162369265E+01  0.76949963850E+02  0.47000000000E+01 0. -1.
         -5    1    1    2    0  502  0.11043392684E+03 -0.60443276637E+02  0.15071623513E+03  0.19643450669E+03  0.47000000000E+01 0. -1.
        -11    1    3    3    0    0 -0.33279712076E+02 -0.91755896140E+01  0.63729126757E+02  0.72478495279E+02  0.00000000000E+00 0.  1.
         11    1    3    3    0    0 -0.99281368551E+02  0.14311098531E+03  0.28178018803E+03  0.33126668807E+03  0.00000000000E+00 0. -1.
<mgrwt>
<rscale>  0 0.22169222E+03</rscale>
<asrwt>0</asrwt>
<pdfrwt beam="1">  1        1 0.90482416E-01 0.22613300E+03</pdfrwt>
<pdfrwt beam="2">  1       -1 0.13691375E-01 0.22613300E+03</pdfrwt>
<totfact> 0.13432137E+03</totfact>
</mgrwt>
</event>
<event>
 7    1  0.1111284E-005  0.1822602E+03  0.7546771E-02  0.1170876E+00
          4   -1    0    0  501    0  0.00000000000E+00  0.00000000000E+00  0.31600962931E+02  0.31600962931E+02  0.00000000000E+00 0. -1.
         -4   -1    0    0    0  501 -0.00000000000E+00 -0.00000000000E+00 -0.94492367470E+03  0.94492367470E+03  0.00000000000E+00 0.  1.
         23    2    1    2    0    0 -0.56782932470E+02  0.11987366730E+03 -0.47835379431E+03  0.50491384865E+03  0.92312753690E+02 0.  0.
          5    1    1    2  502    0  0.81060981834E+02 -0.39317970919E+02 -0.29239870225E+03  0.30599979851E+03  0.47000000000E+01 0. -1.
         -5    1    1    2    0  502 -0.24278049365E+02 -0.80555696379E+02 -0.14257021522E+03  0.16561099048E+03  0.47000000000E+01 0. -1.
        -11    1    3    3    0    0  0.20546445541E+01 -0.13629393508E+02 -0.68364789959E+02  0.69740421836E+02  0.00000000000E+00 0.  1.
         11    1    3    3    0    0 -0.58837577024E+02  0.13350306081E+03 -0.40998900435E+03  0.43517342681E+03  0.00000000000E+00 0. -1.
<mgrwt>
<rscale>  0 0.17686075E+03</rscale>
<asrwt>0</asrwt>
<pdfrwt beam="1">  1        4 0.48616865E-02 0.18226019E+03</pdfrwt>
<pdfrwt beam="2">  1       -4 0.14537287E+00 0.18226019E+03</pdfrwt>
<totfact> 0.15110798E+02</totfact>
</mgrwt>
</event>
<event>
 7    1  0.1111284E-005  0.1319309E+03  0.7546771E-02  0.1238978E+00
         -2   -1    0    0    0  501 -0.00000000000E+00  0.00000000000E+00  0.56099075251E+02  0.56099075251E+02  0.00000000000E+00 0. -1.
          2   -1    0    0  501    0  0.00000000000E+00 -0.00000000000E+00 -0.25503517261E+03  0.25503517261E+03  0.00000000000E+00 0.  1.
         23    2    1    2    0    0 -0.42096604292E+02 -0.30760846616E+01 -0.12810776972E+03  0.16139309234E+03  0.88625860797E+02 0.  0.
          5    1    1    2  502    0  0.57463439733E+02  0.37948127930E+02 -0.84387941382E+02  0.10902074101E+03  0.47000000000E+01 0. -1.
         -5    1    1    2    0  502 -0.15366835441E+02 -0.34872043268E+02  0.13559613745E+02  0.40720414512E+02  0.47000000000E+01 0. -1.
        -11    1    3    3    0    0 -0.60284807400E+02  0.19618995406E+02 -0.59795986561E+02  0.87147707903E+02  0.00000000000E+00 0. -1.
         11    1    3    3    0    0  0.18188203108E+02 -0.22695080068E+02 -0.68311783155E+02  0.74245384432E+02  0.00000000000E+00 0.  1.
<mgrwt>
<rscale>  0 0.12253149E+03</rscale>
<asrwt>0</asrwt>
<pdfrwt beam="2">  1        2 0.39236181E-01 0.13193090E+03</pdfrwt>
<pdfrwt beam="1">  1       -2 0.86306268E-02 0.13193090E+03</pdfrwt>
<totfact> 0.10314265E+04</totfact>
</mgrwt>
</event>
<event>
 7    1  0.1111284E-005  0.1567931E+03  0.7546771E-02  0.1200921E+00
          3   -1    0    0  501    0  0.00000000000E+00  0.00000000000E+00  0.11287678435E+04  0.11287678435E+04  0.00000000000E+00 0. -1.
         -3   -1    0    0    0  501 -0.00000000000E+00 -0.00000000000E+00 -0.19867625649E+02  0.19867625649E+02  0.00000000000E+00 0.  1.
         23    2    1    2    0    0 -0.84543221294E+02 -0.42559785914E+02  0.67153603572E+03  0.68401573924E+03  0.89207581593E+02 0.  0.
          5    1    1    2  502    0 -0.18650663712E+02  0.48921665227E+02  0.12680730952E+03  0.13727111981E+03  0.47000000000E+01 0.  1.
         -5    1    1    2    0  502  0.10319388501E+03 -0.63618793129E+01  0.31055687266E+03  0.32734861015E+03  0.47000000000E+01 0.  1.
        -11    1    3    3    0    0 -0.91928310719E+02 -0.54544861604E+02  0.64663843742E+03  0.65541378151E+03  0.00000000000E+00 0.  1.
         11    1    3    3    0    0  0.73850894250E+01  0.11985075690E+02  0.24897598300E+02  0.28601957734E+02  0.00000000000E+00 0. -1.
<mgrwt>
<rscale>  0 0.14963569E+03</rscale>
<asrwt>0</asrwt>
<pdfrwt beam="1">  1        3 0.17365654E+00 0.15679307E+03</pdfrwt>
<pdfrwt beam="2">  1       -3 0.30565587E-02 0.15679307E+03</pdfrwt>
<totfact> 0.27810421E+02</totfact>
</mgrwt>
</event>
<event>
 7    1  0.1111284E-005  0.1338700E+03  0.7546771E-02  0.1234237E+00
          4   -1    0    0  501    0  0.00000000000E+00  0.00000000000E+00  0.32344034315E+03  0.32344034315E+03  0.00000000000E+00 0. -1.
         -4   -1    0    0    0  501 -0.00000000000E+00 -0.00000000000E+00 -0.43628174775E+02  0.43628174775E+02  0.00000000000E+00 0.  1.
         23    2    1    2    0    0  0.22489602877E+02 -0.42306392798E+02  0.11461584895E+03  0.15443975902E+03  0.91756379754E+02 0.  0.
          5    1    1    2  502    0  0.17435635692E+02  0.41087708509E+02  0.16644522441E+03  0.17238997625E+03  0.47000000000E+01 0. -1.
         -5    1    1    2    0  502 -0.39925238569E+02  0.12186842894E+01 -0.12489049838E+01  0.40238782658E+02  0.47000000000E+01 0. -1.
        -11    1    3    3    0    0 -0.98441869622E+01 -0.36802990371E+02  0.11550844224E+03  0.12162881379E+03  0.00000000000E+00 0. -1.
         11    1    3    3    0    0  0.32333789839E+02 -0.55034024276E+01 -0.89259328595E+00  0.32810945223E+02  0.00000000000E+00 0.  1.
<mgrwt>
<rscale>  0 0.12553377E+03</rscale>
<asrwt>0</asrwt>
<pdfrwt beam="1">  1        4 0.49760051E-01 0.13386996E+03</pdfrwt>
<pdfrwt beam="2">  1       -4 0.67120271E-02 0.13386996E+03</pdfrwt>
<totfact> 0.95350248E+02</totfact>
</mgrwt>
</event>
<event>
 7    1  0.1111284E-005  0.1660470E+03  0.7546771E-02  0.1188282E+00
          2   -1    0    0  501    0  0.00000000000E+00  0.00000000000E+00  0.13465090617E+03  0.13465090617E+03  0.00000000000E+00 0. -1.
         -2   -1    0    0    0  501 -0.00000000000E+00 -0.00000000000E+00 -0.17909375040E+03  0.17909375040E+03  0.00000000000E+00 0.  1.
         23    2    1    2    0    0  0.10080507520E+03  0.42246324018E+02 -0.17528457246E+02  0.14553057795E+03  0.94474796776E+02 0.  0.
          5    1    1    2  502    0 -0.10153966024E+03 -0.76466592858E+02 -0.49924047638E+01  0.12729672632E+03  0.47000000000E+01 0.  1.
         -5    1    1    2    0  502  0.73458503722E+00  0.34220268840E+02 -0.21921982222E+02  0.40917352300E+02  0.47000000000E+01 0.  1.
        -11    1    3    3    0    0  0.63552019328E+02  0.55672284525E+02 -0.46524403752E+02  0.96450933481E+02  0.00000000000E+00 0.  1.
         11    1    3    3    0    0  0.37253055876E+02 -0.13425960508E+02  0.28995946506E+02  0.49079644471E+02  0.00000000000E+00 0. -1.
<mgrwt>
<rscale>  0 0.16036827E+03</rscale>
<asrwt>0</asrwt>
<pdfrwt beam="1">  1        2 0.20715524E-01 0.16604696E+03</pdfrwt>
<pdfrwt beam="2">  1       -2 0.27552884E-01 0.16604696E+03</pdfrwt>
<totfact> 0.30986084E+03</totfact>
</mgrwt>
</event>
<event>
 7    1  0.1111284E-005  0.2161944E+03  0.7546771E-02  0.1140447E+00
          2   -1    0    0  501    0  0.00000000000E+00  0.00000000000E+00  0.29081710254E+03  0.29081710254E+03  0.00000000000E+00 0. -1.
         -2   -1    0    0    0  501 -0.00000000000E+00 -0.00000000000E+00 -0.14830761955E+03  0.14830761955E+03  0.00000000000E+00 0.  1.
         23    2    1    2    0    0 -0.12651747839E+03  0.12291643787E+03  0.49802573697E+02  0.20389165852E+03  0.89310632235E+02 0.  0.
          5    1    1    2  502    0  0.16017537632E+02 -0.82093975801E+01  0.72221954067E+02  0.74579195287E+02  0.47000000000E+01 0.  1.
         -5    1    1    2    0  502  0.11049994076E+03 -0.11470704029E+03  0.20484955226E+02  0.16065386827E+03  0.47000000000E+01 0.  1.
        -11    1    3    3    0    0 -0.75760937397E+02  0.80585850445E+02 -0.14653844370E+02  0.11157299889E+03  0.00000000000E+00 0.  1.
         11    1    3    3    0    0 -0.50756540998E+02  0.42330587425E+02  0.64456418067E+02  0.92318659630E+02  0.00000000000E+00 0. -1.
<mgrwt>
<rscale>  0 0.21141883E+03</rscale>
<asrwt>0</asrwt>
<pdfrwt beam="1">  1        2 0.44741093E-01 0.21619441E+03</pdfrwt>
<pdfrwt beam="2">  1       -2 0.22816557E-01 0.21619441E+03</pdfrwt>
<totfact> 0.18749191E+03</totfact>
</mgrwt>
</event>
<event>
 7    1  0.1111284E-005  0.1718730E+03  0.7546771E-02  0.1182043E+00
          1   -1    0    0  501    0  0.00000000000E+00  0.00000000000E+00  0.23473717178E+03  0.23473717178E+03  0.00000000000E+00 0. -1.
         -1   -1    0    0    0  501 -0.00000000000E+00 -0.00000000000E+00 -0.11210841417E+03  0.11210841417E+03  0.00000000000E+00 0.  1.
         23    2    1    2    0    0  0.11237808176E+03 -0.35855545025E+02  0.80137319607E+02  0.16979803731E+03  0.92167945150E+02 0.  0.
          5    1    1    2  502    0 -0.12192252720E+03  0.60723537131E+02  0.12807945255E+02  0.13688894792E+03  0.47000000000E+01 0. -1.
         -5    1    1    2    0  502  0.95444454398E+01 -0.24867992106E+02  0.29683492744E+02  0.40158600718E+02  0.47000000000E+01 0. -1.
        -11    1    3    3    0    0  0.82966094488E+02 -0.12948745746E+02  0.28839331060E+01  0.84019997150E+02  0.00000000000E+00 0.  1.
         11    1    3    3    0    0  0.29411987270E+02 -0.22906799279E+02  0.77253386501E+02  0.85778040164E+02  0.00000000000E+00 0. -1.
<mgrwt>
<rscale>  0 0.16603873E+03</rscale>
<asrwt>0</asrwt>
<pdfrwt beam="1">  1        1 0.36113411E-01 0.17187295E+03</pdfrwt>
<pdfrwt beam="2">  1       -1 0.17247448E-01 0.17187295E+03</pdfrwt>
<totfact> 0.30039053E+03</totfact>
</mgrwt>
</event>
<event>
 7    1  0.1111284E-005  0.1368990E+03  0.7546771E-02  0.1226315E+00
         -2   -1    0    0    0  501 -0.00000000000E+00  0.00000000000E+00  0.14051139196E+03  0.14051139196E+03  0.00000000000E+00 0.  1.
          2   -1    0    0  501    0  0.00000000000E+00 -0.00000000000E+00 -0.18744649586E+03  0.18744649586E+03  0.00000000000E+00 0. -1.
         23    2    1    2    0    0 -0.49937873209E+02 -0.24901193798E+02 -0.12596620782E+03  0.16988434178E+03  0.99394886369E+02 0.  0.
          5    1    1    2  502    0  0.15161427047E+02  0.55747569882E+02 -0.87620858666E+01  0.58621877884E+02  0.47000000000E+01 0. -1.
         -5    1    1    2    0  502  0.34776446161E+02 -0.30846376084E+02  0.87793189790E+02  0.99451668154E+02  0.47000000000E+01 0. -1.
        -11    1    3    3    0    0 -0.56967111822E+02  0.11360091789E+02 -0.26627352288E+02  0.63900856056E+02  0.00000000000E+00 0.  1.
         11    1    3    3    0    0  0.70292386132E+01 -0.36261285587E+02 -0.99338855533E+02  0.10598348573E+03  0.00000000000E+00 0. -1.
<mgrwt>
<rscale>  0 0.13077198E+03</rscale>
<asrwt>0</asrwt>
<pdfrwt beam="2">  1        2 0.28837922E-01 0.13689898E+03</pdfrwt>
<pdfrwt beam="1">  1       -2 0.21617137E-01 0.13689898E+03</pdfrwt>
<totfact> 0.32463698E+03</totfact>
</mgrwt>
</event>
<event>
 7    1  0.1111284E-005  0.1340517E+03  0.7546771E-02  0.1234325E+00
          1   -1    0    0  501    0  0.00000000000E+00  0.00000000000E+00  0.29742992629E+02  0.29742992629E+02  0.00000000000E+00 0. -1.
         -1   -1    0    0    0  501 -0.00000000000E+00 -0.00000000000E+00 -0.55343789061E+03  0.55343789061E+03  0.00000000000E+00 0.  1.
         23    2    1    2    0    0  0.34576668692E+02  0.33905132181E+02 -0.12143775289E+03  0.15917536377E+03  0.90799584790E+02 0.  0.
          5    1    1    2  502    0  0.26447947149E+02 -0.20738793087E+01 -0.29659343360E+03  0.29781462311E+03  0.47000000000E+01 0.  1.
         -5    1    1    2    0  502 -0.61024615841E+02 -0.31831252872E+02 -0.10566371149E+03  0.12619089635E+03  0.47000000000E+01 0.  1.
        -11    1    3    3    0    0  0.20726449187E+02  0.63564604275E+02 -0.99106094497E+02  0.11954941480E+03  0.00000000000E+00 0.  1.
         11    1    3    3    0    0  0.13850219504E+02 -0.29659472094E+02 -0.22331658397E+02  0.39625948973E+02  0.00000000000E+00 0. -1.
<mgrwt>
<rscale>  0 0.12547715E+03</rscale>
<asrwt>0</asrwt>
<pdfrwt beam="1">  1        1 0.45758454E-02 0.13405174E+03</pdfrwt>
<pdfrwt beam="2">  1       -1 0.85144285E-01 0.13405174E+03</pdfrwt>
<totfact> 0.26027248E+03</totfact>
</mgrwt>
</event>
<event>
 7    1  0.1111284E-005  0.2339001E+03  0.7546771E-02  0.1123924E+00
         -1   -1    0    0    0  501 -0.00000000000E+00  0.00000000000E+00  0.27119764745E+02  0.27119764745E+02  0.00000000000E+00 0.  1.
          1   -1    0    0  501    0  0.00000000000E+00 -0.00000000000E+00 -0.50433012873E+03  0.50433012873E+03  0.00000000000E+00 0. -1.
         23    2    1    2    0    0 -0.23540886723E+02 -0.17469378840E+02 -0.28412106984E+03  0.29957206559E+03  0.90328775071E+02 0.  0.
          5    1    1    2  502    0  0.35426943051E+02  0.58538845527E+02 -0.57083751089E+02  0.89232893980E+02  0.47000000000E+01 0.  1.
         -5    1    1    2    0  502 -0.11886056328E+02 -0.41069466687E+02 -0.13600554305E+03  0.14264493391E+03  0.47000000000E+01 0.  1.
        -11    1    3    3    0    0 -0.34175720359E+02 -0.49388034017E+02 -0.15766226341E+03  0.16871439496E+03  0.00000000000E+00 0. -1.
         11    1    3    3    0    0  0.10634833636E+02  0.31918655177E+02 -0.12645880644E+03  0.13085767062E+03  0.00000000000E+00 0.  1.
<mgrwt>
<rscale>  0 0.23390010E+03</rscale>
<asrwt>0</asrwt>
<pdfrwt beam="2">  1        1 0.77589252E-01 0.23390010E+03</pdfrwt>
<pdfrwt beam="1">  1       -1 0.41722714E-02 0.23390010E+03</pdfrwt>
<totfact> 0.10163919E+04</totfact>
</mgrwt>
</event>
<event>
 7    1  0.1111284E-005  0.1783500E+03  0.7546771E-02  0.1175264E+00
         -1   -1    0    0    0  501 -0.00000000000E+00  0.00000000000E+00  0.80458878286E+02  0.80458878286E+02  0.00000000000E+00 0.  1.
          1   -1    0    0  501    0  0.00000000000E+00 -0.00000000000E+00 -0.49844461196E+03  0.49844461196E+03  0.00000000000E+00 0. -1.
         23    2    1    2    0    0  0.11171248818E+03  0.60834250770E+02 -0.35831801291E+03  0.39083716765E+03  0.90451131339E+02 0.  0.
          5    1    1    2  502    0 -0.23863568836E+02 -0.23078337284E+02  0.38427243243E+02  0.50998260683E+02  0.47000000000E+01 0.  1.
         -5    1    1    2    0  502 -0.87848919342E+02 -0.37755913486E+02 -0.98094964009E+02  0.13706806191E+03  0.47000000000E+01 0.  1.
        -11    1    3    3    0    0  0.11495802179E+03  0.22687346083E+02 -0.25430240001E+03  0.27999959481E+03  0.00000000000E+00 0.  1.
         11    1    3    3    0    0 -0.32455336074E+01  0.38146904687E+02 -0.10401561290E+03  0.11083757284E+03  0.00000000000E+00 0. -1.
<mgrwt>
<rscale>  0 0.17250180E+03</rscale>
<asrwt>0</asrwt>
<pdfrwt beam="2">  1        1 0.76683786E-01 0.17834995E+03</pdfrwt>
<pdfrwt beam="1">  1       -1 0.12378289E-01 0.17834995E+03</pdfrwt>
<totfact> 0.19577384E+03</totfact>
</mgrwt>
</event>
<event>
 7    1  0.1111284E-005  0.1552485E+03  0.7546771E-02  0.1201176E+00
          1   -1    0    0  501    0  0.00000000000E+00  0.00000000000E+00  0.46387011687E+02  0.46387011687E+02  0.00000000000E+00 0. -1.
         -1   -1    0    0    0  501 -0.00000000000E+00 -0.00000000000E+00 -0.47124055454E+03  0.47124055454E+03  0.00000000000E+00 0.  1.
         23    2    1    2    0    0 -0.42420939802E+02  0.81717898198E+02 -0.14038540139E+03  0.19355317122E+03  0.96319354987E+02 0.  0.
          5    1    1    2  502    0  0.33872475550E+02  0.25362776163E+02 -0.12229155014E+03  0.12949103540E+03  0.47000000000E+01 0.  1.
         -5    1    1    2    0  502  0.85484642519E+01 -0.10708067436E+03 -0.16217659133E+03  0.19458335961E+03  0.47000000000E+01 0.  1.
        -11    1    3    3    0    0 -0.51637845178E+02  0.37500872627E+01 -0.76301988316E+02  0.92209129863E+02  0.00000000000E+00 0.  1.
         11    1    3    3    0    0  0.92169053758E+01  0.77967810936E+02 -0.64083413075E+02  0.10134404136E+03  0.00000000000E+00 0. -1.
<mgrwt>
<rscale>  0 0.14942900E+03</rscale>
<asrwt>0</asrwt>
<pdfrwt beam="1">  1        1 0.71364633E-02 0.15524848E+03</pdfrwt>
<pdfrwt beam="2">  1       -1 0.72498547E-01 0.15524848E+03</pdfrwt>
<totfact> 0.19857206E+03</totfact>
</mgrwt>
</event>
<event>
 7    1  0.1111284E-005  0.1315649E+03  0.7546771E-02  0.1238477E+00
          2   -1    0    0  501    0  0.00000000000E+00  0.00000000000E+00  0.27289727630E+03  0.27289727630E+03  0.00000000000E+00 0.  1.
         -2   -1    0    0    0  501 -0.00000000000E+00 -0.00000000000E+00 -0.49365841756E+02  0.49365841756E+02  0.00000000000E+00 0. -1.
         23    2    1    2    0    0 -0.13117860664E+02 -0.38894053888E+02  0.10779223780E+03  0.14703500821E+03  0.91188274531E+02 0.  0.
          5    1    1    2  502    0  0.48329461525E+02 -0.17354413623E+02  0.90333562455E+02  0.10401516730E+03  0.47000000000E+01 0.  1.
         -5    1    1    2    0  502 -0.35211600861E+02  0.56248467511E+02  0.25405634289E+02  0.71212942547E+02  0.47000000000E+01 0.  1.
        -11    1    3    3    0    0  0.16770137934E+02 -0.55497677651E+02  0.38004968239E+02  0.69322488139E+02  0.00000000000E+00 0. -1.
         11    1    3    3    0    0 -0.29887998598E+02  0.16603623763E+02  0.69787269564E+02  0.77712520069E+02  0.00000000000E+00 0.  1.
<mgrwt>
<rscale>  0 0.12284452E+03</rscale>
<asrwt>0</asrwt>
<pdfrwt beam="1">  1        2 0.41984196E-01 0.13156492E+03</pdfrwt>
<pdfrwt beam="2">  1       -2 0.75947450E-02 0.13156492E+03</pdfrwt>
<totfact> 0.11692708E+04</totfact>
</mgrwt>
</event>
<event>
 7    1  0.1111284E-005  0.1275185E+03  0.7546771E-02  0.1242686E+00
         -2   -1    0    0    0  501 -0.00000000000E+00  0.00000000000E+00  0.84708090708E+03  0.84708090708E+03  0.00000000000E+00 0.  1.
          2   -1    0    0  501    0  0.00000000000E+00 -0.00000000000E+00 -0.15404374467E+02  0.15404374467E+02  0.00000000000E+00 0. -1.
         23    2    1    2    0    0  0.24959506617E+02 -0.30516442746E+01  0.35413175112E+03  0.36820805482E+03  0.97650319924E+02 0.  0.
          5    1    1    2  502    0 -0.40392579449E+00  0.53234521794E+01 -0.64679551664E+01  0.96138828362E+01  0.47000000000E+01 0. -1.
         -5    1    1    2    0  502 -0.24555580823E+02 -0.22718079048E+01  0.48401273666E+03  0.48466334389E+03  0.47000000000E+01 0. -1.
        -11    1    3    3    0    0  0.62758591967E+02 -0.47704236837E+01  0.22717029896E+03  0.23572811148E+03  0.00000000000E+00 0. -1.
         11    1    3    3    0    0 -0.37799085350E+02  0.17187794091E+01  0.12696145216E+03  0.13247994335E+03  0.00000000000E+00 0.  1.
<mgrwt>
<rscale>  0 0.12024958E+03</rscale>
<asrwt>0</asrwt>
<pdfrwt beam="2">  1        2 0.23699044E-02 0.12751846E+03</pdfrwt>
<pdfrwt beam="1">  1       -2 0.13032010E+00 0.12751846E+03</pdfrwt>
<totfact> 0.18726716E+03</totfact>
</mgrwt>
</event>
<event>
 7    1  0.1125557E-005  0.1434040E+03  0.7546771E-02  0.1219942E+00
          1   -1    0    0  501    0  0.00000000000E+00  0.00000000000E+00  0.23286513405E+03  0.23286513405E+03  0.00000000000E+00 0. -1.
         -1   -1    0    0    0  501 -0.00000000000E+00 -0.00000000000E+00 -0.70913762823E+02  0.70913762823E+02  0.00000000000E+00 0.  1.
         23    2    1    2    0    0 -0.63414911161E+02  0.30301000530E+02  0.78991717711E+02  0.13810751455E+03  0.88850394024E+02 0.  0.
          5    1    1    2  502    0  0.52432137452E+02  0.40630556812E+02  0.61577022272E+02  0.90629966658E+02  0.47000000000E+01 0.  1.
         -5    1    1    2    0  502  0.10982773709E+02 -0.70931557341E+02  0.21382631240E+02  0.75041415658E+02  0.47000000000E+01 0.  1.
        -11    1    3    3    0    0 -0.42922115746E+02 -0.12944806813E+02 -0.10576857043E+01  0.44844116031E+02  0.00000000000E+00 0.  1.
         11    1    3    3    0    0 -0.20492795415E+02  0.43245807343E+02  0.80049403416E+02  0.93263398522E+02  0.00000000000E+00 0. -1.
<mgrwt>
<rscale>  0 0.13519672E+03</rscale>
<asrwt>0</asrwt>
<pdfrwt beam="1">  1        1 0.35825405E-01 0.14340398E+03</pdfrwt>
<pdfrwt beam="2">  1       -1 0.10909810E-01 0.14340398E+03</pdfrwt>
<totfact> 0.61497033E+03</totfact>
</mgrwt>
</event>
<event>
 7    1  0.1111284E-005  0.8588218E+03  0.7546771E-02  0.9478572E-01
          2   -1    0    0  501    0  0.00000000000E+00  0.00000000000E+00  0.35235525362E+04  0.35235525362E+04  0.00000000000E+00 0. -1.
         -2   -1    0    0    0  501 -0.00000000000E+00 -0.00000000000E+00 -0.52331769836E+02  0.52331769836E+02  0.00000000000E+00 0.  1.
         23    2    1    2    0    0  0.61877710229E+02  0.17064544212E+02  0.35150197435E+03  0.36883942156E+03  0.91481316327E+02 0.  0.
          5    1    1    2  502    0 -0.25693979728E+03 -0.50489641359E+02  0.28980060495E+04  0.29098158732E+04  0.47000000000E+01 0. -1.
         -5    1    1    2    0  502  0.19506208705E+03  0.33425097148E+02  0.22171274257E+03  0.29722901127E+03  0.47000000000E+01 0.  1.
        -11    1    3    3    0    0 -0.40079860143E+01  0.34455580585E+02  0.19624013880E+03  0.19928231999E+03  0.00000000000E+00 0.  1.
         11    1    3    3    0    0  0.65885696243E+02 -0.17391036373E+02  0.15526183554E+03  0.16955710157E+03  0.00000000000E+00 0. -1.
<mgrwt>
<rscale>  0 0.85882184E+03</rscale>
<asrwt>0</asrwt>
<pdfrwt beam="1">  1        2 0.54208482E+00 0.85882184E+03</pdfrwt>
<pdfrwt beam="2">  1       -2 0.80510443E-02 0.85882184E+03</pdfrwt>
<totfact> 0.80906257E+01</totfact>
</mgrwt>
</event>
<event>
 7    1  0.1111284E-005  0.1299526E+03  0.7546771E-02  0.1245560E+00
         -2   -1    0    0    0  501 -0.00000000000E+00  0.00000000000E+00  0.51563658750E+02  0.51563658750E+02  0.00000000000E+00 0.  1.
          2   -1    0    0  501    0  0.00000000000E+00 -0.00000000000E+00 -0.25378784000E+03  0.25378784000E+03  0.00000000000E+00 0. -1.
         23    2    1    2    0    0  0.34692933555E+02  0.77941037805E+01 -0.12568945580E+03  0.15453623722E+03  0.82578820654E+02 0.  0.
          5    1    1    2  502    0 -0.32982545155E+02 -0.21933863328E+02  0.25723526986E+02  0.47462959095E+02  0.47000000000E+01 0.  1.
         -5    1    1    2    0  502 -0.17103884000E+01  0.14139759547E+02 -0.10225825243E+03  0.10335230244E+03  0.47000000000E+01 0.  1.
        -11    1    3    3    0    0  0.26595121208E+02  0.39834737419E+02 -0.10535966463E+03  0.11573575812E+03  0.00000000000E+00 0. -1.
         11    1    3    3    0    0  0.80978123471E+01 -0.32040633639E+02 -0.20329791173E+02  0.38800479094E+02  0.00000000000E+00 0.  1.
<mgrwt>
<rscale>  0 0.11851939E+03</rscale>
<asrwt>0</asrwt>
<pdfrwt beam="2">  1        2 0.39044282E-01 0.12995260E+03</pdfrwt>
<pdfrwt beam="1">  1       -2 0.79328707E-02 0.12995260E+03</pdfrwt>
<totfact> 0.11797647E+04</totfact>
</mgrwt>
</event>
<event>
 7    1  0.1111284E-005  0.1382914E+03  0.7546771E-02  0.1227002E+00
          1   -1    0    0  501    0  0.00000000000E+00  0.00000000000E+00  0.48063937031E+03  0.48063937031E+03  0.00000000000E+00 0. -1.
         -1   -1    0    0    0  501 -0.00000000000E+00 -0.00000000000E+00 -0.37857464425E+02  0.37857464425E+02  0.00000000000E+00 0.  1.
         23    2    1    2    0    0  0.88508337202E+01 -0.58482782689E+02  0.30235991727E+03  0.32141097283E+03  0.91569212911E+02 0.  0.
          5    1    1    2  502    0 -0.61847201104E+02  0.81927344166E+01  0.46246173577E+02  0.77801000971E+02  0.47000000000E+01 0. -1.
         -5    1    1    2    0  502  0.52996367384E+02  0.50290048272E+02  0.94175815040E+02  0.11928486094E+03  0.47000000000E+01 0. -1.
        -11    1    3    3    0    0  0.43900411954E+02 -0.44317563519E+02  0.12078345753E+03  0.13594092915E+03  0.00000000000E+00 0.  1.
         11    1    3    3    0    0 -0.35049578234E+02 -0.14165219170E+02  0.18157645974E+03  0.18547004368E+03  0.00000000000E+00 0. -1.
<mgrwt>
<rscale>  0 0.13030597E+03</rscale>
<asrwt>0</asrwt>
<pdfrwt beam="1">  1        1 0.73944514E-01 0.13829137E+03</pdfrwt>
<pdfrwt beam="2">  1       -1 0.58242256E-02 0.13829137E+03</pdfrwt>
<totfact> 0.63904360E+03</totfact>
</mgrwt>
</event>
<event>
 7    1  0.1111284E-005  0.1578388E+03  0.7546771E-02  0.1199228E+00
         -1   -1    0    0    0  501 -0.00000000000E+00  0.00000000000E+00  0.37883736317E+02  0.37883736317E+02  0.00000000000E+00 0.  1.
          1   -1    0    0  501    0  0.00000000000E+00 -0.00000000000E+00 -0.61811649832E+03  0.61811649832E+03  0.00000000000E+00 0. -1.
         23    2    1    2    0    0  0.92335411314E+02 -0.27599325791E+02 -0.37124533971E+03  0.39410556335E+03  0.90601003546E+02 0.  0.
          5    1    1    2  502    0  0.28658690670E+02 -0.64749479798E+01 -0.59501409380E+02  0.66526334790E+02  0.47000000000E+01 0.  1.
         -5    1    1    2    0  502 -0.12099410198E+03  0.34074273771E+02 -0.14948601292E+03  0.19536833650E+03  0.47000000000E+01 0.  1.
        -11    1    3    3    0    0  0.41118158210E+02 -0.32530261892E+02 -0.64723004212E+02  0.83294586544E+02  0.00000000000E+00 0.  1.
         11    1    3    3    0    0  0.51217253104E+02  0.49309361008E+01 -0.30652233549E+03  0.31081097681E+03  0.00000000000E+00 0. -1.
<mgrwt>
<rscale>  0 0.15101771E+03</rscale>
<asrwt>0</asrwt>
<pdfrwt beam="2">  1        1 0.95094830E-01 0.15783877E+03</pdfrwt>
<pdfrwt beam="1">  1       -1 0.58282681E-02 0.15783877E+03</pdfrwt>
<totfact> 0.45946538E+03</totfact>
</mgrwt>
</event>
<event>
 7    1  0.1111284E-005  0.1372575E+03  0.7546771E-02  0.1229499E+00
         -1   -1    0    0    0  501 -0.00000000000E+00  0.00000000000E+00  0.30515409833E+03  0.30515409833E+03  0.00000000000E+00 0.  1.
          1   -1    0    0  501    0  0.00000000000E+00 -0.00000000000E+00 -0.48429045703E+02  0.48429045703E+02  0.00000000000E+00 0. -1.
         23    2    1    2    0    0 -0.45518814823E+02  0.33727137666E+02  0.11176385621E+03  0.15395004028E+03  0.89442568335E+02 0.  0.
          5    1    1    2  502    0  0.17219776685E+02 -0.46499818850E+02  0.15797540004E+03  0.16564139241E+03  0.47000000000E+01 0. -1.
         -5    1    1    2    0  502  0.28299038138E+02  0.12772681184E+02 -0.13014203619E+02  0.33991711343E+02  0.47000000000E+01 0. -1.
        -11    1    3    3    0    0 -0.26194731820E+02  0.31737333129E+02  0.65572166086E+00  0.41156436436E+02  0.00000000000E+00 0. -1.
         11    1    3    3    0    0 -0.19324083003E+02  0.19898045375E+01  0.11110813455E+03  0.11279360385E+03  0.00000000000E+00 0.  1.
<mgrwt>
<rscale>  0 0.12863234E+03</rscale>
<asrwt>0</asrwt>
<pdfrwt beam="2">  1        1 0.74506226E-02 0.13725752E+03</pdfrwt>
<pdfrwt beam="1">  1       -1 0.46946783E-01 0.13725752E+03</pdfrwt>
<totfact> 0.42390999E+03</totfact>
</mgrwt>
</event>
<event>
 7    1  0.1111284E-005  0.1748747E+03  0.7546771E-02  0.1178044E+00
         -2   -1    0    0    0  501 -0.00000000000E+00  0.00000000000E+00  0.52258156718E+03  0.52258156718E+03  0.00000000000E+00 0. -1.
          2   -1    0    0  501    0  0.00000000000E+00 -0.00000000000E+00 -0.58894761703E+02  0.58894761703E+02  0.00000000000E+00 0.  1.
         23    2    1    2    0    0  0.20826689999E+02 -0.12050042194E+03  0.12198765793E+03  0.19762808369E+03  0.96030037335E+02 0.  0.
          5    1    1    2  502    0 -0.21406508475E+02  0.10248516720E+03  0.11196938298E+03  0.15336453575E+03  0.47000000000E+01 0.  1.
         -5    1    1    2    0  502  0.57981847610E+00  0.18015254738E+02  0.22972976457E+03  0.23048370945E+03  0.47000000000E+01 0.  1.
        -11    1    3    3    0    0 -0.53062002315E+01 -0.72303802014E+02  0.10322100604E+02  0.73229374621E+02  0.00000000000E+00 0.  1.
         11    1    3    3    0    0  0.26132890230E+02 -0.48196619924E+02  0.11166555733E+03  0.12439870907E+03  0.00000000000E+00 0. -1.
<mgrwt>
<rscale>  0 0.16981187E+03</rscale>
<asrwt>0</asrwt>
<pdfrwt beam="2">  1        2 0.90607329E-02 0.17487472E+03</pdfrwt>
<pdfrwt beam="1">  1       -2 0.80397161E-01 0.17487472E+03</pdfrwt>
<totfact> 0.10067841E+03</totfact>
</mgrwt>
</event>
<event>
 6    1  0.1111284E-005  0.1338352E+03  0.7546771E-02  0.1272940E+00
          2   -1    0    0  501    0  0.00000000000E+00  0.00000000000E+00  0.10337256161E+03  0.10337256161E+03  0.00000000000E+00 0. -1.
         -2   -1    0    0    0  501 -0.00000000000E+00 -0.00000000000E+00 -0.10394713492E+03  0.10394713492E+03  0.00000000000E+00 0.  1.
          5    1    1    2  502    0 -0.51249656725E+02  0.31025393903E+02 -0.47605157738E+02  0.76664486071E+02  0.47000000000E+01 0. -1.
         -5    1    1    2    0  502  0.43922972870E+02 -0.47315567939E+02  0.19031229775E+01  0.64758801658E+02  0.47000000000E+01 0.  1.
        -11    1    1    2    0    0 -0.43589660171E+01  0.22322345705E+02  0.44884968737E+01  0.23182629417E+02  0.00000000000E+00 0. -1.
         11    1    1    2    0    0  0.11685649872E+02 -0.60321716700E+01  0.40638964568E+02  0.42713779383E+02  0.00000000000E+00 0.  1.
<mgrwt>
<rscale>  0 0.10358138E+03</rscale>
<asrwt>0</asrwt>
<pdfrwt beam="1">  1        2 0.15903471E-01 0.13383524E+03</pdfrwt>
<pdfrwt beam="2">  1       -2 0.15991867E-01 0.13383524E+03</pdfrwt>
<totfact> 0.10481112E+04</totfact>
</mgrwt>
</event>
<event>
 7    1  0.1111284E-005  0.1868110E+03  0.7546771E-02  0.1166513E+00
         -1   -1    0    0    0  501 -0.00000000000E+00  0.00000000000E+00  0.22283310772E+03  0.22283310772E+03  0.00000000000E+00 0.  1.
          1   -1    0    0  501    0  0.00000000000E+00 -0.00000000000E+00 -0.18725871431E+03  0.18725871431E+03  0.00000000000E+00 0. -1.
         23    2    1    2    0    0  0.22371743417E+02 -0.13701167977E+03 -0.86366176235E+02  0.18700473690E+03  0.90768716676E+02 0.  0.
          5    1    1    2  502    0  0.24160718084E+02  0.13672894412E+03  0.80287270706E+02  0.16045772121E+03  0.47000000000E+01 0.  1.
         -5    1    1    2    0  502 -0.46532461501E+02  0.28273565041E+00  0.41653298942E+02  0.62629363925E+02  0.47000000000E+01 0.  1.
        -11    1    3    3    0    0  0.49898272303E+02 -0.82514685300E+02 -0.80601951578E+02  0.12567889826E+03  0.00000000000E+00 0. -1.
         11    1    3    3    0    0 -0.27526528885E+02 -0.54496994472E+02 -0.57642246566E+01  0.61325838640E+02  0.00000000000E+00 0.  1.
<mgrwt>
<rscale>  0 0.18133908E+03</rscale>
<asrwt>0</asrwt>
<pdfrwt beam="2">  1        1 0.28809033E-01 0.18681099E+03</pdfrwt>
<pdfrwt beam="1">  1       -1 0.34282016E-01 0.18681099E+03</pdfrwt>
<totfact> 0.12842469E+03</totfact>
</mgrwt>
</event>
<event>
 7    1  0.1111284E-005  0.1288173E+03  0.7546771E-02  0.1243447E+00
          2   -1    0    0  501    0  0.00000000000E+00  0.00000000000E+00  0.70851277516E+02  0.70851277516E+02  0.00000000000E+00 0. -1.
         -2   -1    0    0    0  501 -0.00000000000E+00 -0.00000000000E+00 -0.19411771909E+03  0.19411771909E+03  0.00000000000E+00 0.  1.
         23    2    1    2    0    0 -0.26429409626E+02  0.16416317234E+02 -0.16646280962E+02  0.97751291976E+02  0.91160338132E+02 0.  0.
          5    1    1    2  502    0  0.58169631943E+02 -0.51428967408E+02 -0.46583999402E+02  0.90668648216E+02  0.47000000000E+01 0. -1.
         -5    1    1    2    0  502 -0.31740222318E+02  0.35012650174E+02 -0.60036161206E+02  0.76549056410E+02  0.47000000000E+01 0. -1.
        -11    1    3    3    0    0 -0.46857510992E+02  0.28392436073E+02 -0.37340737033E+02  0.66302996951E+02  0.00000000000E+00 0.  1.
         11    1    3    3    0    0  0.20428101366E+02 -0.11976118839E+02  0.20694456071E+02  0.31448295025E+02  0.00000000000E+00 0. -1.
<mgrwt>
<rscale>  0 0.11978812E+03</rscale>
<asrwt>0</asrwt>
<pdfrwt beam="1">  1        2 0.10900197E-01 0.12881732E+03</pdfrwt>
<pdfrwt beam="2">  1       -2 0.29864263E-01 0.12881732E+03</pdfrwt>
<totfact> 0.56105775E+03</totfact>
</mgrwt>
</event>
<event>
 6    1  0.1111284E-005  0.1831471E+03  0.7546771E-02  0.1190069E+00
         -2   -1    0    0    0  501 -0.00000000000E+00  0.00000000000E+00  0.49764110610E+03  0.49764110610E+03  0.00000000000E+00 0.  1.
          2   -1    0    0  501    0  0.00000000000E+00 -0.00000000000E+00 -0.41278369633E+02  0.41278369633E+02  0.00000000000E+00 0. -1.
          5    1    1    2  502    0 -0.74596385281E+02  0.30788095019E+02  0.69830247251E+02  0.10682172496E+03  0.47000000000E+01 0. -1.
         -5    1    1    2    0  502 -0.72687589759E+01 -0.85150126216E+02  0.21957741486E+03  0.23566864443E+03  0.47000000000E+01 0.  1.
        -11    1    1    2    0    0  0.21077758056E+02  0.26761306756E+02  0.36770918138E+02  0.50125241592E+02  0.00000000000E+00 0. -1.
         11    1    1    2    0    0  0.60787386201E+02  0.27600724441E+02  0.13018415622E+03  0.14630386475E+03  0.00000000000E+00 0.  1.
<mgrwt>
<rscale>  0 0.15879094E+03</rscale>
<asrwt>0</asrwt>
<pdfrwt beam="2">  1        2 0.63505188E-02 0.18314709E+03</pdfrwt>
<pdfrwt beam="1">  1       -2 0.76560166E-01 0.18314709E+03</pdfrwt>
<totfact> 0.17639998E+03</totfact>
</mgrwt>
</event>
<event>
 7    1  0.1419048E-005  0.1705863E+03  0.7546771E-02  0.1183744E+00
         -1   -1    0    0    0  501 -0.00000000000E+00  0.00000000000E+00  0.62773231120E+03  0.62773231120E+03  0.00000000000E+00 0.  1.
          1   -1    0    0  501    0  0.00000000000E+00 -0.00000000000E+00 -0.41432678219E+02  0.41432678219E+02  0.00000000000E+00 0. -1.
         23    2    1    2    0    0  0.11537313135E+03 -0.12792785594E+02  0.21644235552E+03  0.26186399637E+03  0.90834159489E+02 0.  0.
          5    1    1    2  502    0 -0.23863595988E+02 -0.40050983340E+02  0.21312234064E+03  0.21821268194E+03  0.47000000000E+01 0. -1.
         -5    1    1    2    0  502 -0.91509535366E+02  0.52843768933E+02  0.15673493683E+03  0.18908831111E+03  0.47000000000E+01 0. -1.
        -11    1    3    3    0    0  0.10542091980E+03  0.56989255043E+01  0.21649365439E+03  0.24086417433E+03  0.00000000000E+00 0.  1.
         11    1    3    3    0    0  0.99522115492E+01 -0.18491711098E+02 -0.51298872697E-01  0.20999822038E+02  0.00000000000E+00 0. -1.
<mgrwt>
<rscale>  0 0.16446719E+03</rscale>
<asrwt>0</asrwt>
<pdfrwt beam="2">  1        1 0.63742586E-02 0.17058632E+03</pdfrwt>
<pdfrwt beam="1">  1       -1 0.96574195E-01 0.17058632E+03</pdfrwt>
<totfact> 0.12773122E+03</totfact>
</mgrwt>
</event>
<event>
 7    1  0.1111284E-005  0.1261842E+03  0.7546771E-02  0.1248891E+00
         -2   -1    0    0    0  501 -0.00000000000E+00  0.00000000000E+00  0.88576854395E+01  0.88576854395E+01  0.00000000000E+00 0.  1.
          2   -1    0    0  501    0  0.00000000000E+00 -0.00000000000E+00 -0.13885948525E+04  0.13885948525E+04  0.00000000000E+00 0. -1.
         23    2    1    2    0    0 -0.16753705464E+02 -0.38418705487E+01 -0.45819960451E+03  0.46731602927E+03  0.90232738091E+02 0.  0.
          5    1    1    2  502    0  0.23730081036E+02  0.61753911109E+02 -0.55646018603E+03  0.56039868925E+03  0.47000000000E+01 0. -1.
         -5    1    1    2    0  502 -0.69763755719E+01 -0.57912040560E+02 -0.36507737657E+03  0.36973781946E+03  0.47000000000E+01 0. -1.
        -11    1    3    3    0    0 -0.38923595972E+02 -0.35256230010E+02 -0.23180637781E+03  0.23768097288E+03  0.00000000000E+00 0.  1.
         11    1    3    3    0    0  0.22169890508E+02  0.31414359462E+02 -0.22639322670E+03  0.22963505638E+03  0.00000000000E+00 0. -1.
<mgrwt>
<rscale>  0 0.11655468E+03</rscale>
<asrwt>0</asrwt>
<pdfrwt beam="2">  1        2 0.21362981E+00 0.12618417E+03</pdfrwt>
<pdfrwt beam="1">  1       -2 0.13627219E-02 0.12618417E+03</pdfrwt>
<totfact> 0.20380656E+04</totfact>
</mgrwt>
</event>
<event>
 7    1  0.1111284E-005  0.1811205E+03  0.7546771E-02  0.1172229E+00
          1   -1    0    0  501    0  0.00000000000E+00  0.00000000000E+00  0.25143846929E+03  0.25143846929E+03  0.00000000000E+00 0. -1.
         -1   -1    0    0    0  501 -0.00000000000E+00 -0.00000000000E+00 -0.11549952338E+03  0.11549952338E+03  0.00000000000E+00 0.  1.
         23    2    1    2    0    0  0.46361418447E+01  0.13098719525E+03  0.60931708791E+02  0.17090044673E+03  0.91187446645E+02 0.  0.
          5    1    1    2  502    0 -0.39293539964E+02  0.45227004708E+01  0.26838492189E+02  0.48029488499E+02  0.47000000000E+01 0. -1.
         -5    1    1    2    0  502  0.34657398119E+02 -0.13550989572E+03  0.48168744928E+02  0.14800805745E+03  0.47000000000E+01 0. -1.
        -11    1    3    3    0    0  0.25357111993E+02  0.13245139792E+03  0.38319934599E+02  0.14019548255E+03  0.00000000000E+00 0.  1.
         11    1    3    3    0    0 -0.20720970148E+02 -0.14642026687E+01  0.22611774192E+02  0.30704964182E+02  0.00000000000E+00 0. -1.
<mgrwt>
<rscale>  0 0.17550159E+03</rscale>
<asrwt>0</asrwt>
<pdfrwt beam="1">  1        1 0.38682841E-01 0.18112050E+03</pdfrwt>
<pdfrwt beam="2">  1       -1 0.17769157E-01 0.18112050E+03</pdfrwt>
<totfact> 0.26344525E+03</totfact>
</mgrwt>
</event>
<event>
 7    1  0.1111284E-005  0.1376516E+03  0.7546771E-02  0.1224593E+00
         -1   -1    0    0    0  501 -0.00000000000E+00  0.00000000000E+00  0.35046405927E+02  0.35046405927E+02  0.00000000000E+00 0.  1.
          1   -1    0    0  501    0  0.00000000000E+00 -0.00000000000E+00 -0.55680732586E+03  0.55680732586E+03  0.00000000000E+00 0. -1.
         23    2    1    2    0    0  0.39764386619E+02  0.49660841780E+02 -0.36588421292E+03  0.38389821406E+03  0.97258294475E+02 0.  0.
          5    1    1    2  502    0 -0.45456370432E+02  0.30249249389E+02 -0.83561814372E+02  0.99929802974E+02  0.47000000000E+01 0. -1.
         -5    1    1    2    0  502  0.56919838128E+01 -0.79910091168E+02 -0.72314892641E+02  0.10802571475E+03  0.47000000000E+01 0.  1.
        -11    1    3    3    0    0  0.15390451401E+02 -0.27044788049E+02 -0.59832072850E+02  0.67440073372E+02  0.00000000000E+00 0.  1.
         11    1    3    3    0    0  0.24373935218E+02  0.76705629829E+02 -0.30605214007E+03  0.31645814069E+03  0.00000000000E+00 0. -1.
<mgrwt>
<rscale>  0 0.13194836E+03</rscale>
<asrwt>0</asrwt>
<pdfrwt beam="2">  1        1 0.85662671E-01 0.13765155E+03</pdfrwt>
<pdfrwt beam="1">  1       -1 0.53917544E-02 0.13765155E+03</pdfrwt>
<totfact> 0.59053189E+03</totfact>
</mgrwt>
</event>
<event>
 7    1  0.1111284E-005  0.1321378E+03  0.7546771E-02  0.1237511E+00
         -2   -1    0    0    0  501 -0.00000000000E+00  0.00000000000E+00  0.10612511931E+03  0.10612511931E+03  0.00000000000E+00 0.  1.
          2   -1    0    0  501    0  0.00000000000E+00 -0.00000000000E+00 -0.12798282645E+03  0.12798282645E+03  0.00000000000E+00 0. -1.
         23    2    1    2    0    0 -0.31822962686E+02 -0.28633094172E+02 -0.15143726732E+02  0.10179970539E+03  0.91111429157E+02 0.  0.
          5    1    1    2  502    0 -0.11198603819E+02 -0.92666018909E+01 -0.55074920955E+02  0.57154313541E+02  0.47000000000E+01 0. -1.
         -5    1    1    2    0  502  0.43021566505E+02  0.37899696063E+02  0.48360940553E+02  0.75153926826E+02  0.47000000000E+01 0. -1.
        -11    1    3    3    0    0 -0.28362117474E+01 -0.45001746418E+02 -0.39982976151E+02  0.60264746408E+02  0.00000000000E+00 0.  1.
         11    1    3    3    0    0 -0.28986750938E+02  0.16368652246E+02  0.24839249419E+02  0.41534958986E+02  0.00000000000E+00 0. -1.
<mgrwt>
<rscale>  0 0.12345027E+03</rscale>
<asrwt>0</asrwt>
<pdfrwt beam="2">  1        2 0.19689666E-01 0.13213778E+03</pdfrwt>
<pdfrwt beam="1">  1       -2 0.16326941E-01 0.13213778E+03</pdfrwt>
<totfact> 0.79207456E+03</totfact>
</mgrwt>
</event>
<event>
 7    1  0.1111284E-005  0.1266109E+03  0.7546771E-02  0.1247491E+00
         -3   -1    0    0    0  501 -0.00000000000E+00  0.00000000000E+00  0.37046307237E+03  0.37046307237E+03  0.00000000000E+00 0.  1.
          3   -1    0    0  501    0  0.00000000000E+00 -0.00000000000E+00 -0.32744748194E+02  0.32744748194E+02  0.00000000000E+00 0. -1.
         23    2    1    2    0    0 -0.18826277556E+02  0.70496090021E+01  0.13612096716E+03  0.16514938498E+03  0.91330586039E+02 0.  0.
          5    1    1    2  502    0 -0.26081377949E+02 -0.24042241038E+02  0.18281954578E+03  0.18628833551E+03  0.47000000000E+01 0. -1.
         -5    1    1    2    0  502  0.44907655505E+02  0.16992632036E+02  0.18777811245E+02  0.51770100073E+02  0.47000000000E+01 0. -1.
        -11    1    3    3    0    0 -0.25617303843E+02  0.33102849037E+02  0.20825382262E+02  0.46751913511E+02  0.00000000000E+00 0. -1.
         11    1    3    3    0    0  0.67910262869E+01 -0.26053240035E+02  0.11529558490E+03  0.11839747147E+03  0.00000000000E+00 0.  1.
<mgrwt>
<rscale>  0 0.11737506E+03</rscale>
<asrwt>0</asrwt>
<pdfrwt beam="2">  1        3 0.50376538E-02 0.12661092E+03</pdfrwt>
<pdfrwt beam="1">  1       -3 0.56994316E-01 0.12661092E+03</pdfrwt>
<totfact> 0.15658872E+03</totfact>
</mgrwt>
</event>
<event>
 7    1  0.1111284E-005  0.1664591E+03  0.7546771E-02  0.1185702E+00
         -2   -1    0    0    0  501 -0.00000000000E+00  0.00000000000E+00  0.11607610110E+03  0.11607610110E+03  0.00000000000E+00 0.  1.
          2   -1    0    0  501    0  0.00000000000E+00 -0.00000000000E+00 -0.21983347104E+03  0.21983347104E+03  0.00000000000E+00 0. -1.
         23    2    1    2    0    0  0.97072559312E+02  0.76137091965E+02 -0.63852735373E+02  0.16473416535E+03  0.88545100801E+02 0.  0.
          5    1    1    2  502    0 -0.27609522839E+02 -0.83727594848E+02  0.42397516628E+01  0.88389260572E+02  0.47000000000E+01 0. -1.
         -5    1    1    2    0  502 -0.69463036474E+02  0.75905028827E+01 -0.44144386224E+02  0.82786146216E+02  0.47000000000E+01 0.  1.
        -11    1    3    3    0    0  0.27445934888E+02  0.72387034221E+02 -0.53827117626E+02  0.94289557519E+02  0.00000000000E+00 0.  1.
         11    1    3    3    0    0  0.69626624424E+02  0.37500577439E+01 -0.10025617747E+02  0.70444607835E+02  0.00000000000E+00 0. -1.
<mgrwt>
<rscale>  0 0.16268163E+03</rscale>
<asrwt>0</asrwt>
<pdfrwt beam="2">  1        2 0.33820534E-01 0.16645912E+03</pdfrwt>
<pdfrwt beam="1">  1       -2 0.17857862E-01 0.16645912E+03</pdfrwt>
<totfact> 0.38117310E+03</totfact>
</mgrwt>
</event>
<event>
 7    1  0.1111284E-005  0.2809187E+03  0.7546771E-02  0.1096868E+00
         -1   -1    0    0    0  501 -0.00000000000E+00  0.00000000000E+00  0.27996300975E+03  0.27996300975E+03  0.00000000000E+00 0.  1.
          1   -1    0    0  501    0  0.00000000000E+00 -0.00000000000E+00 -0.26992561370E+03  0.26992561370E+03  0.00000000000E+00 0. -1.
         23    2    1    2    0    0  0.14868968326E+03  0.20291830224E+03  0.77264437005E+01  0.26896044769E+03  0.94844953463E+02 0.  0.
          5    1    1    2  502    0 -0.10239318143E+03 -0.14481170203E+03  0.59419101704E+02  0.18710294571E+03  0.47000000000E+01 0.  1.
         -5    1    1    2    0  502 -0.46296501834E+02 -0.58106600209E+02 -0.57108149355E+02  0.93825230043E+02  0.47000000000E+01 0.  1.
        -11    1    3    3    0    0  0.32961542663E+02  0.12512725578E+03  0.48901107894E+01  0.12948824896E+03  0.00000000000E+00 0.  1.
         11    1    3    3    0    0  0.11572814060E+03  0.77791046457E+02  0.28363329111E+01  0.13947219873E+03  0.00000000000E+00 0. -1.
<mgrwt>
<rscale>  0 0.27785150E+03</rscale>
<asrwt>0</asrwt>
<pdfrwt beam="2">  1        1 0.41527017E-01 0.28091867E+03</pdfrwt>
<pdfrwt beam="1">  1       -1 0.43071232E-01 0.28091867E+03</pdfrwt>
<totfact> 0.54357607E+02</totfact>
</mgrwt>
</event>
<event>
 7    1  0.1111284E-005  0.1637533E+03  0.7546771E-02  0.1192618E+00
          1   -1    0    0  501    0  0.00000000000E+00  0.00000000000E+00  0.23288916409E+03  0.23288916409E+03  0.00000000000E+00 0. -1.
         -1   -1    0    0    0  501 -0.00000000000E+00 -0.00000000000E+00 -0.14993895808E+03  0.14993895808E+03  0.00000000000E+00 0.  1.
         23    2    1    2    0    0  0.10529077307E+03 -0.10248833813E+02  0.15249910241E+03  0.20491750119E+03  0.86856321418E+02 0.  0.
          5    1    1    2  502    0  0.15010208677E+02 -0.43781334017E+01  0.20970023489E+02  0.26576423795E+02  0.47000000000E+01 0.  1.
         -5    1    1    2    0  502 -0.12030098174E+03  0.14626967215E+02 -0.90518919895E+02  0.15133419718E+03  0.47000000000E+01 0.  1.
        -11    1    3    3    0    0  0.74575346158E+02 -0.46580773314E+02  0.11233707402E+03  0.14265647162E+03  0.00000000000E+00 0. -1.
         11    1    3    3    0    0  0.30715426908E+02  0.36331939501E+02  0.40162028395E+02  0.62261029568E+02  0.00000000000E+00 0.  1.
<mgrwt>
<rscale>  0 0.15657587E+03</rscale>
<asrwt>0</asrwt>
<pdfrwt beam="1">  1        1 0.35829102E-01 0.16375329E+03</pdfrwt>
<pdfrwt beam="2">  1       -1 0.23067532E-01 0.16375329E+03</pdfrwt>
<totfact> 0.18940483E+03</totfact>
</mgrwt>
</event>
<event>
 7    1  0.1111284E-005  0.1275889E+03  0.7546771E-02  0.1245532E+00
          1   -1    0    0  501    0  0.00000000000E+00  0.00000000000E+00  0.25256414473E+03  0.25256414473E+03  0.00000000000E+00 0. -1.
         -1   -1    0    0    0  501 -0.00000000000E+00 -0.00000000000E+00 -0.49139111951E+02  0.49139111951E+02  0.00000000000E+00 0.  1.
         23    2    1    2    0    0 -0.48192358169E+01  0.25112294307E+02  0.92642036521E+02  0.13273047737E+03  0.91547694309E+02 0.  0.
          5    1    1    2  502    0 -0.30648191794E+01  0.16295955582E+02 -0.22935326262E+02  0.28689204863E+02  0.47000000000E+01 0. -1.
         -5    1    1    2    0  502  0.78840549962E+01 -0.41408249889E+02  0.13371832252E+03  0.14028357445E+03  0.47000000000E+01 0. -1.
        -11    1    3    3    0    0  0.68634873873E+01  0.55191036911E+02  0.81349035757E+02  0.98543511370E+02  0.00000000000E+00 0. -1.
         11    1    3    3    0    0 -0.11682723204E+02 -0.30078742604E+02  0.11293000763E+02  0.34186966001E+02  0.00000000000E+00 0.  1.
<mgrwt>
<rscale>  0 0.11853584E+03</rscale>
<asrwt>0</asrwt>
<pdfrwt beam="1">  1        1 0.38856022E-01 0.12758890E+03</pdfrwt>
<pdfrwt beam="2">  1       -1 0.75598635E-02 0.12758890E+03</pdfrwt>
<totfact> 0.96284612E+03</totfact>
</mgrwt>
</event>
<event>
 7    1  0.1111284E-005  0.1283851E+03  0.7546771E-02  0.1248738E+00
         -2   -1    0    0    0  501 -0.00000000000E+00  0.00000000000E+00  0.54055727542E+02  0.54055727542E+02  0.00000000000E+00 0.  1.
          2   -1    0    0  501    0  0.00000000000E+00 -0.00000000000E+00 -0.24578280543E+03  0.24578280543E+03  0.00000000000E+00 0. -1.
         23    2    1    2    0    0  0.28748212613E+02 -0.57477545441E+01 -0.13171759755E+03  0.15812096362E+03  0.82420975620E+02 0.  0.
          5    1    1    2  502    0 -0.56372383086E+02  0.48518704808E+02 -0.49640406814E+02  0.89544236440E+02  0.47000000000E+01 0.  1.
         -5    1    1    2    0  502  0.27624170473E+02 -0.42770950264E+02 -0.10369073523E+02  0.52173332907E+02  0.47000000000E+01 0.  1.
        -11    1    3    3    0    0  0.48764840506E+02 -0.20943499925E+02 -0.51088068949E+02  0.73665668039E+02  0.00000000000E+00 0.  1.
         11    1    3    3    0    0 -0.20016627893E+02  0.15195745381E+02 -0.80629528598E+02  0.84455295582E+02  0.00000000000E+00 0. -1.
<mgrwt>
<rscale>  0 0.11664413E+03</rscale>
<asrwt>0</asrwt>
<pdfrwt beam="2">  1        2 0.37812738E-01 0.12838509E+03</pdfrwt>
<pdfrwt beam="1">  1       -2 0.83162660E-02 0.12838509E+03</pdfrwt>
<totfact> 0.11337703E+04</totfact>
</mgrwt>
</event>
<event>
 7    1  0.1111284E-005  0.1799016E+03  0.7546771E-02  0.1170910E+00
         -1   -1    0    0    0  501 -0.00000000000E+00  0.00000000000E+00  0.21998136230E+03  0.21998136230E+03  0.00000000000E+00 0.  1.
          1   -1    0    0  501    0  0.00000000000E+00 -0.00000000000E+00 -0.15840400036E+03  0.15840400036E+03  0.00000000000E+00 0. -1.
         23    2    1    2    0    0  0.11048605853E+03 -0.87176166614E+02 -0.38851526198E+02  0.17235005425E+03  0.91587373361E+02 0.  0.
          5    1    1    2  502    0 -0.77270371729E+02  0.10518662455E+03  0.43712743222E+02  0.13772374614E+03  0.47000000000E+01 0. -1.
         -5    1    1    2    0  502 -0.33215686798E+02 -0.18010457937E+02  0.56716144919E+02  0.68311562264E+02  0.47000000000E+01 0.  1.
        -11    1    3    3    0    0  0.86487619041E+01 -0.62072551733E+02 -0.19980888454E+02  0.65780230043E+02  0.00000000000E+00 0.  1.
         11    1    3    3    0    0  0.10183729662E+03 -0.25103614881E+02 -0.18870637745E+02  0.10656982421E+03  0.00000000000E+00 0. -1.
<mgrwt>
<rscale>  0 0.17682676E+03</rscale>
<asrwt>0</asrwt>
<pdfrwt beam="2">  1        1 0.24369846E-01 0.17990160E+03</pdfrwt>
<pdfrwt beam="1">  1       -1 0.33843287E-01 0.17990160E+03</pdfrwt>
<totfact> 0.16203310E+03</totfact>
</mgrwt>
</event>
<event>
 7    1  0.1111284E-005  0.1243949E+03  0.7546771E-02  0.1246705E+00
         -2   -1    0    0    0  501 -0.00000000000E+00  0.00000000000E+00  0.11954887029E+03  0.11954887029E+03  0.00000000000E+00 0.  1.
          2   -1    0    0  501    0  0.00000000000E+00 -0.00000000000E+00 -0.10636584548E+03  0.10636584548E+03  0.00000000000E+00 0. -1.
         23    2    1    2    0    0 -0.22916349801E+02 -0.35432504259E+02 -0.44726610858E+01  0.10027307562E+03  0.90851876985E+02 0.  0.
          5    1    1    2  502    0  0.10325284285E+02  0.71830142261E+02 -0.15791578510E+02  0.74415353152E+02  0.47000000000E+01 0. -1.
         -5    1    1    2    0  502  0.12591065516E+02 -0.36397638003E+02  0.33447264409E+02  0.51226286997E+02  0.47000000000E+01 0.  1.
        -11    1    3    3    0    0  0.21185119048E+02  0.19834509805E+02  0.29872824435E+01  0.29174319267E+02  0.00000000000E+00 0. -1.
         11    1    3    3    0    0 -0.44101468849E+02 -0.55267014063E+02 -0.74599435293E+01  0.71098756358E+02  0.00000000000E+00 0.  1.
<mgrwt>
<rscale>  0 0.11783925E+03</rscale>
<asrwt>0</asrwt>
<pdfrwt beam="2">  1        2 0.16363976E-01 0.12439493E+03</pdfrwt>
<pdfrwt beam="1">  1       -2 0.18392134E-01 0.12439493E+03</pdfrwt>
<totfact> 0.79943970E+03</totfact>
</mgrwt>
</event>
<event>
 7    1  0.1111284E-005  0.1611065E+03  0.7546771E-02  0.1193350E+00
          2   -1    0    0  501    0  0.00000000000E+00  0.00000000000E+00  0.27418088442E+03  0.27418088442E+03  0.00000000000E+00 0. -1.
         -2   -1    0    0    0  501 -0.00000000000E+00 -0.00000000000E+00 -0.10446551635E+03  0.10446551635E+03  0.00000000000E+00 0.  1.
         23    2    1    2    0    0 -0.18898561511E+02  0.99868652675E+02  0.16520031603E+03  0.21747660503E+03  0.98356626145E+02 0.  0.
          5    1    1    2  502    0  0.44952787568E+02 -0.10656416448E+03 -0.27616001377E+02  0.11900171341E+03  0.47000000000E+01 0. -1.
         -5    1    1    2    0  502 -0.26054226057E+02  0.66955118092E+01  0.32131053423E+02  0.42168082336E+02  0.47000000000E+01 0. -1.
        -11    1    3    3    0    0  0.12720852935E+02  0.26988059775E+02 -0.44315542278E+01  0.30163125546E+02  0.00000000000E+00 0.  1.
         11    1    3    3    0    0 -0.31619414445E+02  0.72880592899E+02  0.16963187025E+03  0.18731347949E+03  0.00000000000E+00 0. -1.
<mgrwt>
<rscale>  0 0.15594699E+03</rscale>
<asrwt>0</asrwt>
<pdfrwt beam="1">  1        2 0.42181674E-01 0.16110654E+03</pdfrwt>
<pdfrwt beam="2">  1       -2 0.16071618E-01 0.16110654E+03</pdfrwt>
<totfact> 0.35783116E+03</totfact>
</mgrwt>
</event>
<event>
 7    1  0.1111284E-005  0.1327004E+03  0.7546771E-02  0.1237062E+00
          2   -1    0    0  501    0  0.00000000000E+00  0.00000000000E+00  0.23537742058E+03  0.23537742058E+03  0.00000000000E+00 0. -1.
         -2   -1    0    0    0  501 -0.00000000000E+00 -0.00000000000E+00 -0.64690645457E+02  0.64690645457E+02  0.00000000000E+00 0.  1.
         23    2    1    2    0    0 -0.25763360935E+02 -0.36374129075E+02  0.12378153453E+03  0.15932183650E+03  0.89859619748E+02 0.  0.
          5    1    1    2  502    0  0.53813576512E+02  0.28981126623E+02  0.77174546264E+02  0.98558649080E+02  0.47000000000E+01 0.  1.
         -5    1    1    2    0  502 -0.28050215578E+02  0.73930024519E+01 -0.30269305672E+02  0.42187580460E+02  0.47000000000E+01 0.  1.
        -11    1    3    3    0    0 -0.44221300455E+02 -0.56990817999E+02  0.82065656936E+02  0.10926229358E+03  0.00000000000E+00 0.  1.
         11    1    3    3    0    0  0.18457939520E+02  0.20616688924E+02  0.41715877597E+02  0.50059542919E+02  0.00000000000E+00 0. -1.
<mgrwt>
<rscale>  0 0.12373355E+03</rscale>
<asrwt>0</asrwt>
<pdfrwt beam="1">  1        2 0.36211910E-01 0.13270041E+03</pdfrwt>
<pdfrwt beam="2">  1       -2 0.99524071E-02 0.13270041E+03</pdfrwt>
<totfact> 0.89988296E+03</totfact>
</mgrwt>
</event>
<event>
 7    1  0.1111284E-005  0.1440161E+03  0.7546771E-02  0.1218287E+00
          2   -1    0    0  501    0  0.00000000000E+00  0.00000000000E+00  0.37815016797E+03  0.37815016797E+03  0.00000000000E+00 0.  1.
         -2   -1    0    0    0  501 -0.00000000000E+00 -0.00000000000E+00 -0.73193345881E+02  0.73193345881E+02  0.00000000000E+00 0. -1.
         23    2    1    2    0    0  0.12967953770E+02 -0.70311695339E+02  0.28284984702E+03  0.30564056760E+03  0.91105533752E+02 0.  0.
          5    1    1    2  502    0  0.21691925516E+02 -0.15297182538E+02  0.43133797369E+02  0.50864112119E+02  0.47000000000E+01 0. -1.
         -5    1    1    2    0  502 -0.34659879286E+02  0.85608877878E+02 -0.21026822296E+02  0.94838834132E+02  0.47000000000E+01 0. -1.
        -11    1    3    3    0    0 -0.17274183182E+02 -0.98789992959E+01  0.61796943954E+01  0.20837002052E+02  0.00000000000E+00 0. -1.
         11    1    3    3    0    0  0.30242136952E+02 -0.60432696043E+02  0.27667015262E+03  0.28480356555E+03  0.00000000000E+00 0.  1.
<mgrwt>
<rscale>  0 0.13637834E+03</rscale>
<asrwt>0</asrwt>
<pdfrwt beam="1">  1        2 0.58176948E-01 0.14401608E+03</pdfrwt>
<pdfrwt beam="2">  1       -2 0.11260515E-01 0.14401608E+03</pdfrwt>
<totfact> 0.44961679E+03</totfact>
</mgrwt>
</event>
<event>
 7    1  0.1111284E-005  0.1512229E+03  0.7546771E-02  0.1207724E+00
          2   -1    0    0  501    0  0.00000000000E+00  0.00000000000E+00  0.51100720145E+03  0.51100720145E+03  0.00000000000E+00 0. -1.
         -2   -1    0    0    0  501 -0.00000000000E+00 -0.00000000000E+00 -0.41051232340E+02  0.41051232340E+02  0.00000000000E+00 0.  1.
         23    2    1    2    0    0 -0.96607835009E+01 -0.84562359612E+02  0.29703303241E+03  0.32233967004E+03  0.91815669352E+02 0.  0.
          5    1    1    2  502    0  0.37838174212E+01  0.60067657620E+02  0.18971073752E+03  0.19908464204E+03  0.47000000000E+01 0. -1.
         -5    1    1    2    0  502  0.58769660797E+01  0.24494701992E+02 -0.16787800825E+02  0.30634121703E+02  0.47000000000E+01 0. -1.
        -11    1    3    3    0    0  0.22291816044E+02 -0.89493902184E+02  0.23347262358E+03  0.25102898150E+03  0.00000000000E+00 0. -1.
         11    1    3    3    0    0 -0.31952599545E+02  0.49315425721E+01  0.63560408831E+02  0.71310688544E+02  0.00000000000E+00 0.  1.
<mgrwt>
<rscale>  0 0.14424857E+03</rscale>
<asrwt>0</asrwt>
<pdfrwt beam="1">  1        2 0.78616488E-01 0.15122291E+03</pdfrwt>
<pdfrwt beam="2">  1       -2 0.63155746E-02 0.15122291E+03</pdfrwt>
<totfact> 0.79949376E+03</totfact>
</mgrwt>
</event>
<event>
 7    1  0.1111284E-005  0.1466037E+03  0.7546771E-02  0.1209302E+00
         -1   -1    0    0    0  501 -0.00000000000E+00  0.00000000000E+00  0.72934830919E+02  0.72934830919E+02  0.00000000000E+00 0.  1.
          1   -1    0    0  501    0  0.00000000000E+00 -0.00000000000E+00 -0.26855579162E+03  0.26855579162E+03  0.00000000000E+00 0. -1.
         23    2    1    2    0    0 -0.53972082743E+02  0.54386677265E+02 -0.10278301690E+03  0.16796391582E+03  0.10852019202E+03 0.  0.
          5    1    1    2  502    0  0.16287961945E+01 -0.85370689453E+02 -0.51337543976E+02  0.99741871931E+02  0.47000000000E+01 0.  1.
         -5    1    1    2    0  502  0.52343286549E+02  0.30984012189E+02 -0.41500399823E+02  0.73784834780E+02  0.47000000000E+01 0.  1.
        -11    1    3    3    0    0  0.63708877501E+00 -0.15242740711E+02  0.14497050962E+02  0.21045463005E+02  0.00000000000E+00 0.  1.
         11    1    3    3    0    0 -0.54609171518E+02  0.69629417976E+02 -0.11728006786E+03  0.14691845282E+03  0.00000000000E+00 0. -1.
<mgrwt>
<rscale>  0 0.14303559E+03</rscale>
<asrwt>0</asrwt>
<pdfrwt beam="2">  1        1 0.41316276E-01 0.14660366E+03</pdfrwt>
<pdfrwt beam="1">  1       -1 0.11220743E-01 0.14660366E+03</pdfrwt>
<totfact> 0.49422522E+03</totfact>
</mgrwt>
</event>
<event>
 7    1  0.1111284E-005  0.2001521E+03  0.7546771E-02  0.1154109E+00
          2   -1    0    0  501    0  0.00000000000E+00  0.00000000000E+00  0.74418796758E+03  0.74418796758E+03  0.00000000000E+00 0.  1.
         -2   -1    0    0    0  501 -0.00000000000E+00 -0.00000000000E+00 -0.50522247561E+02  0.50522247561E+02  0.00000000000E+00 0. -1.
         23    2    1    2    0    0 -0.10813915737E+03  0.11287699570E+03  0.40769667714E+03  0.44565555088E+03  0.89201995267E+02 0.  0.
          5    1    1    2  502    0  0.10994750088E+03 -0.27233059787E+02  0.14539042063E+03  0.18436528118E+03  0.47000000000E+01 0. -1.
         -5    1    1    2    0  502 -0.18083435114E+01 -0.85643935917E+02  0.14057862224E+03  0.16468938307E+03  0.47000000000E+01 0. -1.
        -11    1    3    3    0    0 -0.40857826600E+02  0.38053726709E+02  0.53078886313E+02  0.77037758814E+02  0.00000000000E+00 0. -1.
         11    1    3    3    0    0 -0.67281330769E+02  0.74823268995E+02  0.35461779083E+03  0.36861779206E+03  0.00000000000E+00 0.  1.
<mgrwt>
<rscale>  0 0.19490605E+03</rscale>
<asrwt>0</asrwt>
<pdfrwt beam="1">  1        2 0.11449045E+00 0.20015211E+03</pdfrwt>
<pdfrwt beam="2">  1       -2 0.77726540E-02 0.20015211E+03</pdfrwt>
<totfact> 0.38021036E+03</totfact>
</mgrwt>
</event>
<event>
 7    1  0.1111284E-005  0.1997281E+03  0.7546771E-02  0.1154402E+00
          2   -1    0    0  501    0  0.00000000000E+00  0.00000000000E+00  0.59564214908E+03  0.59564214908E+03  0.00000000000E+00 0. -1.
         -2   -1    0    0    0  501 -0.00000000000E+00 -0.00000000000E+00 -0.64203364590E+02  0.64203364590E+02  0.00000000000E+00 0.  1.
         23    2    1    2    0    0 -0.14789268695E+03  0.48919237381E+02  0.33194462149E+03  0.37755271486E+03  0.89963782282E+02 0.  0.
          5    1    1    2  502    0  0.13894355308E+03 -0.61585293753E+01  0.93776476507E+02  0.16780749677E+03  0.47000000000E+01 0. -1.
         -5    1    1    2    0  502  0.89491338689E+01 -0.42760708006E+02  0.10571768649E+03  0.11448530204E+03  0.47000000000E+01 0. -1.
        -11    1    3    3    0    0 -0.76037430553E+02  0.45852796363E+02  0.95451940063E+02  0.13036580319E+03  0.00000000000E+00 0.  1.
         11    1    3    3    0    0 -0.71855256394E+02  0.30664410183E+01  0.23649268143E+03  0.24718691167E+03  0.00000000000E+00 0. -1.
<mgrwt>
<rscale>  0 0.19457114E+03</rscale>
<asrwt>0</asrwt>
<pdfrwt beam="1">  1        2 0.91637250E-01 0.19972807E+03</pdfrwt>
<pdfrwt beam="2">  1       -2 0.98774411E-02 0.19972807E+03</pdfrwt>
<totfact> 0.34012882E+03</totfact>
</mgrwt>
</event>
<event>
 7    1  0.1111284E-005  0.1922679E+03  0.7546771E-02  0.1161189E+00
          4   -1    0    0  501    0  0.00000000000E+00  0.00000000000E+00  0.35492398498E+02  0.35492398498E+02  0.00000000000E+00 0.  1.
         -4   -1    0    0    0  501 -0.00000000000E+00 -0.00000000000E+00 -0.10539724944E+04  0.10539724944E+04  0.00000000000E+00 0. -1.
         23    2    1    2    0    0 -0.13324935481E+03  0.59904807584E+02 -0.30144971777E+03  0.34710411574E+03  0.90914015924E+02 0.  0.
          5    1    1    2  502    0  0.93547200378E+02 -0.33677808867E+02 -0.66207999998E+03  0.66952019379E+03  0.47000000000E+01 0. -1.
         -5    1    1    2    0  502  0.39702154433E+02 -0.26226998718E+02 -0.54950378179E+02  0.72840583402E+02  0.47000000000E+01 0. -1.
        -11    1    3    3    0    0 -0.12727740666E+02 -0.12544636406E+02 -0.43302495839E+01  0.18387885862E+02  0.00000000000E+00 0.  1.
         11    1    3    3    0    0 -0.12052161414E+03  0.72449443990E+02 -0.29711946818E+03  0.32871622987E+03  0.00000000000E+00 0. -1.
<mgrwt>
<rscale>  0 0.18700738E+03</rscale>
<asrwt>0</asrwt>
<pdfrwt beam="1">  1        4 0.54603699E-02 0.19226794E+03</pdfrwt>
<pdfrwt beam="2">  1       -4 0.16214959E+00 0.19226794E+03</pdfrwt>
<totfact> 0.94991372E+01</totfact>
</mgrwt>
</event>
<event>
 7    1  0.1111284E-005  0.1389794E+03  0.7546771E-02  0.1225961E+00
          1   -1    0    0  501    0  0.00000000000E+00  0.00000000000E+00  0.20330890866E+02  0.20330890866E+02  0.00000000000E+00 0. -1.
         -1   -1    0    0    0  501 -0.00000000000E+00 -0.00000000000E+00 -0.76110097527E+03  0.76110097527E+03  0.00000000000E+00 0.  1.
         23    2    1    2    0    0 -0.46576767953E+02  0.38998268574E+02 -0.31835044429E+03  0.33673686988E+03  0.91402701757E+02 0.  0.
          5    1    1    2  502    0 -0.72743327342E+00 -0.75593433980E+02 -0.18712902509E+03  0.20187683981E+03  0.47000000000E+01 0.  1.
         -5    1    1    2    0  502  0.47304201226E+02  0.36595165406E+02 -0.23529061502E+03  0.24281815645E+03  0.47000000000E+01 0.  1.
        -11    1    3    3    0    0 -0.12923629812E+02 -0.24324021183E+02 -0.35469634096E+02  0.44908497602E+02  0.00000000000E+00 0. -1.
         11    1    3    3    0    0 -0.33653138140E+02  0.63322289757E+02 -0.28288081020E+03  0.29182837228E+03  0.00000000000E+00 0.  1.
<mgrwt>
<rscale>  0 0.13101243E+03</rscale>
<asrwt>0</asrwt>
<pdfrwt beam="1">  1        1 0.31278288E-02 0.13897945E+03</pdfrwt>
<pdfrwt beam="2">  1       -1 0.11709248E+00 0.13897945E+03</pdfrwt>
<totfact> 0.21852007E+03</totfact>
</mgrwt>
</event>
<event>
 7    1  0.1111284E-005  0.2751481E+03  0.7546771E-02  0.1099324E+00
         -2   -1    0    0    0  501 -0.00000000000E+00  0.00000000000E+00  0.93382776458E+02  0.93382776458E+02  0.00000000000E+00 0.  1.
          2   -1    0    0  501    0  0.00000000000E+00 -0.00000000000E+00 -0.83457717012E+03  0.83457717012E+03  0.00000000000E+00 0. -1.
         23    2    1    2    0    0  0.31950160694E+02  0.24980622918E+03 -0.47231681716E+03  0.54325018090E+03  0.92809581226E+02 0.  0.
          5    1    1    2  502    0 -0.35323662858E+02 -0.18082163637E+02 -0.20277977512E+02  0.44810848814E+02  0.47000000000E+01 0. -1.
         -5    1    1    2    0  502  0.33735021640E+01 -0.23172406554E+03 -0.24859959899E+03  0.33989891687E+03  0.47000000000E+01 0.  1.
        -11    1    3    3    0    0 -0.17566092634E+02  0.17986995456E+03 -0.28834932574E+03  0.34030442521E+03  0.00000000000E+00 0. -1.
         11    1    3    3    0    0  0.49516253328E+02  0.69936274619E+02 -0.18396749142E+03  0.20294575569E+03  0.00000000000E+00 0.  1.
<mgrwt>
<rscale>  0 0.27344484E+03</rscale>
<asrwt>0</asrwt>
<pdfrwt beam="2">  1        2 0.12839649E+00 0.27514806E+03</pdfrwt>
<pdfrwt beam="1">  1       -2 0.14366580E-01 0.27514806E+03</pdfrwt>
<totfact> 0.12362755E+03</totfact>
</mgrwt>
</event>
<event>
 7    1  0.1111284E-005  0.1299259E+03  0.7546771E-02  0.1243465E+00
         -3   -1    0    0    0  501 -0.00000000000E+00  0.00000000000E+00  0.38552155047E+02  0.38552155047E+02  0.00000000000E+00 0.  1.
          3   -1    0    0  501    0  0.00000000000E+00 -0.00000000000E+00 -0.36233848583E+03  0.36233848583E+03  0.00000000000E+00 0. -1.
         23    2    1    2    0    0  0.54521146929E+01  0.35023500139E+02 -0.20233758780E+03  0.22304084759E+03  0.86892745028E+02 0.  0.
          5    1    1    2  502    0 -0.15608765166E+02  0.40766795886E+02 -0.14391071288E+02  0.46203442833E+02  0.47000000000E+01 0. -1.
         -5    1    1    2    0  502  0.10156650473E+02 -0.75790296024E+02 -0.10705767169E+03  0.13164635046E+03  0.47000000000E+01 0. -1.
        -11    1    3    3    0    0 -0.33664962081E+02  0.34023041714E+02 -0.68250147632E+02  0.83360540372E+02  0.00000000000E+00 0.  1.
         11    1    3    3    0    0  0.39117076774E+02  0.10004584248E+01 -0.13408744017E+03  0.13968030722E+03  0.00000000000E+00 0. -1.
<mgrwt>
<rscale>  0 0.11977707E+03</rscale>
<asrwt>0</asrwt>
<pdfrwt beam="2">  1        3 0.55744384E-01 0.12992595E+03</pdfrwt>
<pdfrwt beam="1">  1       -3 0.59311007E-02 0.12992595E+03</pdfrwt>
<totfact> 0.12706184E+03</totfact>
</mgrwt>
</event>
<event>
 7    1  0.1111284E-005  0.1455780E+03  0.7546771E-02  0.1216929E+00
          2   -1    0    0  501    0  0.00000000000E+00  0.00000000000E+00  0.51629218061E+03  0.51629218061E+03  0.00000000000E+00 0.  1.
         -2   -1    0    0    0  501 -0.00000000000E+00 -0.00000000000E+00 -0.34288700856E+02  0.34288700856E+02  0.00000000000E+00 0. -1.
         23    2    1    2    0    0 -0.49741127400E+02  0.55628704788E+02  0.26771588397E+03  0.29152078389E+03  0.87999092927E+02 0.  0.
          5    1    1    2  502    0  0.59194284652E+02 -0.87398603058E+02  0.19100144025E+03  0.21827991051E+03  0.47000000000E+01 0. -1.
         -5    1    1    2    0  502 -0.94531572523E+01  0.31769898270E+02  0.23286155524E+02  0.40780187067E+02  0.47000000000E+01 0. -1.
        -11    1    3    3    0    0  0.15233938895E+02 -0.12891664479E+02  0.33616960575E+02  0.39094346722E+02  0.00000000000E+00 0. -1.
         11    1    3    3    0    0 -0.64975066295E+02  0.68520369267E+02  0.23409892340E+03  0.25242643717E+03  0.00000000000E+00 0.  1.
<mgrwt>
<rscale>  0 0.13735821E+03</rscale>
<asrwt>0</asrwt>
<pdfrwt beam="1">  1        2 0.79429561E-01 0.14557802E+03</pdfrwt>
<pdfrwt beam="2">  1       -2 0.52751851E-02 0.14557802E+03</pdfrwt>
<totfact> 0.10359668E+04</totfact>
</mgrwt>
</event>
<event>
 7    1  0.1111284E-005  0.1261614E+03  0.7546771E-02  0.1240866E+00
          2   -1    0    0  501    0  0.00000000000E+00  0.00000000000E+00  0.29872438731E+03  0.29872438731E+03  0.00000000000E+00 0.  1.
         -2   -1    0    0    0  501 -0.00000000000E+00 -0.00000000000E+00 -0.50222421831E+02  0.50222421831E+02  0.00000000000E+00 0. -1.
         23    2    1    2    0    0  0.52466906329E+02 -0.23695760908E+02  0.16649825522E+03  0.19847653801E+03  0.91416638558E+02 0.  0.
          5    1    1    2  502    0 -0.82442328114E+02  0.10002888929E+00  0.34832734167E+02  0.89622301021E+02  0.47000000000E+01 0. -1.
         -5    1    1    2    0  502  0.29975421785E+02  0.23595732019E+02  0.47170976086E+02  0.60847970103E+02  0.47000000000E+01 0.  1.
        -11    1    3    3    0    0  0.55521981922E+02 -0.53849510698E+02  0.12684709249E+03  0.14856865468E+03  0.00000000000E+00 0.  1.
         11    1    3    3    0    0 -0.30550755931E+01  0.30153749790E+02  0.39651162731E+02  0.49907883337E+02  0.00000000000E+00 0. -1.
<mgrwt>
<rscale>  0 0.12136252E+03</rscale>
<asrwt>0</asrwt>
<pdfrwt beam="1">  1        2 0.45957597E-01 0.12616138E+03</pdfrwt>
<pdfrwt beam="2">  1       -2 0.77265266E-02 0.12616138E+03</pdfrwt>
<totfact> 0.10313852E+04</totfact>
</mgrwt>
</event>
<event>
 7    1  0.1111284E-005  0.1534020E+03  0.7546771E-02  0.1205490E+00
         -2   -1    0    0    0  501 -0.00000000000E+00  0.00000000000E+00  0.38323228597E+02  0.38323228597E+02  0.00000000000E+00 0.  1.
          2   -1    0    0  501    0  0.00000000000E+00 -0.00000000000E+00 -0.52521303697E+03  0.52521303697E+03  0.00000000000E+00 0. -1.
         23    2    1    2    0    0  0.15593053626E+02  0.87542745003E+02 -0.26997618624E+03  0.29786032769E+03  0.89032343259E+02 0.  0.
          5    1    1    2  502    0  0.19591658654E+02  0.21811043300E+02 -0.88335012615E+02  0.93191840589E+02  0.47000000000E+01 0. -1.
         -5    1    1    2    0  502 -0.35184712280E+02 -0.10935378830E+03 -0.12857860951E+03  0.17248409729E+03  0.47000000000E+01 0. -1.
        -11    1    3    3    0    0  0.48400693980E+02  0.74638903786E+02 -0.17032106985E+03  0.19215322004E+03  0.00000000000E+00 0.  1.
         11    1    3    3    0    0 -0.32807640354E+02  0.12903841217E+02 -0.99655116392E+02  0.10570710765E+03  0.00000000000E+00 0. -1.
<mgrwt>
<rscale>  0 0.14598926E+03</rscale>
<asrwt>0</asrwt>
<pdfrwt beam="2">  1        2 0.80801996E-01 0.15340204E+03</pdfrwt>
<pdfrwt beam="1">  1       -2 0.58958820E-02 0.15340204E+03</pdfrwt>
<totfact> 0.86186578E+03</totfact>
</mgrwt>
</event>
<event>
 7    1  0.1111284E-005  0.1575401E+03  0.7546771E-02  0.1199537E+00
         -1   -1    0    0    0  501 -0.00000000000E+00  0.00000000000E+00  0.26801451532E+03  0.26801451532E+03  0.00000000000E+00 0.  1.
          1   -1    0    0  501    0  0.00000000000E+00 -0.00000000000E+00 -0.94861491975E+02  0.94861491975E+02  0.00000000000E+00 0. -1.
         23    2    1    2    0    0 -0.63522373964E+02 -0.71825091910E+02  0.46769993349E+01  0.13221814795E+03  0.90916601903E+02 0.  0.
          5    1    1    2  502    0 -0.27407293173E+02  0.31399873096E+02  0.10361463503E+03  0.11178190525E+03  0.47000000000E+01 0. -1.
         -5    1    1    2    0  502  0.90929667137E+02  0.40425218815E+02  0.64861388982E+02  0.11887595410E+03  0.47000000000E+01 0. -1.
        -11    1    3    3    0    0  0.17159811867E+02  0.60495131241E+01 -0.69623597572E+01  0.19481534995E+02  0.00000000000E+00 0.  1.
         11    1    3    3    0    0 -0.80682185831E+02 -0.77874605034E+02  0.11639359092E+02  0.11273661295E+03  0.00000000000E+00 0. -1.
<mgrwt>
<rscale>  0 0.15076415E+03</rscale>
<asrwt>0</asrwt>
<pdfrwt beam="2">  1        1 0.14594076E-01 0.15754008E+03</pdfrwt>
<pdfrwt beam="1">  1       -1 0.41233002E-01 0.15754008E+03</pdfrwt>
<totfact> 0.22084246E+03</totfact>
</mgrwt>
</event>
<event>
 7    1  0.1111284E-005  0.1380044E+03  0.7546771E-02  0.1227705E+00
          2   -1    0    0  501    0  0.00000000000E+00  0.00000000000E+00  0.34726075543E+03  0.34726075543E+03  0.00000000000E+00 0.  1.
         -2   -1    0    0    0  501 -0.00000000000E+00 -0.00000000000E+00 -0.45515549850E+02  0.45515549850E+02  0.00000000000E+00 0. -1.
         23    2    1    2    0    0 -0.58214688921E+02  0.56988593075E+01  0.17325571576E+03  0.20421656275E+03  0.90914434787E+02 0.  0.
          5    1    1    2  502    0 -0.31741967575E+02 -0.84942401132E+01  0.79119553144E+02  0.85800339803E+02  0.47000000000E+01 0. -1.
         -5    1    1    2    0  502  0.89956656496E+02  0.27953808057E+01  0.49369936671E+02  0.10275940273E+03  0.47000000000E+01 0. -1.
        -11    1    3    3    0    0 -0.54509406980E+02  0.36067698965E+02  0.15588892036E+03  0.16903700734E+03  0.00000000000E+00 0.  1.
         11    1    3    3    0    0 -0.37052819409E+01 -0.30368839658E+02  0.17366795401E+02  0.35179555411E+02  0.00000000000E+00 0. -1.
<mgrwt>
<rscale>  0 0.12983209E+03</rscale>
<asrwt>0</asrwt>
<pdfrwt beam="1">  1        2 0.53424730E-01 0.13800445E+03</pdfrwt>
<pdfrwt beam="2">  1       -2 0.70023925E-02 0.13800445E+03</pdfrwt>
<totfact> 0.10296390E+04</totfact>
</mgrwt>
</event>
<event>
 7    1  0.1111284E-005  0.1345589E+03  0.7546771E-02  0.1233827E+00
         -2   -1    0    0    0  501 -0.00000000000E+00  0.00000000000E+00  0.32611264856E+02  0.32611264856E+02  0.00000000000E+00 0. -1.
          2   -1    0    0  501    0  0.00000000000E+00 -0.00000000000E+00 -0.44129479004E+03  0.44129479004E+03  0.00000000000E+00 0.  1.
         23    2    1    2    0    0  0.48534202421E+02 -0.11863758034E+02 -0.21189185406E+03  0.23550921800E+03  0.89833826501E+02 0.  0.
          5    1    1    2  502    0  0.11687001463E+02  0.24436657233E+02  0.45030659236E+01  0.27858640000E+02  0.47000000000E+01 0. -1.
         -5    1    1    2    0  502 -0.60221203884E+02 -0.12572899199E+02 -0.20129473704E+03  0.21053819690E+03  0.47000000000E+01 0. -1.
        -11    1    3    3    0    0  0.72647424157E+02 -0.31672270065E+01 -0.12193257382E+03  0.14196912383E+03  0.00000000000E+00 0.  1.
         11    1    3    3    0    0 -0.24113221735E+02 -0.86965310276E+01 -0.89959280242E+02  0.93540094163E+02  0.00000000000E+00 0. -1.
<mgrwt>
<rscale>  0 0.12579846E+03</rscale>
<asrwt>0</asrwt>
<pdfrwt beam="2">  1        2 0.67891502E-01 0.13455887E+03</pdfrwt>
<pdfrwt beam="1">  1       -2 0.50171180E-02 0.13455887E+03</pdfrwt>
<totfact> 0.13185748E+04</totfact>
</mgrwt>
</event>
<event>
 7    1  0.1111284E-005  0.1282505E+03  0.7546771E-02  0.1245465E+00
         -1   -1    0    0    0  501 -0.00000000000E+00  0.00000000000E+00  0.27081714915E+02  0.27081714915E+02  0.00000000000E+00 0.  1.
          1   -1    0    0  501    0  0.00000000000E+00 -0.00000000000E+00 -0.47848863032E+03  0.47848863032E+03  0.00000000000E+00 0. -1.
         23    2    1    2    0    0  0.20069391712E+02 -0.19859431382E+02 -0.24790353714E+03  0.26502551250E+03  0.89359840239E+02 0.  0.
          5    1    1    2  502    0 -0.29331937824E+02  0.35469733516E+02 -0.11560833448E+02  0.47688651084E+02  0.47000000000E+01 0. -1.
         -5    1    1    2    0  502  0.92625461119E+01 -0.15610302133E+02 -0.19194254482E+03  0.19285618166E+03  0.47000000000E+01 0. -1.
        -11    1    3    3    0    0 -0.17759593604E+02 -0.44784332612E+02 -0.11837205132E+03  0.12780055613E+03  0.00000000000E+00 0.  1.
         11    1    3    3    0    0  0.37828985315E+02  0.24924901230E+02 -0.12953148582E+03  0.13722495637E+03  0.00000000000E+00 0. -1.
<mgrwt>
<rscale>  0 0.11857570E+03</rscale>
<asrwt>0</asrwt>
<pdfrwt beam="2">  1        1 0.73613637E-01 0.12825050E+03</pdfrwt>
<pdfrwt beam="1">  1       -1 0.41664176E-02 0.12825050E+03</pdfrwt>
<totfact> 0.10493045E+04</totfact>
</mgrwt>
</event>
<event>
 7    1  0.1111284E-005  0.1399802E+03  0.7546771E-02  0.1224473E+00
          3   -1    0    0  501    0  0.00000000000E+00  0.00000000000E+00  0.64281285528E+02  0.64281285528E+02  0.00000000000E+00 0. -1.
         -3   -1    0    0    0  501 -0.00000000000E+00 -0.00000000000E+00 -0.28211738453E+03  0.28211738453E+03  0.00000000000E+00 0.  1.
         23    2    1    2    0    0 -0.13880528716E+02  0.61443707424E+02 -0.35114000720E+02  0.11622087566E+03  0.91138908443E+02 0.  0.
          5    1    1    2  502    0 -0.50485391513E+01 -0.39474321099E+02  0.48086298681E+01  0.40359914457E+02  0.47000000000E+01 0.  1.
         -5    1    1    2    0  502  0.18929067867E+02 -0.21969386325E+02 -0.18753072815E+03  0.18981787994E+03  0.47000000000E+01 0.  1.
        -11    1    3    3    0    0 -0.41900719828E+02  0.34641233797E+02 -0.50787437757E+02  0.74397911497E+02  0.00000000000E+00 0. -1.
         11    1    3    3    0    0  0.28020191113E+02  0.26802473627E+02  0.15673437037E+02  0.41822964159E+02  0.00000000000E+00 0.  1.
<mgrwt>
<rscale>  0 0.13203057E+03</rscale>
<asrwt>0</asrwt>
<pdfrwt beam="1">  1        3 0.98894285E-02 0.13998018E+03</pdfrwt>
<pdfrwt beam="2">  1       -3 0.43402675E-01 0.13998018E+03</pdfrwt>
<totfact> 0.92261233E+02</totfact>
</mgrwt>
</event>
<event>
 7    1  0.1111284E-005  0.1342935E+03  0.7546771E-02  0.1233661E+00
         -3   -1    0    0    0  501 -0.00000000000E+00  0.00000000000E+00  0.84692745744E+02  0.84692745744E+02  0.00000000000E+00 0. -1.
          3   -1    0    0  501    0  0.00000000000E+00 -0.00000000000E+00 -0.21257142680E+03  0.21257142680E+03  0.00000000000E+00 0.  1.
         23    2    1    2    0    0  0.30951040973E+02 -0.38098286641E+02 -0.12565071737E+03  0.16295215473E+03  0.91410369077E+02 0.  0.
          5    1    1    2  502    0  0.13316576817E+02  0.60106903150E+02 -0.38547057867E+02  0.72788300534E+02  0.47000000000E+01 0. -1.
         -5    1    1    2    0  502 -0.44267617790E+02 -0.22008616509E+02  0.36319094179E+02  0.61523717276E+02  0.47000000000E+01 0. -1.
        -11    1    3    3    0    0  0.41405136405E+02  0.38420616513E+01 -0.10894738835E+03  0.11661337911E+03  0.00000000000E+00 0.  1.
         11    1    3    3    0    0 -0.10454095432E+02 -0.41940348293E+02 -0.16703329017E+02  0.46338775625E+02  0.00000000000E+00 0. -1.
<mgrwt>
<rscale>  0 0.12590547E+03</rscale>
<asrwt>0</asrwt>
<pdfrwt beam="2">  1        3 0.32703296E-01 0.13429354E+03</pdfrwt>
<pdfrwt beam="1">  1       -3 0.13029653E-01 0.13429354E+03</pdfrwt>
<totfact> 0.99354170E+02</totfact>
</mgrwt>
</event>
<event>
 7    1  0.1111284E-005  0.1342839E+03  0.7546771E-02  0.1233579E+00
          2   -1    0    0  501    0  0.00000000000E+00  0.00000000000E+00  0.21712488892E+03  0.21712488892E+03  0.00000000000E+00 0.  1.
         -2   -1    0    0    0  501 -0.00000000000E+00 -0.00000000000E+00 -0.74517137600E+02  0.74517137600E+02  0.00000000000E+00 0. -1.
         23    2    1    2    0    0  0.14133396189E+02 -0.46987903329E+02  0.11412248361E+03  0.15437014501E+03  0.91643791160E+02 0.  0.
          5    1    1    2  502    0 -0.40485697855E+02 -0.26231866899E+02 -0.11267848204E+02  0.49762003325E+02  0.47000000000E+01 0.  1.
         -5    1    1    2    0  502  0.26352301666E+02  0.73219770227E+02  0.39753115912E+02  0.87509878185E+02  0.47000000000E+01 0.  1.
        -11    1    3    3    0    0 -0.22116499323E+02 -0.46630203145E+02  0.10498525416E+03  0.11698469549E+03  0.00000000000E+00 0.  1.
         11    1    3    3    0    0  0.36249895512E+02 -0.35770018355E+00  0.91372294549E+01  0.37385449525E+02  0.00000000000E+00 0. -1.
<mgrwt>
<rscale>  0 0.12595837E+03</rscale>
<asrwt>0</asrwt>
<pdfrwt beam="1">  1        2 0.33403829E-01 0.13428387E+03</pdfrwt>
<pdfrwt beam="2">  1       -2 0.11464175E-01 0.13428387E+03</pdfrwt>
<totfact> 0.78540936E+03</totfact>
</mgrwt>
</event>
<event>
 7    1  0.1111284E-005  0.2026958E+03  0.7546771E-02  0.1152857E+00
         -1   -1    0    0    0  501 -0.00000000000E+00  0.00000000000E+00  0.71638839562E+02  0.71638839562E+02  0.00000000000E+00 0.  1.
          1   -1    0    0  501    0  0.00000000000E+00 -0.00000000000E+00 -0.88191205872E+03  0.88191205872E+03  0.00000000000E+00 0. -1.
         23    2    1    2    0    0 -0.10386545435E+03 -0.11463415677E+03 -0.70082457225E+03  0.72319336873E+03  0.89019913488E+02 0.  0.
          5    1    1    2  502    0 -0.18681927112E+02 -0.12243607274E+02 -0.27668756109E+02  0.35868794018E+02  0.47000000000E+01 0. -1.
         -5    1    1    2    0  502  0.12254738146E+03  0.12687776404E+03 -0.81779890799E+02  0.19448873554E+03  0.47000000000E+01 0.  1.
        -11    1    3    3    0    0 -0.12029214795E+03 -0.10211180823E+03 -0.62401215280E+03  0.64365222681E+03  0.00000000000E+00 0. -1.
         11    1    3    3    0    0  0.16426693599E+02 -0.12522348533E+02 -0.76812419450E+02  0.79541141915E+02  0.00000000000E+00 0.  1.
<mgrwt>
<rscale>  0 0.19634883E+03</rscale>
<asrwt>0</asrwt>
<pdfrwt beam="2">  1        1 0.13567878E+00 0.20269579E+03</pdfrwt>
<pdfrwt beam="1">  1       -1 0.11021359E-01 0.20269579E+03</pdfrwt>
<totfact> 0.10365850E+03</totfact>
</mgrwt>
</event>
<event>
 7    1  0.1111284E-005  0.1905194E+03  0.7546771E-02  0.1162728E+00
         -2   -1    0    0    0  501 -0.00000000000E+00  0.00000000000E+00  0.10658912269E+03  0.10658912269E+03  0.00000000000E+00 0.  1.
          2   -1    0    0  501    0  0.00000000000E+00 -0.00000000000E+00 -0.34118908128E+03  0.34118908128E+03  0.00000000000E+00 0. -1.
         23    2    1    2    0    0  0.96881012917E+02 -0.10623908368E+03 -0.18336797221E+03  0.25049071745E+03  0.91919055346E+02 0.  0.
          5    1    1    2  502    0 -0.11436623827E+03  0.10922050643E+03 -0.17876929618E+02  0.15921818393E+03  0.47000000000E+01 0. -1.
         -5    1    1    2    0  502  0.17485225355E+02 -0.29814227529E+01 -0.33355056763E+02  0.38069302581E+02  0.47000000000E+01 0. -1.
        -11    1    3    3    0    0  0.73238651182E+02 -0.94846760240E+02 -0.80580426415E+02  0.14440572383E+03  0.00000000000E+00 0.  1.
         11    1    3    3    0    0  0.23642361735E+02 -0.11392323437E+02 -0.10278754579E+03  0.10608499362E+03  0.00000000000E+00 0. -1.
<mgrwt>
<rscale>  0 0.18534532E+03</rscale>
<asrwt>0</asrwt>
<pdfrwt beam="2">  1        2 0.52490629E-01 0.19051938E+03</pdfrwt>
<pdfrwt beam="1">  1       -2 0.16398326E-01 0.19051938E+03</pdfrwt>
<totfact> 0.27586855E+03</totfact>
</mgrwt>
</event>
<event>
 7    1  0.1111284E-005  0.1258652E+03  0.7546771E-02  0.1248797E+00
         -2   -1    0    0    0  501 -0.00000000000E+00  0.00000000000E+00  0.13015534660E+03  0.13015534660E+03  0.00000000000E+00 0.  1.
          2   -1    0    0  501    0  0.00000000000E+00 -0.00000000000E+00 -0.94881631948E+02  0.94881631948E+02  0.00000000000E+00 0. -1.
         23    2    1    2    0    0 -0.13211673271E+02 -0.65397607241E+01 -0.50587677898E+01  0.92867544502E+02  0.91550384539E+02 0.  0.
          5    1    1    2  502    0  0.61560968360E+02 -0.26116199991E+02  0.17011718510E+02  0.69161385860E+02  0.47000000000E+01 0. -1.
         -5    1    1    2    0  502 -0.48349295090E+02  0.32655960715E+02  0.23320763931E+02  0.63008048186E+02  0.47000000000E+01 0. -1.
        -11    1    3    3    0    0 -0.88396407044E+01  0.38498990571E+02 -0.21192770982E+02  0.44826834203E+02  0.00000000000E+00 0. -1.
         11    1    3    3    0    0 -0.43720325663E+01 -0.45038751295E+02  0.16134003192E+02  0.48040710299E+02  0.00000000000E+00 0.  1.
<mgrwt>
<rscale>  0 0.11660950E+03</rscale>
<asrwt>0</asrwt>
<pdfrwt beam="2">  1        2 0.14597174E-01 0.12586521E+03</pdfrwt>
<pdfrwt beam="1">  1       -2 0.20023899E-01 0.12586521E+03</pdfrwt>
<totfact> 0.79235508E+03</totfact>
</mgrwt>
</event>
<event>
 7    1  0.1111284E-005  0.3944287E+03  0.7546771E-02  0.1060088E+00
          1   -1    0    0  501    0  0.00000000000E+00  0.00000000000E+00  0.98261906039E+03  0.98261906039E+03  0.00000000000E+00 0. -1.
         -1   -1    0    0    0  501 -0.00000000000E+00 -0.00000000000E+00 -0.11680853889E+03  0.11680853889E+03  0.00000000000E+00 0.  1.
         23    2    1    2    0    0 -0.24066249412E+03 -0.38480067988E+01  0.48349198100E+03  0.55011757669E+03  0.10455433639E+03 0.  0.
          5    1    1    2  502    0  0.31308467747E+01  0.12630949961E+03  0.13840782392E+03  0.18746388350E+03  0.47000000000E+01 0. -1.
         -5    1    1    2    0  502  0.23753164735E+03 -0.12246149281E+03  0.24391071659E+03  0.36184613910E+03  0.47000000000E+01 0.  1.
        -11    1    3    3    0    0 -0.13169033019E+03  0.44120921372E+02  0.31012206337E+03  0.33980096080E+03  0.00000000000E+00 0. -1.
         11    1    3    3    0    0 -0.10897216394E+03 -0.47968928171E+02  0.17336991763E+03  0.21031661589E+03  0.00000000000E+00 0.  1.
<mgrwt>
<rscale>  0 0.35622642E+03</rscale>
<asrwt>0</asrwt>
<pdfrwt beam="1">  1        1 0.15117216E+00 0.39442874E+03</pdfrwt>
<pdfrwt beam="2">  1       -1 0.17970545E-01 0.39442874E+03</pdfrwt>
<totfact> 0.39359196E+02</totfact>
</mgrwt>
</event>
<event>
 7    1  0.1111284E-005  0.1714122E+03  0.7546771E-02  0.1182069E+00
          3   -1    0    0  501    0  0.00000000000E+00  0.00000000000E+00  0.13094658079E+03  0.13094658079E+03  0.00000000000E+00 0. -1.
         -3   -1    0    0    0  501 -0.00000000000E+00 -0.00000000000E+00 -0.21376957696E+03  0.21376957696E+03  0.00000000000E+00 0.  1.
         23    2    1    2    0    0 -0.10032518970E+03  0.60765833170E+02  0.74128995756E+01  0.15100333964E+03  0.94812590589E+02 0.  0.
          5    1    1    2  502    0 -0.31120913686E+01  0.17314237481E+01  0.25585209138E+02  0.26255968227E+02  0.47000000000E+01 0. -1.
         -5    1    1    2    0  502  0.10343728106E+03 -0.62497256919E+02 -0.11582110489E+03  0.16745684989E+03  0.47000000000E+01 0. -1.
        -11    1    3    3    0    0 -0.31677858961E+02  0.31548524239E+02 -0.42141932760E+02  0.61438901575E+02  0.00000000000E+00 0.  1.
         11    1    3    3    0    0 -0.68647330734E+02  0.29217308931E+02  0.49554832336E+02  0.89564438065E+02  0.00000000000E+00 0. -1.
<mgrwt>
<rscale>  0 0.16601485E+03</rscale>
<asrwt>0</asrwt>
<pdfrwt beam="1">  1        3 0.20145628E-01 0.17141219E+03</pdfrwt>
<pdfrwt beam="2">  1       -3 0.32887627E-01 0.17141219E+03</pdfrwt>
<totfact> 0.47936004E+02</totfact>
</mgrwt>
</event>
<event>
 6    1  0.1111284E-005  0.4734742E+03  0.7546771E-02  0.1020944E+00
         -4   -1    0    0    0  501 -0.00000000000E+00  0.00000000000E+00  0.81185996644E+02  0.81185996644E+02  0.00000000000E+00 0.  1.
          4   -1    0    0  501    0  0.00000000000E+00 -0.00000000000E+00 -0.69032156829E+03  0.69032156829E+03  0.00000000000E+00 0. -1.
          5    1    1    2  502    0 -0.75572437254E+01  0.17962779095E+02 -0.79558067619E+02  0.82044801717E+02  0.47000000000E+01 0. -1.
         -5    1    1    2    0  502 -0.76914517770E+02 -0.54299454956E+02 -0.43361123235E+01  0.94367185623E+02  0.47000000000E+01 0. -1.
        -11    1    1    2    0    0  0.10520144857E+03  0.11352606816E+03 -0.16555453518E+03  0.22663586886E+03  0.00000000000E+00 0.  1.
         11    1    1    2    0    0 -0.20729687075E+02 -0.77189392298E+02 -0.35968685652E+03  0.36845970874E+03  0.00000000000E+00 0. -1.
<mgrwt>
<rscale>  0 0.47347416E+03</rscale>
<asrwt>0</asrwt>
<pdfrwt beam="2">  1        4 0.10620332E+00 0.47347416E+03</pdfrwt>
<pdfrwt beam="1">  1       -4 0.12490153E-01 0.47347416E+03</pdfrwt>
<totfact> 0.74794194E+01</totfact>
</mgrwt>
</event>
<event>
 7    1  0.1111284E-005  0.1734682E+03  0.7546771E-02  0.1183535E+00
         -2   -1    0    0    0  501 -0.00000000000E+00  0.00000000000E+00  0.71077337974E+02  0.71077337974E+02  0.00000000000E+00 0.  1.
          2   -1    0    0  501    0  0.00000000000E+00 -0.00000000000E+00 -0.35358072922E+03  0.35358072922E+03  0.00000000000E+00 0. -1.
         23    2    1    2    0    0  0.93708098896E+02 -0.75397805860E+02 -0.99000374338E+02  0.17214161907E+03  0.73250433243E+02 0.  0.
          5    1    1    2  502    0 -0.21407317084E+02  0.29108872150E+02  0.12470435015E+02  0.38512354018E+02  0.47000000000E+01 0. -1.
         -5    1    1    2    0  502 -0.72300781813E+02  0.46288933711E+02 -0.19597345192E+03  0.21400409410E+03  0.47000000000E+01 0. -1.
        -11    1    3    3    0    0  0.63319564087E+02 -0.32071173772E+02 -0.14510994395E+02  0.72446506759E+02  0.00000000000E+00 0.  1.
         11    1    3    3    0    0  0.30388534810E+02 -0.43326632089E+02 -0.84489379943E+02  0.99695112313E+02  0.00000000000E+00 0. -1.
<mgrwt>
<rscale>  0 0.16465871E+03</rscale>
<asrwt>0</asrwt>
<pdfrwt beam="2">  1        2 0.54397035E-01 0.17346815E+03</pdfrwt>
<pdfrwt beam="1">  1       -2 0.10934975E-01 0.17346815E+03</pdfrwt>
<totfact> 0.51104432E+03</totfact>
</mgrwt>
</event>
<event>
 7    1  0.1111284E-005  0.1434199E+03  0.7546771E-02  0.1228258E+00
          2   -1    0    0  501    0  0.00000000000E+00  0.00000000000E+00  0.27642022478E+03  0.27642022478E+03  0.00000000000E+00 0. -1.
         -2   -1    0    0    0  501 -0.00000000000E+00 -0.00000000000E+00 -0.53491269551E+02  0.53491269551E+02  0.00000000000E+00 0.  1.
         23    2    1    2    0    0  0.31452301983E+02 -0.32635582584E+01  0.12094040961E+03  0.15392587707E+03  0.89814780761E+02 0.  0.
          5    1    1    2  502    0 -0.94389866448E+01 -0.34294758241E+02  0.12249007167E+03  0.12763672108E+03  0.47000000000E+01 0. -1.
         -5    1    1    2    0  502 -0.22013315338E+02  0.37558316499E+02 -0.20501526053E+02  0.48348896171E+02  0.47000000000E+01 0.  1.
        -11    1    3    3    0    0 -0.61692187084E+01 -0.40635240591E+02  0.64498683039E+02  0.76481122842E+02  0.00000000000E+00 0.  1.
         11    1    3    3    0    0  0.37621520691E+02  0.37371682333E+02  0.56441726573E+02  0.77444754232E+02  0.00000000000E+00 0. -1.
<mgrwt>
<rscale>  0 0.12946060E+03</rscale>
<asrwt>0</asrwt>
<pdfrwt beam="1">  1        2 0.42526188E-01 0.14341992E+03</pdfrwt>
<pdfrwt beam="2">  1       -2 0.82294263E-02 0.14341992E+03</pdfrwt>
<totfact> 0.10258167E+04</totfact>
</mgrwt>
</event>
<event>
 7    1  0.1111284E-005  0.1526393E+03  0.7546771E-02  0.1206811E+00
          1   -1    0    0  501    0  0.00000000000E+00  0.00000000000E+00  0.15985418113E+03  0.15985418113E+03  0.00000000000E+00 0. -1.
         -1   -1    0    0    0  501 -0.00000000000E+00 -0.00000000000E+00 -0.11982353103E+03  0.11982353103E+03  0.00000000000E+00 0.  1.
         23    2    1    2    0    0  0.78155791268E+02  0.39563506302E+02  0.18964367737E+02  0.12559155655E+03  0.87977230545E+02 0.  0.
          5    1    1    2  502    0 -0.50502073751E+02 -0.67672184725E+02  0.55807327166E+02  0.10132389552E+03  0.47000000000E+01 0.  1.
         -5    1    1    2    0  502 -0.27653717517E+02  0.28108678423E+02 -0.34741044808E+02  0.52762260087E+02  0.47000000000E+01 0.  1.
        -11    1    3    3    0    0 -0.65992153383E+01 -0.19020207505E+02  0.90855633562E+01  0.22087675254E+02  0.00000000000E+00 0. -1.
         11    1    3    3    0    0  0.84755006606E+02  0.58583713807E+02  0.98788043813E+01  0.10350388130E+03  0.00000000000E+00 0.  1.
<mgrwt>
<rscale>  0 0.14495652E+03</rscale>
<asrwt>0</asrwt>
<pdfrwt beam="1">  1        1 0.24592951E-01 0.15263930E+03</pdfrwt>
<pdfrwt beam="2">  1       -1 0.18434389E-01 0.15263930E+03</pdfrwt>
<totfact> 0.43444322E+03</totfact>
</mgrwt>
</event>
<event>
 7    1  0.1111284E-005  0.1376284E+03  0.7546771E-02  0.1226084E+00
         -2   -1    0    0    0  501 -0.00000000000E+00  0.00000000000E+00  0.28771418734E+03  0.28771418734E+03  0.00000000000E+00 0.  1.
          2   -1    0    0  501    0  0.00000000000E+00 -0.00000000000E+00 -0.55744515659E+02  0.55744515659E+02  0.00000000000E+00 0. -1.
         23    2    1    2    0    0 -0.65073551524E+02 -0.12066700505E+02  0.78779243210E+02  0.13752453735E+03  0.91250516952E+02 0.  0.
          5    1    1    2  502    0  0.33777625772E+02 -0.47919594946E+02  0.31750168862E+02  0.66838453045E+02  0.47000000000E+01 0. -1.
         -5    1    1    2    0  502  0.31295925751E+02  0.59986295452E+02  0.12144025961E+03  0.13909571260E+03  0.47000000000E+01 0.  1.
        -11    1    3    3    0    0 -0.81070282528E+02  0.11446913349E+01  0.83350587391E+02  0.11627992710E+03  0.00000000000E+00 0.  1.
         11    1    3    3    0    0  0.15996731005E+02 -0.13211391840E+02 -0.45713441816E+01  0.21244610253E+02  0.00000000000E+00 0. -1.
<mgrwt>
<rscale>  0 0.13092894E+03</rscale>
<asrwt>0</asrwt>
<pdfrwt beam="2">  1        2 0.85760795E-02 0.13762839E+03</pdfrwt>
<pdfrwt beam="1">  1       -2 0.44263720E-01 0.13762839E+03</pdfrwt>
<totfact> 0.36417477E+03</totfact>
</mgrwt>
</event>
<event>
 7    1  0.1111284E-005  0.1817911E+03  0.7546771E-02  0.1175666E+00
         -1   -1    0    0    0  501 -0.00000000000E+00  0.00000000000E+00  0.14765564180E+03  0.14765564180E+03  0.00000000000E+00 0.  1.
          1   -1    0    0  501    0  0.00000000000E+00 -0.00000000000E+00 -0.25228332109E+03  0.25228332109E+03  0.00000000000E+00 0. -1.
         23    2    1    2    0    0  0.72078350042E+02  0.86757664652E+02 -0.15331051888E+03  0.21174223989E+03  0.92781894955E+02 0.  0.
          5    1    1    2  502    0  0.29497318241E+02  0.18582861244E+02  0.59619693796E+01  0.35679820548E+02  0.47000000000E+01 0. -1.
         -5    1    1    2    0  502 -0.10157566828E+03 -0.10534052590E+03  0.42720870216E+02  0.15251690246E+03  0.47000000000E+01 0.  1.
        -11    1    3    3    0    0  0.12457015574E+02  0.35184280040E+02  0.22028664935E+01  0.37389349015E+02  0.00000000000E+00 0.  1.
         11    1    3    3    0    0  0.59621334469E+02  0.51573384612E+02 -0.15551338538E+03  0.17435289087E+03  0.00000000000E+00 0. -1.
<mgrwt>
<rscale>  0 0.17210953E+03</rscale>
<asrwt>0</asrwt>
<pdfrwt beam="2">  1        1 0.38812819E-01 0.18179106E+03</pdfrwt>
<pdfrwt beam="1">  1       -1 0.22716253E-01 0.18179106E+03</pdfrwt>
<totfact> 0.17632489E+03</totfact>
</mgrwt>
</event>
<event>
 7    1  0.1111284E-005  0.1618480E+03  0.7546771E-02  0.1194134E+00
         -2   -1    0    0    0  501 -0.00000000000E+00  0.00000000000E+00  0.29541492700E+03  0.29541492700E+03  0.00000000000E+00 0.  1.
          2   -1    0    0  501    0  0.00000000000E+00 -0.00000000000E+00 -0.76066808997E+02  0.76066808997E+02  0.00000000000E+00 0. -1.
         23    2    1    2    0    0  0.68103846453E+02 -0.77021781198E+02  0.86834605796E+02  0.16230569732E+03  0.90732584760E+02 0.  0.
          5    1    1    2  502    0  0.12869240510E+02 -0.26365574945E+02  0.17101023109E+02  0.34282588654E+02  0.47000000000E+01 0.  1.
         -5    1    1    2    0  502 -0.80973086962E+02  0.10338735614E+03  0.11541248910E+03  0.17489345003E+03  0.47000000000E+01 0.  1.
        -11    1    3    3    0    0  0.56067337336E+02 -0.69954706408E+02  0.10585251715E+03  0.13871540164E+03  0.00000000000E+00 0.  1.
         11    1    3    3    0    0  0.12036509116E+02 -0.70670747896E+01 -0.19017911356E+02  0.23590295677E+02  0.00000000000E+00 0. -1.
<mgrwt>
<rscale>  0 0.15527754E+03</rscale>
<asrwt>0</asrwt>
<pdfrwt beam="2">  1        2 0.11702586E-01 0.16184803E+03</pdfrwt>
<pdfrwt beam="1">  1       -2 0.45448450E-01 0.16184803E+03</pdfrwt>
<totfact> 0.23829628E+03</totfact>
</mgrwt>
</event>
<event>
 7    1  0.1111284E-005  0.2731461E+03  0.7546771E-02  0.1101495E+00
          2   -1    0    0  501    0  0.00000000000E+00  0.00000000000E+00  0.16681302994E+04  0.16681302994E+04  0.00000000000E+00 0. -1.
         -2   -1    0    0    0  501 -0.00000000000E+00 -0.00000000000E+00 -0.44905131726E+02  0.44905131726E+02  0.00000000000E+00 0.  1.
         23    2    1    2    0    0 -0.14372603441E+03 -0.19576852103E+03  0.99015926524E+03  0.10235564827E+04  0.90939628062E+02 0.  0.
          5    1    1    2  502    0 -0.11493446265E+01  0.96518245532E+02  0.19948619688E+03  0.22166173657E+03  0.47000000000E+01 0. -1.
         -5    1    1    2    0  502  0.14487537904E+03  0.99250275497E+02  0.43357970559E+03  0.46781721188E+03  0.47000000000E+01 0. -1.
        -11    1    3    3    0    0  0.13174424091E+02 -0.15541767005E+02  0.76802304962E+02  0.79458832229E+02  0.00000000000E+00 0.  1.
         11    1    3    3    0    0 -0.15690045850E+03 -0.18022675402E+03  0.91335696028E+03  0.94409765047E+03  0.00000000000E+00 0. -1.
<mgrwt>
<rscale>  0 0.26962477E+03</rscale>
<asrwt>0</asrwt>
<pdfrwt beam="1">  1        2 0.25663538E+00 0.27314608E+03</pdfrwt>
<pdfrwt beam="2">  1       -2 0.69084831E-02 0.27314608E+03</pdfrwt>
<totfact> 0.13214522E+03</totfact>
</mgrwt>
</event>
<event>
 7    1  0.1111284E-005  0.1682191E+03  0.7546771E-02  0.1186505E+00
          1   -1    0    0  501    0  0.00000000000E+00  0.00000000000E+00  0.11562615343E+04  0.11562615343E+04  0.00000000000E+00 0. -1.
         -1   -1    0    0    0  501 -0.00000000000E+00 -0.00000000000E+00 -0.21929372252E+02  0.21929372252E+02  0.00000000000E+00 0.  1.
         23    2    1    2    0    0 -0.98657287355E+02 -0.54201751487E+02  0.63656576837E+03  0.65276816097E+03  0.90659827368E+02 0.  0.
          5    1    1    2  502    0 -0.21392990156E+02 -0.16071352351E+02  0.55868778299E+02  0.62123737676E+02  0.47000000000E+01 0.  1.
         -5    1    1    2    0  502  0.12005027751E+03  0.70273103838E+02  0.44189761541E+03  0.46329900794E+03  0.47000000000E+01 0.  1.
        -11    1    3    3    0    0  0.33859998386E+01 -0.40795259977E+02  0.15387982696E+03  0.15923165319E+03  0.00000000000E+00 0.  1.
         11    1    3    3    0    0 -0.10204328719E+03 -0.13406491510E+02  0.48268594141E+03  0.49353650778E+03  0.00000000000E+00 0. -1.
<mgrwt>
<rscale>  0 0.16195696E+03</rscale>
<asrwt>0</asrwt>
<pdfrwt beam="1">  1        1 0.17788634E+00 0.16821914E+03</pdfrwt>
<pdfrwt beam="2">  1       -1 0.33737505E-02 0.16821914E+03</pdfrwt>
<totfact> 0.38539365E+03</totfact>
</mgrwt>
</event>
<event>
 7    1  0.1111284E-005  0.1434586E+03  0.7546771E-02  0.1219744E+00
          4   -1    0    0  501    0  0.00000000000E+00  0.00000000000E+00  0.56245327430E+03  0.56245327430E+03  0.00000000000E+00 0.  1.
         -4   -1    0    0    0  501 -0.00000000000E+00 -0.00000000000E+00 -0.29483843214E+02  0.29483843214E+02  0.00000000000E+00 0. -1.
         23    2    1    2    0    0 -0.65341593871E+02 -0.26230352616E+02  0.25330122707E+03  0.27762090487E+03  0.89186881865E+02 0.  0.
          5    1    1    2  502    0 -0.27842809050E+02  0.12644251811E+02  0.17138177237E+02  0.35368152887E+02  0.47000000000E+01 0. -1.
         -5    1    1    2    0  502  0.93184402920E+02  0.13586100804E+02  0.26253002678E+03  0.27894805976E+03  0.47000000000E+01 0. -1.
        -11    1    3    3    0    0 -0.37567033918E+02 -0.53649102658E+02  0.10083068964E+03  0.12023450514E+03  0.00000000000E+00 0. -1.
         11    1    3    3    0    0 -0.27774559953E+02  0.27418750042E+02  0.15247053744E+03  0.15738639973E+03  0.00000000000E+00 0.  1.
<mgrwt>
<rscale>  0 0.13533763E+03</rscale>
<asrwt>0</asrwt>
<pdfrwt beam="1">  1        4 0.86531265E-01 0.14345863E+03</pdfrwt>
<pdfrwt beam="2">  1       -4 0.45359763E-02 0.14345863E+03</pdfrwt>
<totfact> 0.55894245E+02</totfact>
</mgrwt>
</event>
<event>
 7    1  0.1111284E-005  0.1317583E+03  0.7546771E-02  0.1238831E+00
          2   -1    0    0  501    0  0.00000000000E+00  0.00000000000E+00  0.52737143106E+02  0.52737143106E+02  0.00000000000E+00 0. -1.
         -2   -1    0    0    0  501 -0.00000000000E+00 -0.00000000000E+00 -0.25297336361E+03  0.25297336361E+03  0.00000000000E+00 0.  1.
         23    2    1    2    0    0  0.29250180208E+02  0.29654227610E+02 -0.94802350386E+02  0.13696052987E+03  0.89642371942E+02 0.  0.
          5    1    1    2  502    0 -0.70300908838E+02 -0.48794610128E+02 -0.61611993027E+02  0.10555216457E+03  0.47000000000E+01 0.  1.
         -5    1    1    2    0  502  0.41050728629E+02  0.19140382519E+02 -0.43821877091E+02  0.63197812270E+02  0.47000000000E+01 0.  1.
        -11    1    3    3    0    0  0.57041609075E+02  0.17200360281E+02 -0.87134534445E+02  0.10555578929E+03  0.00000000000E+00 0.  1.
         11    1    3    3    0    0 -0.27791428867E+02  0.12453867328E+02 -0.76678159416E+01  0.31404740585E+02  0.00000000000E+00 0. -1.
<mgrwt>
<rscale>  0 0.12262365E+03</rscale>
<asrwt>0</asrwt>
<pdfrwt beam="1">  1        2 0.81134066E-02 0.13175832E+03</pdfrwt>
<pdfrwt beam="2">  1       -2 0.38918979E-01 0.13175832E+03</pdfrwt>
<totfact> 0.49730457E+03</totfact>
</mgrwt>
</event>
<event>
 7    1  0.1111284E-005  0.1614570E+03  0.7546771E-02  0.1194951E+00
         -2   -1    0    0    0  501 -0.00000000000E+00  0.00000000000E+00  0.24788929800E+03  0.24788929800E+03  0.00000000000E+00 0.  1.
          2   -1    0    0  501    0  0.00000000000E+00 -0.00000000000E+00 -0.89858355478E+02  0.89858355478E+02  0.00000000000E+00 0. -1.
         23    2    1    2    0    0 -0.11649298132E+02  0.10152605893E+03  0.56131740021E+02  0.14682408339E+03  0.89237281655E+02 0.  0.
          5    1    1    2  502    0  0.45999944258E+02 -0.69027363637E+02  0.11477404496E+03  0.14168960159E+03  0.47000000000E+01 0.  1.
         -5    1    1    2    0  502 -0.34350646127E+02 -0.32498695294E+02 -0.12874842462E+02  0.49233968493E+02  0.47000000000E+01 0.  1.
        -11    1    3    3    0    0  0.25578470603E+02  0.67391053534E+01  0.33181509340E+02  0.42434493769E+02  0.00000000000E+00 0.  1.
         11    1    3    3    0    0 -0.37227768735E+02  0.94786953578E+02  0.22950230682E+02  0.10438958962E+03  0.00000000000E+00 0. -1.
<mgrwt>
<rscale>  0 0.15458387E+03</rscale>
<asrwt>0</asrwt>
<pdfrwt beam="2">  1        2 0.13824362E-01 0.16145700E+03</pdfrwt>
<pdfrwt beam="1">  1       -2 0.38136815E-01 0.16145700E+03</pdfrwt>
<totfact> 0.27290876E+03</totfact>
</mgrwt>
</event>
<event>
 7    1  0.1111284E-005  0.1326715E+03  0.7546771E-02  0.1237623E+00
         -3   -1    0    0    0  501 -0.00000000000E+00  0.00000000000E+00  0.41910910242E+02  0.41910910242E+02  0.00000000000E+00 0.  1.
          3   -1    0    0  501    0  0.00000000000E+00 -0.00000000000E+00 -0.37739681778E+03  0.37739681778E+03  0.00000000000E+00 0. -1.
         23    2    1    2    0    0 -0.24944718391E+02  0.36822185184E+02 -0.22765612753E+03  0.24834288524E+03  0.88706053643E+02 0.  0.
          5    1    1    2  502    0 -0.16729588673E+02  0.12554247214E+02  0.18936832629E+02  0.28603878938E+02  0.47000000000E+01 0. -1.
         -5    1    1    2    0  502  0.41674307064E+02 -0.49376432398E+02 -0.12676661264E+03  0.14236096385E+03  0.47000000000E+01 0. -1.
        -11    1    3    3    0    0 -0.18165854798E+02  0.46969008340E+02 -0.23039652556E+03  0.23583605538E+03  0.00000000000E+00 0. -1.
         11    1    3    3    0    0 -0.67788635925E+01 -0.10146823156E+02  0.27403980393E+01  0.12506829861E+02  0.00000000000E+00 0.  1.
<mgrwt>
<rscale>  0 0.12338019E+03</rscale>
<asrwt>0</asrwt>
<pdfrwt beam="2">  1        3 0.58061051E-01 0.13267146E+03</pdfrwt>
<pdfrwt beam="1">  1       -3 0.64478321E-02 0.13267146E+03</pdfrwt>
<totfact> 0.10268077E+03</totfact>
</mgrwt>
</event>
<event>
 7    1  0.1111284E-005  0.1262382E+03  0.7546771E-02  0.1249079E+00
          1   -1    0    0  501    0  0.00000000000E+00  0.00000000000E+00  0.27958759833E+03  0.27958759833E+03  0.00000000000E+00 0. -1.
         -1   -1    0    0    0  501 -0.00000000000E+00 -0.00000000000E+00 -0.43350901509E+02  0.43350901509E+02  0.00000000000E+00 0.  1.
         23    2    1    2    0    0  0.90723327665E+01  0.15160064646E+02  0.12385156427E+03  0.15392226053E+03  0.89670048138E+02 0.  0.
          5    1    1    2  502    0  0.53740566890E+02  0.14961682760E+02  0.43080114682E+02  0.70639130528E+02  0.47000000000E+01 0.  1.
         -5    1    1    2    0  502 -0.62812899657E+02 -0.30121747406E+02  0.69305017865E+02  0.98377108777E+02  0.47000000000E+01 0.  1.
        -11    1    3    3    0    0  0.36588314345E+02 -0.12647448436E+02  0.10203035471E+03  0.10912770492E+03  0.00000000000E+00 0. -1.
         11    1    3    3    0    0 -0.27515981578E+02  0.27807513082E+02  0.21821209563E+02  0.44794555616E+02  0.00000000000E+00 0.  1.
<mgrwt>
<rscale>  0 0.11644540E+03</rscale>
<asrwt>0</asrwt>
<pdfrwt beam="1">  1        1 0.43013476E-01 0.12623815E+03</pdfrwt>
<pdfrwt beam="2">  1       -1 0.66693696E-02 0.12623815E+03</pdfrwt>
<totfact> 0.10239575E+04</totfact>
</mgrwt>
</event>
<event>
 7    1  0.1235324E-005  0.2862157E+03  0.7546771E-02  0.1094127E+00
         -2   -1    0    0    0  501 -0.00000000000E+00  0.00000000000E+00  0.58821830043E+02  0.58821830043E+02  0.00000000000E+00 0. -1.
          2   -1    0    0  501    0  0.00000000000E+00 -0.00000000000E+00 -0.16549902870E+04  0.16549902870E+04  0.00000000000E+00 0.  1.
         23    2    1    2    0    0 -0.25305920930E+03  0.47492846812E+02 -0.11629397165E+04  0.11945755984E+04  0.91035938992E+02 0.  0.
          5    1    1    2  502    0  0.30079739149E+01 -0.32476241088E+02 -0.30311396761E+02  0.44773037823E+02  0.47000000000E+01 0.  1.
         -5    1    1    2    0  502  0.25005123539E+03 -0.15016605725E+02 -0.40291734366E+03  0.47446348077E+03  0.47000000000E+01 0.  1.
        -11    1    3    3    0    0 -0.14905858118E+03  0.14993832851E+02 -0.85264961564E+03  0.86571048434E+03  0.00000000000E+00 0.  1.
         11    1    3    3    0    0 -0.10400062813E+03  0.32499013961E+02 -0.31029010086E+03  0.32886511407E+03  0.00000000000E+00 0. -1.
<mgrwt>
<rscale>  0 0.28287814E+03</rscale>
<asrwt>0</asrwt>
<pdfrwt beam="2">  1        2 0.25461385E+00 0.28621569E+03</pdfrwt>
<pdfrwt beam="1">  1       -2 0.90495136E-02 0.28621569E+03</pdfrwt>
<totfact> 0.87805340E+02</totfact>
</mgrwt>
</event>
<event>
 7    1  0.1111284E-005  0.1528949E+03  0.7546771E-02  0.1205443E+00
          2   -1    0    0  501    0  0.00000000000E+00  0.00000000000E+00  0.55896172002E+03  0.55896172002E+03  0.00000000000E+00 0. -1.
         -2   -1    0    0    0  501 -0.00000000000E+00 -0.00000000000E+00 -0.35123656882E+02  0.35123656882E+02  0.00000000000E+00 0.  1.
         23    2    1    2    0    0 -0.23139340866E+02 -0.84886729488E+02  0.24667059790E+03  0.27754366220E+03  0.91885334083E+02 0.  0.
          5    1    1    2  502    0  0.55225392576E+02  0.67077531494E+02  0.87869928817E+02  0.12366266052E+03  0.47000000000E+01 0.  1.
         -5    1    1    2    0  502 -0.32086051709E+02  0.17809197994E+02  0.18929753643E+03  0.19287905419E+03  0.47000000000E+01 0.  1.
        -11    1    3    3    0    0  0.87344444540E+01 -0.62210055507E+02  0.60178773445E+02  0.86993484235E+02  0.00000000000E+00 0.  1.
         11    1    3    3    0    0 -0.31873785320E+02 -0.22676673981E+02  0.18649182445E+03  0.19055017796E+03  0.00000000000E+00 0. -1.
<mgrwt>
<rscale>  0 0.14602622E+03</rscale>
<asrwt>0</asrwt>
<pdfrwt beam="1">  1        2 0.85994105E-01 0.15289491E+03</pdfrwt>
<pdfrwt beam="2">  1       -2 0.54036399E-02 0.15289491E+03</pdfrwt>
<totfact> 0.91722718E+03</totfact>
</mgrwt>
</event>
<event>
 7    1  0.1111284E-005  0.1268736E+03  0.7546771E-02  0.1247182E+00
          1   -1    0    0  501    0  0.00000000000E+00  0.00000000000E+00  0.59266917885E+03  0.59266917885E+03  0.00000000000E+00 0. -1.
         -1   -1    0    0    0  501 -0.00000000000E+00 -0.00000000000E+00 -0.20498020151E+02  0.20498020151E+02  0.00000000000E+00 0.  1.
         23    2    1    2    0    0  0.47514865739E+01 -0.21238044738E+02  0.24933400738E+03  0.26629442116E+03  0.90948558729E+02 0.  0.
          5    1    1    2  502    0  0.14491485125E+02  0.23485144871E+02  0.50312277799E+01  0.28442194425E+02  0.47000000000E+01 0. -1.
         -5    1    1    2    0  502 -0.19242971699E+02 -0.22471001321E+01  0.31780592354E+03  0.31843058342E+03  0.47000000000E+01 0. -1.
        -11    1    3    3    0    0  0.44357896286E+02 -0.15098302470E+02  0.84135428045E+02  0.96303436868E+02  0.00000000000E+00 0.  1.
         11    1    3    3    0    0 -0.39606409712E+02 -0.61397422689E+01  0.16519857933E+03  0.16999098429E+03  0.00000000000E+00 0. -1.
<mgrwt>
<rscale>  0 0.11755740E+03</rscale>
<asrwt>0</asrwt>
<pdfrwt beam="1">  1        1 0.91179861E-01 0.12687355E+03</pdfrwt>
<pdfrwt beam="2">  1       -1 0.31535420E-02 0.12687355E+03</pdfrwt>
<totfact> 0.11876997E+04</totfact>
</mgrwt>
</event>
<event>
 7    1  0.1111284E-005  0.1841049E+03  0.7546771E-02  0.1169364E+00
         -1   -1    0    0    0  501 -0.00000000000E+00  0.00000000000E+00  0.11786618703E+03  0.11786618703E+03  0.00000000000E+00 0.  1.
          1   -1    0    0  501    0  0.00000000000E+00 -0.00000000000E+00 -0.29077445266E+03  0.29077445266E+03  0.00000000000E+00 0. -1.
         23    2    1    2    0    0  0.13507051343E+03 -0.50620119687E+01 -0.15369806772E+03  0.22353619267E+03  0.89864708594E+02 0.  0.
          5    1    1    2  502    0 -0.53550182982E+02 -0.27950373494E+02 -0.62428637768E+02  0.86995806160E+02  0.47000000000E+01 0.  1.
         -5    1    1    2    0  502 -0.81520330445E+02  0.33012385463E+02  0.43218439850E+02  0.98108640867E+02  0.47000000000E+01 0.  1.
        -11    1    3    3    0    0  0.73251627067E+02  0.87811849719E+01 -0.21342632324E+02  0.76801159053E+02  0.00000000000E+00 0.  1.
         11    1    3    3    0    0  0.61818886360E+02 -0.13843196941E+02 -0.13235543539E+03  0.14673503362E+03  0.00000000000E+00 0. -1.
<mgrwt>
<rscale>  0 0.17839678E+03</rscale>
<asrwt>0</asrwt>
<pdfrwt beam="2">  1        1 0.44734531E-01 0.18410493E+03</pdfrwt>
<pdfrwt beam="1">  1       -1 0.18133260E-01 0.18410493E+03</pdfrwt>
<totfact> 0.21286321E+03</totfact>
</mgrwt>
</event>
<event>
 7    1  0.1111284E-005  0.1358151E+03  0.7546771E-02  0.1230612E+00
         -1   -1    0    0    0  501 -0.00000000000E+00  0.00000000000E+00  0.64437052290E+02  0.64437052290E+02  0.00000000000E+00 0.  1.
          1   -1    0    0  501    0  0.00000000000E+00 -0.00000000000E+00 -0.36562301128E+03  0.36562301128E+03  0.00000000000E+00 0. -1.
         23    2    1    2    0    0 -0.42280061040E+02 -0.32153948678E+02 -0.27050069303E+03  0.29082172357E+03  0.92656192405E+02 0.  0.
          5    1    1    2  502    0  0.81321237900E+02 -0.33045978636E+01 -0.89946866478E+01  0.82018647200E+02  0.47000000000E+01 0.  1.
         -5    1    1    2    0  502 -0.39041176860E+02  0.35458546541E+02 -0.21690579309E+02  0.57219692800E+02  0.47000000000E+01 0.  1.
        -11    1    3    3    0    0  0.75906720426E+01 -0.34441149807E+02 -0.20731670949E+03  0.21029510012E+03  0.00000000000E+00 0. -1.
         11    1    3    3    0    0 -0.49870733083E+02  0.22872011290E+01 -0.63183983545E+02  0.80526623448E+02  0.00000000000E+00 0.  1.
<mgrwt>
<rscale>  0 0.12789563E+03</rscale>
<asrwt>0</asrwt>
<pdfrwt beam="2">  1        1 0.56249693E-01 0.13581506E+03</pdfrwt>
<pdfrwt beam="1">  1       -1 0.99133928E-02 0.13581506E+03</pdfrwt>
<totfact> 0.40561767E+03</totfact>
</mgrwt>
</event>
<event>
 7    1  0.1111284E-005  0.4941181E+03  0.7546771E-02  0.1015810E+00
         -2   -1    0    0    0  501 -0.00000000000E+00  0.00000000000E+00  0.67595762611E+03  0.67595762611E+03  0.00000000000E+00 0.  1.
          2   -1    0    0  501    0  0.00000000000E+00 -0.00000000000E+00 -0.39143978848E+03  0.39143978848E+03  0.00000000000E+00 0. -1.
         23    2    1    2    0    0  0.38896551827E+03  0.27791996313E+03 -0.19471997525E+02  0.48725732780E+03  0.92232665057E+02 0.  0.
          5    1    1    2  502    0 -0.30135979187E+02 -0.73490520347E+02  0.32827745262E+02  0.86074297449E+02  0.47000000000E+01 0. -1.
         -5    1    1    2    0  502 -0.35882953908E+03 -0.20442944278E+03  0.27116208989E+03  0.49406578933E+03  0.47000000000E+01 0. -1.
        -11    1    3    3    0    0  0.11983770498E+03  0.81508932348E+02  0.36391344091E+02  0.14942928599E+03  0.00000000000E+00 0.  1.
         11    1    3    3    0    0  0.26912781329E+03  0.19641103078E+03 -0.55863341616E+02  0.33782804181E+03  0.00000000000E+00 0. -1.
<mgrwt>
<rscale>  0 0.49229554E+03</rscale>
<asrwt>0</asrwt>
<pdfrwt beam="2">  1        2 0.60221506E-01 0.49411810E+03</pdfrwt>
<pdfrwt beam="1">  1       -2 0.10399348E+00 0.49411810E+03</pdfrwt>
<totfact> 0.63084671E+01</totfact>
</mgrwt>
</event>
<event>
 7    1  0.1111284E-005  0.3348424E+03  0.7546771E-02  0.1069953E+00
          1   -1    0    0  501    0  0.00000000000E+00  0.00000000000E+00  0.72343479520E+03  0.72343479520E+03  0.00000000000E+00 0. -1.
         -1   -1    0    0    0  501 -0.00000000000E+00 -0.00000000000E+00 -0.20760723660E+03  0.20760723660E+03  0.00000000000E+00 0.  1.
         23    2    1    2    0    0  0.15823813717E+03  0.26731004912E+03  0.49843207859E+03  0.59574804126E+03  0.99936086009E+02 0.  0.
          5    1    1    2  502    0 -0.55741902189E+02 -0.70727069827E+02  0.61567781453E+02  0.10918864309E+03  0.47000000000E+01 0.  1.
         -5    1    1    2    0  502 -0.10249623498E+03 -0.19658297929E+03 -0.44172301444E+02  0.22610534745E+03  0.47000000000E+01 0.  1.
        -11    1    3    3    0    0  0.12410069328E+03  0.25667798897E+03  0.40148088676E+03  0.49241392601E+03  0.00000000000E+00 0.  1.
         11    1    3    3    0    0  0.34137443886E+02  0.10632060151E+02  0.96951191829E+02  0.10333411525E+03  0.00000000000E+00 0. -1.
<mgrwt>
<rscale>  0 0.33268980E+03</rscale>
<asrwt>0</asrwt>
<pdfrwt beam="1">  1        1 0.11129766E+00 0.33484244E+03</pdfrwt>
<pdfrwt beam="2">  1       -1 0.31939575E-01 0.33484244E+03</pdfrwt>
<totfact> 0.24668384E+02</totfact>
</mgrwt>
</event>
<event>
 7    1  0.1111284E-005  0.1410509E+03  0.7546771E-02  0.1223041E+00
          2   -1    0    0  501    0  0.00000000000E+00  0.00000000000E+00  0.66076258165E+03  0.66076258165E+03  0.00000000000E+00 0. -1.
         -2   -1    0    0    0  501 -0.00000000000E+00 -0.00000000000E+00 -0.24286930001E+02  0.24286930001E+02  0.00000000000E+00 0.  1.
         23    2    1    2    0    0  0.26599978623E+02 -0.59694215518E+02  0.30728975301E+03  0.32691724235E+03  0.90426394426E+02 0.  0.
          5    1    1    2  502    0  0.48955593370E+02  0.33217128459E+02  0.16632491882E+03  0.17659585603E+03  0.47000000000E+01 0. -1.
         -5    1    1    2    0  502 -0.75555571993E+02  0.26477087060E+02  0.16286097982E+03  0.18153641328E+03  0.47000000000E+01 0. -1.
        -11    1    3    3    0    0  0.46143251960E+02  0.11785911563E-01  0.96498016221E+02  0.10696292337E+03  0.00000000000E+00 0.  1.
         11    1    3    3    0    0 -0.19543273337E+02 -0.59706001430E+02  0.21079173679E+03  0.21995431898E+03  0.00000000000E+00 0. -1.
<mgrwt>
<rscale>  0 0.13302061E+03</rscale>
<asrwt>0</asrwt>
<pdfrwt beam="1">  1        2 0.10165577E+00 0.14105094E+03</pdfrwt>
<pdfrwt beam="2">  1       -2 0.37364513E-02 0.14105094E+03</pdfrwt>
<totfact> 0.13084901E+04</totfact>
</mgrwt>
</event>
<event>
 7    1  0.1111284E-005  0.1634304E+03  0.7546771E-02  0.1192267E+00
          1   -1    0    0  501    0  0.00000000000E+00  0.00000000000E+00  0.23573384020E+03  0.23573384020E+03  0.00000000000E+00 0. -1.
         -1   -1    0    0    0  501 -0.00000000000E+00 -0.00000000000E+00 -0.12319542032E+03  0.12319542032E+03  0.00000000000E+00 0.  1.
         23    2    1    2    0    0  0.65537960464E+01  0.10508226069E+03  0.13544246575E+03  0.19390172645E+03  0.90376901008E+02 0.  0.
          5    1    1    2  502    0  0.20880601758E+02 -0.23407869863E+02 -0.62501264739E+02  0.70088700910E+02  0.47000000000E+01 0.  1.
         -5    1    1    2    0  502 -0.27434397805E+02 -0.81674390832E+02  0.39597218863E+02  0.94938833163E+02  0.47000000000E+01 0.  1.
        -11    1    3    3    0    0 -0.13761426907E+02  0.28353003366E+02  0.10375704497E+03  0.10843797329E+03  0.00000000000E+00 0. -1.
         11    1    3    3    0    0  0.20315222953E+02  0.76729257329E+02  0.31685420781E+02  0.85463753159E+02  0.00000000000E+00 0.  1.
<mgrwt>
<rscale>  0 0.15687817E+03</rscale>
<asrwt>0</asrwt>
<pdfrwt beam="1">  1        1 0.36266745E-01 0.16343039E+03</pdfrwt>
<pdfrwt beam="2">  1       -1 0.18953142E-01 0.16343039E+03</pdfrwt>
<totfact> 0.25647045E+03</totfact>
</mgrwt>
</event>
<event>
 7    1  0.1111284E-005  0.1260773E+03  0.7546771E-02  0.1248331E+00
         -2   -1    0    0    0  501 -0.00000000000E+00  0.00000000000E+00  0.23031597779E+03  0.23031597779E+03  0.00000000000E+00 0. -1.
          2   -1    0    0  501    0  0.00000000000E+00 -0.00000000000E+00 -0.55604709306E+02  0.55604709306E+02  0.00000000000E+00 0.  1.
         23    2    1    2    0    0 -0.81167317241E+01 -0.14204341806E+02  0.39826610966E+02  0.10128765070E+03  0.91680884509E+02 0.  0.
          5    1    1    2  502    0 -0.54757465290E+02  0.22402946022E+02  0.44748571193E+02  0.74328975637E+02  0.47000000000E+01 0.  1.
         -5    1    1    2    0  502  0.62874197014E+02 -0.81986042160E+01  0.90136086329E+02  0.11030406076E+03  0.47000000000E+01 0.  1.
        -11    1    3    3    0    0 -0.43536261080E+02  0.41446830160E+01  0.42922534560E+02  0.61277470568E+02  0.00000000000E+00 0. -1.
         11    1    3    3    0    0  0.35419529356E+02 -0.18349024822E+02 -0.30959235938E+01  0.40010180137E+02  0.00000000000E+00 0.  1.
<mgrwt>
<rscale>  0 0.11688238E+03</rscale>
<asrwt>0</asrwt>
<pdfrwt beam="2">  1        2 0.85545708E-02 0.12607731E+03</pdfrwt>
<pdfrwt beam="1">  1       -2 0.35433227E-01 0.12607731E+03</pdfrwt>
<totfact> 0.55262690E+03</totfact>
</mgrwt>
</event>
<event>
 7    1  0.1111284E-005  0.1319498E+03  0.7546771E-02  0.1237675E+00
          2   -1    0    0  501    0  0.00000000000E+00  0.00000000000E+00  0.18513883421E+02  0.18513883421E+02  0.00000000000E+00 0. -1.
         -2   -1    0    0    0  501 -0.00000000000E+00 -0.00000000000E+00 -0.86972564301E+03  0.86972564301E+03  0.00000000000E+00 0.  1.
         23    2    1    2    0    0  0.40010959746E+02 -0.13592975390E+02 -0.20178388147E+03  0.22554251480E+03  0.91471554492E+02 0.  0.
          5    1    1    2  502    0 -0.76669343604E+02 -0.36158312376E+01 -0.54821261550E+03  0.55357964583E+03  0.47000000000E+01 0. -1.
         -5    1    1    2    0  502  0.36658383857E+02  0.17208806627E+02 -0.10121526262E+03  0.10911736580E+03  0.47000000000E+01 0. -1.
        -11    1    3    3    0    0  0.33636888594E+02  0.36750079611E+02 -0.92940151280E+02  0.10545084327E+03  0.00000000000E+00 0. -1.
         11    1    3    3    0    0  0.63740711526E+01 -0.50343055001E+02 -0.10884373019E+03  0.12009167154E+03  0.00000000000E+00 0.  1.
<mgrwt>
<rscale>  0 0.12334720E+03</rscale>
<asrwt>0</asrwt>
<pdfrwt beam="1">  1        2 0.28482898E-02 0.13194984E+03</pdfrwt>
<pdfrwt beam="2">  1       -2 0.13380394E+00 0.13194984E+03</pdfrwt>
<totfact> 0.13724802E+03</totfact>
</mgrwt>
</event>
<event>
 7    1  0.1111284E-005  0.1276411E+03  0.7546771E-02  0.1244253E+00
          2   -1    0    0  501    0  0.00000000000E+00  0.00000000000E+00  0.50812626713E+03  0.50812626713E+03  0.00000000000E+00 0. -1.
         -2   -1    0    0    0  501 -0.00000000000E+00 -0.00000000000E+00 -0.25352225725E+02  0.25352225725E+02  0.00000000000E+00 0.  1.
         23    2    1    2    0    0  0.24489973162E+02 -0.90265738258E+01  0.24405200067E+03  0.26277483463E+03  0.93850928946E+02 0.  0.
          5    1    1    2  502    0  0.32758105405E+02 -0.16670596043E+02  0.18017151237E+02  0.41203276336E+02  0.47000000000E+01 0.  1.
         -5    1    1    2    0  502 -0.57248078566E+02  0.25697169869E+02  0.22070488949E+03  0.22950038188E+03  0.47000000000E+01 0.  1.
        -11    1    3    3    0    0  0.58628317790E+02  0.78890788936E+01  0.15563157432E+03  0.16649535771E+03  0.00000000000E+00 0. -1.
         11    1    3    3    0    0 -0.34138344628E+02 -0.16915652719E+02  0.88420426349E+02  0.96279476923E+02  0.00000000000E+00 0.  1.
<mgrwt>
<rscale>  0 0.11930177E+03</rscale>
<asrwt>0</asrwt>
<pdfrwt beam="1">  1        2 0.78173264E-01 0.12764113E+03</pdfrwt>
<pdfrwt beam="2">  1       -2 0.39003428E-02 0.12764113E+03</pdfrwt>
<totfact> 0.16395266E+04</totfact>
</mgrwt>
</event>
<event>
 7    1  0.1111284E-005  0.1493951E+03  0.7546771E-02  0.1208924E+00
          1   -1    0    0  501    0  0.00000000000E+00  0.00000000000E+00  0.99525373502E+02  0.99525373502E+02  0.00000000000E+00 0. -1.
         -1   -1    0    0    0  501 -0.00000000000E+00 -0.00000000000E+00 -0.28089056123E+03  0.28089056123E+03  0.00000000000E+00 0.  1.
         23    2    1    2    0    0 -0.45257418326E+02  0.76423480674E+02  0.21612248548E+02  0.12838667621E+03  0.90151356228E+02 0.  0.
          5    1    1    2  502    0  0.84188625355E+02 -0.32950579623E+02 -0.13122103915E+03  0.15941931017E+03  0.47000000000E+01 0. -1.
         -5    1    1    2    0  502 -0.38931207029E+02 -0.43472901051E+02 -0.71756397123E+02  0.92609948356E+02  0.47000000000E+01 0.  1.
        -11    1    3    3    0    0  0.17713867669E+02 -0.73751566325E+01 -0.57900223267E+01  0.20042415066E+02  0.00000000000E+00 0. -1.
         11    1    3    3    0    0 -0.62971285995E+02  0.83798637306E+02  0.27402270875E+02  0.10834426115E+03  0.00000000000E+00 0.  1.
<mgrwt>
<rscale>  0 0.14332494E+03</rscale>
<asrwt>0</asrwt>
<pdfrwt beam="1">  1        1 0.15311596E-01 0.14939514E+03</pdfrwt>
<pdfrwt beam="2">  1       -1 0.43213933E-01 0.14939514E+03</pdfrwt>
<totfact> 0.19051220E+03</totfact>
</mgrwt>
</event>
<event>
 7    1  0.1111284E-005  0.1347989E+03  0.7546771E-02  0.1233227E+00
          1   -1    0    0  501    0  0.00000000000E+00  0.00000000000E+00  0.22538742218E+03  0.22538742218E+03  0.00000000000E+00 0. -1.
         -1   -1    0    0    0  501 -0.00000000000E+00 -0.00000000000E+00 -0.66292570502E+02  0.66292570502E+02  0.00000000000E+00 0.  1.
         23    2    1    2    0    0 -0.13193124578E+02 -0.48719773927E+02  0.10188963451E+03  0.14524508337E+03  0.90371243848E+02 0.  0.
          5    1    1    2  502    0 -0.30147324237E+02  0.63843419182E+02  0.68973671396E+02  0.98814476052E+02  0.47000000000E+01 0.  1.
         -5    1    1    2    0  502  0.43340448815E+02 -0.15123645255E+02 -0.11768454225E+02  0.47620433263E+02  0.47000000000E+01 0.  1.
        -11    1    3    3    0    0 -0.47168597870E+02 -0.33978973473E+02  0.32526754983E+02  0.66614090499E+02  0.00000000000E+00 0.  1.
         11    1    3    3    0    0  0.33975473292E+02 -0.14740800454E+02  0.69362879524E+02  0.78630992867E+02  0.00000000000E+00 0. -1.
<mgrwt>
<rscale>  0 0.12618623E+03</rscale>
<asrwt>0</asrwt>
<pdfrwt beam="1">  1        1 0.34674988E-01 0.13479891E+03</pdfrwt>
<pdfrwt beam="2">  1       -1 0.10198857E-01 0.13479891E+03</pdfrwt>
<totfact> 0.70713191E+03</totfact>
</mgrwt>
</event>
<event>
 7    1  0.1111284E-005  0.1414592E+03  0.7546771E-02  0.1222105E+00
         -1   -1    0    0    0  501 -0.00000000000E+00  0.00000000000E+00  0.21836717580E+03  0.21836717580E+03  0.00000000000E+00 0.  1.
          1   -1    0    0  501    0  0.00000000000E+00 -0.00000000000E+00 -0.74747182960E+02  0.74747182960E+02  0.00000000000E+00 0. -1.
         23    2    1    2    0    0  0.97559353619E+00 -0.66210772017E+02  0.49324126029E+02  0.12310726666E+03  0.91311070428E+02 0.  0.
          5    1    1    2  502    0  0.29353095322E+02  0.61984963393E+02 -0.20781033489E+01  0.68776074367E+02  0.47000000000E+01 0. -1.
         -5    1    1    2    0  502 -0.30328688858E+02  0.42258086233E+01  0.96373970157E+02  0.10123101773E+03  0.47000000000E+01 0. -1.
        -11    1    3    3    0    0 -0.42417952092E+02 -0.51132016032E+02  0.23913067759E+02  0.70608785097E+02  0.00000000000E+00 0. -1.
         11    1    3    3    0    0  0.43393545628E+02 -0.15078755984E+02  0.25411058270E+02  0.52498481565E+02  0.00000000000E+00 0.  1.
<mgrwt>
<rscale>  0 0.13367342E+03</rscale>
<asrwt>0</asrwt>
<pdfrwt beam="2">  1        1 0.11499567E-01 0.14145918E+03</pdfrwt>
<pdfrwt beam="1">  1       -1 0.33594950E-01 0.14145918E+03</pdfrwt>
<totfact> 0.42833260E+03</totfact>
</mgrwt>
</event>
<event>
 7    1  0.1111284E-005  0.1886217E+03  0.7546771E-02  0.1164739E+00
         -2   -1    0    0    0  501 -0.00000000000E+00  0.00000000000E+00  0.15579486284E+03  0.15579486284E+03  0.00000000000E+00 0.  1.
          2   -1    0    0  501    0  0.00000000000E+00 -0.00000000000E+00 -0.25430090806E+03  0.25430090806E+03  0.00000000000E+00 0. -1.
         23    2    1    2    0    0  0.84766944471E+02  0.11299638627E+03 -0.13809162236E+03  0.21736496836E+03  0.90689663797E+02 0.  0.
          5    1    1    2  502    0 -0.91568165707E+02 -0.13547239011E+03  0.27406230551E+02  0.16586346471E+03  0.47000000000E+01 0. -1.
         -5    1    1    2    0  502  0.68012212357E+01  0.22476003844E+02  0.12179346588E+02  0.26867337837E+02  0.47000000000E+01 0. -1.
        -11    1    3    3    0    0  0.24123488235E+02  0.15391258614E+02 -0.87042601699E+02  0.91625586148E+02  0.00000000000E+00 0. -1.
         11    1    3    3    0    0  0.60643456236E+02  0.97605127652E+02 -0.51049020656E+02  0.12573938221E+03  0.00000000000E+00 0.  1.
<mgrwt>
<rscale>  0 0.18320316E+03</rscale>
<asrwt>0</asrwt>
<pdfrwt beam="2">  1        2 0.39123217E-01 0.18862170E+03</pdfrwt>
<pdfrwt beam="1">  1       -2 0.23968440E-01 0.18862170E+03</pdfrwt>
<totfact> 0.19794837E+03</totfact>
</mgrwt>
</event>
<event>
 7    1  0.1111284E-005  0.1457304E+03  0.7546771E-02  0.1215860E+00
         -2   -1    0    0    0  501 -0.00000000000E+00  0.00000000000E+00  0.53060042937E+02  0.53060042937E+02  0.00000000000E+00 0.  1.
          2   -1    0    0  501    0  0.00000000000E+00 -0.00000000000E+00 -0.34174437062E+03  0.34174437062E+03  0.00000000000E+00 0. -1.
         23    2    1    2    0    0 -0.74493351965E+02 -0.79654757870E+01 -0.17063371280E+03  0.20725898439E+03  0.90706749347E+02 0.  0.
          5    1    1    2  502    0 -0.13217763861E+02 -0.94263250639E+01  0.17988083814E+02  0.24682504836E+02  0.47000000000E+01 0.  1.
         -5    1    1    2    0  502  0.87711115825E+02  0.17391800851E+02 -0.13603869870E+03  0.16286292432E+03  0.47000000000E+01 0.  1.
        -11    1    3    3    0    0 -0.33499821360E+02 -0.19731842449E+02 -0.87500189241E+01  0.39851555412E+02  0.00000000000E+00 0.  1.
         11    1    3    3    0    0 -0.40993530605E+02  0.11766366662E+02 -0.16188369387E+03  0.16740742898E+03  0.00000000000E+00 0. -1.
<mgrwt>
<rscale>  0 0.13813579E+03</rscale>
<asrwt>0</asrwt>
<pdfrwt beam="2">  1        2 0.52576055E-01 0.14573037E+03</pdfrwt>
<pdfrwt beam="1">  1       -2 0.81630838E-02 0.14573037E+03</pdfrwt>
<totfact> 0.83013917E+03</totfact>
</mgrwt>
</event>
<event>
 7    1  0.1111284E-005  0.1897475E+03  0.7546771E-02  0.1158689E+00
         -2   -1    0    0    0  501 -0.00000000000E+00  0.00000000000E+00  0.18514075994E+02  0.18514075994E+02  0.00000000000E+00 0.  1.
          2   -1    0    0  501    0  0.00000000000E+00 -0.00000000000E+00 -0.48617233819E+03  0.48617233819E+03  0.00000000000E+00 0. -1.
         23    2    1    2    0    0  0.63555249503E+01 -0.17531188634E+02 -0.13343697223E+03  0.14736383073E+03  0.59690349127E+02 0.  0.
          5    1    1    2  502    0 -0.27584211095E+02  0.49722191221E+02 -0.30054135180E+03  0.30590910275E+03  0.47000000000E+01 0.  1.
         -5    1    1    2    0  502  0.21228686145E+02 -0.32191002587E+02 -0.33679938165E+02  0.51413480701E+02  0.47000000000E+01 0.  1.
        -11    1    3    3    0    0  0.17525009533E+02 -0.33650842580E+02 -0.11227316437E+03  0.11851062654E+03  0.00000000000E+00 0. -1.
         11    1    3    3    0    0 -0.11169484582E+02  0.16119653946E+02 -0.21163807858E+02  0.28853204193E+02  0.00000000000E+00 0.  1.
<mgrwt>
<rscale>  0 0.18974753E+03</rscale>
<asrwt>0</asrwt>
<pdfrwt beam="2">  1        2 0.74795740E-01 0.18974753E+03</pdfrwt>
<pdfrwt beam="1">  1       -2 0.28483195E-02 0.18974753E+03</pdfrwt>
<totfact> 0.28348562E+04</totfact>
</mgrwt>
</event>
<event>
 7    1  0.1111284E-005  0.1337225E+03  0.7546771E-02  0.1235169E+00
          4   -1    0    0  501    0  0.00000000000E+00  0.00000000000E+00  0.57484143790E+02  0.57484143790E+02  0.00000000000E+00 0.  1.
         -4   -1    0    0    0  501 -0.00000000000E+00 -0.00000000000E+00 -0.45265209633E+03  0.45265209633E+03  0.00000000000E+00 0. -1.
         23    2    1    2    0    0  0.44731308837E+02 -0.16026207787E+02 -0.99598748858E+01  0.10237778490E+03  0.90134801305E+02 0.  0.
          5    1    1    2  502    0  0.24962718065E+02  0.80160747643E+01 -0.27972429087E+03  0.28098961484E+03  0.47000000000E+01 0.  1.
         -5    1    1    2    0  502 -0.69694026902E+02  0.80101330231E+01 -0.10548378679E+03  0.12676884038E+03  0.47000000000E+01 0.  1.
        -11    1    3    3    0    0  0.12765504921E+02 -0.12739763338E+02 -0.48765947070E+02  0.51994011958E+02  0.00000000000E+00 0. -1.
         11    1    3    3    0    0  0.31965803916E+02 -0.32864444495E+01  0.38806072185E+02  0.50383772939E+02  0.00000000000E+00 0.  1.
<mgrwt>
<rscale>  0 0.12493624E+03</rscale>
<asrwt>0</asrwt>
<pdfrwt beam="1">  1        4 0.88437144E-02 0.13372245E+03</pdfrwt>
<pdfrwt beam="2">  1       -4 0.69638785E-01 0.13372245E+03</pdfrwt>
<totfact> 0.29909467E+02</totfact>
</mgrwt>
</event>
<event>
 7    1  0.1111284E-005  0.1474045E+03  0.7546771E-02  0.1212885E+00
          1   -1    0    0  501    0  0.00000000000E+00  0.00000000000E+00  0.60125374794E+02  0.60125374794E+02  0.00000000000E+00 0. -1.
         -1   -1    0    0    0  501 -0.00000000000E+00 -0.00000000000E+00 -0.31197377541E+03  0.31197377541E+03  0.00000000000E+00 0.  1.
         23    2    1    2    0    0 -0.75817003097E+02 -0.19112685853E+02 -0.77371891412E+02  0.14369130587E+03  0.92451441754E+02 0.  0.
          5    1    1    2  502    0 -0.15782265819E+01  0.58825988107E+02 -0.56169452550E+02  0.81486717173E+02  0.47000000000E+01 0. -1.
         -5    1    1    2    0  502  0.77395229679E+02 -0.39713302254E+02 -0.11830705665E+03  0.14692112716E+03  0.47000000000E+01 0. -1.
        -11    1    3    3    0    0 -0.49984078066E+02  0.16214815822E+02  0.25078232693E+01  0.52608150413E+02  0.00000000000E+00 0.  1.
         11    1    3    3    0    0 -0.25832925030E+02 -0.35327501675E+02 -0.79879714682E+02  0.91083155456E+02  0.00000000000E+00 0. -1.
<mgrwt>
<rscale>  0 0.14033071E+03</rscale>
<asrwt>0</asrwt>
<pdfrwt beam="1">  1        1 0.92500577E-02 0.14740452E+03</pdfrwt>
<pdfrwt beam="2">  1       -1 0.47995965E-01 0.14740452E+03</pdfrwt>
<totfact> 0.30601424E+03</totfact>
</mgrwt>
</event>
<event>
 7    1  0.1111284E-005  0.2164696E+03  0.7546771E-02  0.1139858E+00
         -1   -1    0    0    0  501 -0.00000000000E+00  0.00000000000E+00  0.93788463795E+02  0.93788463795E+02  0.00000000000E+00 0.  1.
          1   -1    0    0  501    0  0.00000000000E+00 -0.00000000000E+00 -0.48414464459E+03  0.48414464459E+03  0.00000000000E+00 0. -1.
         23    2    1    2    0    0  0.17732570480E+02 -0.17583584056E+03 -0.24967480121E+03  0.31976585843E+03  0.93166576505E+02 0.  0.
          5    1    1    2  502    0 -0.68300379418E+02  0.67001427677E+02 -0.53108002038E+02  0.10952937058E+03  0.47000000000E+01 0.  1.
         -5    1    1    2    0  502  0.50567808938E+02  0.10883441289E+03 -0.87573377552E+02  0.14863787937E+03  0.47000000000E+01 0.  1.
        -11    1    3    3    0    0  0.34071007805E+02 -0.12715555293E+03 -0.11204247019E+03  0.17286666347E+03  0.00000000000E+00 0. -1.
         11    1    3    3    0    0 -0.16338437325E+02 -0.48680287637E+02 -0.13763233102E+03  0.14689919496E+03  0.00000000000E+00 0.  1.
<mgrwt>
<rscale>  0 0.21217125E+03</rscale>
<asrwt>0</asrwt>
<pdfrwt beam="2">  1        1 0.74483791E-01 0.21646958E+03</pdfrwt>
<pdfrwt beam="1">  1       -1 0.14428995E-01 0.21646958E+03</pdfrwt>
<totfact> 0.16056305E+03</totfact>
</mgrwt>
</event>
<event>
 7    1  0.1111284E-005  0.1316958E+03  0.7546771E-02  0.1238218E+00
          4   -1    0    0  501    0  0.00000000000E+00  0.00000000000E+00  0.31213741170E+02  0.31213741170E+02  0.00000000000E+00 0.  1.
         -4   -1    0    0    0  501 -0.00000000000E+00 -0.00000000000E+00 -0.60646484080E+03  0.60646484080E+03  0.00000000000E+00 0. -1.
         23    2    1    2    0    0 -0.37237355247E+02  0.18254753900E+02 -0.89441742426E+02  0.13433523512E+03  0.91248416097E+02 0.  0.
          5    1    1    2  502    0  0.59022759629E+01  0.48939838437E+02 -0.11569362981E+03  0.12584534408E+03  0.47000000000E+01 0.  1.
         -5    1    1    2    0  502  0.31335079285E+02 -0.67194592337E+02 -0.37011572740E+03  0.37749800278E+03  0.47000000000E+01 0.  1.
        -11    1    3    3    0    0 -0.33147305891E+00  0.50881232000E+02 -0.42626710903E+02  0.66378054556E+02  0.00000000000E+00 0.  1.
         11    1    3    3    0    0 -0.36905882188E+02 -0.32626478101E+02 -0.46815031523E+02  0.67957180562E+02  0.00000000000E+00 0. -1.
<mgrwt>
<rscale>  0 0.12300673E+03</rscale>
<asrwt>0</asrwt>
<pdfrwt beam="1">  1        4 0.48021145E-02 0.13169584E+03</pdfrwt>
<pdfrwt beam="2">  1       -4 0.93302274E-01 0.13169584E+03</pdfrwt>
<totfact> 0.42335320E+02</totfact>
</mgrwt>
</event>
<event>
 7    1  0.1111284E-005  0.2120308E+03  0.7546771E-02  0.1143775E+00
         -3   -1    0    0    0  501 -0.00000000000E+00  0.00000000000E+00  0.52123947556E+02  0.52123947556E+02  0.00000000000E+00 0.  1.
          3   -1    0    0  501    0  0.00000000000E+00 -0.00000000000E+00 -0.11234728997E+04  0.11234728997E+04  0.00000000000E+00 0. -1.
         23    2    1    2    0    0  0.15486061540E+03 -0.73143267884E+02 -0.83909894228E+03  0.86111767965E+03  0.90027081654E+02 0.  0.
          5    1    1    2  502    0 -0.40349972637E+02  0.39450987830E+02 -0.38880692356E+01  0.56760089984E+02  0.47000000000E+01 0. -1.
         -5    1    1    2    0  502 -0.11451064276E+03  0.33692280055E+02 -0.22836194059E+03  0.25771907759E+03  0.47000000000E+01 0. -1.
        -11    1    3    3    0    0  0.49721229852E+00 -0.21364180779E+02 -0.37598586928E+02  0.43247302568E+02  0.00000000000E+00 0.  1.
         11    1    3    3    0    0  0.15436340310E+03 -0.51779087105E+02 -0.80150035535E+03  0.81787037708E+03  0.00000000000E+00 0. -1.
<mgrwt>
<rscale>  0 0.20723417E+03</rscale>
<asrwt>0</asrwt>
<pdfrwt beam="2">  1        3 0.17284199E+00 0.21203085E+03</pdfrwt>
<pdfrwt beam="1">  1       -3 0.80190688E-02 0.21203085E+03</pdfrwt>
<totfact> 0.62295895E+01</totfact>
</mgrwt>
</event>
<event>
 7    1  0.1111284E-005  0.1397532E+03  0.7546771E-02  0.1224269E+00
          3   -1    0    0  501    0  0.00000000000E+00  0.00000000000E+00  0.25725885184E+03  0.25725885184E+03  0.00000000000E+00 0. -1.
         -3   -1    0    0    0  501 -0.00000000000E+00 -0.00000000000E+00 -0.67003101467E+02  0.67003101467E+02  0.00000000000E+00 0.  1.
         23    2    1    2    0    0  0.50742689358E+02 -0.36473283032E+02  0.13164634122E+03  0.17271647438E+03  0.92709764686E+02 0.  0.
          5    1    1    2  502    0 -0.11428541900E+02  0.47114355798E+02 -0.27671151702E+02  0.56019253197E+02  0.47000000000E+01 0.  1.
         -5    1    1    2    0  502 -0.39314147457E+02 -0.10641072767E+02  0.86280560854E+02  0.95526225725E+02  0.47000000000E+01 0.  1.
        -11    1    3    3    0    0  0.57428343082E+02 -0.58849490861E+02  0.74401535621E+02  0.11089123350E+03  0.00000000000E+00 0.  1.
         11    1    3    3    0    0 -0.66856537240E+01  0.22376207830E+02  0.57244805596E+02  0.61825240884E+02  0.00000000000E+00 0. -1.
<mgrwt>
<rscale>  0 0.13217099E+03</rscale>
<asrwt>0</asrwt>
<pdfrwt beam="1">  1        3 0.39578284E-01 0.13975324E+03</pdfrwt>
<pdfrwt beam="2">  1       -3 0.10308170E-01 0.13975324E+03</pdfrwt>
<totfact> 0.10301183E+03</totfact>
</mgrwt>
</event>
<event>
 7    1  0.1111284E-005  0.1601193E+03  0.7546771E-02  0.1200393E+00
         -2   -1    0    0    0  501 -0.00000000000E+00  0.00000000000E+00  0.67833259106E+03  0.67833259106E+03  0.00000000000E+00 0.  1.
          2   -1    0    0  501    0  0.00000000000E+00 -0.00000000000E+00 -0.29729934899E+02  0.29729934899E+02  0.00000000000E+00 0. -1.
         23    2    1    2    0    0  0.53943932419E+02 -0.84282790124E+02  0.26473691386E+03  0.29214054065E+03  0.72435663680E+02 0.  0.
          5    1    1    2  502    0 -0.24404041916E+02  0.97549228667E+02  0.36395274727E+03  0.37761766579E+03  0.47000000000E+01 0. -1.
         -5    1    1    2    0  502 -0.29539890503E+02 -0.13266438544E+02  0.19912995031E+02  0.38304319517E+02  0.47000000000E+01 0. -1.
        -11    1    3    3    0    0  0.59872771887E+02 -0.32112715488E+02  0.11630108810E+03  0.13469193890E+03  0.00000000000E+00 0. -1.
         11    1    3    3    0    0 -0.59288394685E+01 -0.52170074635E+02  0.14843582576E+03  0.15744860175E+03  0.00000000000E+00 0.  1.
<mgrwt>
<rscale>  0 0.15006476E+03</rscale>
<asrwt>0</asrwt>
<pdfrwt beam="2">  1        2 0.45738366E-02 0.16011930E+03</pdfrwt>
<pdfrwt beam="1">  1       -2 0.10435885E+00 0.16011930E+03</pdfrwt>
<totfact> 0.13389009E+03</totfact>
</mgrwt>
</event>
<event>
 7    1  0.1111284E-005  0.1781051E+03  0.7546771E-02  0.1173611E+00
         -2   -1    0    0    0  501 -0.00000000000E+00  0.00000000000E+00  0.40283428678E+02  0.40283428678E+02  0.00000000000E+00 0.  1.
          2   -1    0    0  501    0  0.00000000000E+00 -0.00000000000E+00 -0.10558421457E+04  0.10558421457E+04  0.00000000000E+00 0. -1.
         23    2    1    2    0    0 -0.12729084527E+03  0.49320235554E+02 -0.80060108885E+03  0.81696933375E+03  0.88551362990E+02 0.  0.
          5    1    1    2  502    0 -0.35907206227E+00  0.26680851939E+02 -0.51716360233E+02  0.58383805192E+02  0.47000000000E+01 0. -1.
         -5    1    1    2    0  502  0.12764991733E+03 -0.76001087492E+02 -0.16324126796E+03  0.22077243546E+03  0.47000000000E+01 0.  1.
        -11    1    3    3    0    0 -0.29434084548E+01 -0.17679588666E+02 -0.48195023502E+02  0.51419760784E+02  0.00000000000E+00 0.  1.
         11    1    3    3    0    0 -0.12434743681E+03  0.66999824220E+02 -0.75240606535E+03  0.76554957297E+03  0.00000000000E+00 0. -1.
<mgrwt>
<rscale>  0 0.17412672E+03</rscale>
<asrwt>0</asrwt>
<pdfrwt beam="2">  1        2 0.16243723E+00 0.17810509E+03</pdfrwt>
<pdfrwt beam="1">  1       -2 0.61974515E-02 0.17810509E+03</pdfrwt>
<totfact> 0.33855492E+03</totfact>
</mgrwt>
</event>
<event>
 7    1  0.1111284E-005  0.1415595E+03  0.7546771E-02  0.1234775E+00
          1   -1    0    0  501    0  0.00000000000E+00  0.00000000000E+00  0.34089910337E+03  0.34089910337E+03  0.00000000000E+00 0. -1.
         -1   -1    0    0    0  501 -0.00000000000E+00 -0.00000000000E+00 -0.43110902709E+02  0.43110902709E+02  0.00000000000E+00 0.  1.
         23    2    1    2    0    0 -0.75325427861E+01 -0.58033398148E+02  0.18043022997E+03  0.20012964271E+03  0.63813725029E+02 0.  0.
          5    1    1    2  502    0 -0.59964611934E+02  0.17477155390E+02  0.54083601076E+02  0.82754646699E+02  0.47000000000E+01 0. -1.
         -5    1    1    2    0  502  0.67497154720E+02  0.40556242758E+02  0.63274369614E+02  0.10112571667E+03  0.47000000000E+01 0.  1.
        -11    1    3    3    0    0 -0.43337065627E+01 -0.71765375063E+02  0.14135498299E+03  0.15858840212E+03  0.00000000000E+00 0. -1.
         11    1    3    3    0    0 -0.31988362235E+01  0.13731976915E+02  0.39075246981E+02  0.41541240590E+02  0.00000000000E+00 0.  1.
<mgrwt>
<rscale>  0 0.12518832E+03</rscale>
<asrwt>0</asrwt>
<pdfrwt beam="1">  1        1 0.52446014E-01 0.14155951E+03</pdfrwt>
<pdfrwt beam="2">  1       -1 0.66324468E-02 0.14155951E+03</pdfrwt>
<totfact> 0.81440425E+03</totfact>
</mgrwt>
</event>
<event>
 7    1  0.1111284E-005  0.1348030E+03  0.7546771E-02  0.1232492E+00
          2   -1    0    0  501    0  0.00000000000E+00  0.00000000000E+00  0.36566599435E+03  0.36566599435E+03  0.00000000000E+00 0.  1.
         -2   -1    0    0    0  501 -0.00000000000E+00 -0.00000000000E+00 -0.43940164262E+02  0.43940164262E+02  0.00000000000E+00 0. -1.
         23    2    1    2    0    0  0.49161457831E+02 -0.11226851767E+02  0.20881801353E+03  0.23376525556E+03  0.92186445828E+02 0.  0.
          5    1    1    2  502    0 -0.38990419081E+02  0.36851457324E+02  0.13160605489E+03  0.14219889722E+03  0.47000000000E+01 0.  1.
         -5    1    1    2    0  502 -0.10171038749E+02 -0.25624605558E+02 -0.18698238338E+02  0.33642005829E+02  0.47000000000E+01 0.  1.
        -11    1    3    3    0    0  0.22693599255E+02 -0.30345249199E+02  0.19442492196E+03  0.19808302269E+03  0.00000000000E+00 0.  1.
         11    1    3    3    0    0  0.26467858576E+02  0.19118397432E+02  0.14393091571E+02  0.35682232875E+02  0.00000000000E+00 0. -1.
<mgrwt>
<rscale>  0 0.12666361E+03</rscale>
<asrwt>0</asrwt>
<pdfrwt beam="1">  1        2 0.56256305E-01 0.13480300E+03</pdfrwt>
<pdfrwt beam="2">  1       -2 0.67600255E-02 0.13480300E+03</pdfrwt>
<totfact> 0.10268048E+04</totfact>
</mgrwt>
</event>
<event>
 7    1  0.1111284E-005  0.1579653E+03  0.7546771E-02  0.1197924E+00
         -1   -1    0    0    0  501 -0.00000000000E+00  0.00000000000E+00  0.13060031124E+03  0.13060031124E+03  0.00000000000E+00 0.  1.
          1   -1    0    0  501    0  0.00000000000E+00 -0.00000000000E+00 -0.26781116438E+03  0.26781116438E+03  0.00000000000E+00 0. -1.
         23    2    1    2    0    0  0.37579014890E+02 -0.88974945771E+02 -0.18852773543E+03  0.23231972556E+03  0.95399289930E+02 0.  0.
          5    1    1    2  502    0 -0.33122808050E+02  0.49412641377E+02 -0.36224909983E+02  0.69807332310E+02  0.47000000000E+01 0.  1.
         -5    1    1    2    0  502 -0.44562068406E+01  0.39562304394E+02  0.87541792278E+02  0.96284417761E+02  0.47000000000E+01 0.  1.
        -11    1    3    3    0    0  0.22685937245E+02 -0.58973577373E+02 -0.29375471156E+02  0.69681079803E+02  0.00000000000E+00 0.  1.
         11    1    3    3    0    0  0.14893077645E+02 -0.30001368398E+02 -0.15915226428E+03  0.16263864575E+03  0.00000000000E+00 0. -1.
<mgrwt>
<rscale>  0 0.15209372E+03</rscale>
<asrwt>0</asrwt>
<pdfrwt beam="2">  1        1 0.41201717E-01 0.15796533E+03</pdfrwt>
<pdfrwt beam="1">  1       -1 0.20092356E-01 0.15796533E+03</pdfrwt>
<totfact> 0.19900972E+03</totfact>
</mgrwt>
</event>
<event>
 7    1  0.1111284E-005  0.1260071E+03  0.7546771E-02  0.1248319E+00
          1   -1    0    0  501    0  0.00000000000E+00  0.00000000000E+00  0.16593829145E+03  0.16593829145E+03  0.00000000000E+00 0. -1.
         -1   -1    0    0    0  501 -0.00000000000E+00 -0.00000000000E+00 -0.94080272954E+02  0.94080272954E+02  0.00000000000E+00 0.  1.
         23    2    1    2    0    0 -0.31117018606E+01 -0.15557510604E+02  0.93584812511E+02  0.13215204446E+03  0.91947413766E+02 0.  0.
          5    1    1    2  502    0 -0.51868595833E+02 -0.23050742439E+02 -0.20430691245E+02  0.60507777231E+02  0.47000000000E+01 0.  1.
         -5    1    1    2    0  502  0.54980297694E+02  0.38608253043E+02 -0.12961027672E+01  0.67358742713E+02  0.47000000000E+01 0.  1.
        -11    1    3    3    0    0 -0.42749435790E+02 -0.23086763201E+02  0.30813408441E+02  0.57532417255E+02  0.00000000000E+00 0. -1.
         11    1    3    3    0    0  0.39637733929E+02  0.75292525976E+01  0.62771404070E+02  0.74619627208E+02  0.00000000000E+00 0.  1.
<mgrwt>
<rscale>  0 0.11688908E+03</rscale>
<asrwt>0</asrwt>
<pdfrwt beam="1">  1        1 0.25528968E-01 0.12600712E+03</pdfrwt>
<pdfrwt beam="2">  1       -1 0.14473888E-01 0.12600712E+03</pdfrwt>
<totfact> 0.60013803E+03</totfact>
</mgrwt>
</event>
<event>
 7    1  0.1111284E-005  0.1515809E+03  0.7546771E-02  0.1207148E+00
         -2   -1    0    0    0  501 -0.00000000000E+00  0.00000000000E+00  0.22289767421E+03  0.22289767421E+03  0.00000000000E+00 0.  1.
          2   -1    0    0  501    0  0.00000000000E+00 -0.00000000000E+00 -0.98522710327E+02  0.98522710327E+02  0.00000000000E+00 0. -1.
         23    2    1    2    0    0 -0.85730134347E+02 -0.16930949719E+01  0.81493292169E+00  0.12586003985E+03  0.92127970827E+02 0.  0.
          5    1    1    2  502    0 -0.98934065905E+00 -0.32293854402E+02 -0.86424375355E+01  0.33773562939E+02  0.47000000000E+01 0. -1.
         -5    1    1    2    0  502  0.86719475006E+02  0.33986949374E+02  0.13220246850E+03  0.16178678175E+03  0.47000000000E+01 0. -1.
        -11    1    3    3    0    0 -0.10021204884E+03 -0.20331761588E+02  0.72752112411E+00  0.10225636679E+03  0.00000000000E+00 0. -1.
         11    1    3    3    0    0  0.14481914497E+02  0.18638666617E+02  0.87411797575E-01  0.23603673053E+02  0.00000000000E+00 0.  1.
<mgrwt>
<rscale>  0 0.14469484E+03</rscale>
<asrwt>0</asrwt>
<pdfrwt beam="2">  1        2 0.15157340E-01 0.15158089E+03</pdfrwt>
<pdfrwt beam="1">  1       -2 0.34291950E-01 0.15158089E+03</pdfrwt>
<totfact> 0.29740941E+03</totfact>
</mgrwt>
</event>
<event>
 6    1  0.1111284E-005  0.1338787E+03  0.7546771E-02  0.1251992E+00
          1   -1    0    0  501    0  0.00000000000E+00  0.00000000000E+00  0.37734760713E+03  0.37734760713E+03  0.00000000000E+00 0. -1.
         -1   -1    0    0    0  501 -0.00000000000E+00 -0.00000000000E+00 -0.28170647227E+02  0.28170647227E+02  0.00000000000E+00 0.  1.
          5    1    1    2  502    0 -0.25467247253E+02  0.68921661253E+02  0.12931730121E+03  0.14880803226E+03  0.47000000000E+01 0.  1.
         -5    1    1    2    0  502  0.52305606445E+02 -0.29199846277E+02  0.93952923777E+02  0.11152465814E+03  0.47000000000E+01 0.  1.
        -11    1    1    2    0    0 -0.30709221097E+02 -0.42771999570E+01  0.87253440567E+02  0.92598669486E+02  0.00000000000E+00 0. -1.
         11    1    1    2    0    0  0.38708619051E+01 -0.35444615019E+02  0.38653294350E+02  0.52586894468E+02  0.00000000000E+00 0.  1.
<mgrwt>
<rscale>  0 0.11476473E+03</rscale>
<asrwt>0</asrwt>
<pdfrwt beam="1">  1        1 0.58053475E-01 0.13387874E+03</pdfrwt>
<pdfrwt beam="2">  1       -1 0.43339460E-02 0.13387874E+03</pdfrwt>
<totfact> 0.13431355E+04</totfact>
</mgrwt>
</event>
<event>
 7    1  0.1111284E-005  0.2288045E+03  0.7546771E-02  0.1127484E+00
         -2   -1    0    0    0  501 -0.00000000000E+00  0.00000000000E+00  0.94342658938E+02  0.94342658938E+02  0.00000000000E+00 0.  1.
          2   -1    0    0  501    0  0.00000000000E+00 -0.00000000000E+00 -0.13872704129E+03  0.13872704129E+03  0.00000000000E+00 0. -1.
         23    2    1    2    0    0  0.26360674397E+02 -0.24271067896E+02 -0.13943482529E+02  0.99516461038E+02  0.91788536436E+02 0.  0.
          5    1    1    2  502    0  0.57327717785E+01 -0.48774966383E+02 -0.18754818970E+02  0.52779685984E+02  0.47000000000E+01 0.  1.
         -5    1    1    2    0  502 -0.32093446175E+02  0.73046034279E+02 -0.11686080851E+02  0.80773553203E+02  0.47000000000E+01 0.  1.
        -11    1    3    3    0    0 -0.55189584848E+00  0.33408912911E+02 -0.13018942479E+02  0.35860185641E+02  0.00000000000E+00 0.  1.
         11    1    3    3    0    0  0.26912570245E+02 -0.57679980807E+02 -0.92454004958E+00  0.63656275397E+02  0.00000000000E+00 0. -1.
<mgrwt>
<rscale>  0 0.22880453E+03</rscale>
<asrwt>0</asrwt>
<pdfrwt beam="2">  1        2 0.21342622E-01 0.22880453E+03</pdfrwt>
<pdfrwt beam="1">  1       -2 0.14514255E-01 0.22880453E+03</pdfrwt>
<totfact> 0.91196154E+03</totfact>
</mgrwt>
</event>
<event>
 7    1  0.1111284E-005  0.1436049E+03  0.7546771E-02  0.1215913E+00
          1   -1    0    0  501    0  0.00000000000E+00  0.00000000000E+00  0.79104785794E+03  0.79104785794E+03  0.00000000000E+00 0. -1.
         -1   -1    0    0    0  501 -0.00000000000E+00 -0.00000000000E+00 -0.22457537429E+02  0.22457537429E+02  0.00000000000E+00 0.  1.
         23    2    1    2    0    0  0.24057034094E+02  0.66473613088E+02  0.36832480276E+03  0.38825856894E+03  0.10041948965E+03 0.  0.
          5    1    1    2  502    0  0.42640155088E+02 -0.44181262573E+02  0.10536773851E+03  0.12204350498E+03  0.47000000000E+01 0.  1.
         -5    1    1    2    0  502 -0.66697189183E+02 -0.22292350515E+02  0.29489777924E+03  0.30320332145E+03  0.47000000000E+01 0.  1.
        -11    1    3    3    0    0  0.30912783389E+01 -0.24701869954E+02  0.42357340129E+02  0.49131279688E+02  0.00000000000E+00 0.  1.
         11    1    3    3    0    0  0.20965755756E+02  0.91175483042E+02  0.32596746263E+03  0.33912728926E+03  0.00000000000E+00 0. -1.
<mgrwt>
<rscale>  0 0.13809654E+03</rscale>
<asrwt>0</asrwt>
<pdfrwt beam="1">  1        1 0.12169965E+00 0.14360494E+03</pdfrwt>
<pdfrwt beam="2">  1       -1 0.34550064E-02 0.14360494E+03</pdfrwt>
<totfact> 0.69503776E+03</totfact>
</mgrwt>
</event>
<event>
 7    1  0.1111284E-005  0.1255771E+03  0.7546771E-02  0.1249634E+00
          3   -1    0    0  501    0  0.00000000000E+00  0.00000000000E+00  0.10208969875E+03  0.10208969875E+03  0.00000000000E+00 0. -1.
         -3   -1    0    0    0  501 -0.00000000000E+00 -0.00000000000E+00 -0.11872012392E+03  0.11872012392E+03  0.00000000000E+00 0.  1.
         23    2    1    2    0    0  0.11518887749E+02  0.34534109996E+01  0.10240586214E+02  0.92390002162E+02  0.91029841650E+02 0.  0.
          5    1    1    2  502    0  0.21352156040E+02 -0.57720957629E+02 -0.17148212887E+02  0.64060711223E+02  0.47000000000E+01 0.  1.
         -5    1    1    2    0  502 -0.32871043789E+02  0.54267546629E+02 -0.97227985032E+01  0.64359109283E+02  0.47000000000E+01 0.  1.
        -11    1    3    3    0    0 -0.34735695183E+02  0.13691355510E+02 -0.13113125789E+02  0.39572412152E+02  0.00000000000E+00 0.  1.
         11    1    3    3    0    0  0.46254582933E+02 -0.10237944510E+02  0.23353712004E+02  0.52817590010E+02  0.00000000000E+00 0. -1.
<mgrwt>
<rscale>  0 0.11612291E+03</rscale>
<asrwt>0</asrwt>
<pdfrwt beam="1">  1        3 0.15706107E-01 0.12557706E+03</pdfrwt>
<pdfrwt beam="2">  1       -3 0.18264635E-01 0.12557706E+03</pdfrwt>
<totfact> 0.20415298E+03</totfact>
</mgrwt>
</event>
<event>
 7    1  0.1111284E-005  0.2659240E+03  0.7546771E-02  0.1105881E+00
         -2   -1    0    0    0  501 -0.00000000000E+00  0.00000000000E+00  0.22174572818E+03  0.22174572818E+03  0.00000000000E+00 0.  1.
          2   -1    0    0  501    0  0.00000000000E+00 -0.00000000000E+00 -0.30422763107E+03  0.30422763107E+03  0.00000000000E+00 0. -1.
         23    2    1    2    0    0  0.10632357695E+03  0.20924699638E+03 -0.14072571525E+02  0.25139108524E+03  0.88940609159E+02 0.  0.
          5    1    1    2  502    0 -0.92275235366E+02 -0.91990434096E+02  0.13063302179E+02  0.13103319767E+03  0.47000000000E+01 0.  1.
         -5    1    1    2    0  502 -0.14048341586E+02 -0.11725656229E+03 -0.81472633548E+02  0.14354907634E+03  0.47000000000E+01 0.  1.
        -11    1    3    3    0    0  0.38669333919E+02  0.15609995089E+03  0.12618859745E+02  0.16131257755E+03  0.00000000000E+00 0. -1.
         11    1    3    3    0    0  0.67654243032E+02  0.53147045493E+02 -0.26691431270E+02  0.90078507693E+02  0.00000000000E+00 0.  1.
<mgrwt>
<rscale>  0 0.26211101E+03</rscale>
<asrwt>0</asrwt>
<pdfrwt beam="2">  1        2 0.46804251E-01 0.26592403E+03</pdfrwt>
<pdfrwt beam="1">  1       -2 0.34114728E-01 0.26592403E+03</pdfrwt>
<totfact> 0.86938799E+02</totfact>
</mgrwt>
</event>
<event>
 7    1  0.1111284E-005  0.1356413E+03  0.7546771E-02  0.1231380E+00
          2   -1    0    0  501    0  0.00000000000E+00  0.00000000000E+00  0.30517909026E+03  0.30517909026E+03  0.00000000000E+00 0. -1.
         -2   -1    0    0    0  501 -0.00000000000E+00 -0.00000000000E+00 -0.57914831647E+02  0.57914831647E+02  0.00000000000E+00 0.  1.
         23    2    1    2    0    0 -0.32596738922E+02 -0.41358911791E+02  0.18688371138E+03  0.21462047349E+03  0.91451184207E+02 0.  0.
          5    1    1    2  502    0  0.29332244607E+01  0.60072485539E+02 -0.17597608286E+02  0.62841651330E+02  0.47000000000E+01 0.  1.
         -5    1    1    2    0  502  0.29663514461E+02 -0.18713573747E+02  0.77978155524E+02  0.85631797082E+02  0.47000000000E+01 0.  1.
        -11    1    3    3    0    0 -0.34696416146E+02  0.16513249906E+02  0.12074521480E+03  0.12671201842E+03  0.00000000000E+00 0. -1.
         11    1    3    3    0    0  0.20996772240E+01 -0.57872161697E+02  0.66138496579E+02  0.87908455076E+02  0.00000000000E+00 0.  1.
<mgrwt>
<rscale>  0 0.12739052E+03</rscale>
<asrwt>0</asrwt>
<pdfrwt beam="1">  1        2 0.46950628E-01 0.13564127E+03</pdfrwt>
<pdfrwt beam="2">  1       -2 0.89099743E-02 0.13564127E+03</pdfrwt>
<totfact> 0.81315991E+03</totfact>
</mgrwt>
</event>
<event>
 7    1  0.1111284E-005  0.1548307E+03  0.7546771E-02  0.1201925E+00
         -1   -1    0    0    0  501 -0.00000000000E+00  0.00000000000E+00  0.28373126689E+02  0.28373126689E+02  0.00000000000E+00 0.  1.
          1   -1    0    0  501    0  0.00000000000E+00 -0.00000000000E+00 -0.74501527028E+03  0.74501527028E+03  0.00000000000E+00 0. -1.
         23    2    1    2    0    0  0.91045337029E+02  0.76004175198E+01 -0.26878983622E+03  0.29952742191E+03  0.95507490168E+02 0.  0.
          5    1    1    2  502    0 -0.10197793262E+03 -0.16040844699E+02 -0.44748999064E+03  0.45926701293E+03  0.47000000000E+01 0.  1.
         -5    1    1    2    0  502  0.10932595593E+02  0.84404271790E+01 -0.36231673070E+00  0.14593962134E+02  0.47000000000E+01 0.  1.
        -11    1    3    3    0    0  0.11382738129E+02  0.39518899475E+02 -0.12998057997E+03  0.13633143919E+03  0.00000000000E+00 0. -1.
         11    1    3    3    0    0  0.79662598900E+02 -0.31918481955E+02 -0.13880925626E+03  0.16319598272E+03  0.00000000000E+00 0.  1.
<mgrwt>
<rscale>  0 0.14882480E+03</rscale>
<asrwt>0</asrwt>
<pdfrwt beam="2">  1        1 0.11461774E+00 0.15483066E+03</pdfrwt>
<pdfrwt beam="1">  1       -1 0.43650963E-02 0.15483066E+03</pdfrwt>
<totfact> 0.54071231E+03</totfact>
</mgrwt>
</event>
<event>
 7    1  0.1111284E-005  0.1425888E+03  0.7546771E-02  0.1220061E+00
         -3   -1    0    0    0  501 -0.00000000000E+00  0.00000000000E+00  0.37750633804E+02  0.37750633804E+02  0.00000000000E+00 0.  1.
          3   -1    0    0  501    0  0.00000000000E+00 -0.00000000000E+00 -0.44018003560E+03  0.44018003560E+03  0.00000000000E+00 0. -1.
         23    2    1    2    0    0 -0.72306040565E+01  0.68220190105E+02 -0.19056814383E+03  0.22255494122E+03  0.92239950368E+02 0.  0.
          5    1    1    2  502    0  0.56822987784E+02 -0.29646290529E+02 -0.49187459015E+02  0.80927440384E+02  0.47000000000E+01 0.  1.
         -5    1    1    2    0  502 -0.49592383727E+02 -0.38573899576E+02 -0.16267379895E+03  0.17444828780E+03  0.47000000000E+01 0.  1.
        -11    1    3    3    0    0  0.23532584537E+02  0.60299271657E+02 -0.60280922531E+02  0.88450971270E+02  0.00000000000E+00 0.  1.
         11    1    3    3    0    0 -0.30763188594E+02  0.79209184476E+01 -0.13028722130E+03  0.13410396995E+03  0.00000000000E+00 0. -1.
<mgrwt>
<rscale>  0 0.13511245E+03</rscale>
<asrwt>0</asrwt>
<pdfrwt beam="2">  1        3 0.67720005E-01 0.14258881E+03</pdfrwt>
<pdfrwt beam="1">  1       -3 0.58077899E-02 0.14258881E+03</pdfrwt>
<totfact> 0.89194508E+02</totfact>
</mgrwt>
</event>
<event>
 7    1  0.1111284E-005  0.1718611E+03  0.7546771E-02  0.1182369E+00
          2   -1    0    0  501    0  0.00000000000E+00  0.00000000000E+00  0.71561652765E+03  0.71561652765E+03  0.00000000000E+00 0. -1.
         -2   -1    0    0    0  501 -0.00000000000E+00 -0.00000000000E+00 -0.36547068405E+02  0.36547068405E+02  0.00000000000E+00 0.  1.
         23    2    1    2    0    0  0.11694389675E+03  0.15318697031E+02  0.36584899693E+03  0.39489155684E+03  0.90461680531E+02 0.  0.
          5    1    1    2  502    0  0.23066829638E+02  0.76247683799E+01  0.84781420424E+02  0.88318712466E+02  0.47000000000E+01 0. -1.
         -5    1    1    2    0  502 -0.14001072639E+03 -0.22943465411E+02  0.22843904189E+03  0.26895332674E+03  0.47000000000E+01 0. -1.
        -11    1    3    3    0    0  0.80117690604E+02 -0.25004820173E+02  0.14641421316E+03  0.16876376150E+03  0.00000000000E+00 0.  1.
         11    1    3    3    0    0  0.36826206146E+02  0.40323517204E+02  0.21943478378E+03  0.22612779535E+03  0.00000000000E+00 0. -1.
<mgrwt>
<rscale>  0 0.16573613E+03</rscale>
<asrwt>0</asrwt>
<pdfrwt beam="1">  1        2 0.11009484E+00 0.17186114E+03</pdfrwt>
<pdfrwt beam="2">  1       -2 0.56226265E-02 0.17186114E+03</pdfrwt>
<totfact> 0.65210412E+03</totfact>
</mgrwt>
</event>
<event>
 7    1  0.1111284E-005  0.1457300E+03  0.7546771E-02  0.1215493E+00
         -2   -1    0    0    0  501 -0.00000000000E+00  0.00000000000E+00  0.55384523956E+03  0.55384523956E+03  0.00000000000E+00 0.  1.
          2   -1    0    0  501    0  0.00000000000E+00 -0.00000000000E+00 -0.43869985724E+02  0.43869985724E+02  0.00000000000E+00 0. -1.
         23    2    1    2    0    0  0.72398774784E+02  0.18948811599E+02  0.78247700778E+02  0.14205535602E+03  0.91958585493E+02 0.  0.
          5    1    1    2  502    0 -0.53278723139E+02  0.36730746630E+02  0.10346097407E+03  0.12212302503E+03  0.47000000000E+01 0. -1.
         -5    1    1    2    0  502 -0.19120051645E+02 -0.55679558229E+02  0.32826657899E+03  0.33353684424E+03  0.47000000000E+01 0. -1.
        -11    1    3    3    0    0  0.53095229301E+02 -0.32210949703E+02  0.53773417128E+02  0.82147605229E+02  0.00000000000E+00 0.  1.
         11    1    3    3    0    0  0.19303545483E+02  0.51159761302E+02  0.24474283651E+02  0.59907750792E+02  0.00000000000E+00 0. -1.
<mgrwt>
<rscale>  0 0.13840393E+03</rscale>
<asrwt>0</asrwt>
<pdfrwt beam="2">  1        2 0.67492289E-02 0.14573001E+03</pdfrwt>
<pdfrwt beam="1">  1       -2 0.85206955E-01 0.14573001E+03</pdfrwt>
<totfact> 0.12749686E+03</totfact>
</mgrwt>
</event>
<event>
 7    1  0.1111284E-005  0.1322824E+03  0.7546771E-02  0.1237747E+00
         -1   -1    0    0    0  501 -0.00000000000E+00  0.00000000000E+00  0.23906202077E+03  0.23906202077E+03  0.00000000000E+00 0.  1.
          1   -1    0    0  501    0  0.00000000000E+00 -0.00000000000E+00 -0.60683808590E+02  0.60683808590E+02  0.00000000000E+00 0. -1.
         23    2    1    2    0    0 -0.43012040260E+02  0.44608860278E+01  0.37952040990E+02  0.10682577978E+03  0.90008081300E+02 0.  0.
          5    1    1    2  502    0  0.57286895167E+02 -0.11500910979E+02  0.15813510540E+03  0.16865011376E+03  0.47000000000E+01 0.  1.
         -5    1    1    2    0  502 -0.14274854907E+02  0.70400249509E+01 -0.17708934208E+02  0.24269935820E+02  0.47000000000E+01 0.  1.
        -11    1    3    3    0    0  0.45971373770E+01 -0.36082479886E+02  0.69605296562E+01  0.37034146404E+02  0.00000000000E+00 0. -1.
         11    1    3    3    0    0 -0.47609177637E+02  0.40543365913E+02  0.30991511333E+02  0.69791633378E+02  0.00000000000E+00 0.  1.
<mgrwt>
<rscale>  0 0.12330226E+03</rscale>
<asrwt>0</asrwt>
<pdfrwt beam="2">  1        1 0.93359707E-02 0.13228241E+03</pdfrwt>
<pdfrwt beam="1">  1       -1 0.36778772E-01 0.13228241E+03</pdfrwt>
<totfact> 0.48110889E+03</totfact>
</mgrwt>
</event>
<event>
 7    1  0.1111284E-005  0.1338135E+03  0.7546771E-02  0.1233743E+00
          1   -1    0    0  501    0  0.00000000000E+00  0.00000000000E+00  0.15677346964E+03  0.15677346964E+03  0.00000000000E+00 0. -1.
         -1   -1    0    0    0  501 -0.00000000000E+00 -0.00000000000E+00 -0.10400638091E+03  0.10400638091E+03  0.00000000000E+00 0.  1.
         23    2    1    2    0    0  0.46738102060E+02 -0.99370610157E+01  0.69876827349E+02  0.12587692220E+03  0.93161328753E+02 0.  0.
          5    1    1    2  502    0 -0.35817917494E+02 -0.15621206291E+02 -0.66939627731E+02  0.77652746637E+02  0.47000000000E+01 0. -1.
         -5    1    1    2    0  502 -0.10920184566E+02  0.25558267306E+02  0.49829889109E+02  0.57250181723E+02  0.47000000000E+01 0. -1.
        -11    1    3    3    0    0  0.44524708760E+02  0.68267657059E+01  0.89364836877E+02  0.10007561386E+03  0.00000000000E+00 0. -1.
         11    1    3    3    0    0  0.22133932998E+01 -0.16763826722E+02 -0.19488009528E+02  0.25801308331E+02  0.00000000000E+00 0.  1.
<mgrwt>
<rscale>  0 0.12585264E+03</rscale>
<asrwt>0</asrwt>
<pdfrwt beam="1">  1        1 0.24118995E-01 0.13381352E+03</pdfrwt>
<pdfrwt beam="2">  1       -1 0.16000982E-01 0.13381352E+03</pdfrwt>
<totfact> 0.55294784E+03</totfact>
</mgrwt>
</event>
<event>
 7    1  0.1111284E-005  0.1475497E+03  0.7546771E-02  0.1208639E+00
         -2   -1    0    0    0  501 -0.00000000000E+00  0.00000000000E+00  0.23185215855E+02  0.23185215855E+02  0.00000000000E+00 0.  1.
          2   -1    0    0  501    0  0.00000000000E+00 -0.00000000000E+00 -0.84605481901E+03  0.84605481901E+03  0.00000000000E+00 0. -1.
         23    2    1    2    0    0 -0.11915201988E+02 -0.77475954251E+02 -0.36568658262E+03  0.38883685296E+03  0.10640923826E+03 0.  0.
          5    1    1    2  502    0  0.31837454762E+02 -0.10998202945E+02 -0.27236297232E+03  0.27447816432E+03  0.47000000000E+01 0. -1.
         -5    1    1    2    0  502 -0.19922252775E+02  0.88474157196E+02 -0.18482004822E+03  0.20592501759E+03  0.47000000000E+01 0. -1.
        -11    1    3    3    0    0 -0.42816893264E+02 -0.54023400804E+02 -0.32649377334E+03  0.33369147160E+03  0.00000000000E+00 0.  1.
         11    1    3    3    0    0  0.30901691276E+02 -0.23452553447E+02 -0.39192809272E+02  0.55145381362E+02  0.00000000000E+00 0. -1.
<mgrwt>
<rscale>  0 0.14354308E+03</rscale>
<asrwt>0</asrwt>
<pdfrwt beam="2">  1        2 0.13016228E+00 0.14754966E+03</pdfrwt>
<pdfrwt beam="1">  1       -2 0.35669563E-02 0.14754966E+03</pdfrwt>
<totfact> 0.10402007E+04</totfact>
</mgrwt>
</event>
<event>
 7    1  0.1111284E-005  0.2469956E+03  0.7546771E-02  0.1117663E+00
          1   -1    0    0  501    0  0.00000000000E+00  0.00000000000E+00  0.17349630338E+04  0.17349630338E+04  0.00000000000E+00 0. -1.
         -1   -1    0    0    0  501 -0.00000000000E+00 -0.00000000000E+00 -0.33374805047E+02  0.33374805047E+02  0.00000000000E+00 0.  1.
         23    2    1    2    0    0  0.14414884369E+03 -0.15685741797E+03  0.74399839239E+03  0.77940653100E+03  0.92508345410E+02 0.  0.
          5    1    1    2  502    0 -0.19686663227E+02 -0.12668107753E+02  0.23882370872E+03  0.24001437355E+03  0.47000000000E+01 0. -1.
         -5    1    1    2    0  502 -0.12446218046E+03  0.16952552572E+03  0.71876612761E+03  0.74891693427E+03  0.47000000000E+01 0. -1.
        -11    1    3    3    0    0  0.26764491781E+02 -0.58074427190E+02  0.11118831782E+03  0.12826464491E+03  0.00000000000E+00 0.  1.
         11    1    3    3    0    0  0.11738435191E+03 -0.98782990778E+02  0.63281007457E+03  0.65114188609E+03  0.00000000000E+00 0. -1.
<mgrwt>
<rscale>  0 0.24322418E+03</rscale>
<asrwt>0</asrwt>
<pdfrwt beam="1">  1        1 0.26691732E+00 0.24699562E+03</pdfrwt>
<pdfrwt beam="2">  1       -1 0.51345867E-02 0.24699562E+03</pdfrwt>
<totfact> 0.85013413E+02</totfact>
</mgrwt>
</event>
<event>
 7    1  0.1111284E-005  0.1647669E+03  0.7546771E-02  0.1190115E+00
         -1   -1    0    0    0  501 -0.00000000000E+00  0.00000000000E+00  0.21435877952E+03  0.21435877952E+03  0.00000000000E+00 0.  1.
          1   -1    0    0  501    0  0.00000000000E+00 -0.00000000000E+00 -0.10975721563E+03  0.10975721563E+03  0.00000000000E+00 0. -1.
         23    2    1    2    0    0 -0.90271210440E+02 -0.58096180656E+02  0.46553465701E+02  0.14942284087E+03  0.92929556994E+02 0.  0.
          5    1    1    2  502    0  0.32267709955E+00 -0.34860263794E+02  0.15527332374E+02  0.38451660080E+02  0.47000000000E+01 0. -1.
         -5    1    1    2    0  502  0.89948533341E+02  0.92956444450E+02  0.42520765818E+02  0.13624149420E+03  0.47000000000E+01 0. -1.
        -11    1    3    3    0    0 -0.41407147213E+02  0.22411652471E+02  0.84772707108E+01  0.47840339939E+02  0.00000000000E+00 0.  1.
         11    1    3    3    0    0 -0.48864063228E+02 -0.80507833127E+02  0.38076194990E+02  0.10158250093E+03  0.00000000000E+00 0. -1.
<mgrwt>
<rscale>  0 0.15874995E+03</rscale>
<asrwt>0</asrwt>
<pdfrwt beam="2">  1        1 0.16885726E-01 0.16476685E+03</pdfrwt>
<pdfrwt beam="1">  1       -1 0.32978274E-01 0.16476685E+03</pdfrwt>
<totfact> 0.26997098E+03</totfact>
</mgrwt>
</event>
<event>
 7    1  0.1111284E-005  0.1377306E+03  0.7546771E-02  0.1227310E+00
         -1   -1    0    0    0  501 -0.00000000000E+00  0.00000000000E+00  0.22815921085E+02  0.22815921085E+02  0.00000000000E+00 0.  1.
          1   -1    0    0  501    0  0.00000000000E+00 -0.00000000000E+00 -0.75209918675E+03  0.75209918675E+03  0.00000000000E+00 0. -1.
         23    2    1    2    0    0  0.37059174238E+02 -0.44451545787E+02 -0.45459678157E+03  0.46763284283E+03  0.93128511029E+02 0.  0.
          5    1    1    2  502    0 -0.60284412411E+02  0.41068220637E+02 -0.27373585586E+03  0.28332705114E+03  0.47000000000E+01 0.  1.
         -5    1    1    2    0  502  0.23225238174E+02  0.33833251498E+01 -0.95062824313E+00  0.23955213866E+02  0.47000000000E+01 0.  1.
        -11    1    3    3    0    0  0.68604622535E+02 -0.31668824351E+02 -0.31972779523E+03  0.32853519098E+03  0.00000000000E+00 0.  1.
         11    1    3    3    0    0 -0.31545448297E+02 -0.12782721436E+02 -0.13486898634E+03  0.13909765185E+03  0.00000000000E+00 0. -1.
<mgrwt>
<rscale>  0 0.13009814E+03</rscale>
<asrwt>0</asrwt>
<pdfrwt beam="2">  1        1 0.11570758E+00 0.13773063E+03</pdfrwt>
<pdfrwt beam="1">  1       -1 0.35101414E-02 0.13773063E+03</pdfrwt>
<totfact> 0.73039469E+03</totfact>
</mgrwt>
</event>
<event>
 7    1  0.1111284E-005  0.1434031E+03  0.7546771E-02  0.1221811E+00
          2   -1    0    0  501    0  0.00000000000E+00  0.00000000000E+00  0.12672725217E+03  0.12672725217E+03  0.00000000000E+00 0. -1.
         -2   -1    0    0    0  501 -0.00000000000E+00 -0.00000000000E+00 -0.13228092010E+03  0.13228092010E+03  0.00000000000E+00 0.  1.
         23    2    1    2    0    0 -0.67966512638E+02  0.17898423304E+02  0.26398564985E+02  0.11208846875E+03  0.83229443089E+02 0.  0.
          5    1    1    2  502    0  0.23459443725E+02 -0.23190251586E+02  0.46046583514E+02  0.56837585468E+02  0.47000000000E+01 0.  1.
         -5    1    1    2    0  502  0.44507068913E+02  0.52918282822E+01 -0.77998816429E+02  0.90082118059E+02  0.47000000000E+01 0.  1.
        -11    1    3    3    0    0 -0.54860876793E+02  0.48778305243E+02  0.27839603371E+02  0.78511670347E+02  0.00000000000E+00 0.  1.
         11    1    3    3    0    0 -0.13105635845E+02 -0.30879881939E+02 -0.14410383861E+01  0.33576798405E+02  0.00000000000E+00 0. -1.
<mgrwt>
<rscale>  0 0.13387864E+03</rscale>
<asrwt>0</asrwt>
<pdfrwt beam="1">  1        2 0.19496500E-01 0.14340312E+03</pdfrwt>
<pdfrwt beam="2">  1       -2 0.20350911E-01 0.14340312E+03</pdfrwt>
<totfact> 0.55726294E+03</totfact>
</mgrwt>
</event>
<event>
 7    1  0.1111284E-005  0.2484549E+03  0.7546771E-02  0.1116821E+00
          2   -1    0    0  501    0  0.00000000000E+00  0.00000000000E+00  0.60487375101E+03  0.60487375101E+03  0.00000000000E+00 0. -1.
         -2   -1    0    0    0  501 -0.00000000000E+00 -0.00000000000E+00 -0.10802518908E+03  0.10802518908E+03  0.00000000000E+00 0.  1.
         23    2    1    2    0    0  0.19705751673E+03 -0.85276590693E+02  0.36108999931E+03  0.42977310626E+03  0.90637593980E+02 0.  0.
          5    1    1    2  502    0 -0.16862071047E+03  0.19418073643E+02  0.12405579142E+03  0.21029012095E+03  0.47000000000E+01 0.  1.
         -5    1    1    2    0  502 -0.28436806250E+02  0.65858517049E+02  0.11702771200E+02  0.72835712885E+02  0.47000000000E+01 0.  1.
        -11    1    3    3    0    0  0.13160402386E+03 -0.30499006753E+02  0.28513981665E+03  0.31552261970E+03  0.00000000000E+00 0. -1.
         11    1    3    3    0    0  0.65453492865E+02 -0.54777583940E+02  0.75950182662E+02  0.11425048655E+03  0.00000000000E+00 0.  1.
<mgrwt>
<rscale>  0 0.24451450E+03</rscale>
<asrwt>0</asrwt>
<pdfrwt beam="1">  1        2 0.93057498E-01 0.24845493E+03</pdfrwt>
<pdfrwt beam="2">  1       -2 0.16619260E-01 0.24845493E+03</pdfrwt>
<totfact> 0.14396813E+03</totfact>
</mgrwt>
</event>
<event>
 7    1  0.1111284E-005  0.2000943E+03  0.7546771E-02  0.1152911E+00
         -3   -1    0    0    0  501 -0.00000000000E+00  0.00000000000E+00  0.20375023795E+03  0.20375023795E+03  0.00000000000E+00 0.  1.
          3   -1    0    0  501    0  0.00000000000E+00 -0.00000000000E+00 -0.19411519981E+03  0.19411519981E+03  0.00000000000E+00 0. -1.
         23    2    1    2    0    0 -0.89416283674E+02  0.12808005754E+03 -0.44537645396E+02  0.19056759969E+03  0.99662607187E+02 0.  0.
          5    1    1    2  502    0  0.10320026066E+03 -0.40898779866E+02  0.22206945534E+02  0.11330596818E+03  0.47000000000E+01 0. -1.
         -5    1    1    2    0  502 -0.13783976990E+02 -0.87181277669E+02  0.31965738002E+02  0.93991869881E+02  0.47000000000E+01 0. -1.
        -11    1    3    3    0    0 -0.63797281326E+02  0.83023318793E+02  0.21226075670E+02  0.10683403417E+03  0.00000000000E+00 0.  1.
         11    1    3    3    0    0 -0.25619002348E+02  0.45056738743E+02 -0.65763721066E+02  0.83733565527E+02  0.00000000000E+00 0. -1.
<mgrwt>
<rscale>  0 0.19628586E+03</rscale>
<asrwt>0</asrwt>
<pdfrwt beam="2">  1        3 0.29863877E-01 0.20009426E+03</pdfrwt>
<pdfrwt beam="1">  1       -3 0.31346190E-01 0.20009426E+03</pdfrwt>
<totfact> 0.26150445E+02</totfact>
</mgrwt>
</event>
<event>
 7    1  0.1111284E-005  0.1256801E+03  0.7546771E-02  0.1249298E+00
          4   -1    0    0  501    0  0.00000000000E+00  0.00000000000E+00  0.39508758068E+02  0.39508758068E+02  0.00000000000E+00 0. -1.
         -4   -1    0    0    0  501 -0.00000000000E+00 -0.00000000000E+00 -0.31834172896E+03  0.31834172896E+03  0.00000000000E+00 0.  1.
         23    2    1    2    0    0 -0.76640728711E+01  0.10718520245E+02 -0.77230456444E+02  0.12028139837E+03  0.91265802484E+02 0.  0.
          5    1    1    2  502    0 -0.90496707303E+01 -0.26123472892E+02  0.59959604249E+01  0.28677062571E+02  0.47000000000E+01 0.  1.
         -5    1    1    2    0  502  0.16713743601E+02  0.15404952647E+02 -0.20759847487E+03  0.20889202608E+03  0.47000000000E+01 0.  1.
        -11    1    3    3    0    0 -0.71053906731E+01 -0.21371044378E+02 -0.84436123926E+02  0.87388026286E+02  0.00000000000E+00 0.  1.
         11    1    3    3    0    0 -0.55868219796E+00  0.32089564623E+02  0.72056674818E+01  0.32893372089E+02  0.00000000000E+00 0. -1.
<mgrwt>
<rscale>  0 0.11631801E+03</rscale>
<asrwt>0</asrwt>
<pdfrwt beam="1">  1        4 0.60782705E-02 0.12568014E+03</pdfrwt>
<pdfrwt beam="2">  1       -4 0.48975650E-01 0.12568014E+03</pdfrwt>
<totfact> 0.11418732E+03</totfact>
</mgrwt>
</event>
<event>
 7    1  0.1111284E-005  0.2016530E+03  0.7546771E-02  0.1152410E+00
          3   -1    0    0  501    0  0.00000000000E+00  0.00000000000E+00  0.55229435836E+03  0.55229435836E+03  0.00000000000E+00 0. -1.
         -3   -1    0    0    0  501 -0.00000000000E+00 -0.00000000000E+00 -0.80227667100E+02  0.80227667100E+02  0.00000000000E+00 0.  1.
         23    2    1    2    0    0  0.88914731209E+02 -0.13089450076E+03  0.35468460313E+03  0.39919289522E+03  0.92274591009E+02 0.  0.
          5    1    1    2  502    0 -0.26276246653E+02  0.13824960082E+01  0.80380765301E+02  0.84708381308E+02  0.47000000000E+01 0. -1.
         -5    1    1    2    0  502 -0.62638484556E+02  0.12951200475E+03  0.37001322838E+02  0.14862074894E+03  0.47000000000E+01 0. -1.
        -11    1    3    3    0    0  0.67339319838E+02 -0.40138908149E+02  0.23320071631E+03  0.24602497847E+03  0.00000000000E+00 0. -1.
         11    1    3    3    0    0  0.21575411371E+02 -0.90755592612E+02  0.12148388681E+03  0.15316791675E+03  0.00000000000E+00 0.  1.
<mgrwt>
<rscale>  0 0.19686622E+03</rscale>
<asrwt>0</asrwt>
<pdfrwt beam="1">  1        3 0.84968361E-01 0.20165299E+03</pdfrwt>
<pdfrwt beam="2">  1       -3 0.12342718E-01 0.20165299E+03</pdfrwt>
<totfact> 0.16556965E+02</totfact>
</mgrwt>
</event>
<event>
 7    1  0.1111284E-005  0.1262485E+03  0.7546771E-02  0.1247957E+00
         -2   -1    0    0    0  501 -0.00000000000E+00  0.00000000000E+00  0.40498110059E+03  0.40498110059E+03  0.00000000000E+00 0.  1.
          2   -1    0    0  501    0  0.00000000000E+00 -0.00000000000E+00 -0.30265011764E+02  0.30265011764E+02  0.00000000000E+00 0. -1.
         23    2    1    2    0    0  0.67167135477E+00  0.17711826970E+02  0.13300617501E+03  0.16255147005E+03  0.91750628697E+02 0.  0.
          5    1    1    2  502    0  0.28502658646E+02 -0.44932322680E+02  0.39250578707E+02  0.66287352490E+02  0.47000000000E+01 0.  1.
         -5    1    1    2    0  502 -0.29174330000E+02  0.27220495710E+02  0.20245933510E+03  0.20640728981E+03  0.47000000000E+01 0.  1.
        -11    1    3    3    0    0 -0.35122083571E+02  0.54369595229E+01  0.11552566171E+03  0.12086893644E+03  0.00000000000E+00 0.  1.
         11    1    3    3    0    0  0.35793754926E+02  0.12274867447E+02  0.17480513305E+02  0.41682533608E+02  0.00000000000E+00 0. -1.
<mgrwt>
<rscale>  0 0.11710111E+03</rscale>
<asrwt>0</asrwt>
<pdfrwt beam="2">  1        2 0.46561559E-02 0.12624851E+03</pdfrwt>
<pdfrwt beam="1">  1       -2 0.62304781E-01 0.12624851E+03</pdfrwt>
<totfact> 0.39962715E+03</totfact>
</mgrwt>
</event>
<event>
 7    1  0.1111284E-005  0.2272339E+03  0.7546771E-02  0.1128602E+00
         -1   -1    0    0    0  501 -0.00000000000E+00  0.00000000000E+00  0.70160113640E+02  0.70160113640E+02  0.00000000000E+00 0. -1.
          1   -1    0    0  501    0  0.00000000000E+00 -0.00000000000E+00 -0.18399074023E+03  0.18399074023E+03  0.00000000000E+00 0.  1.
         23    2    1    2    0    0  0.32702135832E+02  0.53945235768E+01 -0.47641833721E+02  0.10888272009E+03  0.92125847843E+02 0.  0.
          5    1    1    2  502    0 -0.70045222205E+02  0.24624904751E+02 -0.62177832935E+02  0.96958197159E+02  0.47000000000E+01 0. -1.
         -5    1    1    2    0  502  0.37343086373E+02 -0.30019428328E+02 -0.40109599347E+01  0.48309936624E+02  0.47000000000E+01 0. -1.
        -11    1    3    3    0    0 -0.30178152341E+02 -0.99316822654E+01 -0.24604363699E+02  0.40183751746E+02  0.00000000000E+00 0. -1.
         11    1    3    3    0    0  0.62880288173E+02  0.15326205842E+02 -0.23037470022E+02  0.68698968342E+02  0.00000000000E+00 0.  1.
<mgrwt>
<rscale>  0 0.22723390E+03</rscale>
<asrwt>0</asrwt>
<pdfrwt beam="2">  1        1 0.28306268E-01 0.22723390E+03</pdfrwt>
<pdfrwt beam="1">  1       -1 0.10793864E-01 0.22723390E+03</pdfrwt>
<totfact> 0.86433771E+03</totfact>
</mgrwt>
</event>
<event>
 7    1  0.1111284E-005  0.1448137E+03  0.7546771E-02  0.1224479E+00
         -1   -1    0    0    0  501 -0.00000000000E+00  0.00000000000E+00  0.12018329424E+03  0.12018329424E+03  0.00000000000E+00 0.  1.
          1   -1    0    0  501    0  0.00000000000E+00 -0.00000000000E+00 -0.17238140315E+03  0.17238140315E+03  0.00000000000E+00 0. -1.
         23    2    1    2    0    0  0.23729626907E+02  0.42513260810E+02 -0.98627464551E+02  0.14049009439E+03  0.87404904442E+02 0.  0.
          5    1    1    2  502    0  0.34770730818E+02 -0.54499512395E+02  0.62514718298E+02  0.90052099236E+02  0.47000000000E+01 0. -1.
         -5    1    1    2    0  502 -0.58500357725E+02  0.11986251585E+02 -0.16085362653E+02  0.62022503760E+02  0.47000000000E+01 0.  1.
        -11    1    3    3    0    0  0.50513870800E+02  0.21055917404E+02 -0.89620202411E+02  0.10500849242E+03  0.00000000000E+00 0. -1.
         11    1    3    3    0    0 -0.26784243893E+02  0.21457343406E+02 -0.90072621400E+01  0.35481601968E+02  0.00000000000E+00 0.  1.
<mgrwt>
<rscale>  0 0.13202675E+03</rscale>
<asrwt>0</asrwt>
<pdfrwt beam="2">  1        1 0.26520216E-01 0.14481367E+03</pdfrwt>
<pdfrwt beam="1">  1       -1 0.18489738E-01 0.14481367E+03</pdfrwt>
<totfact> 0.39211157E+03</totfact>
</mgrwt>
</event>
<event>
 6    1  0.1111284E-005  0.1476406E+03  0.7546771E-02  0.1232741E+00
         -1   -1    0    0    0  501 -0.00000000000E+00  0.00000000000E+00  0.13069880176E+03  0.13069880176E+03  0.00000000000E+00 0.  1.
          1   -1    0    0  501    0  0.00000000000E+00 -0.00000000000E+00 -0.22731348087E+03  0.22731348087E+03  0.00000000000E+00 0. -1.
          5    1    1    2  502    0 -0.34713391975E+02 -0.24598150486E+02 -0.35213452326E+00  0.42805403730E+02  0.47000000000E+01 0. -1.
         -5    1    1    2    0  502  0.95648571585E+02  0.11592809266E+02  0.77728811636E+02  0.12388260827E+03  0.47000000000E+01 0.  1.
        -11    1    1    2    0    0 -0.48644070546E+02  0.12656065580E+02 -0.17158427097E+03  0.17879480876E+03  0.00000000000E+00 0. -1.
         11    1    1    2    0    0 -0.12291109064E+02  0.34927563932E+00 -0.24070852485E+01  0.12529461875E+02  0.00000000000E+00 0.  1.
<mgrwt>
<rscale>  0 0.12650183E+03</rscale>
<asrwt>0</asrwt>
<pdfrwt beam="2">  1        1 0.34971305E-01 0.14764059E+03</pdfrwt>
<pdfrwt beam="1">  1       -1 0.20107508E-01 0.14764059E+03</pdfrwt>
<totfact> 0.24303093E+03</totfact>
</mgrwt>
</event>
<event>
 7    1  0.1111284E-005  0.1550384E+03  0.7546771E-02  0.1203800E+00
          1   -1    0    0  501    0  0.00000000000E+00  0.00000000000E+00  0.28669495961E+03  0.28669495961E+03  0.00000000000E+00 0. -1.
         -1   -1    0    0    0  501 -0.00000000000E+00 -0.00000000000E+00 -0.69150373570E+02  0.69150373570E+02  0.00000000000E+00 0.  1.
         23    2    1    2    0    0 -0.43066670185E+02 -0.80977075722E+02  0.91842012151E+02  0.15625065270E+03  0.86990151167E+02 0.  0.
          5    1    1    2  502    0  0.37518220218E+02  0.89767998708E+02  0.28171178864E+02  0.10139830254E+03  0.47000000000E+01 0.  1.
         -5    1    1    2    0  502  0.55484499675E+01 -0.87909229861E+01  0.97531395026E+02  0.98196377935E+02  0.47000000000E+01 0.  1.
        -11    1    3    3    0    0 -0.57559871967E+02 -0.90709738993E+02  0.69726541172E+02  0.12807492398E+03  0.00000000000E+00 0.  1.
         11    1    3    3    0    0  0.14493201781E+02  0.97326632714E+01  0.22115470979E+02  0.28175728719E+02  0.00000000000E+00 0. -1.
<mgrwt>
<rscale>  0 0.14732423E+03</rscale>
<asrwt>0</asrwt>
<pdfrwt beam="1">  1        1 0.44106916E-01 0.15503838E+03</pdfrwt>
<pdfrwt beam="2">  1       -1 0.10638519E-01 0.15503838E+03</pdfrwt>
<totfact> 0.49623183E+03</totfact>
</mgrwt>
</event>
<event>
 7    1  0.1111284E-005  0.1353231E+03  0.7546771E-02  0.1232290E+00
         -1   -1    0    0    0  501 -0.00000000000E+00  0.00000000000E+00  0.51111996862E+02  0.51111996862E+02  0.00000000000E+00 0.  1.
          1   -1    0    0  501    0  0.00000000000E+00 -0.00000000000E+00 -0.28087663070E+03  0.28087663070E+03  0.00000000000E+00 0. -1.
         23    2    1    2    0    0 -0.50432850671E+02  0.11974187069E+02 -0.98606095257E+02  0.14353462816E+03  0.90510628521E+02 0.  0.
          5    1    1    2  502    0  0.41471426936E+02  0.42797440204E+02 -0.11636865941E+03  0.13082528438E+03  0.47000000000E+01 0.  1.
         -5    1    1    2    0  502  0.89614237342E+01 -0.54771627273E+02 -0.14789879169E+02  0.57628715024E+02  0.47000000000E+01 0.  1.
        -11    1    3    3    0    0 -0.48625103659E+02  0.23673824476E+02 -0.11277426183E+03  0.12507151875E+03  0.00000000000E+00 0. -1.
         11    1    3    3    0    0 -0.18077470118E+01 -0.11699637407E+02  0.14168166576E+02  0.18463109403E+02  0.00000000000E+00 0.  1.
<mgrwt>
<rscale>  0 0.12679519E+03</rscale>
<asrwt>0</asrwt>
<pdfrwt beam="2">  1        1 0.43211789E-01 0.13532312E+03</pdfrwt>
<pdfrwt beam="1">  1       -1 0.78633842E-02 0.13532312E+03</pdfrwt>
<totfact> 0.79942010E+03</totfact>
</mgrwt>
</event>
<event>
 7    1  0.1111284E-005  0.1823126E+03  0.7546771E-02  0.1178249E+00
         -1   -1    0    0    0  501 -0.00000000000E+00  0.00000000000E+00  0.10964905405E+04  0.10964905405E+04  0.00000000000E+00 0.  1.
          1   -1    0    0  501    0  0.00000000000E+00 -0.00000000000E+00 -0.26602226164E+02  0.26602226164E+02  0.00000000000E+00 0. -1.
         23    2    1    2    0    0  0.55864911390E+02  0.80843971433E+02  0.26871167973E+03  0.30143476288E+03  0.94869981600E+02 0.  0.
          5    1    1    2  502    0 -0.54327949305E+02  0.27152735631E+02  0.45315953640E+03  0.45723566414E+03  0.47000000000E+01 0. -1.
         -5    1    1    2    0  502 -0.15369620852E+01 -0.10799670706E+03  0.34801709821E+03  0.36442233965E+03  0.47000000000E+01 0.  1.
        -11    1    3    3    0    0  0.29071460739E+02  0.24734596527E+02  0.16347172536E+02  0.41523248245E+02  0.00000000000E+00 0. -1.
         11    1    3    3    0    0  0.26793450651E+02  0.56109374906E+02  0.25236450719E+03  0.25991151464E+03  0.00000000000E+00 0.  1.
<mgrwt>
<rscale>  0 0.16961629E+03</rscale>
<asrwt>0</asrwt>
<pdfrwt beam="2">  1        1 0.40926510E-02 0.18231258E+03</pdfrwt>
<pdfrwt beam="1">  1       -1 0.16869082E+00 0.18231258E+03</pdfrwt>
<totfact> 0.60291093E+02</totfact>
</mgrwt>
</event>
<event>
 7    1  0.1111284E-005  0.1287059E+03  0.7546771E-02  0.1244636E+00
         -2   -1    0    0    0  501 -0.00000000000E+00  0.00000000000E+00  0.19993299659E+02  0.19993299659E+02  0.00000000000E+00 0.  1.
          2   -1    0    0  501    0  0.00000000000E+00 -0.00000000000E+00 -0.68697463677E+03  0.68697463677E+03  0.00000000000E+00 0. -1.
         23    2    1    2    0    0 -0.42443146521E+01 -0.30381587729E+02 -0.39461838900E+03  0.40572585910E+03  0.89155732983E+02 0.  0.
          5    1    1    2  502    0 -0.41521398438E+02 -0.96412049275E+01 -0.32661498653E+02  0.53905870320E+02  0.47000000000E+01 0. -1.
         -5    1    1    2    0  502  0.45765713090E+02  0.40022792657E+02 -0.23970144946E+03  0.24733620702E+03  0.47000000000E+01 0. -1.
        -11    1    3    3    0    0 -0.43776609070E+02 -0.30346063026E+02 -0.19008824551E+03  0.19741027360E+03  0.00000000000E+00 0.  1.
         11    1    3    3    0    0  0.39532294418E+02 -0.35524702776E-01 -0.20453014349E+03  0.20831558550E+03  0.00000000000E+00 0. -1.
<mgrwt>
<rscale>  0 0.11907220E+03</rscale>
<asrwt>0</asrwt>
<pdfrwt beam="2">  1        2 0.10568843E+00 0.12870592E+03</pdfrwt>
<pdfrwt beam="1">  1       -2 0.30758917E-02 0.12870592E+03</pdfrwt>
<totfact> 0.16547059E+04</totfact>
</mgrwt>
</event>
<event>
 7    1  0.1111284E-005  0.1293914E+03  0.7546771E-02  0.1242389E+00
         -2   -1    0    0    0  501 -0.00000000000E+00  0.00000000000E+00  0.20388179961E+02  0.20388179961E+02  0.00000000000E+00 0. -1.
          2   -1    0    0  501    0  0.00000000000E+00 -0.00000000000E+00 -0.63353251385E+03  0.63353251385E+03  0.00000000000E+00 0.  1.
         23    2    1    2    0    0  0.23209124526E+02  0.24071340428E+02 -0.29045245910E+03  0.30625394205E+03  0.91163332147E+02 0.  0.
          5    1    1    2  502    0 -0.41729061519E+02 -0.50223727731E+02 -0.30249235350E+03  0.30949547869E+03  0.47000000000E+01 0.  1.
         -5    1    1    2    0  502  0.18519936993E+02  0.26152387303E+02 -0.20199521278E+02  0.38171273069E+02  0.47000000000E+01 0.  1.
        -11    1    3    3    0    0  0.36952188835E+02  0.36771149406E+02 -0.28001731833E+03  0.28482851025E+03  0.00000000000E+00 0.  1.
         11    1    3    3    0    0 -0.13743064308E+02 -0.12699808978E+02 -0.10435140779E+02  0.21425431798E+02  0.00000000000E+00 0. -1.
<mgrwt>
<rscale>  0 0.12043044E+03</rscale>
<asrwt>0</asrwt>
<pdfrwt beam="2">  1        2 0.97466543E-01 0.12939136E+03</pdfrwt>
<pdfrwt beam="1">  1       -2 0.31366430E-02 0.12939136E+03</pdfrwt>
<totfact> 0.17675451E+04</totfact>
</mgrwt>
</event>
<event>
 7    1  0.1111284E-005  0.1739217E+03  0.7546771E-02  0.1179940E+00
         -2   -1    0    0    0  501 -0.00000000000E+00  0.00000000000E+00  0.49871708660E+03  0.49871708660E+03  0.00000000000E+00 0.  1.
          2   -1    0    0  501    0  0.00000000000E+00 -0.00000000000E+00 -0.53930581637E+02  0.53930581637E+02  0.00000000000E+00 0. -1.
         23    2    1    2    0    0 -0.11939228216E+03  0.19197478348E+02  0.17245142119E+03  0.22951432191E+03  0.91182624857E+02 0.  0.
          5    1    1    2  502    0  0.28344618442E+02  0.33122047757E+02  0.17034157375E+02  0.47039769980E+02  0.47000000000E+01 0. -1.
         -5    1    1    2    0  502  0.91047663722E+02 -0.52319526105E+02  0.25530092640E+03  0.27609357635E+03  0.47000000000E+01 0. -1.
        -11    1    3    3    0    0 -0.80794621980E+02 -0.32363205028E+02  0.10029300299E+03  0.13279244869E+03  0.00000000000E+00 0. -1.
         11    1    3    3    0    0 -0.38597660184E+02  0.51560683375E+02  0.72158418200E+02  0.96721873218E+02  0.00000000000E+00 0.  1.
<mgrwt>
<rscale>  0 0.16800926E+03</rscale>
<asrwt>0</asrwt>
<pdfrwt beam="2">  1        2 0.82970129E-02 0.17392171E+03</pdfrwt>
<pdfrwt beam="1">  1       -2 0.76725703E-01 0.17392171E+03</pdfrwt>
<totfact> 0.12451920E+03</totfact>
</mgrwt>
</event>
<event>
 7    1  0.1111284E-005  0.1399039E+03  0.7546771E-02  0.1231337E+00
          2   -1    0    0  501    0  0.00000000000E+00  0.00000000000E+00  0.58913476632E+03  0.58913476632E+03  0.00000000000E+00 0. -1.
         -2   -1    0    0    0  501 -0.00000000000E+00 -0.00000000000E+00 -0.23669534405E+02  0.23669534405E+02  0.00000000000E+00 0.  1.
         23    2    1    2    0    0  0.29601182967E+02 -0.13511298582E+01  0.22757966176E+03  0.24709983619E+03  0.91584775014E+02 0.  0.
          5    1    1    2  502    0  0.14798945178E+02 -0.49051297814E+02  0.24863854595E+03  0.25390599664E+03  0.47000000000E+01 0. -1.
         -5    1    1    2    0  502 -0.44400128145E+02  0.50402427673E+02  0.89247024204E+02  0.11179846790E+03  0.47000000000E+01 0.  1.
        -11    1    3    3    0    0  0.52747533004E+02  0.27204643811E+02  0.13373101238E+03  0.14630918821E+03  0.00000000000E+00 0.  1.
         11    1    3    3    0    0 -0.23146350037E+02 -0.28555773669E+02  0.93848649380E+02  0.10079064798E+03  0.00000000000E+00 0. -1.
<mgrwt>
<rscale>  0 0.12741861E+03</rscale>
<asrwt>0</asrwt>
<pdfrwt beam="1">  1        2 0.90636107E-01 0.13990388E+03</pdfrwt>
<pdfrwt beam="2">  1       -2 0.36414673E-02 0.13990388E+03</pdfrwt>
<totfact> 0.15503894E+04</totfact>
</mgrwt>
</event>
<event>
 7    1  0.1111284E-005  0.1382958E+03  0.7546771E-02  0.1227754E+00
          2   -1    0    0  501    0  0.00000000000E+00  0.00000000000E+00  0.60914815351E+03  0.60914815351E+03  0.00000000000E+00 0. -1.
         -2   -1    0    0    0  501 -0.00000000000E+00 -0.00000000000E+00 -0.24892222340E+02  0.24892222340E+02  0.00000000000E+00 0.  1.
         23    2    1    2    0    0 -0.25856961344E+02 -0.53395250431E+02  0.27857143699E+03  0.29852772323E+03  0.89426622518E+02 0.  0.
          5    1    1    2  502    0 -0.10409067868E+02 -0.38032349018E+02  0.81744923473E+02  0.90879760010E+02  0.47000000000E+01 0. -1.
         -5    1    1    2    0  502  0.36266029212E+02  0.91427599449E+02  0.22393957071E+03  0.24463289261E+03  0.47000000000E+01 0. -1.
        -11    1    3    3    0    0  0.60438475949E+01 -0.58154972010E+02  0.90730260612E+02  0.10793752385E+03  0.00000000000E+00 0.  1.
         11    1    3    3    0    0 -0.31900808939E+02  0.47597215787E+01  0.18784117638E+03  0.19059019939E+03  0.00000000000E+00 0. -1.
<mgrwt>
<rscale>  0 0.12979950E+03</rscale>
<asrwt>0</asrwt>
<pdfrwt beam="1">  1        2 0.93715090E-01 0.13829581E+03</pdfrwt>
<pdfrwt beam="2">  1       -2 0.38295731E-02 0.13829581E+03</pdfrwt>
<totfact> 0.13839360E+04</totfact>
</mgrwt>
</event>
<event>
 7    1  0.1111284E-005  0.1345659E+03  0.7546771E-02  0.1232923E+00
          2   -1    0    0  501    0  0.00000000000E+00  0.00000000000E+00  0.20187962915E+03  0.20187962915E+03  0.00000000000E+00 0. -1.
         -2   -1    0    0    0  501 -0.00000000000E+00 -0.00000000000E+00 -0.10846471077E+03  0.10846471077E+03  0.00000000000E+00 0.  1.
         23    2    1    2    0    0 -0.36698208575E+02  0.33697637004E+02  0.13375590788E+03  0.16986172151E+03  0.92087307965E+02 0.  0.
          5    1    1    2  502    0  0.28560310906E+02  0.23123389375E+02 -0.67353320381E+02  0.76869644605E+02  0.47000000000E+01 0.  1.
         -5    1    1    2    0  502  0.81378976686E+01 -0.56821026378E+02  0.27012330885E+02  0.63612973810E+02  0.47000000000E+01 0.  1.
        -11    1    3    3    0    0  0.96901864141E+01 -0.15511321927E+02  0.83830759005E+02  0.85802662989E+02  0.00000000000E+00 0. -1.
         11    1    3    3    0    0 -0.46388394989E+02  0.49208958931E+02  0.49925148876E+02  0.84059058519E+02  0.00000000000E+00 0.  1.
<mgrwt>
<rscale>  0 0.12638315E+03</rscale>
<asrwt>0</asrwt>
<pdfrwt beam="1">  1        2 0.31058404E-01 0.13456586E+03</pdfrwt>
<pdfrwt beam="2">  1       -2 0.16686879E-01 0.13456586E+03</pdfrwt>
<totfact> 0.46246917E+03</totfact>
</mgrwt>
</event>
<event>
 7    1  0.1111284E-005  0.1488915E+03  0.7546771E-02  0.1211840E+00
          2   -1    0    0  501    0  0.00000000000E+00  0.00000000000E+00  0.11467662660E+03  0.11467662660E+03  0.00000000000E+00 0. -1.
         -2   -1    0    0    0  501 -0.00000000000E+00 -0.00000000000E+00 -0.17236047071E+03  0.17236047071E+03  0.00000000000E+00 0.  1.
         23    2    1    2    0    0 -0.75689812326E+02  0.28586818008E+02  0.15513135822E+02  0.12112602950E+03  0.88795854554E+02 0.  0.
          5    1    1    2  502    0  0.77742370071E+02 -0.71429316913E+02 -0.54166862235E+02  0.11875252580E+03  0.47000000000E+01 0. -1.
         -5    1    1    2    0  502 -0.20525577446E+01  0.42842498905E+02 -0.19030117695E+02  0.47158542017E+02  0.47000000000E+01 0. -1.
        -11    1    3    3    0    0 -0.16080229441E+02  0.14745727829E+02 -0.35357935529E+02  0.41547489370E+02  0.00000000000E+00 0.  1.
         11    1    3    3    0    0 -0.59609582885E+02  0.13841090180E+02  0.50871071351E+02  0.79578540132E+02  0.00000000000E+00 0. -1.
<mgrwt>
<rscale>  0 0.14111201E+03</rscale>
<asrwt>0</asrwt>
<pdfrwt beam="1">  1        2 0.17642558E-01 0.14889152E+03</pdfrwt>
<pdfrwt beam="2">  1       -2 0.26516995E-01 0.14889152E+03</pdfrwt>
<totfact> 0.39604701E+03</totfact>
</mgrwt>
</event>
<event>
 7    1  0.1111284E-005  0.2196849E+03  0.7546771E-02  0.1134118E+00
          1   -1    0    0  501    0  0.00000000000E+00  0.00000000000E+00  0.92410491747E+02  0.92410491747E+02  0.00000000000E+00 0. -1.
         -1   -1    0    0    0  501 -0.00000000000E+00 -0.00000000000E+00 -0.13056274549E+03  0.13056274549E+03  0.00000000000E+00 0.  1.
         23    2    1    2    0    0 -0.90535530801E+01  0.24017797369E+02 -0.14047899523E+02  0.93108875841E+02  0.88391729622E+02 0.  0.
          5    1    1    2  502    0 -0.13906747977E+02  0.36121340574E+02 -0.47281815861E+02  0.61284655464E+02  0.47000000000E+01 0.  1.
         -5    1    1    2    0  502  0.22960301057E+02 -0.60139137943E+02  0.23177461644E+02  0.68579705930E+02  0.47000000000E+01 0.  1.
        -11    1    3    3    0    0 -0.15240809418E+02  0.56030302093E+02 -0.16633480730E+02  0.60401570390E+02  0.00000000000E+00 0.  1.
         11    1    3    3    0    0  0.61872563378E+01 -0.32012504724E+02  0.25855812067E+01  0.32707305451E+02  0.00000000000E+00 0. -1.
<mgrwt>
<rscale>  0 0.21968493E+03</rscale>
<asrwt>0</asrwt>
<pdfrwt beam="1">  1        1 0.14216999E-01 0.21968493E+03</pdfrwt>
<pdfrwt beam="2">  1       -1 0.20086576E-01 0.21968493E+03</pdfrwt>
<totfact> 0.78294715E+03</totfact>
</mgrwt>
</event>
<event>
 7    1  0.1111284E-005  0.1469038E+03  0.7546771E-02  0.1213012E+00
         -1   -1    0    0    0  501 -0.00000000000E+00  0.00000000000E+00  0.13243652475E+04  0.13243652475E+04  0.00000000000E+00 0.  1.
          1   -1    0    0  501    0  0.00000000000E+00 -0.00000000000E+00 -0.17580209825E+02  0.17580209825E+02  0.00000000000E+00 0. -1.
         23    2    1    2    0    0  0.39615455518E+01  0.77066059881E+02  0.29017911929E+03  0.31478027249E+03  0.94487180360E+02 0.  0.
          5    1    1    2  502    0 -0.30719378132E+02  0.14569007547E+02  0.53888951574E+03  0.53998142223E+03  0.47000000000E+01 0. -1.
         -5    1    1    2    0  502  0.26757832580E+02 -0.91635067428E+02  0.47771640260E+03  0.48718376255E+03  0.47000000000E+01 0. -1.
        -11    1    3    3    0    0  0.28202283034E+02  0.35669039131E+01  0.16630318013E+03  0.16871526099E+03  0.00000000000E+00 0.  1.
         11    1    3    3    0    0 -0.24240737482E+02  0.73499155968E+02  0.12387593916E+03  0.14606501150E+03  0.00000000000E+00 0. -1.
<mgrwt>
<rscale>  0 0.14023614E+03</rscale>
<asrwt>0</asrwt>
<pdfrwt beam="2">  1        1 0.27046487E-02 0.14690379E+03</pdfrwt>
<pdfrwt beam="1">  1       -1 0.20374842E+00 0.14690379E+03</pdfrwt>
<totfact> 0.61635511E+02</totfact>
</mgrwt>
</event>
<event>
 7    1  0.1111284E-005  0.2084107E+03  0.7546771E-02  0.1146708E+00
         -1   -1    0    0    0  501 -0.00000000000E+00  0.00000000000E+00  0.43575504678E+03  0.43575504678E+03  0.00000000000E+00 0.  1.
          1   -1    0    0  501    0  0.00000000000E+00 -0.00000000000E+00 -0.11667363170E+03  0.11667363170E+03  0.00000000000E+00 0. -1.
         23    2    1    2    0    0 -0.36860097467E+02 -0.16263532357E+03  0.24425090030E+02  0.19151683476E+03  0.90957120204E+02 0.  0.
          5    1    1    2  502    0  0.80679513517E+02  0.12805097591E+03  0.22990809092E+03  0.27529267445E+03  0.47000000000E+01 0. -1.
         -5    1    1    2    0  502 -0.43819416051E+02  0.34584347653E+02  0.64748234126E+02  0.85619169279E+02  0.47000000000E+01 0. -1.
        -11    1    3    3    0    0 -0.54559030813E+02 -0.48185592883E+02 -0.16407014844E+01  0.72809553673E+02  0.00000000000E+00 0. -1.
         11    1    3    3    0    0  0.17698933346E+02 -0.11444973069E+03  0.26065791514E+02  0.11870728109E+03  0.00000000000E+00 0.  1.
<mgrwt>
<rscale>  0 0.20363455E+03</rscale>
<asrwt>0</asrwt>
<pdfrwt beam="2">  1        1 0.17949790E-01 0.20841067E+03</pdfrwt>
<pdfrwt beam="1">  1       -1 0.67039237E-01 0.20841067E+03</pdfrwt>
<totfact> 0.68744728E+02</totfact>
</mgrwt>
</event>
<event>
 7    1  0.1111284E-005  0.1473779E+03  0.7546771E-02  0.1211780E+00
          3   -1    0    0  501    0  0.00000000000E+00  0.00000000000E+00  0.72221670283E+02  0.72221670283E+02  0.00000000000E+00 0. -1.
         -3   -1    0    0    0  501 -0.00000000000E+00 -0.00000000000E+00 -0.25896720677E+03  0.25896720677E+03  0.00000000000E+00 0.  1.
         23    2    1    2    0    0  0.55750255395E+02 -0.54656233031E+02 -0.10593211054E+03  0.16310833711E+03  0.96370756993E+02 0.  0.
          5    1    1    2  502    0 -0.68082045526E+02  0.72291464547E+02 -0.98412396908E+02  0.13988677791E+03  0.47000000000E+01 0.  1.
         -5    1    1    2    0  502  0.12331790131E+02 -0.17635231516E+02  0.17598970967E+02  0.28193762033E+02  0.47000000000E+01 0.  1.
        -11    1    3    3    0    0  0.77802586943E+02 -0.42058265784E+02 -0.10555310535E+03  0.13770838139E+03  0.00000000000E+00 0.  1.
         11    1    3    3    0    0 -0.22052331548E+02 -0.12597967247E+02 -0.37900519347E+00  0.25399955717E+02  0.00000000000E+00 0. -1.
<mgrwt>
<rscale>  0 0.14115735E+03</rscale>
<asrwt>0</asrwt>
<pdfrwt beam="1">  1        3 0.11111026E-01 0.14737794E+03</pdfrwt>
<pdfrwt beam="2">  1       -3 0.39841109E-01 0.14737794E+03</pdfrwt>
<totfact> 0.90483569E+02</totfact>
</mgrwt>
</event>
<event>
 7    1  0.1111284E-005  0.1303390E+03  0.7546771E-02  0.1241240E+00
         -2   -1    0    0    0  501 -0.00000000000E+00  0.00000000000E+00  0.98167715080E+02  0.98167715080E+02  0.00000000000E+00 0. -1.
          2   -1    0    0  501    0  0.00000000000E+00 -0.00000000000E+00 -0.14276602927E+03  0.14276602927E+03  0.00000000000E+00 0.  1.
         23    2    1    2    0    0 -0.36957342470E+02 -0.35580344967E+00 -0.52224956154E+02  0.11037181212E+03  0.89936194637E+02 0.  0.
          5    1    1    2  502    0 -0.46337976704E+02 -0.21289501735E+01 -0.11376643808E+01  0.46638233180E+02  0.47000000000E+01 0. -1.
         -5    1    1    2    0  502  0.83295319174E+02  0.24847536232E+01  0.87643063471E+01  0.83923699052E+02  0.47000000000E+01 0. -1.
        -11    1    3    3    0    0 -0.44296704141E+02  0.10583261303E+02  0.10116760026E+02  0.46653534175E+02  0.00000000000E+00 0. -1.
         11    1    3    3    0    0  0.73393616714E+01 -0.10939064753E+02 -0.62341716180E+02  0.63718277941E+02  0.00000000000E+00 0.  1.
<mgrwt>
<rscale>  0 0.12113246E+03</rscale>
<asrwt>0</asrwt>
<pdfrwt beam="2">  1        2 0.21964004E-01 0.13033899E+03</pdfrwt>
<pdfrwt beam="1">  1       -2 0.15102725E-01 0.13033899E+03</pdfrwt>
<totfact> 0.79519315E+03</totfact>
</mgrwt>
</event>
<event>
 7    1  0.1111284E-005  0.2417137E+03  0.7546771E-02  0.1121424E+00
          2   -1    0    0  501    0  0.00000000000E+00  0.00000000000E+00  0.12494930063E+04  0.12494930063E+04  0.00000000000E+00 0.  1.
         -2   -1    0    0    0  501 -0.00000000000E+00 -0.00000000000E+00 -0.44250982843E+02  0.44250982843E+02  0.00000000000E+00 0. -1.
         23    2    1    2    0    0 -0.10550692059E+03  0.17795539919E+03  0.65515512317E+03  0.69289366794E+03  0.89853020330E+02 0.  0.
          5    1    1    2  502    0  0.11406309326E+03 -0.11383906476E+03  0.47509426982E+03  0.50170347530E+03  0.47000000000E+01 0. -1.
         -5    1    1    2    0  502 -0.85561726702E+01 -0.64116334428E+02  0.74992630511E+02  0.99146845952E+02  0.47000000000E+01 0. -1.
        -11    1    3    3    0    0 -0.85893588266E+01  0.93904799710E+02  0.22348683980E+03  0.24256598289E+03  0.00000000000E+00 0. -1.
         11    1    3    3    0    0 -0.96917561761E+02  0.84050599475E+02  0.43166828337E+03  0.45032768504E+03  0.00000000000E+00 0.  1.
<mgrwt>
<rscale>  0 0.23756764E+03</rscale>
<asrwt>0</asrwt>
<pdfrwt beam="1">  1        2 0.19222967E+00 0.24171370E+03</pdfrwt>
<pdfrwt beam="2">  1       -2 0.68078444E-02 0.24171370E+03</pdfrwt>
<totfact> 0.22777399E+03</totfact>
</mgrwt>
</event>
<event>
 7    1  0.1111284E-005  0.1899180E+03  0.7546771E-02  0.1163749E+00
          2   -1    0    0  501    0  0.00000000000E+00  0.00000000000E+00  0.47153982773E+03  0.47153982773E+03  0.00000000000E+00 0. -1.
         -2   -1    0    0    0  501 -0.00000000000E+00 -0.00000000000E+00 -0.68175127810E+02  0.68175127810E+02  0.00000000000E+00 0.  1.
         23    2    1    2    0    0  0.16015303856E+02  0.14208024869E+03  0.20260360036E+03  0.26335676717E+03  0.88686418953E+02 0.  0.
          5    1    1    2  502    0  0.44331712613E+02 -0.11529508411E+03  0.12617238713E+03  0.17663470338E+03  0.47000000000E+01 0. -1.
         -5    1    1    2    0  502 -0.60347016469E+02 -0.26785164578E+02  0.74588712427E+02  0.99723484996E+02  0.47000000000E+01 0. -1.
        -11    1    3    3    0    0  0.43586743084E+02  0.42638508330E+02  0.48585108079E+02  0.77963833233E+02  0.00000000000E+00 0. -1.
         11    1    3    3    0    0 -0.27571439228E+02  0.99441740359E+02  0.15401849228E+03  0.18539293393E+03  0.00000000000E+00 0.  1.
<mgrwt>
<rscale>  0 0.18425287E+03</rscale>
<asrwt>0</asrwt>
<pdfrwt beam="1">  1        2 0.72544587E-01 0.18991795E+03</pdfrwt>
<pdfrwt beam="2">  1       -2 0.10488481E-01 0.18991795E+03</pdfrwt>
<totfact> 0.40145951E+03</totfact>
</mgrwt>
</event>
<event>
 7    1  0.1111284E-005  0.1597596E+03  0.7546771E-02  0.1196557E+00
          4   -1    0    0  501    0  0.00000000000E+00  0.00000000000E+00  0.27664813380E+03  0.27664813380E+03  0.00000000000E+00 0. -1.
         -4   -1    0    0    0  501 -0.00000000000E+00 -0.00000000000E+00 -0.82427742506E+02  0.82427742506E+02  0.00000000000E+00 0.  1.
         23    2    1    2    0    0  0.33672679820E+02 -0.93598119140E+02  0.12784036804E+03  0.18607462021E+03  0.91575910106E+02 0.  0.
          5    1    1    2  502    0 -0.22510938052E+02 -0.56075471700E+01 -0.27220398304E+02  0.36072524185E+02  0.47000000000E+01 0.  1.
         -5    1    1    2    0  502 -0.11161741768E+02  0.99205666310E+02  0.93600421553E+02  0.13692873191E+03  0.47000000000E+01 0.  1.
        -11    1    3    3    0    0  0.50810722011E+02 -0.13023041082E+02  0.56566470361E+02  0.77143338270E+02  0.00000000000E+00 0.  1.
         11    1    3    3    0    0 -0.17138042191E+02 -0.80575078058E+02  0.71273897682E+02  0.10893128194E+03  0.00000000000E+00 0. -1.
<mgrwt>
<rscale>  0 0.15323184E+03</rscale>
<asrwt>0</asrwt>
<pdfrwt beam="1">  1        4 0.42561251E-01 0.15975959E+03</pdfrwt>
<pdfrwt beam="2">  1       -4 0.12681191E-01 0.15975959E+03</pdfrwt>
<totfact> 0.46484134E+02</totfact>
</mgrwt>
</event>
<event>
 7    1  0.1111284E-005  0.2946890E+03  0.7546771E-02  0.1089474E+00
          1   -1    0    0  501    0  0.00000000000E+00  0.00000000000E+00  0.21538770686E+03  0.21538770686E+03  0.00000000000E+00 0. -1.
         -1   -1    0    0    0  501 -0.00000000000E+00 -0.00000000000E+00 -0.46237816187E+03  0.46237816187E+03  0.00000000000E+00 0.  1.
         23    2    1    2    0    0  0.10531358220E+03 -0.24520651901E+03  0.15298629282E+02  0.28325713111E+03  0.93719617499E+02 0.  0.
          5    1    1    2  502    0 -0.11541618647E+03  0.17485040287E+03 -0.24265406830E+03  0.32061916092E+03  0.47000000000E+01 0.  1.
         -5    1    1    2    0  502  0.10102604271E+02  0.70356116146E+02 -0.19635015988E+02  0.73889576701E+02  0.47000000000E+01 0.  1.
        -11    1    3    3    0    0  0.62792243345E+02 -0.42836732050E+02  0.19299272795E+01  0.76036675732E+02  0.00000000000E+00 0.  1.
         11    1    3    3    0    0  0.42521338853E+02 -0.20236978696E+03  0.13368702002E+02  0.20722045538E+03  0.00000000000E+00 0. -1.
<mgrwt>
<rscale>  0 0.29168193E+03</rscale>
<asrwt>0</asrwt>
<pdfrwt beam="1">  1        1 0.33136570E-01 0.29468896E+03</pdfrwt>
<pdfrwt beam="2">  1       -1 0.71135102E-01 0.29468896E+03</pdfrwt>
<totfact> 0.27822870E+02</totfact>
</mgrwt>
</event>
<event>
 7    1  0.1111284E-005  0.2059512E+03  0.7546771E-02  0.1148658E+00
          1   -1    0    0  501    0  0.00000000000E+00  0.00000000000E+00  0.95076644738E+02  0.95076644738E+02  0.00000000000E+00 0. -1.
         -1   -1    0    0    0  501 -0.00000000000E+00 -0.00000000000E+00 -0.41208458402E+03  0.41208458402E+03  0.00000000000E+00 0.  1.
         23    2    1    2    0    0 -0.79236128915E+01  0.16350406974E+03 -0.12583343831E+03  0.22615661099E+03  0.92284310885E+02 0.  0.
          5    1    1    2  502    0  0.61886727272E+02 -0.12442176357E+03 -0.12472462030E+03  0.18678614288E+03  0.47000000000E+01 0. -1.
         -5    1    1    2    0  502 -0.53963114380E+02 -0.39082306174E+02 -0.66449880667E+02  0.94218474888E+02  0.47000000000E+01 0.  1.
        -11    1    3    3    0    0  0.21389632988E+02  0.65787261428E+02 -0.69877057787E+01  0.69529189536E+02  0.00000000000E+00 0. -1.
         11    1    3    3    0    0 -0.29313245880E+02  0.97716808312E+02 -0.11884573253E+03  0.15662742146E+03  0.00000000000E+00 0.  1.
<mgrwt>
<rscale>  0 0.20128654E+03</rscale>
<asrwt>0</asrwt>
<pdfrwt beam="1">  1        1 0.14627176E-01 0.20595122E+03</pdfrwt>
<pdfrwt beam="2">  1       -1 0.63397628E-01 0.20595122E+03</pdfrwt>
<totfact> 0.10012263E+03</totfact>
</mgrwt>
</event>
<event>
 7    1  0.1111284E-005  0.1180234E+03  0.7546771E-02  0.1253360E+00
          3   -1    0    0  501    0  0.00000000000E+00  0.00000000000E+00  0.34759119799E+03  0.34759119799E+03  0.00000000000E+00 0. -1.
         -3   -1    0    0    0  501 -0.00000000000E+00 -0.00000000000E+00 -0.35302073429E+02  0.35302073429E+02  0.00000000000E+00 0.  1.
         23    2    1    2    0    0  0.12619404710E+02 -0.37001509154E+02  0.16195458958E+03  0.19176504854E+03  0.94953587100E+02 0.  0.
          5    1    1    2  502    0 -0.26679215094E+02  0.64848388070E+01  0.15445979295E+03  0.15695142972E+03  0.47000000000E+01 0. -1.
         -5    1    1    2    0  502  0.14059810384E+02  0.30516670347E+02 -0.41252579664E+01  0.34176793156E+02  0.47000000000E+01 0.  1.
        -11    1    3    3    0    0  0.26198523697E+01  0.23221934003E+02  0.57665436674E+01  0.24070207127E+02  0.00000000000E+00 0.  1.
         11    1    3    3    0    0  0.99995523404E+01 -0.60223443158E+02  0.15618804591E+03  0.16769484142E+03  0.00000000000E+00 0. -1.
<mgrwt>
<rscale>  0 0.11398681E+03</rscale>
<asrwt>0</asrwt>
<pdfrwt beam="1">  1        3 0.53475567E-01 0.11802341E+03</pdfrwt>
<pdfrwt beam="2">  1       -3 0.54310884E-02 0.11802341E+03</pdfrwt>
<totfact> 0.15632457E+03</totfact>
</mgrwt>
</event>
<event>
 7    1  0.1111284E-005  0.1419536E+03  0.7546771E-02  0.1223428E+00
         -2   -1    0    0    0  501 -0.00000000000E+00  0.00000000000E+00  0.46525323499E+03  0.46525323499E+03  0.00000000000E+00 0.  1.
          2   -1    0    0  501    0  0.00000000000E+00 -0.00000000000E+00 -0.33758333899E+02  0.33758333899E+02  0.00000000000E+00 0. -1.
         23    2    1    2    0    0  0.58082703301E+02 -0.30903643377E+02  0.19467377688E+03  0.22290456253E+03  0.86370880490E+02 0.  0.
          5    1    1    2  502    0 -0.43503307946E+02  0.60046615886E+02  0.57934503548E+02  0.94215872246E+02  0.47000000000E+01 0. -1.
         -5    1    1    2    0  502 -0.14579395354E+02 -0.29142972509E+02  0.17888662066E+03  0.18189113411E+03  0.47000000000E+01 0. -1.
        -11    1    3    3    0    0 -0.20597199731E+02  0.46368929570E+01  0.26663403461E+02  0.34010035242E+02  0.00000000000E+00 0. -1.
         11    1    3    3    0    0  0.78679903032E+02 -0.35540536334E+02  0.16801037341E+03  0.18889452729E+03  0.00000000000E+00 0.  1.
<mgrwt>
<rscale>  0 0.13275244E+03</rscale>
<asrwt>0</asrwt>
<pdfrwt beam="2">  1        2 0.51935902E-02 0.14195363E+03</pdfrwt>
<pdfrwt beam="1">  1       -2 0.71577416E-01 0.14195363E+03</pdfrwt>
<totfact> 0.26100851E+03</totfact>
</mgrwt>
</event>
<event>
 7    1  0.1111284E-005  0.1691736E+03  0.7546771E-02  0.1186078E+00
         -1   -1    0    0    0  501 -0.00000000000E+00  0.00000000000E+00  0.47484466238E+03  0.47484466238E+03  0.00000000000E+00 0.  1.
          1   -1    0    0  501    0  0.00000000000E+00 -0.00000000000E+00 -0.77926128144E+02  0.77926128144E+02  0.00000000000E+00 0. -1.
         23    2    1    2    0    0 -0.10787508725E+03  0.36747419476E+02  0.26963866176E+02  0.14597087033E+03  0.87138037722E+02 0.  0.
          5    1    1    2  502    0  0.47452461349E+02  0.40588540184E+02  0.86410483569E+02  0.10671470073E+03  0.47000000000E+01 0. -1.
         -5    1    1    2    0  502  0.60422625905E+02 -0.77335959660E+02  0.28354418450E+03  0.30008521946E+03  0.47000000000E+01 0. -1.
        -11    1    3    3    0    0 -0.10599799892E+03  0.15780424398E+01  0.31179846104E+02  0.11049999455E+03  0.00000000000E+00 0.  1.
         11    1    3    3    0    0 -0.18770883325E+01  0.35169377036E+02 -0.42159799283E+01  0.35470875778E+02  0.00000000000E+00 0. -1.
<mgrwt>
<rscale>  0 0.16234217E+03</rscale>
<asrwt>0</asrwt>
<pdfrwt beam="2">  1        1 0.11988635E-01 0.16917363E+03</pdfrwt>
<pdfrwt beam="1">  1       -1 0.73053023E-01 0.16917363E+03</pdfrwt>
<totfact> 0.97970520E+02</totfact>
</mgrwt>
</event>
<event>
 7    1  0.1111284E-005  0.1325966E+03  0.7546771E-02  0.1233116E+00
          2   -1    0    0  501    0  0.00000000000E+00  0.00000000000E+00  0.70789881397E+03  0.70789881397E+03  0.00000000000E+00 0. -1.
         -2   -1    0    0    0  501 -0.00000000000E+00 -0.00000000000E+00 -0.20688353998E+02  0.20688353998E+02  0.00000000000E+00 0.  1.
         23    2    1    2    0    0 -0.43162667325E+02 -0.39939082285E+02  0.33189111581E+03  0.34933302154E+03  0.91780722600E+02 0.  0.
          5    1    1    2  502    0  0.34103937362E+02 -0.17280711104E+02  0.28692308014E+03  0.28949722872E+03  0.47000000000E+01 0. -1.
         -5    1    1    2    0  502  0.90587299628E+01  0.57219793389E+02  0.68396264022E+02  0.89756917707E+02  0.47000000000E+01 0.  1.
        -11    1    3    3    0    0 -0.50797315690E+02  0.82758992091E+01  0.23809684939E+03  0.24359591023E+03  0.00000000000E+00 0.  1.
         11    1    3    3    0    0  0.76346483652E+01 -0.48214981494E+02  0.93794266420E+02  0.10573711132E+03  0.00000000000E+00 0. -1.
<mgrwt>
<rscale>  0 0.12625829E+03</rscale>
<asrwt>0</asrwt>
<pdfrwt beam="1">  1        2 0.10890749E+00 0.13259665E+03</pdfrwt>
<pdfrwt beam="2">  1       -2 0.31828242E-02 0.13259665E+03</pdfrwt>
<totfact> 0.15221860E+04</totfact>
</mgrwt>
</event>
<event>
 7    1  0.1111284E-005  0.1331446E+03  0.7546771E-02  0.1235270E+00
         -1   -1    0    0    0  501 -0.00000000000E+00  0.00000000000E+00  0.35349079933E+02  0.35349079933E+02  0.00000000000E+00 0.  1.
          1   -1    0    0  501    0  0.00000000000E+00 -0.00000000000E+00 -0.40251278635E+03  0.40251278635E+03  0.00000000000E+00 0. -1.
         23    2    1    2    0    0 -0.43156632254E+02  0.15517867250E+02 -0.19141937746E+03  0.21737702810E+03  0.92239336313E+02 0.  0.
          5    1    1    2  502    0 -0.21782386387E+02 -0.35856953656E+02 -0.13239388800E+02  0.44244377021E+02  0.47000000000E+01 0. -1.
         -5    1    1    2    0  502  0.64939018641E+02  0.20339086406E+02 -0.16250494016E+03  0.17624046117E+03  0.47000000000E+01 0. -1.
        -11    1    3    3    0    0  0.15043095863E+02 -0.21306366503E+02 -0.20728366877E+02  0.33315479586E+02  0.00000000000E+00 0.  1.
         11    1    3    3    0    0 -0.58199728117E+02  0.36824233753E+02 -0.17069101059E+03  0.18406154851E+03  0.00000000000E+00 0. -1.
<mgrwt>
<rscale>  0 0.12487178E+03</rscale>
<asrwt>0</asrwt>
<pdfrwt beam="2">  1        1 0.61925045E-01 0.13314464E+03</pdfrwt>
<pdfrwt beam="1">  1       -1 0.54383199E-02 0.13314464E+03</pdfrwt>
<totfact> 0.88528458E+03</totfact>
</mgrwt>
</event>
<event>
 7    1  0.1111284E-005  0.1296697E+03  0.7546771E-02  0.1242511E+00
         -2   -1    0    0    0  501 -0.00000000000E+00  0.00000000000E+00  0.34279549988E+02  0.34279549988E+02  0.00000000000E+00 0.  1.
          2   -1    0    0  501    0  0.00000000000E+00 -0.00000000000E+00 -0.37321905047E+03  0.37321905047E+03  0.00000000000E+00 0. -1.
         23    2    1    2    0    0 -0.29490748475E+02  0.17866772108E+02 -0.15501643963E+03  0.18246098531E+03  0.89849812532E+02 0.  0.
          5    1    1    2  502    0 -0.26370569139E+02  0.87356483877E+00 -0.15840529474E+03  0.16065645780E+03  0.47000000000E+01 0.  1.
         -5    1    1    2    0  502  0.55861317614E+02 -0.18740336947E+02 -0.25517766117E+02  0.64381157353E+02  0.47000000000E+01 0.  1.
        -11    1    3    3    0    0 -0.28868027654E+02  0.39617405022E+02 -0.15293871707E+03  0.16060246879E+03  0.00000000000E+00 0. -1.
         11    1    3    3    0    0 -0.62272082109E+00 -0.21750632914E+02 -0.20777225594E+01  0.21858516519E+02  0.00000000000E+00 0.  1.
<mgrwt>
<rscale>  0 0.12035566E+03</rscale>
<asrwt>0</asrwt>
<pdfrwt beam="2">  1        2 0.57418315E-01 0.12966972E+03</pdfrwt>
<pdfrwt beam="1">  1       -2 0.52737770E-02 0.12966972E+03</pdfrwt>
<totfact> 0.14590497E+04</totfact>
</mgrwt>
</event>
<event>
 7    1  0.1111284E-005  0.1733541E+03  0.7546771E-02  0.1180697E+00
          2   -1    0    0  501    0  0.00000000000E+00  0.00000000000E+00  0.27245713980E+03  0.27245713980E+03  0.00000000000E+00 0. -1.
         -2   -1    0    0    0  501 -0.00000000000E+00 -0.00000000000E+00 -0.12445944385E+03  0.12445944385E+03  0.00000000000E+00 0.  1.
         23    2    1    2    0    0 -0.45090412269E+02  0.11132372044E+03  0.16439442194E+03  0.22278872812E+03  0.90460905370E+02 0.  0.
          5    1    1    2  502    0 -0.15263543403E+02 -0.10306450374E+03  0.15112611144E+02  0.10538381614E+03  0.47000000000E+01 0.  1.
         -5    1    1    2    0  502  0.60353955672E+02 -0.82592166990E+01 -0.31509337137E+02  0.68744039397E+02  0.47000000000E+01 0.  1.
        -11    1    3    3    0    0 -0.23883958413E+02 -0.50711278259E+01  0.61008493303E+01  0.25167045306E+02  0.00000000000E+00 0.  1.
         11    1    3    3    0    0 -0.21206453856E+02  0.11639484826E+03  0.15829357261E+03  0.19762168281E+03  0.00000000000E+00 0. -1.
<mgrwt>
<rscale>  0 0.16729637E+03</rscale>
<asrwt>0</asrwt>
<pdfrwt beam="1">  1        2 0.41916483E-01 0.17335414E+03</pdfrwt>
<pdfrwt beam="2">  1       -2 0.19147607E-01 0.17335414E+03</pdfrwt>
<totfact> 0.26964950E+03</totfact>
</mgrwt>
</event>
<event>
 7    1  0.1111284E-005  0.2267599E+03  0.7546771E-02  0.1128941E+00
          1   -1    0    0  501    0  0.00000000000E+00  0.00000000000E+00  0.24127114194E+03  0.24127114194E+03  0.00000000000E+00 0. -1.
         -1   -1    0    0    0  501 -0.00000000000E+00 -0.00000000000E+00 -0.53280380753E+02  0.53280380753E+02  0.00000000000E+00 0.  1.
         23    2    1    2    0    0  0.80193005492E+01  0.41041688036E+01  0.11254578417E+03  0.14827117538E+03  0.96107411432E+02 0.  0.
          5    1    1    2  502    0 -0.35557919349E+02  0.26943220239E+01 -0.23684136931E+02  0.43065686361E+02  0.47000000000E+01 0. -1.
         -5    1    1    2    0  502  0.27538618800E+02 -0.67984908275E+01  0.99129113942E+02  0.10321466094E+03  0.47000000000E+01 0. -1.
        -11    1    3    3    0    0  0.17423922172E+02  0.48178468430E+02  0.64960663358E+02  0.82732373760E+02  0.00000000000E+00 0.  1.
         11    1    3    3    0    0 -0.94046216230E+01 -0.44074299627E+02  0.47585120814E+02  0.65538801624E+02  0.00000000000E+00 0. -1.
<mgrwt>
<rscale>  0 0.22675995E+03</rscale>
<asrwt>0</asrwt>
<pdfrwt beam="1">  1        1 0.37118637E-01 0.22675995E+03</pdfrwt>
<pdfrwt beam="2">  1       -1 0.81969818E-02 0.22675995E+03</pdfrwt>
<totfact> 0.93857479E+03</totfact>
</mgrwt>
</event>
<event>
 7    1  0.1111284E-005  0.1417191E+03  0.7546771E-02  0.1221871E+00
         -2   -1    0    0    0  501 -0.00000000000E+00  0.00000000000E+00  0.38248431875E+02  0.38248431875E+02  0.00000000000E+00 0.  1.
          2   -1    0    0  501    0  0.00000000000E+00 -0.00000000000E+00 -0.43601997869E+03  0.43601997869E+03  0.00000000000E+00 0. -1.
         23    2    1    2    0    0  0.45365013985E+02 -0.49009062697E+02 -0.13643309957E+03  0.17697716007E+03  0.90813279911E+02 0.  0.
          5    1    1    2  502    0 -0.38198722807E+02 -0.34665069590E+02 -0.14311271812E+03  0.15219773179E+03  0.47000000000E+01 0. -1.
         -5    1    1    2    0  502 -0.71662911780E+01  0.83674132288E+02 -0.11822572912E+03  0.14509351870E+03  0.47000000000E+01 0. -1.
        -11    1    3    3    0    0 -0.59573491830E+01 -0.42318638120E+02 -0.11173643961E+03  0.11963021808E+03  0.00000000000E+00 0. -1.
         11    1    3    3    0    0  0.51322363168E+02 -0.66904245774E+01 -0.24696659957E+02  0.57346941986E+02  0.00000000000E+00 0.  1.
<mgrwt>
<rscale>  0 0.13383705E+03</rscale>
<asrwt>0</asrwt>
<pdfrwt beam="2">  1        2 0.67079998E-01 0.14171910E+03</pdfrwt>
<pdfrwt beam="1">  1       -2 0.58843740E-02 0.14171910E+03</pdfrwt>
<totfact> 0.10542126E+04</totfact>
</mgrwt>
</event>
<event>
 7    1  0.1111284E-005  0.1572575E+03  0.7546771E-02  0.1200561E+00
         -1   -1    0    0    0  501 -0.00000000000E+00  0.00000000000E+00  0.23236591861E+02  0.23236591861E+02  0.00000000000E+00 0.  1.
          1   -1    0    0  501    0  0.00000000000E+00 -0.00000000000E+00 -0.10917745113E+04  0.10917745113E+04  0.00000000000E+00 0. -1.
         23    2    1    2    0    0  0.30294758211E+02 -0.90479789176E+02 -0.73329789136E+03  0.74471960489E+03  0.88188025378E+02 0.  0.
          5    1    1    2  502    0 -0.78389608772E+02  0.50564130093E+02 -0.17792976189E+03  0.20095460229E+03  0.47000000000E+01 0.  1.
         -5    1    1    2    0  502  0.48094850561E+02  0.39915659083E+02 -0.15731026624E+03  0.16933689602E+03  0.47000000000E+01 0.  1.
        -11    1    3    3    0    0 -0.19028442261E+01  0.17277176925E+02 -0.89449957097E+02  0.91123084250E+02  0.00000000000E+00 0.  1.
         11    1    3    3    0    0  0.32197602437E+02 -0.10775696610E+03 -0.64384793426E+03  0.65359652064E+03  0.00000000000E+00 0. -1.
<mgrwt>
<rscale>  0 0.14992873E+03</rscale>
<asrwt>0</asrwt>
<pdfrwt beam="2">  1        1 0.16796530E+00 0.15725749E+03</pdfrwt>
<pdfrwt beam="1">  1       -1 0.35748606E-02 0.15725749E+03</pdfrwt>
<totfact> 0.39226255E+03</totfact>
</mgrwt>
</event>
<event>
 7    1  0.1111284E-005  0.1896105E+03  0.7546771E-02  0.1164135E+00
         -1   -1    0    0    0  501 -0.00000000000E+00  0.00000000000E+00  0.21918719271E+03  0.21918719271E+03  0.00000000000E+00 0.  1.
          1   -1    0    0  501    0  0.00000000000E+00 -0.00000000000E+00 -0.14807669979E+03  0.14807669979E+03  0.00000000000E+00 0. -1.
         23    2    1    2    0    0  0.39352173084E+02 -0.13703845689E+03  0.92835975073E+01  0.16782795131E+03  0.88044896876E+02 0.  0.
          5    1    1    2  502    0  0.43009507339E+02  0.74086360148E+02  0.25831009522E+02  0.89598758554E+02  0.47000000000E+01 0.  1.
         -5    1    1    2    0  502 -0.82361680422E+02  0.62952096744E+02  0.35995885895E+02  0.10983718263E+03  0.47000000000E+01 0.  1.
        -11    1    3    3    0    0  0.43799531108E+02 -0.11752735521E+03 -0.25226624104E+02  0.12793537710E+03  0.00000000000E+00 0. -1.
         11    1    3    3    0    0 -0.44473580247E+01 -0.19511101678E+02  0.34510221612E+02  0.39892574218E+02  0.00000000000E+00 0.  1.
<mgrwt>
<rscale>  0 0.18384272E+03</rscale>
<asrwt>0</asrwt>
<pdfrwt beam="2">  1        1 0.22781031E-01 0.18961047E+03</pdfrwt>
<pdfrwt beam="1">  1       -1 0.33721107E-01 0.18961047E+03</pdfrwt>
<totfact> 0.17789900E+03</totfact>
</mgrwt>
</event>
<event>
 7    1  0.1111284E-005  0.1827205E+03  0.7546771E-02  0.1170396E+00
         -1   -1    0    0    0  501 -0.00000000000E+00  0.00000000000E+00  0.57714131713E+03  0.57714131713E+03  0.00000000000E+00 0.  1.
          1   -1    0    0  501    0  0.00000000000E+00 -0.00000000000E+00 -0.55737460676E+02  0.55737460676E+02  0.00000000000E+00 0. -1.
         23    2    1    2    0    0  0.13124377659E+03 -0.23200217638E+02  0.15943831687E+03  0.22740889304E+03  0.92363676593E+02 0.  0.
          5    1    1    2  502    0 -0.11637690854E+02  0.33654105920E+02  0.20326969701E+03  0.20641873562E+03  0.47000000000E+01 0.  1.
         -5    1    1    2    0  502 -0.11960608574E+03 -0.10453888282E+02  0.15869584258E+03  0.19905114915E+03  0.47000000000E+01 0.  1.
        -11    1    3    3    0    0  0.87708351960E+02 -0.55733825505E+02  0.79939283041E+02  0.13110798329E+03  0.00000000000E+00 0.  1.
         11    1    3    3    0    0  0.43535424632E+02  0.32533607867E+02  0.79499033828E+02  0.96300909748E+02  0.00000000000E+00 0. -1.
<mgrwt>
<rscale>  0 0.17734665E+03</rscale>
<asrwt>0</asrwt>
<pdfrwt beam="2">  1        1 0.85749943E-02 0.18272048E+03</pdfrwt>
<pdfrwt beam="1">  1       -1 0.88790968E-01 0.18272048E+03</pdfrwt>
<totfact> 0.10258275E+03</totfact>
</mgrwt>
</event>
<event>
 7    1  0.1150159E-005  0.1751067E+03  0.7546771E-02  0.1179641E+00
          4   -1    0    0  501    0  0.00000000000E+00  0.00000000000E+00  0.85776192163E+02  0.85776192163E+02  0.00000000000E+00 0. -1.
         -4   -1    0    0    0  501 -0.00000000000E+00 -0.00000000000E+00 -0.32829513092E+03  0.32829513092E+03  0.00000000000E+00 0.  1.
         23    2    1    2    0    0  0.66994434456E+02  0.10270869509E+03 -0.59600280876E+02  0.16084893379E+03  0.85339649193E+02 0.  0.
          5    1    1    2  502    0 -0.66881901029E+02 -0.95583306762E+02 -0.62363952490E+02  0.13236581805E+03  0.47000000000E+01 0.  1.
         -5    1    1    2    0  502 -0.11253342703E+00 -0.71253883281E+01 -0.12055470539E+03  0.12085657125E+03  0.47000000000E+01 0.  1.
        -11    1    3    3    0    0  0.76749680671E+02  0.43500527407E+02 -0.45259920592E+02  0.99152759819E+02  0.00000000000E+00 0.  1.
         11    1    3    3    0    0 -0.97552462144E+01  0.59208167683E+02 -0.14340360284E+02  0.61696173967E+02  0.00000000000E+00 0. -1.
<mgrwt>
<rscale>  0 0.16829229E+03</rscale>
<asrwt>0</asrwt>
<pdfrwt beam="1">  1        4 0.13196337E-01 0.17510666E+03</pdfrwt>
<pdfrwt beam="2">  1       -4 0.50506944E-01 0.17510666E+03</pdfrwt>
<totfact> 0.31183943E+02</totfact>
</mgrwt>
</event>
<event>
 7    1  0.1111284E-005  0.1591774E+03  0.7546771E-02  0.1197702E+00
         -1   -1    0    0    0  501 -0.00000000000E+00  0.00000000000E+00  0.54604924192E+02  0.54604924192E+02  0.00000000000E+00 0.  1.
          1   -1    0    0  501    0  0.00000000000E+00 -0.00000000000E+00 -0.48560360741E+03  0.48560360741E+03  0.00000000000E+00 0. -1.
         23    2    1    2    0    0  0.59171795271E+02 -0.78807431650E+02 -0.31853246578E+03  0.34530834198E+03  0.89794246172E+02 0.  0.
          5    1    1    2  502    0  0.33114563412E+02  0.48701530028E+02 -0.25007215570E+02  0.64155001111E+02  0.47000000000E+01 0. -1.
         -5    1    1    2    0  502 -0.92286358683E+02  0.30105901622E+02 -0.87459001866E+02  0.13074518851E+03  0.47000000000E+01 0. -1.
        -11    1    3    3    0    0  0.33859675819E+02 -0.33795182056E+01 -0.19788151279E+03  0.20078593550E+03  0.00000000000E+00 0. -1.
         11    1    3    3    0    0  0.25312119452E+02 -0.75427913444E+02 -0.12065095299E+03  0.14452240648E+03  0.00000000000E+00 0.  1.
<mgrwt>
<rscale>  0 0.15227792E+03</rscale>
<asrwt>0</asrwt>
<pdfrwt beam="2">  1        1 0.74708247E-01 0.15917737E+03</pdfrwt>
<pdfrwt beam="1">  1       -1 0.84007576E-02 0.15917737E+03</pdfrwt>
<totfact> 0.36618716E+03</totfact>
</mgrwt>
</event>
<event>
 7    1  0.1111284E-005  0.1387739E+03  0.7546771E-02  0.1230263E+00
         -1   -1    0    0    0  501 -0.00000000000E+00  0.00000000000E+00  0.31475899801E+03  0.31475899801E+03  0.00000000000E+00 0.  1.
          1   -1    0    0  501    0  0.00000000000E+00 -0.00000000000E+00 -0.54468196389E+02  0.54468196389E+02  0.00000000000E+00 0. -1.
         23    2    1    2    0    0 -0.38536789667E+02 -0.46323564421E+02  0.39196037335E+02  0.10818871759E+03  0.80854885400E+02 0.  0.
          5    1    1    2  502    0 -0.17634716877E+02  0.71054560561E+02  0.15014382102E+03  0.16710772216E+03  0.47000000000E+01 0. -1.
         -5    1    1    2    0  502  0.56171506543E+02 -0.24730996140E+02  0.70950943264E+02  0.93930754641E+02  0.47000000000E+01 0. -1.
        -11    1    3    3    0    0 -0.12753550207E+02 -0.10166823353E+02 -0.25168408595E+02  0.29991100866E+02  0.00000000000E+00 0. -1.
         11    1    3    3    0    0 -0.25783239460E+02 -0.36156741068E+02  0.64364445930E+02  0.78197616726E+02  0.00000000000E+00 0.  1.
<mgrwt>
<rscale>  0 0.12812615E+03</rscale>
<asrwt>0</asrwt>
<pdfrwt beam="2">  1        1 0.83797227E-02 0.13877389E+03</pdfrwt>
<pdfrwt beam="1">  1       -1 0.48424460E-01 0.13877389E+03</pdfrwt>
<totfact> 0.34252156E+03</totfact>
</mgrwt>
</event>
<event>
 7    1  0.1111284E-005  0.1707705E+03  0.7546771E-02  0.1183318E+00
          2   -1    0    0  501    0  0.00000000000E+00  0.00000000000E+00  0.31317171722E+03  0.31317171722E+03  0.00000000000E+00 0.  1.
         -2   -1    0    0    0  501 -0.00000000000E+00 -0.00000000000E+00 -0.90407525326E+02  0.90407525326E+02  0.00000000000E+00 0. -1.
         23    2    1    2    0    0 -0.11379969686E+03 -0.24244929452E+02  0.40371341964E+02  0.15371987425E+03  0.91987862667E+02 0.  0.
          5    1    1    2  502    0  0.73663798831E+02 -0.80196679583E+01  0.18369455246E+03  0.19813240254E+03  0.47000000000E+01 0. -1.
         -5    1    1    2    0  502  0.40135898033E+02  0.32264597410E+02 -0.13017025248E+01  0.51726965757E+02  0.47000000000E+01 0. -1.
        -11    1    3    3    0    0 -0.37736009381E+01 -0.37267177800E+02  0.81282950231E+01  0.38329515848E+02  0.00000000000E+00 0. -1.
         11    1    3    3    0    0 -0.11002609593E+03  0.13022248348E+02  0.32243046941E+02  0.11539035841E+03  0.00000000000E+00 0.  1.
<mgrwt>
<rscale>  0 0.16485886E+03</rscale>
<asrwt>0</asrwt>
<pdfrwt beam="1">  1        2 0.48180264E-01 0.17077047E+03</pdfrwt>
<pdfrwt beam="2">  1       -2 0.13908850E-01 0.17077047E+03</pdfrwt>
<totfact> 0.39468989E+03</totfact>
</mgrwt>
</event>
<event>
 7    1  0.1111284E-005  0.2231972E+03  0.7546771E-02  0.1134776E+00
          2   -1    0    0  501    0  0.00000000000E+00  0.00000000000E+00  0.33753602664E+03  0.33753602664E+03  0.00000000000E+00 0.  1.
         -2   -1    0    0    0  501 -0.00000000000E+00 -0.00000000000E+00 -0.13684218783E+03  0.13684218783E+03  0.00000000000E+00 0. -1.
         23    2    1    2    0    0  0.13225979068E+03  0.12922334913E+03  0.10769259385E+03  0.23258028010E+03  0.91129390045E+02 0.  0.
          5    1    1    2  502    0 -0.15617724437E+03 -0.11116910868E+03  0.71671892053E+02  0.20471651740E+03  0.47000000000E+01 0. -1.
         -5    1    1    2    0  502  0.23917453695E+02 -0.18054240453E+02  0.21329352903E+02  0.37081416975E+02  0.47000000000E+01 0. -1.
        -11    1    3    3    0    0  0.11663404701E+03  0.10693153900E+03  0.45429348659E+02  0.16462588094E+03  0.00000000000E+00 0.  1.
         11    1    3    3    0    0  0.15625743672E+02  0.22291810132E+02  0.62263245189E+02  0.67954399164E+02  0.00000000000E+00 0. -1.
<mgrwt>
<rscale>  0 0.21880638E+03</rscale>
<asrwt>0</asrwt>
<pdfrwt beam="1">  1        2 0.51928619E-01 0.22319724E+03</pdfrwt>
<pdfrwt beam="2">  1       -2 0.21052644E-01 0.22319724E+03</pdfrwt>
<totfact> 0.18374333E+03</totfact>
</mgrwt>
</event>
<event>
 7    1  0.1111284E-005  0.1398068E+03  0.7546771E-02  0.1224154E+00
         -2   -1    0    0    0  501 -0.00000000000E+00  0.00000000000E+00  0.41377853126E+03  0.41377853126E+03  0.00000000000E+00 0.  1.
          2   -1    0    0  501    0  0.00000000000E+00 -0.00000000000E+00 -0.51044408525E+02  0.51044408525E+02  0.00000000000E+00 0. -1.
         23    2    1    2    0    0 -0.56971441222E+02 -0.25987418643E+02  0.50680770763E+02  0.12288255110E+03  0.92792724917E+02 0.  0.
          5    1    1    2  502    0  0.16844326441E+02  0.43530582360E+02  0.28296211103E+02  0.54785111998E+02  0.47000000000E+01 0.  1.
         -5    1    1    2    0  502  0.40127114782E+02 -0.17543163717E+02  0.28375714087E+03  0.28715527669E+03  0.47000000000E+01 0.  1.
        -11    1    3    3    0    0  0.77076975417E+01 -0.43377626584E+02  0.27852454053E+02  0.52122800061E+02  0.00000000000E+00 0. -1.
         11    1    3    3    0    0 -0.64679138764E+02  0.17390207941E+02  0.22828316710E+02  0.70759751041E+02  0.00000000000E+00 0.  1.
<mgrwt>
<rscale>  0 0.13225037E+03</rscale>
<asrwt>0</asrwt>
<pdfrwt beam="2">  1        2 0.78529862E-02 0.13980678E+03</pdfrwt>
<pdfrwt beam="1">  1       -2 0.63658233E-01 0.13980678E+03</pdfrwt>
<totfact> 0.19653245E+03</totfact>
</mgrwt>
</event>
<event>
 7    1  0.1111284E-005  0.1649643E+03  0.7546771E-02  0.1189223E+00
          1   -1    0    0  501    0  0.00000000000E+00  0.00000000000E+00  0.58507109723E+03  0.58507109723E+03  0.00000000000E+00 0. -1.
         -1   -1    0    0    0  501 -0.00000000000E+00 -0.00000000000E+00 -0.40896010258E+02  0.40896010258E+02  0.00000000000E+00 0.  1.
         23    2    1    2    0    0  0.46870900572E+02  0.96992434647E+02  0.24568399262E+03  0.28492436123E+03  0.96004446214E+02 0.  0.
          5    1    1    2  502    0 -0.71507435477E+02 -0.86560254765E+02  0.29233528855E+03  0.31319004129E+03  0.47000000000E+01 0.  1.
         -5    1    1    2    0  502  0.24636534905E+02 -0.10432179882E+02  0.61558058114E+01  0.27852704975E+02  0.47000000000E+01 0.  1.
        -11    1    3    3    0    0  0.70032406333E+02  0.36771960777E+02  0.12149807451E+03  0.14497757463E+03  0.00000000000E+00 0.  1.
         11    1    3    3    0    0 -0.23161505762E+02  0.60220473870E+02  0.12418591811E+03  0.13994678660E+03  0.00000000000E+00 0. -1.
<mgrwt>
<rscale>  0 0.15953496E+03</rscale>
<asrwt>0</asrwt>
<pdfrwt beam="1">  1        1 0.90010932E-01 0.16496430E+03</pdfrwt>
<pdfrwt beam="2">  1       -1 0.62916943E-02 0.16496430E+03</pdfrwt>
<totfact> 0.44264306E+03</totfact>
</mgrwt>
</event>
<event>
 7    1  0.1111284E-005  0.1626464E+03  0.7546771E-02  0.1206518E+00
         -1   -1    0    0    0  501 -0.00000000000E+00  0.00000000000E+00  0.22711115693E+03  0.22711115693E+03  0.00000000000E+00 0.  1.
          1   -1    0    0  501    0  0.00000000000E+00 -0.00000000000E+00 -0.11985269428E+03  0.11985269428E+03  0.00000000000E+00 0. -1.
         23    2    1    2    0    0  0.10385068264E+02 -0.33246703014E+02 -0.55189569415E+02  0.11708732220E+03  0.97212959749E+02 0.  0.
          5    1    1    2  502    0  0.31938430547E+01  0.24206891578E+02 -0.28701742227E+02  0.37974389267E+02  0.47000000000E+01 0. -1.
         -5    1    1    2    0  502 -0.13578911319E+02  0.90398114359E+01  0.19114977429E+03  0.19190213974E+03  0.47000000000E+01 0.  1.
        -11    1    3    3    0    0 -0.22476228060E+02  0.26345409899E+02 -0.12841043148E+02  0.36934453288E+02  0.00000000000E+00 0.  1.
         11    1    3    3    0    0  0.32861296324E+02 -0.59592112913E+02 -0.42348526267E+02  0.80152868910E+02  0.00000000000E+00 0. -1.
<mgrwt>
<rscale>  0 0.14518478E+03</rscale>
<asrwt>0</asrwt>
<pdfrwt beam="2">  1        1 0.18438876E-01 0.16264641E+03</pdfrwt>
<pdfrwt beam="1">  1       -1 0.34940178E-01 0.16264641E+03</pdfrwt>
<totfact> 0.21816561E+03</totfact>
</mgrwt>
</event>
<event>
 7    1  0.1111284E-005  0.1342075E+03  0.7546771E-02  0.1235146E+00
         -2   -1    0    0    0  501 -0.00000000000E+00  0.00000000000E+00  0.62337736563E+02  0.62337736563E+02  0.00000000000E+00 0.  1.
          2   -1    0    0  501    0  0.00000000000E+00 -0.00000000000E+00 -0.22642583971E+03  0.22642583971E+03  0.00000000000E+00 0. -1.
         23    2    1    2    0    0 -0.47514346295E+02  0.11344950215E+02 -0.91594161521E+02  0.13622822051E+03  0.88217439544E+02 0.  0.
          5    1    1    2  502    0  0.69738517412E+02 -0.12078814062E+02 -0.96311897533E+02  0.11961367048E+03  0.47000000000E+01 0. -1.
         -5    1    1    2    0  502 -0.22224171117E+02  0.73386384652E+00  0.23817955908E+02  0.32921685279E+02  0.47000000000E+01 0. -1.
        -11    1    3    3    0    0 -0.12559283165E+02 -0.14073654696E+02 -0.91072243445E+02  0.93005144354E+02  0.00000000000E+00 0. -1.
         11    1    3    3    0    0 -0.34955063129E+02  0.25418604911E+02 -0.52191807596E+00  0.43223076157E+02  0.00000000000E+00 0.  1.
<mgrwt>
<rscale>  0 0.12495123E+03</rscale>
<asrwt>0</asrwt>
<pdfrwt beam="2">  1        2 0.34834744E-01 0.13420754E+03</pdfrwt>
<pdfrwt beam="1">  1       -2 0.95904212E-02 0.13420754E+03</pdfrwt>
<totfact> 0.99491038E+03</totfact>
</mgrwt>
</event>
<event>
 7    1  0.1111284E-005  0.1300792E+03  0.7546771E-02  0.1239058E+00
         -1   -1    0    0    0  501 -0.00000000000E+00  0.00000000000E+00  0.80522043372E+02  0.80522043372E+02  0.00000000000E+00 0.  1.
          1   -1    0    0  501    0  0.00000000000E+00 -0.00000000000E+00 -0.19084934341E+03  0.19084934341E+03  0.00000000000E+00 0. -1.
         23    2    1    2    0    0  0.62315481222E+01  0.46980459143E+02 -0.96436158881E+02  0.14055258502E+03  0.90604087555E+02 0.  0.
          5    1    1    2  502    0 -0.51977794584E+02  0.10675053521E+02 -0.19804623174E+02  0.56832745812E+02  0.47000000000E+01 0. -1.
         -5    1    1    2    0  502  0.45746246462E+02 -0.57655512664E+02  0.59134820173E+01  0.73986055953E+02  0.47000000000E+01 0.  1.
        -11    1    3    3    0    0  0.43475863542E+02  0.26693770732E+02 -0.80381713550E+02  0.95204663646E+02  0.00000000000E+00 0.  1.
         11    1    3    3    0    0 -0.37244315420E+02  0.20286688411E+02 -0.16054445331E+02  0.45347921371E+02  0.00000000000E+00 0. -1.
<mgrwt>
<rscale>  0 0.12248189E+03</rscale>
<asrwt>0</asrwt>
<pdfrwt beam="2">  1        1 0.29361437E-01 0.13007919E+03</pdfrwt>
<pdfrwt beam="1">  1       -1 0.12388007E-01 0.13007919E+03</pdfrwt>
<totfact> 0.64321327E+03</totfact>
</mgrwt>
</event>
<event>
 7    1  0.1111284E-005  0.1402192E+03  0.7546771E-02  0.1223671E+00
         -1   -1    0    0    0  501 -0.00000000000E+00  0.00000000000E+00  0.23885514921E+03  0.23885514921E+03  0.00000000000E+00 0.  1.
          1   -1    0    0  501    0  0.00000000000E+00 -0.00000000000E+00 -0.69971401198E+02  0.69971401198E+02  0.00000000000E+00 0. -1.
         23    2    1    2    0    0  0.30231611043E+02 -0.55790888924E+02  0.41919129871E+02  0.11966674801E+03  0.92392334835E+02 0.  0.
          5    1    1    2  502    0 -0.22617592109E+02  0.73491394419E+02  0.14380606303E+03  0.16314047411E+03  0.47000000000E+01 0.  1.
         -5    1    1    2    0  502 -0.76140189342E+01 -0.17700505495E+02 -0.16841444889E+02  0.26019328298E+02  0.47000000000E+01 0.  1.
        -11    1    3    3    0    0  0.22370590156E+02  0.17842703715E+02  0.35122658394E+02  0.45303493380E+02  0.00000000000E+00 0.  1.
         11    1    3    3    0    0  0.78610208871E+01 -0.73633592638E+02  0.67964714778E+01  0.74363254627E+02  0.00000000000E+00 0. -1.
<mgrwt>
<rscale>  0 0.13258423E+03</rscale>
<asrwt>0</asrwt>
<pdfrwt beam="2">  1        1 0.10764831E-01 0.14021917E+03</pdfrwt>
<pdfrwt beam="1">  1       -1 0.36746946E-01 0.14021917E+03</pdfrwt>
<totfact> 0.40036041E+03</totfact>
</mgrwt>
</event>
<event>
 7    1  0.1111284E-005  0.1512354E+03  0.7546771E-02  0.1208070E+00
          3   -1    0    0  501    0  0.00000000000E+00  0.00000000000E+00  0.42490610401E+03  0.42490610401E+03  0.00000000000E+00 0. -1.
         -3   -1    0    0    0  501 -0.00000000000E+00 -0.00000000000E+00 -0.45112979086E+02  0.45112979086E+02  0.00000000000E+00 0.  1.
         23    2    1    2    0    0 -0.81869760193E+02 -0.23336728438E+02  0.19518966704E+03  0.23137588980E+03  0.90490528436E+02 0.  0.
          5    1    1    2  502    0  0.11135221426E+03  0.34918624157E+02  0.16081539829E+03  0.19875187612E+03  0.47000000000E+01 0.  1.
         -5    1    1    2    0  502 -0.29482454067E+02 -0.11581895719E+02  0.23788059596E+02  0.39891317170E+02  0.47000000000E+01 0.  1.
        -11    1    3    3    0    0  0.26479436092E+01  0.14821017671E+02  0.89560174759E+02  0.90816843553E+02  0.00000000000E+00 0. -1.
         11    1    3    3    0    0 -0.84517703802E+02 -0.38157746109E+02  0.10562949228E+03  0.14055904625E+03  0.00000000000E+00 0.  1.
<mgrwt>
<rscale>  0 0.14398132E+03</rscale>
<asrwt>0</asrwt>
<pdfrwt beam="1">  1        3 0.65370167E-01 0.15123537E+03</pdfrwt>
<pdfrwt beam="2">  1       -3 0.69404586E-02 0.15123537E+03</pdfrwt>
<totfact> 0.72794495E+02</totfact>
</mgrwt>
</event>
<event>
 7    1  0.1111284E-005  0.4206687E+03  0.7546771E-02  0.1075483E+00
         -2   -1    0    0    0  501 -0.00000000000E+00  0.00000000000E+00  0.13313118201E+04  0.13313118201E+04  0.00000000000E+00 0.  1.
          2   -1    0    0  501    0  0.00000000000E+00 -0.00000000000E+00 -0.73439709615E+02  0.73439709615E+02  0.00000000000E+00 0. -1.
         23    2    1    2    0    0 -0.31885631036E+02  0.10593267362E+03  0.10120293171E+03  0.17396082267E+03  0.88215132657E+02 0.  0.
          5    1    1    2  502    0  0.17923321955E+03  0.68794885722E+02  0.52248196733E+03  0.55665678786E+03  0.47000000000E+01 0. -1.
         -5    1    1    2    0  502 -0.14734758851E+03 -0.17472755934E+03  0.63418721148E+03  0.67413391922E+03  0.47000000000E+01 0.  1.
        -11    1    3    3    0    0 -0.15307607097E+01 -0.11716069818E+02  0.32049033010E+02  0.34157722951E+02  0.00000000000E+00 0.  1.
         11    1    3    3    0    0 -0.30354870327E+02  0.11764874344E+03  0.69153898699E+02  0.13980309972E+03  0.00000000000E+00 0. -1.
<mgrwt>
<rscale>  0 0.32036059E+03</rscale>
<asrwt>0</asrwt>
<pdfrwt beam="2">  1        2 0.11298418E-01 0.42066872E+03</pdfrwt>
<pdfrwt beam="1">  1       -2 0.20481719E+00 0.42066872E+03</pdfrwt>
<totfact> 0.73144373E+01</totfact>
</mgrwt>
</event>
<event>
 7    1  0.1111284E-005  0.1788729E+03  0.7546771E-02  0.1174608E+00
         -1   -1    0    0    0  501 -0.00000000000E+00  0.00000000000E+00  0.24489649497E+02  0.24489649497E+02  0.00000000000E+00 0.  1.
          1   -1    0    0  501    0  0.00000000000E+00 -0.00000000000E+00 -0.11579950571E+04  0.11579950571E+04  0.00000000000E+00 0. -1.
         23    2    1    2    0    0 -0.72281442815E+02  0.10556938109E+03 -0.57303445007E+03  0.59416234307E+03  0.91054421968E+02 0.  0.
          5    1    1    2  502    0  0.58976400619E+02 -0.33889168296E+02 -0.45464321203E+03  0.45972734507E+03  0.47000000000E+01 0. -1.
         -5    1    1    2    0  502  0.13305042196E+02 -0.71680212798E+02 -0.10582774553E+03  0.12859501848E+03  0.47000000000E+01 0. -1.
        -11    1    3    3    0    0  0.12158111592E+00  0.74646000475E+02 -0.21549560896E+03  0.22805788224E+03  0.00000000000E+00 0. -1.
         11    1    3    3    0    0 -0.72403023931E+02  0.30923380618E+02 -0.35753884110E+03  0.36610446083E+03  0.00000000000E+00 0.  1.
<mgrwt>
<rscale>  0 0.17314439E+03</rscale>
<asrwt>0</asrwt>
<pdfrwt beam="2">  1        1 0.17815307E+00 0.17887289E+03</pdfrwt>
<pdfrwt beam="1">  1       -1 0.37676388E-02 0.17887289E+03</pdfrwt>
<totfact> 0.32711957E+03</totfact>
</mgrwt>
</event>
<event>
 7    1  0.1111284E-005  0.1358349E+03  0.7546771E-02  0.1231704E+00
          2   -1    0    0  501    0  0.00000000000E+00  0.00000000000E+00  0.95896711882E+02  0.95896711882E+02  0.00000000000E+00 0.  1.
         -2   -1    0    0    0  501 -0.00000000000E+00 -0.00000000000E+00 -0.15180520121E+03  0.15180520121E+03  0.00000000000E+00 0. -1.
         23    2    1    2    0    0  0.16000549765E+02 -0.50691436215E+02 -0.36015867232E+02  0.11041811233E+03  0.89829714119E+02 0.  0.
          5    1    1    2  502    0 -0.44807879489E+02  0.81359051453E+02 -0.19084687100E+02  0.94938699166E+02  0.47000000000E+01 0.  1.
         -5    1    1    2    0  502  0.28807329724E+02 -0.30667615238E+02 -0.80793499122E+00  0.42345101596E+02  0.47000000000E+01 0.  1.
        -11    1    3    3    0    0 -0.18984110546E+02  0.10830197582E+02  0.11961964061E+02  0.24915421270E+02  0.00000000000E+00 0.  1.
         11    1    3    3    0    0  0.34984660311E+02 -0.61521633797E+02 -0.47977831293E+02  0.85502691055E+02  0.00000000000E+00 0. -1.
<mgrwt>
<rscale>  0 0.12717802E+03</rscale>
<asrwt>0</asrwt>
<pdfrwt beam="1">  1        2 0.14753340E-01 0.13583492E+03</pdfrwt>
<pdfrwt beam="2">  1       -2 0.23354646E-01 0.13583492E+03</pdfrwt>
<totfact> 0.60506849E+03</totfact>
</mgrwt>
</event>
<event>
 7    1  0.1111284E-005  0.2252255E+03  0.7546771E-02  0.1130046E+00
          1   -1    0    0  501    0  0.00000000000E+00  0.00000000000E+00  0.29464651006E+03  0.29464651006E+03  0.00000000000E+00 0. -1.
         -1   -1    0    0    0  501 -0.00000000000E+00 -0.00000000000E+00 -0.43040147022E+02  0.43040147022E+02  0.00000000000E+00 0.  1.
         23    2    1    2    0    0  0.23667518949E+02  0.68755605483E+01  0.13643104500E+03  0.16593863634E+03  0.91185394689E+02 0.  0.
          5    1    1    2  502    0  0.50586954765E+02  0.81097769536E+01  0.43959561206E+02  0.67670831944E+02  0.47000000000E+01 0. -1.
         -5    1    1    2    0  502 -0.74254473714E+02 -0.14985337502E+02  0.71215756829E+02  0.10407718879E+03  0.47000000000E+01 0. -1.
        -11    1    3    3    0    0 -0.10207987877E+02 -0.37079071237E+02  0.47550700842E+02  0.61156599732E+02  0.00000000000E+00 0.  1.
         11    1    3    3    0    0  0.33875506826E+02  0.43954631785E+02  0.88880344158E+02  0.10478203661E+03  0.00000000000E+00 0. -1.
<mgrwt>
<rscale>  0 0.22522548E+03</rscale>
<asrwt>0</asrwt>
<pdfrwt beam="1">  1        1 0.45330231E-01 0.22522548E+03</pdfrwt>
<pdfrwt beam="2">  1       -1 0.66215613E-02 0.22522548E+03</pdfrwt>
<totfact> 0.10101438E+04</totfact>
</mgrwt>
</event>
<event>
 7    1  0.1111284E-005  0.1274016E+03  0.7546771E-02  0.1246179E+00
         -4   -1    0    0    0  501 -0.00000000000E+00  0.00000000000E+00  0.11222605265E+03  0.11222605265E+03  0.00000000000E+00 0.  1.
          4   -1    0    0  501    0  0.00000000000E+00 -0.00000000000E+00 -0.11154330825E+03  0.11154330825E+03  0.00000000000E+00 0. -1.
         23    2    1    2    0    0  0.24625343640E+02 -0.52276490830E+00 -0.14933590254E+02  0.95414244369E+02  0.90962547667E+02 0.  0.
          5    1    1    2  502    0 -0.39795921120E+02  0.24507459097E+02  0.59547258564E+02  0.75843898184E+02  0.47000000000E+01 0.  1.
         -5    1    1    2    0  502  0.15170577480E+02 -0.23984694189E+02 -0.43930923908E+02  0.52511218343E+02  0.47000000000E+01 0.  1.
        -11    1    3    3    0    0  0.54882479220E+00  0.32701497376E+02 -0.36542321743E+02  0.49041109466E+02  0.00000000000E+00 0. -1.
         11    1    3    3    0    0  0.24076518848E+02 -0.33224262284E+02  0.21608731490E+02  0.46373134903E+02  0.00000000000E+00 0.  1.
<mgrwt>
<rscale>  0 0.11815118E+03</rscale>
<asrwt>0</asrwt>
<pdfrwt beam="2">  1        4 0.17160509E-01 0.12740159E+03</pdfrwt>
<pdfrwt beam="1">  1       -4 0.17265547E-01 0.12740159E+03</pdfrwt>
<totfact> 0.14173445E+03</totfact>
</mgrwt>
</event>
<event>
 7    1  0.1111284E-005  0.1405813E+03  0.7546771E-02  0.1222762E+00
         -1   -1    0    0    0  501 -0.00000000000E+00  0.00000000000E+00  0.15722515957E+02  0.15722515957E+02  0.00000000000E+00 0.  1.
          1   -1    0    0  501    0  0.00000000000E+00 -0.00000000000E+00 -0.10255071403E+04  0.10255071403E+04  0.00000000000E+00 0. -1.
         23    2    1    2    0    0 -0.37615602573E+02 -0.52189172000E+02 -0.44358834019E+03  0.45784185312E+03  0.93326864724E+02 0.  0.
          5    1    1    2  502    0 -0.14971455171E+02 -0.11509028319E+02 -0.11601476590E+02  0.22655826223E+02  0.47000000000E+01 0. -1.
         -5    1    1    2    0  502  0.52587057744E+02  0.63698200319E+02 -0.55459480754E+03  0.56073197690E+03  0.47000000000E+01 0. -1.
        -11    1    3    3    0    0 -0.98140529997E+01  0.24138323255E+02 -0.55089775942E+02  0.60941428431E+02  0.00000000000E+00 0.  1.
         11    1    3    3    0    0 -0.27801549573E+02 -0.76327495256E+02 -0.38849856425E+03  0.39690042469E+03  0.00000000000E+00 0. -1.
<mgrwt>
<rscale>  0 0.13321477E+03</rscale>
<asrwt>0</asrwt>
<pdfrwt beam="2">  1        1 0.15777033E+00 0.14058128E+03</pdfrwt>
<pdfrwt beam="1">  1       -1 0.24188485E-02 0.14058128E+03</pdfrwt>
<totfact> 0.77044065E+03</totfact>
</mgrwt>
</event>
<event>
 7    1  0.1111284E-005  0.1371577E+03  0.7546771E-02  0.1231420E+00
          3   -1    0    0  501    0  0.00000000000E+00  0.00000000000E+00  0.42879127373E+02  0.42879127373E+02  0.00000000000E+00 0. -1.
         -3   -1    0    0    0  501 -0.00000000000E+00 -0.00000000000E+00 -0.35937157686E+03  0.35937157686E+03  0.00000000000E+00 0.  1.
         23    2    1    2    0    0 -0.53820517322E+02  0.17063346087E+02 -0.83156887593E+02  0.13158908994E+03  0.84928291942E+02 0.  0.
          5    1    1    2  502    0  0.34712607359E+02 -0.68620311079E+01 -0.24362432800E+03  0.24622541659E+03  0.47000000000E+01 0.  1.
         -5    1    1    2    0  502  0.19107909963E+02 -0.10201314979E+02  0.10288766104E+02  0.24436197708E+02  0.47000000000E+01 0.  1.
        -11    1    3    3    0    0 -0.43254545161E+02 -0.18331861716E+02 -0.77403833208E+01  0.47612250157E+02  0.00000000000E+00 0. -1.
         11    1    3    3    0    0 -0.10565972161E+02  0.35395207803E+02 -0.75416504273E+02  0.83976839782E+02  0.00000000000E+00 0.  1.
<mgrwt>
<rscale>  0 0.12736423E+03</rscale>
<asrwt>0</asrwt>
<pdfrwt beam="1">  1        3 0.65967888E-02 0.13715766E+03</pdfrwt>
<pdfrwt beam="2">  1       -3 0.55287935E-01 0.13715766E+03</pdfrwt>
<totfact> 0.10985893E+03</totfact>
</mgrwt>
</event>
<event>
 7    1  0.1111284E-005  0.1477411E+03  0.7546771E-02  0.1213543E+00
          2   -1    0    0  501    0  0.00000000000E+00  0.00000000000E+00  0.23570108592E+03  0.23570108592E+03  0.00000000000E+00 0. -1.
         -2   -1    0    0    0  501 -0.00000000000E+00 -0.00000000000E+00 -0.79636016465E+02  0.79636016465E+02  0.00000000000E+00 0.  1.
         23    2    1    2    0    0 -0.22456707156E+02 -0.75487659329E+02  0.10682364166E+03  0.15960612058E+03  0.88657390567E+02 0.  0.
          5    1    1    2  502    0  0.42279707489E+02  0.49928756261E+02  0.84947038804E+02  0.10732447889E+03  0.47000000000E+01 0. -1.
         -5    1    1    2    0  502 -0.19823000333E+02  0.25558903068E+02 -0.35705611001E+02  0.48406502923E+02  0.47000000000E+01 0. -1.
        -11    1    3    3    0    0 -0.50572736823E+02 -0.17477648457E+02  0.40422796956E+02  0.67060214875E+02  0.00000000000E+00 0.  1.
         11    1    3    3    0    0  0.28116029666E+02 -0.58010010873E+02  0.66400844701E+02  0.92545905704E+02  0.00000000000E+00 0. -1.
<mgrwt>
<rscale>  0 0.13984114E+03</rscale>
<asrwt>0</asrwt>
<pdfrwt beam="1">  1        2 0.36261705E-01 0.14774106E+03</pdfrwt>
<pdfrwt beam="2">  1       -2 0.12251695E-01 0.14774106E+03</pdfrwt>
<totfact> 0.65098947E+03</totfact>
</mgrwt>
</event>
<event>
 7    1  0.1111284E-005  0.1567908E+03  0.7546771E-02  0.1200934E+00
         -3   -1    0    0    0  501 -0.00000000000E+00  0.00000000000E+00  0.67553623840E+02  0.67553623840E+02  0.00000000000E+00 0. -1.
          3   -1    0    0  501    0  0.00000000000E+00 -0.00000000000E+00 -0.31847770534E+03  0.31847770534E+03  0.00000000000E+00 0.  1.
         23    2    1    2    0    0 -0.46430338578E+02 -0.82474787026E+02 -0.15460356252E+03  0.20201772272E+03  0.89168558999E+02 0.  0.
          5    1    1    2  502    0  0.45548457681E+02  0.68412260666E+02 -0.12618228401E+03  0.15066173437E+03  0.47000000000E+01 0.  1.
         -5    1    1    2    0  502  0.88188089744E+00  0.14062526360E+02  0.29861765025E+02  0.33351872090E+02  0.47000000000E+01 0.  1.
        -11    1    3    3    0    0 -0.62143004706E+02 -0.27363421424E+02 -0.56193234398E+02  0.88137332941E+02  0.00000000000E+00 0. -1.
         11    1    3    3    0    0  0.15712666127E+02 -0.55111365602E+02 -0.98410328120E+02  0.11388038978E+03  0.00000000000E+00 0.  1.
<mgrwt>
<rscale>  0 0.14962526E+03</rscale>
<asrwt>0</asrwt>
<pdfrwt beam="2">  1        3 0.48996570E-01 0.15679083E+03</pdfrwt>
<pdfrwt beam="1">  1       -3 0.10392865E-01 0.15679083E+03</pdfrwt>
<totfact> 0.68063135E+02</totfact>
</mgrwt>
</event>
<event>
 7    1  0.1111284E-005  0.1324120E+03  0.7546771E-02  0.1236184E+00
          1   -1    0    0  501    0  0.00000000000E+00  0.00000000000E+00  0.46141208092E+02  0.46141208092E+02  0.00000000000E+00 0. -1.
         -1   -1    0    0    0  501 -0.00000000000E+00 -0.00000000000E+00 -0.32698978925E+03  0.32698978925E+03  0.00000000000E+00 0.  1.
         23    2    1    2    0    0  0.15916278354E+02  0.40674790329E+02 -0.70745311064E+02  0.12478381266E+03  0.93050171309E+02 0.  0.
          5    1    1    2  502    0  0.12097389933E+01  0.13753525022E+02 -0.18543313158E+03  0.18600580423E+03  0.47000000000E+01 0. -1.
         -5    1    1    2    0  502 -0.17126017347E+02 -0.54428315351E+02 -0.24670138514E+02  0.62341380450E+02  0.47000000000E+01 0. -1.
        -11    1    3    3    0    0  0.23165802586E+02 -0.72705545829E+01 -0.72300598146E+02  0.76268550961E+02  0.00000000000E+00 0.  1.
         11    1    3    3    0    0 -0.72495242323E+01  0.47945344912E+02  0.15552870817E+01  0.48515261704E+02  0.00000000000E+00 0. -1.
<mgrwt>
<rscale>  0 0.12428962E+03</rscale>
<asrwt>0</asrwt>
<pdfrwt beam="1">  1        1 0.70986474E-02 0.13241201E+03</pdfrwt>
<pdfrwt beam="2">  1       -1 0.50306121E-01 0.13241201E+03</pdfrwt>
<totfact> 0.39824008E+03</totfact>
</mgrwt>
</event>
<event>
 7    1  0.1111284E-005  0.1603252E+03  0.7546771E-02  0.1196312E+00
          1   -1    0    0  501    0  0.00000000000E+00  0.00000000000E+00  0.20120351907E+03  0.20120351907E+03  0.00000000000E+00 0. -1.
         -1   -1    0    0    0  501 -0.00000000000E+00 -0.00000000000E+00 -0.12202481185E+03  0.12202481185E+03  0.00000000000E+00 0.  1.
         23    2    1    2    0    0  0.22628628535E+02  0.97814151467E+02  0.91122092534E+02  0.16245889144E+03  0.89498562027E+02 0.  0.
          5    1    1    2  502    0  0.43014281088E+01  0.27795439133E+02 -0.14922928700E+02  0.32184973533E+02  0.47000000000E+01 0.  1.
         -5    1    1    2    0  502 -0.26930056644E+02 -0.12560959060E+03  0.29795433839E+01  0.12858446594E+03  0.47000000000E+01 0.  1.
        -11    1    3    3    0    0  0.61006296372E+01 -0.81005778836E+01 -0.10607641801E+02  0.14675118691E+02  0.00000000000E+00 0.  1.
         11    1    3    3    0    0  0.16527998898E+02  0.10591472935E+03  0.10172973434E+03  0.14778377275E+03  0.00000000000E+00 0. -1.
<mgrwt>
<rscale>  0 0.15343701E+03</rscale>
<asrwt>0</asrwt>
<pdfrwt beam="1">  1        1 0.30954388E-01 0.16032520E+03</pdfrwt>
<pdfrwt beam="2">  1       -1 0.18773048E-01 0.16032520E+03</pdfrwt>
<totfact> 0.31701479E+03</totfact>
</mgrwt>
</event>
<event>
 7    1  0.1111284E-005  0.1455621E+03  0.7546771E-02  0.1215697E+00
         -2   -1    0    0    0  501 -0.00000000000E+00  0.00000000000E+00  0.65984169270E+02  0.65984169270E+02  0.00000000000E+00 0.  1.
          2   -1    0    0  501    0  0.00000000000E+00 -0.00000000000E+00 -0.29715659849E+03  0.29715659849E+03  0.00000000000E+00 0. -1.
         23    2    1    2    0    0 -0.29279555173E+02 -0.68601358602E+02 -0.16530732935E+03  0.20337051071E+03  0.92030498931E+02 0.  0.
          5    1    1    2  502    0 -0.96139198338E+01  0.63454389266E+02  0.18206271671E+02  0.66876343350E+02  0.47000000000E+01 0. -1.
         -5    1    1    2    0  502  0.38893475007E+02  0.51469693363E+01 -0.84071371538E+02  0.92893913707E+02  0.47000000000E+01 0. -1.
        -11    1    3    3    0    0  0.27716267802E+02 -0.46707634040E+02 -0.55023906544E+02  0.77313807757E+02  0.00000000000E+00 0.  1.
         11    1    3    3    0    0 -0.56995822975E+02 -0.21893724562E+02 -0.11028342281E+03  0.12605670295E+03  0.00000000000E+00 0. -1.
<mgrwt>
<rscale>  0 0.13825481E+03</rscale>
<asrwt>0</asrwt>
<pdfrwt beam="2">  1        2 0.45716400E-01 0.14556210E+03</pdfrwt>
<pdfrwt beam="1">  1       -2 0.10151411E-01 0.14556210E+03</pdfrwt>
<totfact> 0.68506674E+03</totfact>
</mgrwt>
</event>
<event>
 7    1  0.1111284E-005  0.1393041E+03  0.7546771E-02  0.1218930E+00
          2   -1    0    0  501    0  0.00000000000E+00  0.00000000000E+00  0.13335601559E+03  0.13335601559E+03  0.00000000000E+00 0. -1.
         -2   -1    0    0    0  501 -0.00000000000E+00 -0.00000000000E+00 -0.13464322275E+03  0.13464322275E+03  0.00000000000E+00 0.  1.
         23    2    1    2    0    0  0.37821376194E+02  0.48472296836E+02  0.17438534046E+02  0.12744222352E+03  0.11026059046E+03 0.  0.
          5    1    1    2  502    0 -0.48081037392E+02  0.28713351552E+02  0.10656751515E+02  0.57200516317E+02  0.47000000000E+01 0. -1.
         -5    1    1    2    0  502  0.10259661198E+02 -0.77185648388E+02 -0.29382492720E+02  0.83356498507E+02  0.47000000000E+01 0. -1.
        -11    1    3    3    0    0 -0.25451314597E+02  0.73962866808E+01 -0.28658990425E+02  0.39036037243E+02  0.00000000000E+00 0.  1.
         11    1    3    3    0    0  0.63272690791E+02  0.41076010155E+02  0.46097524472E+02  0.88406186280E+02  0.00000000000E+00 0. -1.
<mgrwt>
<rscale>  0 0.13591741E+03</rscale>
<asrwt>0</asrwt>
<pdfrwt beam="1">  1        2 0.20516310E-01 0.13930406E+03</pdfrwt>
<pdfrwt beam="2">  1       -2 0.20714342E-01 0.13930406E+03</pdfrwt>
<totfact> 0.50947630E+03</totfact>
</mgrwt>
</event>
<event>
 7    1  0.1111284E-005  0.2218989E+03  0.7546771E-02  0.1132475E+00
          2   -1    0    0  501    0  0.00000000000E+00  0.00000000000E+00  0.52692565029E+02  0.52692565029E+02  0.00000000000E+00 0. -1.
         -2   -1    0    0    0  501 -0.00000000000E+00 -0.00000000000E+00 -0.23361516589E+03  0.23361516589E+03  0.00000000000E+00 0.  1.
         23    2    1    2    0    0  0.18183131346E+02 -0.25251213329E+02 -0.65915693310E+02  0.11362280862E+03  0.87160851153E+02 0.  0.
          5    1    1    2  502    0 -0.44834468631E+02  0.61440879580E+02 -0.98585053439E+02  0.12460422955E+03  0.47000000000E+01 0.  1.
         -5    1    1    2    0  502  0.26651337284E+02 -0.36189666251E+02 -0.16421854109E+02  0.48080692744E+02  0.47000000000E+01 0.  1.
        -11    1    3    3    0    0  0.47866140060E+02 -0.53024156421E+01 -0.60695090146E+02  0.77480171294E+02  0.00000000000E+00 0.  1.
         11    1    3    3    0    0 -0.29683008713E+02 -0.19948797687E+02 -0.52206031638E+01  0.36142637325E+02  0.00000000000E+00 0. -1.
<mgrwt>
<rscale>  0 0.22189892E+03</rscale>
<asrwt>0</asrwt>
<pdfrwt beam="1">  1        2 0.81065486E-02 0.22189892E+03</pdfrwt>
<pdfrwt beam="2">  1       -2 0.35940794E-01 0.22189892E+03</pdfrwt>
<totfact> 0.59902914E+03</totfact>
</mgrwt>
</event>
<event>
 7    1  0.1111284E-005  0.1722066E+03  0.7546771E-02  0.1181861E+00
          3   -1    0    0  501    0  0.00000000000E+00  0.00000000000E+00  0.72265127297E+02  0.72265127297E+02  0.00000000000E+00 0. -1.
         -3   -1    0    0    0  501 -0.00000000000E+00 -0.00000000000E+00 -0.37901295096E+03  0.37901295096E+03  0.00000000000E+00 0.  1.
         23    2    1    2    0    0  0.24268655022E+02  0.11593851377E+03 -0.89993281269E+02  0.17444302414E+03  0.91109118139E+02 0.  0.
          5    1    1    2  502    0  0.23909708281E+02  0.78105233031E+01 -0.88616887772E+02  0.92237309277E+02  0.47000000000E+01 0.  1.
         -5    1    1    2    0  502 -0.48178363303E+02 -0.12374903707E+03 -0.12813765462E+03  0.18459774483E+03  0.47000000000E+01 0.  1.
        -11    1    3    3    0    0  0.45825681423E+00  0.10969078947E+03 -0.36580229914E+02  0.11563041345E+03  0.00000000000E+00 0. -1.
         11    1    3    3    0    0  0.23810398207E+02  0.62477242970E+01 -0.53413051356E+02  0.58812610695E+02  0.00000000000E+00 0.  1.
<mgrwt>
<rscale>  0 0.16620814E+03</rscale>
<asrwt>0</asrwt>
<pdfrwt beam="1">  1        3 0.11117712E-01 0.17220661E+03</pdfrwt>
<pdfrwt beam="2">  1       -3 0.58309686E-01 0.17220661E+03</pdfrwt>
<totfact> 0.43259124E+02</totfact>
</mgrwt>
</event>
<event>
 7    1  0.1111284E-005  0.1298074E+03  0.7546771E-02  0.1241492E+00
          2   -1    0    0  501    0  0.00000000000E+00  0.00000000000E+00  0.16053318563E+03  0.16053318563E+03  0.00000000000E+00 0. -1.
         -2   -1    0    0    0  501 -0.00000000000E+00 -0.00000000000E+00 -0.91873047345E+02  0.91873047345E+02  0.00000000000E+00 0.  1.
         23    2    1    2    0    0  0.24743356923E+02 -0.24735362127E+02  0.73596767282E+02  0.12250495196E+03  0.91470799974E+02 0.  0.
          5    1    1    2  502    0 -0.50891378082E+02 -0.36298413419E+02 -0.83957232489E+01  0.63246227940E+02  0.47000000000E+01 0.  1.
         -5    1    1    2    0  502  0.26148021159E+02  0.61033775546E+02  0.34590942502E+01  0.66655053078E+02  0.47000000000E+01 0.  1.
        -11    1    3    3    0    0  0.30720978402E+01 -0.37331179372E+02  0.86537074608E+02  0.94295917304E+02  0.00000000000E+00 0. -1.
         11    1    3    3    0    0  0.21671259083E+02  0.12595817245E+02 -0.12940307326E+02  0.28209034652E+02  0.00000000000E+00 0.  1.
<mgrwt>
<rscale>  0 0.12097832E+03</rscale>
<asrwt>0</asrwt>
<pdfrwt beam="1">  1        2 0.24697413E-01 0.12980744E+03</pdfrwt>
<pdfrwt beam="2">  1       -2 0.14134315E-01 0.12980744E+03</pdfrwt>
<totfact> 0.77738453E+03</totfact>
</mgrwt>
</event>
<event>
 7    1  0.1111284E-005  0.1417619E+03  0.7546771E-02  0.1221486E+00
         -2   -1    0    0    0  501 -0.00000000000E+00  0.00000000000E+00  0.10194448137E+03  0.10194448137E+03  0.00000000000E+00 0.  1.
          2   -1    0    0  501    0  0.00000000000E+00 -0.00000000000E+00 -0.24028638834E+03  0.24028638834E+03  0.00000000000E+00 0. -1.
         23    2    1    2    0    0 -0.44502493410E+02 -0.49903792936E+02 -0.16269446679E+03  0.19839248254E+03  0.91756346570E+02 0.  0.
          5    1    1    2  502    0  0.39089498816E+02 -0.36892338198E+02  0.16360660314E+02  0.56380801177E+02  0.47000000000E+01 0.  1.
         -5    1    1    2    0  502  0.54129945936E+01  0.86796131134E+02  0.79918994988E+01  0.87457585994E+02  0.47000000000E+01 0.  1.
        -11    1    3    3    0    0 -0.29536892833E+02 -0.52936603114E+02 -0.17070513978E+03  0.18114899043E+03  0.00000000000E+00 0. -1.
         11    1    3    3    0    0 -0.14965600577E+02  0.30328101786E+01  0.80106729936E+01  0.17243492106E+02  0.00000000000E+00 0.  1.
<mgrwt>
<rscale>  0 0.13410705E+03</rscale>
<asrwt>0</asrwt>
<pdfrwt beam="2">  1        2 0.36967137E-01 0.14176189E+03</pdfrwt>
<pdfrwt beam="1">  1       -2 0.15683766E-01 0.14176189E+03</pdfrwt>
<totfact> 0.42608258E+03</totfact>
</mgrwt>
</event>
<event>
 7    1  0.1111284E-005  0.1380489E+03  0.7546771E-02  0.1227267E+00
         -3   -1    0    0    0  501 -0.00000000000E+00  0.00000000000E+00  0.11472625466E+03  0.11472625466E+03  0.00000000000E+00 0.  1.
          3   -1    0    0  501    0  0.00000000000E+00 -0.00000000000E+00 -0.13802474356E+03  0.13802474356E+03  0.00000000000E+00 0. -1.
         23    2    1    2    0    0 -0.27102385840E+02 -0.52001929215E+02 -0.34317739806E+02  0.11426302641E+03  0.91867251937E+02 0.  0.
          5    1    1    2  502    0  0.49358315379E-01  0.36971633911E+02  0.65669248392E+02  0.75507909086E+02  0.47000000000E+01 0. -1.
         -5    1    1    2    0  502  0.27053027525E+02  0.15030295305E+02 -0.54649997483E+02  0.62980062719E+02  0.47000000000E+01 0. -1.
        -11    1    3    3    0    0 -0.54593953626E+02 -0.34623913734E+02  0.30553926072E+01  0.64719785219E+02  0.00000000000E+00 0.  1.
         11    1    3    3    0    0  0.27491567785E+02 -0.17378015481E+02 -0.37373132413E+02  0.49543241191E+02  0.00000000000E+00 0. -1.
<mgrwt>
<rscale>  0 0.13012751E+03</rscale>
<asrwt>0</asrwt>
<pdfrwt beam="2">  1        3 0.21234576E-01 0.13804888E+03</pdfrwt>
<pdfrwt beam="1">  1       -3 0.17650193E-01 0.13804888E+03</pdfrwt>
<totfact> 0.13018543E+03</totfact>
</mgrwt>
</event>
<event>
 7    1  0.1111284E-005  0.1324676E+03  0.7546771E-02  0.1234013E+00
          1   -1    0    0  501    0  0.00000000000E+00  0.00000000000E+00  0.20562663204E+03  0.20562663204E+03  0.00000000000E+00 0. -1.
         -1   -1    0    0    0  501 -0.00000000000E+00 -0.00000000000E+00 -0.77135378798E+02  0.77135378798E+02  0.00000000000E+00 0.  1.
         23    2    1    2    0    0 -0.16824360228E+02 -0.40513805879E+02  0.10119384672E+03  0.14751106413E+03  0.97953518892E+02 0.  0.
          5    1    1    2  502    0 -0.37382089736E+02  0.51760814351E+02 -0.14599380744E+02  0.65664560103E+02  0.47000000000E+01 0.  1.
         -5    1    1    2    0  502  0.54206449964E+02 -0.11247008472E+02  0.41896787263E+02  0.69586386602E+02  0.47000000000E+01 0.  1.
        -11    1    3    3    0    0  0.13571274369E+02  0.25952640101E+02  0.10679895807E+02  0.31173373104E+02  0.00000000000E+00 0.  1.
         11    1    3    3    0    0 -0.30395634597E+02 -0.66466445980E+02  0.90513950912E+02  0.11633769103E+03  0.00000000000E+00 0. -1.
<mgrwt>
<rscale>  0 0.12567840E+03</rscale>
<asrwt>0</asrwt>
<pdfrwt beam="1">  1        1 0.31634866E-01 0.13246762E+03</pdfrwt>
<pdfrwt beam="2">  1       -1 0.11866981E-01 0.13246762E+03</pdfrwt>
<totfact> 0.62728437E+03</totfact>
</mgrwt>
</event>
<event>
 7    1  0.1111284E-005  0.2821912E+03  0.7546771E-02  0.1096422E+00
          2   -1    0    0  501    0  0.00000000000E+00  0.00000000000E+00  0.22287022081E+03  0.22287022081E+03  0.00000000000E+00 0. -1.
         -2   -1    0    0    0  501 -0.00000000000E+00 -0.00000000000E+00 -0.34376724942E+03  0.34376724942E+03  0.00000000000E+00 0.  1.
         23    2    1    2    0    0  0.23282037460E+03  0.99010822314E+02 -0.88688570823E+02  0.28261413467E+03  0.89423804191E+02 0.  0.
          5    1    1    2  502    0 -0.56184649506E+02 -0.48505101588E+02  0.42480306085E+02  0.85651188697E+02  0.47000000000E+01 0.  1.
         -5    1    1    2    0  502 -0.17663572509E+03 -0.50505720726E+02 -0.74688763868E+02  0.19837214687E+03  0.47000000000E+01 0.  1.
        -11    1    3    3    0    0  0.16823248206E+03  0.30922206266E+02 -0.78532243369E+02  0.18821706646E+03  0.00000000000E+00 0.  1.
         11    1    3    3    0    0  0.64587892541E+02  0.68088616048E+02 -0.10156327454E+02  0.94397068204E+02  0.00000000000E+00 0. -1.
<mgrwt>
<rscale>  0 0.27866215E+03</rscale>
<asrwt>0</asrwt>
<pdfrwt beam="1">  1        2 0.34287726E-01 0.28219119E+03</pdfrwt>
<pdfrwt beam="2">  1       -2 0.52887269E-01 0.28219119E+03</pdfrwt>
<totfact> 0.52069113E+02</totfact>
</mgrwt>
</event>
<event>
 7    1  0.1111284E-005  0.1468713E+03  0.7546771E-02  0.1214165E+00
         -3   -1    0    0    0  501 -0.00000000000E+00  0.00000000000E+00  0.40826065201E+03  0.40826065201E+03  0.00000000000E+00 0.  1.
          3   -1    0    0  501    0  0.00000000000E+00 -0.00000000000E+00 -0.94382002322E+02  0.94382002322E+02  0.00000000000E+00 0. -1.
         23    2    1    2    0    0  0.73726717585E+02 -0.22509284099E+02 -0.34958440897E+02  0.12414760557E+03  0.90819814039E+02 0.  0.
          5    1    1    2  502    0 -0.18856854049E+02 -0.36695222649E+02  0.23630651625E+03  0.23992703044E+03  0.47000000000E+01 0. -1.
         -5    1    1    2    0  502 -0.54869863536E+02  0.59204506748E+02  0.11253057433E+03  0.13856801833E+03  0.47000000000E+01 0. -1.
        -11    1    3    3    0    0  0.75175979198E+01 -0.27167503900E+02  0.22727937341E+02  0.36209759492E+02  0.00000000000E+00 0.  1.
         11    1    3    3    0    0  0.66209119665E+02  0.46582198011E+01 -0.57686378238E+02  0.87937846078E+02  0.00000000000E+00 0. -1.
<mgrwt>
<rscale>  0 0.13938069E+03</rscale>
<asrwt>0</asrwt>
<pdfrwt beam="2">  1        3 0.14520308E-01 0.14687133E+03</pdfrwt>
<pdfrwt beam="1">  1       -3 0.62809330E-01 0.14687133E+03</pdfrwt>
<totfact> 0.23152856E+02</totfact>
</mgrwt>
</event>
<event>
 7    1  0.1111284E-005  0.1879676E+03  0.7546771E-02  0.1165710E+00
         -1   -1    0    0    0  501 -0.00000000000E+00  0.00000000000E+00  0.96330013490E+02  0.96330013490E+02  0.00000000000E+00 0.  1.
          1   -1    0    0  501    0  0.00000000000E+00 -0.00000000000E+00 -0.41501552075E+03  0.41501552075E+03  0.00000000000E+00 0. -1.
         23    2    1    2    0    0  0.26826121684E+02  0.13779555608E+03 -0.27049711956E+03  0.31729933912E+03  0.88334154415E+02 0.  0.
          5    1    1    2  502    0 -0.29789009329E+02  0.14106085344E+02 -0.21730116120E+02  0.39757447945E+02  0.47000000000E+01 0.  1.
         -5    1    1    2    0  502  0.29628876444E+01 -0.15190164142E+03 -0.26458271577E+02  0.15428874717E+03  0.47000000000E+01 0.  1.
        -11    1    3    3    0    0 -0.10650743944E+02  0.40854057735E+02 -0.21282007219E+02  0.47280188359E+02  0.00000000000E+00 0.  1.
         11    1    3    3    0    0  0.37476865628E+02  0.96941498342E+02 -0.24921511234E+03  0.27001915076E+03  0.00000000000E+00 0. -1.
<mgrwt>
<rscale>  0 0.18217923E+03</rscale>
<asrwt>0</asrwt>
<pdfrwt beam="2">  1        1 0.63848543E-01 0.18796756E+03</pdfrwt>
<pdfrwt beam="1">  1       -1 0.14820002E-01 0.18796756E+03</pdfrwt>
<totfact> 0.18745716E+03</totfact>
</mgrwt>
</event>
<event>
 7    1  0.1111284E-005  0.1714308E+03  0.7546771E-02  0.1183013E+00
          1   -1    0    0  501    0  0.00000000000E+00  0.00000000000E+00  0.11615837772E+03  0.11615837772E+03  0.00000000000E+00 0. -1.
         -1   -1    0    0    0  501 -0.00000000000E+00 -0.00000000000E+00 -0.22028120180E+03  0.22028120180E+03  0.00000000000E+00 0.  1.
         23    2    1    2    0    0 -0.68709012439E+02 -0.95085924137E+02 -0.60579085686E+02  0.15956508916E+03  0.89604300653E+02 0.  0.
          5    1    1    2  502    0  0.74731959476E+02  0.10957313278E+03 -0.66682858483E+02  0.14852552242E+03  0.47000000000E+01 0.  1.
         -5    1    1    2    0  502 -0.60229470368E+01 -0.14487208639E+02  0.23139120091E+02  0.28348967948E+02  0.47000000000E+01 0.  1.
        -11    1    3    3    0    0 -0.63915956851E+02 -0.12972817770E+02 -0.23270147395E+02  0.69246251168E+02  0.00000000000E+00 0. -1.
         11    1    3    3    0    0 -0.47930555887E+01 -0.82113106367E+02 -0.37308938291E+02  0.90318837989E+02  0.00000000000E+00 0.  1.
<mgrwt>
<rscale>  0 0.16513982E+03</rscale>
<asrwt>0</asrwt>
<pdfrwt beam="1">  1        1 0.17870520E-01 0.17143083E+03</pdfrwt>
<pdfrwt beam="2">  1       -1 0.33889416E-01 0.17143083E+03</pdfrwt>
<totfact> 0.23986691E+03</totfact>
</mgrwt>
</event>
<event>
 7    1  0.1111284E-005  0.1352141E+03  0.7546771E-02  0.1232592E+00
         -1   -1    0    0    0  501 -0.00000000000E+00  0.00000000000E+00  0.59608614201E+02  0.59608614201E+02  0.00000000000E+00 0.  1.
          1   -1    0    0  501    0  0.00000000000E+00 -0.00000000000E+00 -0.31762378418E+03  0.31762378418E+03  0.00000000000E+00 0. -1.
         23    2    1    2    0    0 -0.26467379478E+02 -0.44260310268E+02 -0.20900710583E+03  0.23341083677E+03  0.90206159404E+02 0.  0.
          5    1    1    2  502    0 -0.62646115616E+01 -0.33386136307E+02  0.15464607759E+02  0.37618127926E+02  0.47000000000E+01 0. -1.
         -5    1    1    2    0  502  0.32731991040E+02  0.77646446574E+02 -0.64472671912E+02  0.10620343369E+03  0.47000000000E+01 0. -1.
        -11    1    3    3    0    0 -0.16748259954E+02  0.24558757062E+02 -0.98289788782E+02  0.10268651001E+03  0.00000000000E+00 0. -1.
         11    1    3    3    0    0 -0.97191195237E+01 -0.68819067330E+02 -0.11071731704E+03  0.13072432676E+03  0.00000000000E+00 0.  1.
<mgrwt>
<rscale>  0 0.12659822E+03</rscale>
<asrwt>0</asrwt>
<pdfrwt beam="2">  1        1 0.48865196E-01 0.13521409E+03</pdfrwt>
<pdfrwt beam="1">  1       -1 0.91705563E-02 0.13521409E+03</pdfrwt>
<totfact> 0.54403256E+03</totfact>
</mgrwt>
</event>
<event>
 7    1  0.1111284E-005  0.1464909E+03  0.7546771E-02  0.1214460E+00
          2   -1    0    0  501    0  0.00000000000E+00  0.00000000000E+00  0.73798900465E+02  0.73798900465E+02  0.00000000000E+00 0. -1.
         -2   -1    0    0    0  501 -0.00000000000E+00 -0.00000000000E+00 -0.26009963986E+03  0.26009963986E+03  0.00000000000E+00 0.  1.
         23    2    1    2    0    0 -0.41253829342E+02 -0.64292904868E+02 -0.37430994003E+02  0.12504027890E+03  0.91643526683E+02 0.  0.
          5    1    1    2  502    0 -0.25591638547E+02 -0.12412772791E+02 -0.82240587903E+02  0.87147077923E+02  0.47000000000E+01 0. -1.
         -5    1    1    2    0  502  0.66845467888E+02  0.76705677659E+02 -0.66629157488E+02  0.12171118350E+03  0.47000000000E+01 0. -1.
        -11    1    3    3    0    0 -0.69202248508E+01 -0.68947750133E+02  0.59176791475E+01  0.69546392336E+02  0.00000000000E+00 0. -1.
         11    1    3    3    0    0 -0.34333604491E+02  0.46548452648E+01 -0.43348673151E+02  0.55493886562E+02  0.00000000000E+00 0.  1.
<mgrwt>
<rscale>  0 0.13916299E+03</rscale>
<asrwt>0</asrwt>
<pdfrwt beam="1">  1        2 0.11353677E-01 0.14649086E+03</pdfrwt>
<pdfrwt beam="2">  1       -2 0.40015329E-01 0.14649086E+03</pdfrwt>
<totfact> 0.31397949E+03</totfact>
</mgrwt>
</event>
<event>
 7    1  0.1111284E-005  0.1471154E+03  0.7546771E-02  0.1214168E+00
         -1   -1    0    0    0  501 -0.00000000000E+00  0.00000000000E+00  0.35007786938E+02  0.35007786938E+02  0.00000000000E+00 0.  1.
          1   -1    0    0  501    0  0.00000000000E+00 -0.00000000000E+00 -0.50657482516E+03  0.50657482516E+03  0.00000000000E+00 0. -1.
         23    2    1    2    0    0  0.43741552998E+02 -0.64069228205E+02 -0.23003430528E+03  0.25877348645E+03  0.89608851268E+02 0.  0.
          5    1    1    2  502    0  0.34364365245E+02  0.42937132944E+02 -0.15362216319E+03  0.16323714653E+03  0.47000000000E+01 0. -1.
         -5    1    1    2    0  502 -0.78105918244E+02  0.21132095260E+02 -0.87910569755E+02  0.11957197912E+03  0.47000000000E+01 0. -1.
        -11    1    3    3    0    0  0.54771877804E+02 -0.62604803736E+02 -0.23287841182E+03  0.24728864660E+03  0.00000000000E+00 0. -1.
         11    1    3    3    0    0 -0.11030324805E+02 -0.14644244683E+01  0.28441065406E+01  0.11484839849E+02  0.00000000000E+00 0.  1.
<mgrwt>
<rscale>  0 0.13937830E+03</rscale>
<asrwt>0</asrwt>
<pdfrwt beam="2">  1        1 0.77934592E-01 0.14711540E+03</pdfrwt>
<pdfrwt beam="1">  1       -1 0.53858132E-02 0.14711540E+03</pdfrwt>
<totfact> 0.67280763E+03</totfact>
</mgrwt>
</event>
<event>
 7    1  0.1111284E-005  0.2249009E+03  0.7546771E-02  0.1130281E+00
          2   -1    0    0  501    0  0.00000000000E+00  0.00000000000E+00  0.52950895869E+03  0.52950895869E+03  0.00000000000E+00 0.  1.
         -2   -1    0    0    0  501 -0.00000000000E+00 -0.00000000000E+00 -0.23880818997E+02  0.23880818997E+02  0.00000000000E+00 0. -1.
         23    2    1    2    0    0  0.10273789359E+02  0.84062154241E+01  0.21345191473E+03  0.23532202468E+03  0.98175965446E+02 0.  0.
          5    1    1    2  502    0  0.18818550077E+02  0.53588256844E+02  0.13767304975E+03  0.14900267691E+03  0.47000000000E+01 0.  1.
         -5    1    1    2    0  502 -0.29092339436E+02 -0.61994472268E+02  0.15450317521E+03  0.16906507610E+03  0.47000000000E+01 0.  1.
        -11    1    3    3    0    0 -0.42988506254E+02  0.10521836269E+02  0.76765023386E+02  0.88609195482E+02  0.00000000000E+00 0.  1.
         11    1    3    3    0    0  0.53262295613E+02 -0.21156208453E+01  0.13668689134E+03  0.14671282919E+03  0.00000000000E+00 0. -1.
<mgrwt>
<rscale>  0 0.22490093E+03</rscale>
<asrwt>0</asrwt>
<pdfrwt beam="1">  1        2 0.81462908E-01 0.22490093E+03</pdfrwt>
<pdfrwt beam="2">  1       -2 0.36739725E-02 0.22490093E+03</pdfrwt>
<totfact> 0.17872941E+04</totfact>
</mgrwt>
</event>
<event>
 7    1  0.1111284E-005  0.1333051E+03  0.7546771E-02  0.1234991E+00
          1   -1    0    0  501    0  0.00000000000E+00  0.00000000000E+00  0.34319540808E+03  0.34319540808E+03  0.00000000000E+00 0. -1.
         -1   -1    0    0    0  501 -0.00000000000E+00 -0.00000000000E+00 -0.41842068084E+02  0.41842068084E+02  0.00000000000E+00 0.  1.
         23    2    1    2    0    0  0.32469348997E+02 -0.33013665849E+02  0.10122389395E+03  0.14457532968E+03  0.92258270572E+02 0.  0.
          5    1    1    2  502    0 -0.77267784007E+02  0.35776561164E+02  0.10577156809E+03  0.13586753619E+03  0.47000000000E+01 0. -1.
         -5    1    1    2    0  502  0.44798435010E+02 -0.27628953147E+01  0.94357877956E+02  0.10459461029E+03  0.47000000000E+01 0. -1.
        -11    1    3    3    0    0  0.19302670496E+02  0.29870115458E+02  0.19300212428E+02  0.40463750265E+02  0.00000000000E+00 0.  1.
         11    1    3    3    0    0  0.13166678501E+02 -0.62883781308E+02  0.81923681521E+02  0.10411157942E+03  0.00000000000E+00 0. -1.
<mgrwt>
<rscale>  0 0.12504982E+03</rscale>
<asrwt>0</asrwt>
<pdfrwt beam="1">  1        1 0.52799292E-01 0.13330510E+03</pdfrwt>
<pdfrwt beam="2">  1       -1 0.64372415E-02 0.13330510E+03</pdfrwt>
<totfact> 0.84107648E+03</totfact>
</mgrwt>
</event>
<event>
 7    1  0.1111284E-005  0.5553221E+03  0.7546771E-02  0.1041094E+00
         -2   -1    0    0    0  501 -0.00000000000E+00  0.00000000000E+00  0.11899764547E+03  0.11899764547E+03  0.00000000000E+00 0.  1.
          2   -1    0    0  501    0  0.00000000000E+00 -0.00000000000E+00 -0.13397894577E+04  0.13397894577E+04  0.00000000000E+00 0. -1.
         23    2    1    2    0    0 -0.90198895391E+02 -0.97562155901E+02 -0.61978980438E+03  0.64050474919E+03  0.91938659575E+02 0.  0.
          5    1    1    2  502    0  0.81939501457E+02 -0.13741940378E+03 -0.55633663003E+03  0.57890475067E+03  0.47000000000E+01 0. -1.
         -5    1    1    2    0  502  0.82593939341E+01  0.23498155968E+03 -0.44665377788E+02  0.23937760328E+03  0.47000000000E+01 0.  1.
        -11    1    3    3    0    0 -0.64811742083E+02 -0.11404090062E+03 -0.49289521511E+03  0.51005056809E+03  0.00000000000E+00 0.  1.
         11    1    3    3    0    0 -0.25387153308E+02  0.16478744723E+02 -0.12689458927E+03  0.13045418110E+03  0.00000000000E+00 0. -1.
<mgrwt>
<rscale>  0 0.40785255E+03</rscale>
<asrwt>0</asrwt>
<pdfrwt beam="2">  1        2 0.20612145E+00 0.55532207E+03</pdfrwt>
<pdfrwt beam="1">  1       -2 0.18307330E-01 0.55532207E+03</pdfrwt>
<totfact> 0.39913361E+02</totfact>
</mgrwt>
</event>
<event>
 7    1  0.1111284E-005  0.1258591E+03  0.7546771E-02  0.1249894E+00
         -1   -1    0    0    0  501 -0.00000000000E+00  0.00000000000E+00  0.17033512198E+03  0.17033512198E+03  0.00000000000E+00 0.  1.
          1   -1    0    0  501    0  0.00000000000E+00 -0.00000000000E+00 -0.77681824605E+02  0.77681824605E+02  0.00000000000E+00 0. -1.
         23    2    1    2    0    0 -0.11990218411E+02  0.84244371844E+01 -0.16513138815E+01  0.90746852012E+02  0.89540649055E+02 0.  0.
          5    1    1    2  502    0 -0.53774262584E+02  0.61021437503E+01  0.22755659150E+02  0.58896667972E+02  0.47000000000E+01 0. -1.
         -5    1    1    2    0  502  0.65764480995E+02 -0.14526580935E+02  0.71548952111E+02  0.98373426607E+02  0.47000000000E+01 0. -1.
        -11    1    3    3    0    0  0.36009129370E+01  0.33090430789E+02  0.32022658249E+02  0.46188676373E+02  0.00000000000E+00 0.  1.
         11    1    3    3    0    0 -0.15591131347E+02 -0.24665993605E+02 -0.33673972131E+02  0.44558175639E+02  0.00000000000E+00 0. -1.
<mgrwt>
<rscale>  0 0.11597209E+03</rscale>
<asrwt>0</asrwt>
<pdfrwt beam="2">  1        1 0.11951050E-01 0.12585914E+03</pdfrwt>
<pdfrwt beam="1">  1       -1 0.26205403E-01 0.12585914E+03</pdfrwt>
<totfact> 0.61290791E+03</totfact>
</mgrwt>
</event>
<event>
 7    1  0.1111284E-005  0.1450628E+03  0.7546771E-02  0.1216717E+00
         -1   -1    0    0    0  501 -0.00000000000E+00  0.00000000000E+00  0.22539613335E+02  0.22539613335E+02  0.00000000000E+00 0.  1.
          1   -1    0    0  501    0  0.00000000000E+00 -0.00000000000E+00 -0.88411233350E+03  0.88411233350E+03  0.00000000000E+00 0. -1.
         23    2    1    2    0    0 -0.66927693014E+02 -0.30650989933E+02 -0.55850112739E+03  0.57065251876E+03  0.91115248955E+02 0.  0.
          5    1    1    2  502    0  0.20948050998E+02  0.49858903917E+02 -0.38047670282E+02  0.66290620410E+02  0.47000000000E+01 0. -1.
         -5    1    1    2    0  502  0.45979642017E+02 -0.19207913985E+02 -0.26502392249E+03  0.26970880766E+03  0.47000000000E+01 0. -1.
        -11    1    3    3    0    0 -0.44015198951E+02  0.28706052805E+02 -0.28937372299E+03  0.29410631881E+03  0.00000000000E+00 0.  1.
         11    1    3    3    0    0 -0.22912494063E+02 -0.59357042738E+02 -0.26912740440E+03  0.27654619995E+03  0.00000000000E+00 0. -1.
<mgrwt>
<rscale>  0 0.13751165E+03</rscale>
<asrwt>0</asrwt>
<pdfrwt beam="2">  1        1 0.13601726E+00 0.14506283E+03</pdfrwt>
<pdfrwt beam="1">  1       -1 0.34676333E-02 0.14506283E+03</pdfrwt>
<totfact> 0.58271512E+03</totfact>
</mgrwt>
</event>
<event>
 7    1  0.1111284E-005  0.1320247E+03  0.7546771E-02  0.1242841E+00
          3   -1    0    0  501    0  0.00000000000E+00  0.00000000000E+00  0.14614956338E+03  0.14614956338E+03  0.00000000000E+00 0. -1.
         -3   -1    0    0    0  501 -0.00000000000E+00 -0.00000000000E+00 -0.85244471868E+02  0.85244471868E+02  0.00000000000E+00 0.  1.
         23    2    1    2    0    0 -0.34681133059E+02 -0.24541269028E+02  0.33380080775E+02  0.96530613530E+02  0.79992966442E+02 0.  0.
          5    1    1    2  502    0  0.10366296796E+01 -0.48804229711E+02 -0.12685926142E+01  0.49057382380E+02  0.47000000000E+01 0. -1.
         -5    1    1    2    0  502  0.33644503379E+02  0.73345498739E+02  0.28793603350E+02  0.85806039338E+02  0.47000000000E+01 0. -1.
        -11    1    3    3    0    0 -0.43836667403E+02 -0.45552400380E+02  0.10389223472E+02  0.64067234635E+02  0.00000000000E+00 0.  1.
         11    1    3    3    0    0  0.91555343445E+01  0.21011131351E+02  0.22990857302E+02  0.32463378895E+02  0.00000000000E+00 0. -1.
<mgrwt>
<rscale>  0 0.12015562E+03</rscale>
<asrwt>0</asrwt>
<pdfrwt beam="1">  1        3 0.22484548E-01 0.13202468E+03</pdfrwt>
<pdfrwt beam="2">  1       -3 0.13114534E-01 0.13202468E+03</pdfrwt>
<totfact> 0.19413744E+03</totfact>
</mgrwt>
</event>
<event>
 7    1  0.1111284E-005  0.2378107E+03  0.7546771E-02  0.1159421E+00
          2   -1    0    0  501    0  0.00000000000E+00  0.00000000000E+00  0.15094230217E+03  0.15094230217E+03  0.00000000000E+00 0. -1.
         -2   -1    0    0    0  501 -0.00000000000E+00 -0.00000000000E+00 -0.18961883969E+03  0.18961883969E+03  0.00000000000E+00 0.  1.
         23    2    1    2    0    0  0.31568310783E+01  0.30694514039E+02  0.17131716769E+02  0.96289815044E+02  0.89588581791E+02 0.  0.
          5    1    1    2  502    0 -0.53431944900E+02  0.89586082950E+02 -0.58408218852E+01  0.10457936792E+03  0.47000000000E+01 0. -1.
         -5    1    1    2    0  502  0.50275113821E+02 -0.12028059699E+03 -0.49967432405E+02  0.13969195891E+03  0.47000000000E+01 0.  1.
        -11    1    3    3    0    0  0.36829936043E+02  0.42932321491E+02  0.20813999269E+02  0.60273136496E+02  0.00000000000E+00 0.  1.
         11    1    3    3    0    0 -0.33673104965E+02 -0.12237807452E+02 -0.36822824995E+01  0.36016678548E+02  0.00000000000E+00 0. -1.
<mgrwt>
<rscale>  0 0.18893933E+03</rscale>
<asrwt>0</asrwt>
<pdfrwt beam="1">  1        2 0.23221893E-01 0.23781068E+03</pdfrwt>
<pdfrwt beam="2">  1       -2 0.29172129E-01 0.23781068E+03</pdfrwt>
<totfact> 0.24959589E+03</totfact>
</mgrwt>
</event>
<event>
 7    1  0.1111284E-005  0.1699616E+03  0.7546771E-02  0.1184596E+00
          1   -1    0    0  501    0  0.00000000000E+00  0.00000000000E+00  0.19680220977E+03  0.19680220977E+03  0.00000000000E+00 0. -1.
         -1   -1    0    0    0  501 -0.00000000000E+00 -0.00000000000E+00 -0.15669559469E+03  0.15669559469E+03  0.00000000000E+00 0.  1.
         23    2    1    2    0    0  0.37751130118E+02  0.10880927244E+03  0.95608559541E+02  0.17470346203E+03  0.90087165518E+02 0.  0.
          5    1    1    2  502    0 -0.29461163408E+02 -0.12341555349E+03 -0.68995016906E+01  0.12715758773E+03  0.47000000000E+01 0. -1.
         -5    1    1    2    0  502 -0.82899667102E+01  0.14606281046E+02 -0.48602442765E+02  0.51636754708E+02  0.47000000000E+01 0. -1.
        -11    1    3    3    0    0  0.20047832324E+02  0.31084680256E+02 -0.13674801358E+02  0.39435683330E+02  0.00000000000E+00 0.  1.
         11    1    3    3    0    0  0.17703297794E+02  0.77724592188E+02  0.10928336090E+03  0.13526777869E+03  0.00000000000E+00 0. -1.
<mgrwt>
<rscale>  0 0.16368726E+03</rscale>
<asrwt>0</asrwt>
<pdfrwt beam="1">  1        1 0.30277263E-01 0.16996162E+03</pdfrwt>
<pdfrwt beam="2">  1       -1 0.24107015E-01 0.16996162E+03</pdfrwt>
<totfact> 0.21764712E+03</totfact>
</mgrwt>
</event>
<event>
 7    1  0.1111284E-005  0.1325024E+03  0.7546771E-02  0.1237407E+00
         -1   -1    0    0    0  501 -0.00000000000E+00  0.00000000000E+00  0.14930360741E+03  0.14930360741E+03  0.00000000000E+00 0.  1.
          1   -1    0    0  501    0  0.00000000000E+00 -0.00000000000E+00 -0.99059289386E+02  0.99059289386E+02  0.00000000000E+00 0. -1.
         23    2    1    2    0    0  0.77710899451E+01 -0.43329570880E+02 -0.14141926860E+02  0.10104528935E+03  0.89846061977E+02 0.  0.
          5    1    1    2  502    0 -0.36260806721E+02  0.34863343410E+02  0.92973062172E+02  0.10581294395E+03  0.47000000000E+01 0.  1.
         -5    1    1    2    0  502  0.28489716776E+02  0.84662274702E+01 -0.28586817287E+02  0.41504663498E+02  0.47000000000E+01 0.  1.
        -11    1    3    3    0    0 -0.13783008170E+02 -0.22887461305E+02 -0.48655345506E+02  0.55508106124E+02  0.00000000000E+00 0. -1.
         11    1    3    3    0    0  0.21554098115E+02 -0.20442109575E+02  0.34513418646E+02  0.45537183225E+02  0.00000000000E+00 0.  1.
<mgrwt>
<rscale>  0 0.12351592E+03</rscale>
<asrwt>0</asrwt>
<pdfrwt beam="2">  1        1 0.15239891E-01 0.13250241E+03</pdfrwt>
<pdfrwt beam="1">  1       -1 0.22969786E-01 0.13250241E+03</pdfrwt>
<totfact> 0.55634961E+03</totfact>
</mgrwt>
</event>
<event>
 7    1  0.1111284E-005  0.1258058E+03  0.7546771E-02  0.1249185E+00
         -2   -1    0    0    0  501 -0.00000000000E+00  0.00000000000E+00  0.12374128090E+03  0.12374128090E+03  0.00000000000E+00 0.  1.
          2   -1    0    0  501    0  0.00000000000E+00 -0.00000000000E+00 -0.10670101570E+03  0.10670101570E+03  0.00000000000E+00 0. -1.
         23    2    1    2    0    0  0.49454008421E+01  0.13207460377E+02 -0.28809588806E+02  0.96541891238E+02  0.91057401443E+02 0.  0.
          5    1    1    2  502    0  0.15670769359E+01 -0.69027275837E+02  0.29068681154E+02  0.75061966159E+02  0.47000000000E+01 0.  1.
         -5    1    1    2    0  502 -0.65124777780E+01  0.55819815459E+02  0.16781172854E+02  0.58838439196E+02  0.47000000000E+01 0.  1.
        -11    1    3    3    0    0  0.17350262510E+02 -0.23914156882E+02  0.18715887846E+02  0.34974318670E+02  0.00000000000E+00 0.  1.
         11    1    3    3    0    0 -0.12404861668E+02  0.37121617259E+02 -0.47525476653E+02  0.61567572569E+02  0.00000000000E+00 0. -1.
<mgrwt>
<rscale>  0 0.11638346E+03</rscale>
<asrwt>0</asrwt>
<pdfrwt beam="2">  1        2 0.16415541E-01 0.12580584E+03</pdfrwt>
<pdfrwt beam="1">  1       -2 0.19037120E-01 0.12580584E+03</pdfrwt>
<totfact> 0.75254619E+03</totfact>
</mgrwt>
</event>
<event>
 7    1  0.1111284E-005  0.1478231E+03  0.7546771E-02  0.1212397E+00
         -1   -1    0    0    0  501 -0.00000000000E+00  0.00000000000E+00  0.56235490301E+02  0.56235490301E+02  0.00000000000E+00 0.  1.
          1   -1    0    0  501    0  0.00000000000E+00 -0.00000000000E+00 -0.32345422784E+03  0.32345422784E+03  0.00000000000E+00 0. -1.
         23    2    1    2    0    0 -0.11899040338E+02  0.78001314768E+02 -0.13316740679E+03  0.18013663173E+03  0.92140412378E+02 0.  0.
          5    1    1    2  502    0  0.25078833898E+02 -0.10998474796E+03 -0.10155939228E+03  0.15186175573E+03  0.47000000000E+01 0. -1.
         -5    1    1    2    0  502 -0.13179793560E+02  0.31983433189E+02 -0.32491938463E+02  0.47691330679E+02  0.47000000000E+01 0. -1.
        -11    1    3    3    0    0 -0.14778390454E+02 -0.12449306027E+02 -0.23549581818E+00  0.19324634621E+02  0.00000000000E+00 0. -1.
         11    1    3    3    0    0  0.28793501163E+01  0.90450620795E+02 -0.13293191097E+03  0.16081199711E+03  0.00000000000E+00 0.  1.
<mgrwt>
<rscale>  0 0.14069517E+03</rscale>
<asrwt>0</asrwt>
<pdfrwt beam="2">  1        1 0.49762189E-01 0.14782312E+03</pdfrwt>
<pdfrwt beam="1">  1       -1 0.86516138E-02 0.14782312E+03</pdfrwt>
<totfact> 0.58409120E+03</totfact>
</mgrwt>
</event>
<event>
 7    1  0.1705835E-005  0.1843246E+03  0.7546771E-02  0.1169024E+00
         -2   -1    0    0    0  501 -0.00000000000E+00  0.00000000000E+00  0.32714669819E+02  0.32714669819E+02  0.00000000000E+00 0.  1.
          2   -1    0    0  501    0  0.00000000000E+00 -0.00000000000E+00 -0.11296450882E+04  0.11296450882E+04  0.00000000000E+00 0. -1.
         23    2    1    2    0    0  0.69245888876E+02 -0.11642813926E+03 -0.76986345407E+03  0.78692888641E+03  0.90646729767E+02 0.  0.
          5    1    1    2  502    0  0.15272959559E+01  0.35617132919E+02 -0.55163317928E+01  0.36379014648E+02  0.47000000000E+01 0.  1.
         -5    1    1    2    0  502 -0.70773184832E+02  0.80811006340E+02 -0.32155063255E+03  0.33905185699E+03  0.47000000000E+01 0.  1.
        -11    1    3    3    0    0 -0.95737088178E+01 -0.69698120659E+02 -0.37838228222E+03  0.38486703603E+03  0.00000000000E+00 0. -1.
         11    1    3    3    0    0  0.78819597694E+02 -0.46730018600E+02 -0.39148117184E+03  0.40206185038E+03  0.00000000000E+00 0.  1.
<mgrwt>
<rscale>  0 0.17874376E+03</rscale>
<asrwt>0</asrwt>
<pdfrwt beam="2">  1        2 0.17379156E+00 0.18432455E+03</pdfrwt>
<pdfrwt beam="1">  1       -2 0.50330259E-02 0.18432455E+03</pdfrwt>
<totfact> 0.42124339E+03</totfact>
</mgrwt>
</event>
<event>
 7    1  0.1111284E-005  0.1391703E+03  0.7546771E-02  0.1225965E+00
          1   -1    0    0  501    0  0.00000000000E+00  0.00000000000E+00  0.27689019070E+02  0.27689019070E+02  0.00000000000E+00 0. -1.
         -1   -1    0    0    0  501 -0.00000000000E+00 -0.00000000000E+00 -0.56730219087E+03  0.56730219087E+03  0.00000000000E+00 0.  1.
         23    2    1    2    0    0 -0.61154979390E+02  0.23060323992E+01 -0.19883756097E+03  0.22689287996E+03  0.90546971434E+02 0.  0.
          5    1    1    2  502    0  0.70889311732E+02 -0.51361083704E+02 -0.23971432939E+03  0.25524166030E+03  0.47000000000E+01 0.  1.
         -5    1    1    2    0  502 -0.97343323419E+01  0.49055051304E+02 -0.10106128144E+03  0.11285666968E+03  0.47000000000E+01 0.  1.
        -11    1    3    3    0    0  0.15440553287E+02 -0.21143599363E+02 -0.74684115605E+02  0.79140252738E+02  0.00000000000E+00 0.  1.
         11    1    3    3    0    0 -0.76595532677E+02  0.23449631762E+02 -0.12415344536E+03  0.14775262722E+03  0.00000000000E+00 0. -1.
<mgrwt>
<rscale>  0 0.13100974E+03</rscale>
<asrwt>0</asrwt>
<pdfrwt beam="1">  1        1 0.42598493E-02 0.13917027E+03</pdfrwt>
<pdfrwt beam="2">  1       -1 0.87277256E-01 0.13917027E+03</pdfrwt>
<totfact> 0.27318120E+03</totfact>
</mgrwt>
</event>
<event>
 7    1  0.1111284E-005  0.1928154E+03  0.7546771E-02  0.1162068E+00
          2   -1    0    0  501    0  0.00000000000E+00  0.00000000000E+00  0.14731651183E+04  0.14731651183E+04  0.00000000000E+00 0. -1.
         -2   -1    0    0    0  501 -0.00000000000E+00 -0.00000000000E+00 -0.23882652841E+02  0.23882652841E+02  0.00000000000E+00 0.  1.
         23    2    1    2    0    0  0.41402994678E+02  0.14084835324E+03  0.46694259565E+03  0.49596366868E+03  0.79950650000E+02 0.  0.
          5    1    1    2  502    0 -0.53096479186E+02 -0.14275967056E+03  0.61762105137E+03  0.63614260409E+03  0.47000000000E+01 0.  1.
         -5    1    1    2    0  502  0.11693484508E+02  0.19113173197E+01  0.36471881844E+03  0.36494149838E+03  0.47000000000E+01 0.  1.
        -11    1    3    3    0    0  0.46327401557E+02  0.83086282961E+02  0.18392661428E+03  0.20707138381E+03  0.00000000000E+00 0.  1.
         11    1    3    3    0    0 -0.49244068793E+01  0.57762070279E+02  0.28301598137E+03  0.28889228487E+03  0.00000000000E+00 0. -1.
<mgrwt>
<rscale>  0 0.18605588E+03</rscale>
<asrwt>0</asrwt>
<pdfrwt beam="1">  1        2 0.22664072E+00 0.19281535E+03</pdfrwt>
<pdfrwt beam="2">  1       -2 0.36742554E-02 0.19281535E+03</pdfrwt>
<totfact> 0.43840044E+03</totfact>
</mgrwt>
</event>
<event>
 7    1  0.1111284E-005  0.1289228E+03  0.7546771E-02  0.1242942E+00
          4   -1    0    0  501    0  0.00000000000E+00  0.00000000000E+00  0.11711754504E+03  0.11711754504E+03  0.00000000000E+00 0. -1.
         -4   -1    0    0    0  501 -0.00000000000E+00 -0.00000000000E+00 -0.13209889693E+03  0.13209889693E+03  0.00000000000E+00 0.  1.
         23    2    1    2    0    0 -0.29707122538E+02  0.10626484348E+02  0.45032969818E+02  0.10700951189E+03  0.91802134864E+02 0.  0.
          5    1    1    2  502    0 -0.31677019187E+01  0.28308149342E+02 -0.81682868448E+02  0.86634673500E+02  0.47000000000E+01 0.  1.
         -5    1    1    2    0  502  0.32874824456E+02 -0.38934633689E+02  0.21668546741E+02  0.55572256580E+02  0.47000000000E+01 0.  1.
        -11    1    3    3    0    0  0.11604034823E+02 -0.66955440653E+01 -0.22372138840E+02  0.26076743102E+02  0.00000000000E+00 0.  1.
         11    1    3    3    0    0 -0.41311157361E+02  0.17322028413E+02  0.67405108658E+02  0.80932768790E+02  0.00000000000E+00 0. -1.
<mgrwt>
<rscale>  0 0.12009402E+03</rscale>
<asrwt>0</asrwt>
<pdfrwt beam="1">  1        4 0.18018084E-01 0.12892281E+03</pdfrwt>
<pdfrwt beam="2">  1       -4 0.20322907E-01 0.12892281E+03</pdfrwt>
<totfact> 0.97449348E+02</totfact>
</mgrwt>
</event>
<event>
 7    1  0.1111284E-005  0.1300424E+03  0.7546771E-02  0.1241394E+00
          1   -1    0    0  501    0  0.00000000000E+00  0.00000000000E+00  0.24974024404E+03  0.24974024404E+03  0.00000000000E+00 0. -1.
         -1   -1    0    0    0  501 -0.00000000000E+00 -0.00000000000E+00 -0.53146727052E+02  0.53146727052E+02  0.00000000000E+00 0.  1.
         23    2    1    2    0    0 -0.35784436225E+02 -0.31068761514E+01  0.10782830532E+03  0.14543763332E+03  0.90746808219E+02 0.  0.
          5    1    1    2  502    0  0.13175903356E+01  0.46648357167E+02  0.90237600408E+02  0.10169916321E+03  0.47000000000E+01 0. -1.
         -5    1    1    2    0  502  0.34466845889E+02 -0.43541481015E+02 -0.14723887436E+01  0.55750174557E+02  0.47000000000E+01 0. -1.
        -11    1    3    3    0    0  0.11956787955E+02 -0.71818580939E+01 -0.10707509194E+02  0.17583930648E+02  0.00000000000E+00 0.  1.
         11    1    3    3    0    0 -0.47741224180E+02  0.40749819425E+01  0.11853581452E+03  0.12785370267E+03  0.00000000000E+00 0. -1.
<mgrwt>
<rscale>  0 0.12103830E+03</rscale>
<asrwt>0</asrwt>
<pdfrwt beam="1">  1        1 0.38421575E-01 0.13004242E+03</pdfrwt>
<pdfrwt beam="2">  1       -1 0.81764197E-02 0.13004242E+03</pdfrwt>
<totfact> 0.86890646E+03</totfact>
</mgrwt>
</event>
<event>
 7    1  0.1111284E-005  0.1423783E+03  0.7546771E-02  0.1220775E+00
          4   -1    0    0  501    0  0.00000000000E+00  0.00000000000E+00  0.25567216130E+03  0.25567216130E+03  0.00000000000E+00 0.  1.
         -4   -1    0    0    0  501 -0.00000000000E+00 -0.00000000000E+00 -0.75158564510E+02  0.75158564510E+02  0.00000000000E+00 0. -1.
         23    2    1    2    0    0 -0.28048076559E+02 -0.62139325862E+02  0.14462829497E+03  0.18399979658E+03  0.91052682651E+02 0.  0.
          5    1    1    2  502    0  0.41799179586E+02 -0.25100908008E+02 -0.53011018838E+01  0.49268840844E+02  0.47000000000E+01 0. -1.
         -5    1    1    2    0  502 -0.13751103028E+02  0.87240233870E+02  0.41186403705E+02  0.97562088386E+02  0.47000000000E+01 0. -1.
        -11    1    3    3    0    0 -0.41783713570E+01 -0.75061253824E+02  0.13621415621E+03  0.15558260495E+03  0.00000000000E+00 0.  1.
         11    1    3    3    0    0 -0.23869705202E+02  0.12921927963E+02  0.84141387604E+01  0.28417191624E+02  0.00000000000E+00 0. -1.
<mgrwt>
<rscale>  0 0.13460729E+03</rscale>
<asrwt>0</asrwt>
<pdfrwt beam="1">  1        4 0.39334178E-01 0.14237825E+03</pdfrwt>
<pdfrwt beam="2">  1       -4 0.11562856E-01 0.14237825E+03</pdfrwt>
<totfact> 0.62280005E+02</totfact>
</mgrwt>
</event>
<event>
 7    1  0.1111284E-005  0.1439110E+03  0.7546771E-02  0.1218466E+00
         -1   -1    0    0    0  501 -0.00000000000E+00  0.00000000000E+00  0.94654224475E+02  0.94654224475E+02  0.00000000000E+00 0.  1.
          1   -1    0    0  501    0  0.00000000000E+00 -0.00000000000E+00 -0.19487766969E+03  0.19487766969E+03  0.00000000000E+00 0. -1.
         23    2    1    2    0    0 -0.47532636324E+01 -0.71164232361E+02 -0.87607791914E+02  0.14506903013E+03  0.91010751101E+02 0.  0.
          5    1    1    2  502    0  0.13926620947E+02  0.45078010598E+02 -0.67697931622E+02  0.82650334279E+02  0.47000000000E+01 0. -1.
         -5    1    1    2    0  502 -0.91733573148E+01  0.26086221763E+02  0.55082278319E+02  0.61812529758E+02  0.47000000000E+01 0. -1.
        -11    1    3    3    0    0  0.18289192678E+02  0.10591905094E+02 -0.45703583475E+02  0.50353754228E+02  0.00000000000E+00 0. -1.
         11    1    3    3    0    0 -0.23042456310E+02 -0.81756137455E+02 -0.41904208439E+02  0.94715275902E+02  0.00000000000E+00 0.  1.
<mgrwt>
<rscale>  0 0.13624997E+03</rscale>
<asrwt>0</asrwt>
<pdfrwt beam="2">  1        1 0.29981180E-01 0.14391096E+03</pdfrwt>
<pdfrwt beam="1">  1       -1 0.14562188E-01 0.14391096E+03</pdfrwt>
<totfact> 0.49047668E+03</totfact>
</mgrwt>
</event>
<event>
 7    1  0.1111284E-005  0.1352171E+03  0.7546771E-02  0.1232123E+00
          3   -1    0    0  501    0  0.00000000000E+00  0.00000000000E+00  0.13213605572E+03  0.13213605572E+03  0.00000000000E+00 0. -1.
         -3   -1    0    0    0  501 -0.00000000000E+00 -0.00000000000E+00 -0.11878246701E+03  0.11878246701E+03  0.00000000000E+00 0.  1.
         23    2    1    2    0    0  0.28613478471E+02 -0.42882649051E+02  0.41474959250E+02  0.11280815963E+03  0.91366601642E+02 0.  0.
          5    1    1    2  502    0 -0.67925652517E+02  0.11931106413E+02  0.16317955249E+02  0.71025426669E+02  0.47000000000E+01 0.  1.
         -5    1    1    2    0  502  0.39312174046E+02  0.30951542638E+02 -0.44439325784E+02  0.67084936432E+02  0.47000000000E+01 0.  1.
        -11    1    3    3    0    0  0.36482758873E+02  0.14033826747E+02 -0.43284581809E+01  0.39327796002E+02  0.00000000000E+00 0.  1.
         11    1    3    3    0    0 -0.78692804017E+01 -0.56916475798E+02  0.45803417431E+02  0.73480363633E+02  0.00000000000E+00 0. -1.
<mgrwt>
<rscale>  0 0.12690389E+03</rscale>
<asrwt>0</asrwt>
<pdfrwt beam="1">  1        3 0.20328624E-01 0.13521709E+03</pdfrwt>
<pdfrwt beam="2">  1       -3 0.18274226E-01 0.13521709E+03</pdfrwt>
<totfact> 0.13192804E+03</totfact>
</mgrwt>
</event>
<event>
 7    1  0.1111284E-005  0.1256195E+03  0.7546771E-02  0.1249277E+00
         -1   -1    0    0    0  501 -0.00000000000E+00  0.00000000000E+00  0.20570722217E+02  0.20570722217E+02  0.00000000000E+00 0.  1.
          1   -1    0    0  501    0  0.00000000000E+00 -0.00000000000E+00 -0.57772076060E+03  0.57772076060E+03  0.00000000000E+00 0. -1.
         23    2    1    2    0    0  0.16787270914E+01 -0.11323595723E+02 -0.23162866725E+03  0.24937254997E+03  0.91672172656E+02 0.  0.
          5    1    1    2  502    0 -0.21549189747E+02  0.47189840890E+02 -0.56887280625E+02  0.77133010825E+02  0.47000000000E+01 0. -1.
         -5    1    1    2    0  502  0.19870462656E+02 -0.35866245167E+02 -0.26863409050E+03  0.27178592202E+03  0.47000000000E+01 0. -1.
        -11    1    3    3    0    0  0.39212234542E+02 -0.30997233658E+02 -0.12258844182E+03  0.13238713646E+03  0.00000000000E+00 0. -1.
         11    1    3    3    0    0 -0.37533507451E+02  0.19673637936E+02 -0.10904022543E+03  0.11698541350E+03  0.00000000000E+00 0.  1.
<mgrwt>
<rscale>  0 0.11633011E+03</rscale>
<asrwt>0</asrwt>
<pdfrwt beam="2">  1        1 0.88880124E-01 0.12561950E+03</pdfrwt>
<pdfrwt beam="1">  1       -1 0.31647263E-02 0.12561950E+03</pdfrwt>
<totfact> 0.12220899E+04</totfact>
</mgrwt>
</event>
<event>
 7    1  0.1111284E-005  0.1772884E+03  0.7546771E-02  0.1176490E+00
          1   -1    0    0  501    0  0.00000000000E+00  0.00000000000E+00  0.61828550603E+03  0.61828550603E+03  0.00000000000E+00 0. -1.
         -1   -1    0    0    0  501 -0.00000000000E+00 -0.00000000000E+00 -0.45901605331E+02  0.45901605331E+02  0.00000000000E+00 0.  1.
         23    2    1    2    0    0 -0.87344220163E+02 -0.90410020731E+02  0.32453158478E+03  0.35945452575E+03  0.89910076844E+02 0.  0.
          5    1    1    2  502    0  0.77847440154E+02  0.76172646655E+02  0.26086333762E+03  0.28272648789E+03  0.47000000000E+01 0.  1.
         -5    1    1    2    0  502  0.94967800091E+01  0.14237374076E+02 -0.13011021706E+02  0.22006097722E+02  0.47000000000E+01 0.  1.
        -11    1    3    3    0    0 -0.68483632800E+02 -0.10123872399E+03  0.31019265362E+03  0.33340481334E+03  0.00000000000E+00 0. -1.
         11    1    3    3    0    0 -0.18860587364E+02  0.10828703260E+02  0.14338931159E+02  0.26049712413E+02  0.00000000000E+00 0.  1.
<mgrwt>
<rscale>  0 0.17130893E+03</rscale>
<asrwt>0</asrwt>
<pdfrwt beam="1">  1        1 0.95120841E-01 0.17728840E+03</pdfrwt>
<pdfrwt beam="2">  1       -1 0.70617859E-02 0.17728840E+03</pdfrwt>
<totfact> 0.34580856E+03</totfact>
</mgrwt>
</event>
<event>
 7    1  0.1111284E-005  0.1609807E+03  0.7546771E-02  0.1193850E+00
          1   -1    0    0  501    0  0.00000000000E+00  0.00000000000E+00  0.61641138105E+02  0.61641138105E+02  0.00000000000E+00 0. -1.
         -1   -1    0    0    0  501 -0.00000000000E+00 -0.00000000000E+00 -0.65720723079E+03  0.65720723079E+03  0.00000000000E+00 0.  1.
         23    2    1    2    0    0  0.69698798190E+02  0.73702832939E+02 -0.48162518838E+02  0.14826494226E+03  0.96813402119E+02 0.  0.
          5    1    1    2  502    0 -0.60562297639E+00  0.19574976074E+02 -0.13643410862E+02  0.24326510794E+02  0.47000000000E+01 0. -1.
         -5    1    1    2    0  502 -0.69093175213E+02 -0.93277809013E+02 -0.53376016299E+03  0.54625691584E+03  0.47000000000E+01 0. -1.
        -11    1    3    3    0    0 -0.16292303279E+01  0.58500991282E+02 -0.47431877881E+02  0.75331291053E+02  0.00000000000E+00 0.  1.
         11    1    3    3    0    0  0.71328028518E+02  0.15201841658E+02 -0.73064095763E+00  0.72933651206E+02  0.00000000000E+00 0. -1.
<mgrwt>
<rscale>  0 0.15551996E+03</rscale>
<asrwt>0</asrwt>
<pdfrwt beam="1">  1        1 0.94832523E-02 0.16098066E+03</pdfrwt>
<pdfrwt beam="2">  1       -1 0.10110880E+00 0.16098066E+03</pdfrwt>
<totfact> 0.67451204E+02</totfact>
</mgrwt>
</event>
<event>
 7    1  0.1111284E-005  0.2219982E+03  0.7546771E-02  0.1135900E+00
          1   -1    0    0  501    0  0.00000000000E+00  0.00000000000E+00  0.22822076130E+03  0.22822076130E+03  0.00000000000E+00 0. -1.
         -1   -1    0    0    0  501 -0.00000000000E+00 -0.00000000000E+00 -0.31908263965E+03  0.31908263965E+03  0.00000000000E+00 0.  1.
         23    2    1    2    0    0 -0.51665605542E+01  0.18338348653E+03  0.12379615227E+03  0.23849717548E+03  0.88877550116E+02 0.  0.
          5    1    1    2  502    0  0.10682669119E+02 -0.14284982506E+03 -0.72136064925E+02  0.16045527041E+03  0.47000000000E+01 0.  1.
         -5    1    1    2    0  502 -0.55161085643E+01 -0.40533661472E+02 -0.14252196569E+03  0.14835095507E+03  0.47000000000E+01 0.  1.
        -11    1    3    3    0    0 -0.38091461648E+02  0.54581544456E+02  0.65335648999E+02  0.93267633591E+02  0.00000000000E+00 0. -1.
         11    1    3    3    0    0  0.32924901093E+02  0.12880194207E+03  0.58460503268E+02  0.14522954189E+03  0.00000000000E+00 0.  1.
<mgrwt>
<rscale>  0 0.21731544E+03</rscale>
<asrwt>0</asrwt>
<pdfrwt beam="1">  1        1 0.35110886E-01 0.22199823E+03</pdfrwt>
<pdfrwt beam="2">  1       -1 0.49089637E-01 0.22199823E+03</pdfrwt>
<totfact> 0.52959717E+02</totfact>
</mgrwt>
</event>
<event>
 7    1  0.1111284E-005  0.1308599E+03  0.7546771E-02  0.1240935E+00
          2   -1    0    0  501    0  0.00000000000E+00  0.00000000000E+00  0.80007646848E+02  0.80007646848E+02  0.00000000000E+00 0. -1.
         -2   -1    0    0    0  501 -0.00000000000E+00 -0.00000000000E+00 -0.16495521281E+03  0.16495521281E+03  0.00000000000E+00 0.  1.
         23    2    1    2    0    0  0.25190567643E+02  0.29439701435E+02 -0.19387187326E+02  0.98598711232E+02  0.88569645508E+02 0.  0.
          5    1    1    2  502    0 -0.47842463856E+00  0.42332321366E+00  0.36646858814E+02  0.36952541910E+02  0.47000000000E+01 0.  1.
         -5    1    1    2    0  502 -0.24712143004E+02 -0.29863024649E+02 -0.10220723745E+03  0.10941160652E+03  0.47000000000E+01 0.  1.
        -11    1    3    3    0    0  0.29261821623E+00  0.14526703312E+02 -0.52554675890E+02  0.54526183549E+02  0.00000000000E+00 0.  1.
         11    1    3    3    0    0  0.24897949427E+02  0.14912998123E+02  0.33167488565E+02  0.44072527683E+02  0.00000000000E+00 0. -1.
<mgrwt>
<rscale>  0 0.12131992E+03</rscale>
<asrwt>0</asrwt>
<pdfrwt beam="1">  1        2 0.12308869E-01 0.13085985E+03</pdfrwt>
<pdfrwt beam="2">  1       -2 0.25377725E-01 0.13085985E+03</pdfrwt>
<totfact> 0.64734187E+03</totfact>
</mgrwt>
</event>
<event>
 7    1  0.1111284E-005  0.1322943E+03  0.7546771E-02  0.1235846E+00
         -2   -1    0    0    0  501 -0.00000000000E+00  0.00000000000E+00  0.19880531695E+03  0.19880531695E+03  0.00000000000E+00 0.  1.
          2   -1    0    0  501    0  0.00000000000E+00 -0.00000000000E+00 -0.75758866633E+02  0.75758866633E+02  0.00000000000E+00 0. -1.
         23    2    1    2    0    0  0.36332065155E+02  0.23604562172E+02  0.17326007498E+02  0.10521665605E+03  0.94303551683E+02 0.  0.
          5    1    1    2  502    0 -0.21651812667E+02  0.38532024751E+02 -0.14947963661E+01  0.44472939405E+02  0.47000000000E+01 0. -1.
         -5    1    1    2    0  502 -0.14680252487E+02 -0.62136586922E+02  0.10721523919E+03  0.12487458813E+03  0.47000000000E+01 0. -1.
        -11    1    3    3    0    0  0.23233443760E+02  0.55609454721E+02  0.31308945515E+02  0.67915053063E+02  0.00000000000E+00 0. -1.
         11    1    3    3    0    0  0.13098621395E+02 -0.32004892549E+02 -0.13982938017E+02  0.37301602983E+02  0.00000000000E+00 0.  1.
<mgrwt>
<rscale>  0 0.12450435E+03</rscale>
<asrwt>0</asrwt>
<pdfrwt beam="2">  1        2 0.11655210E-01 0.13229427E+03</pdfrwt>
<pdfrwt beam="1">  1       -2 0.30585433E-01 0.13229427E+03</pdfrwt>
<totfact> 0.49663320E+03</totfact>
</mgrwt>
</event>
<event>
 7    1  0.1111284E-005  0.1455475E+03  0.7546771E-02  0.1215660E+00
          2   -1    0    0  501    0  0.00000000000E+00  0.00000000000E+00  0.10001468199E+04  0.10001468199E+04  0.00000000000E+00 0. -1.
         -2   -1    0    0    0  501 -0.00000000000E+00 -0.00000000000E+00 -0.18232607346E+02  0.18232607346E+02  0.00000000000E+00 0.  1.
         23    2    1    2    0    0 -0.13224442598E+02  0.73381630153E+02  0.54870839314E+03  0.56137684966E+03  0.92213432342E+02 0.  0.
          5    1    1    2  502    0  0.52393454161E+02  0.48256466837E+01  0.22506736537E+03  0.23118341173E+03  0.47000000000E+01 0.  1.
         -5    1    1    2    0  502 -0.39169011563E+02 -0.78207276836E+02  0.20813845407E+03  0.22581916588E+03  0.47000000000E+01 0.  1.
        -11    1    3    3    0    0  0.39850235023E+02  0.31653088482E+02  0.25133800956E+03  0.25643859751E+03  0.00000000000E+00 0.  1.
         11    1    3    3    0    0 -0.53074677621E+02  0.41728541671E+02  0.29737038358E+03  0.30493825215E+03  0.00000000000E+00 0. -1.
<mgrwt>
<rscale>  0 0.13828133E+03</rscale>
<asrwt>0</asrwt>
<pdfrwt beam="1">  1        2 0.15386870E+00 0.14554750E+03</pdfrwt>
<pdfrwt beam="2">  1       -2 0.28050173E-02 0.14554750E+03</pdfrwt>
<totfact> 0.11869467E+04</totfact>
</mgrwt>
</event>
<event>
 7    1  0.1111284E-005  0.1360595E+03  0.7546771E-02  0.1229444E+00
          2   -1    0    0  501    0  0.00000000000E+00  0.00000000000E+00  0.40226775800E+03  0.40226775800E+03  0.00000000000E+00 0. -1.
         -2   -1    0    0    0  501 -0.00000000000E+00 -0.00000000000E+00 -0.37691867823E+02  0.37691867823E+02  0.00000000000E+00 0.  1.
         23    2    1    2    0    0 -0.44851901271E+02  0.29659790483E+02  0.13903821520E+03  0.17655986924E+03  0.94606373567E+02 0.  0.
          5    1    1    2  502    0  0.18306704886E+02 -0.17669861997E+01 -0.12169198997E+02  0.22548549582E+02  0.47000000000E+01 0. -1.
         -5    1    1    2    0  502  0.26545196385E+02 -0.27892804283E+02  0.23770687397E+03  0.24085120701E+03  0.47000000000E+01 0. -1.
        -11    1    3    3    0    0 -0.15862296952E+02 -0.16971257041E+02  0.11376938880E+03  0.11611679404E+03  0.00000000000E+00 0. -1.
         11    1    3    3    0    0 -0.28989604318E+02  0.46631047523E+02  0.25268826403E+02  0.60443075199E+02  0.00000000000E+00 0.  1.
<mgrwt>
<rscale>  0 0.12866894E+03</rscale>
<asrwt>0</asrwt>
<pdfrwt beam="1">  1        2 0.61887344E-01 0.13605951E+03</pdfrwt>
<pdfrwt beam="2">  1       -2 0.57987492E-02 0.13605951E+03</pdfrwt>
<totfact> 0.11718612E+04</totfact>
</mgrwt>
</event>
<event>
 7    1  0.1111284E-005  0.1345781E+03  0.7546771E-02  0.1233207E+00
          2   -1    0    0  501    0  0.00000000000E+00  0.00000000000E+00  0.30530965166E+02  0.30530965166E+02  0.00000000000E+00 0.  1.
         -2   -1    0    0    0  501 -0.00000000000E+00 -0.00000000000E+00 -0.47273590556E+03  0.47273590556E+03  0.00000000000E+00 0. -1.
         23    2    1    2    0    0  0.28326347730E+02  0.41057415768E+02 -0.22226871101E+03  0.24542349734E+03  0.91330278592E+02 0.  0.
          5    1    1    2  502    0 -0.48562343503E+02 -0.40615229024E+02 -0.36486537554E+02  0.73220594493E+02  0.47000000000E+01 0.  1.
         -5    1    1    2    0  502  0.20235995773E+02 -0.44218674346E+00 -0.18344969183E+03  0.18462277889E+03  0.47000000000E+01 0.  1.
        -11    1    3    3    0    0  0.29043176269E+02 -0.24259263772E+02 -0.66498954738E+02  0.76512279719E+02  0.00000000000E+00 0. -1.
         11    1    3    3    0    0 -0.71682853920E+00  0.65316679540E+02 -0.15576975628E+03  0.16891121762E+03  0.00000000000E+00 0.  1.
<mgrwt>
<rscale>  0 0.12619899E+03</rscale>
<asrwt>0</asrwt>
<pdfrwt beam="1">  1        2 0.46970716E-02 0.13457808E+03</pdfrwt>
<pdfrwt beam="2">  1       -2 0.72728601E-01 0.13457808E+03</pdfrwt>
<totfact> 0.28664977E+03</totfact>
</mgrwt>
</event>
<event>
 7    1  0.1111284E-005  0.1358094E+03  0.7546771E-02  0.1231217E+00
          2   -1    0    0  501    0  0.00000000000E+00  0.00000000000E+00  0.11375530540E+03  0.11375530540E+03  0.00000000000E+00 0. -1.
         -2   -1    0    0    0  501 -0.00000000000E+00 -0.00000000000E+00 -0.21345244428E+03  0.21345244428E+03  0.00000000000E+00 0.  1.
         23    2    1    2    0    0 -0.40987790153E+02  0.33758183479E+02  0.56952068059E+02  0.11988391192E+03  0.91153718454E+02 0.  0.
          5    1    1    2  502    0  0.43029836690E+02 -0.33356245109E+02 -0.42218677971E+01  0.54809854050E+02  0.47000000000E+01 0.  1.
         -5    1    1    2    0  502 -0.20420465367E+01 -0.40193837058E+00 -0.15242733914E+03  0.15251398371E+03  0.47000000000E+01 0.  1.
        -11    1    3    3    0    0  0.25542194297E+02  0.15204060275E+02 -0.97280936844E+00  0.29740771618E+02  0.00000000000E+00 0.  1.
         11    1    3    3    0    0 -0.66529984450E+02  0.18554123204E+02  0.57924877427E+02  0.90143140304E+02  0.00000000000E+00 0. -1.
<mgrwt>
<rscale>  0 0.12749776E+03</rscale>
<asrwt>0</asrwt>
<pdfrwt beam="1">  1        2 0.17500817E-01 0.13580942E+03</pdfrwt>
<pdfrwt beam="2">  1       -2 0.32838837E-01 0.13580942E+03</pdfrwt>
<totfact> 0.27094446E+03</totfact>
</mgrwt>
</event>
<event>
 7    1  0.1111284E-005  0.1654725E+03  0.7546771E-02  0.1187087E+00
         -2   -1    0    0    0  501 -0.00000000000E+00  0.00000000000E+00  0.60462808732E+02  0.60462808732E+02  0.00000000000E+00 0.  1.
          2   -1    0    0  501    0  0.00000000000E+00 -0.00000000000E+00 -0.78179059001E+03  0.78179059001E+03  0.00000000000E+00 0. -1.
         23    2    1    2    0    0 -0.37132654572E+02 -0.10186966447E+03 -0.64103667595E+03  0.65833005334E+03  0.10350930704E+03 0.  0.
          5    1    1    2  502    0  0.64842638635E+02  0.41416749217E+02  0.31153089551E+01  0.77147326919E+02  0.47000000000E+01 0. -1.
         -5    1    1    2    0  502 -0.27709984063E+02  0.60452915252E+02 -0.83406414283E+02  0.10677601848E+03  0.47000000000E+01 0. -1.
        -11    1    3    3    0    0 -0.69827178871E+02 -0.89351111383E+02 -0.44696739733E+03  0.46112830133E+03  0.00000000000E+00 0.  1.
         11    1    3    3    0    0  0.32694524299E+02 -0.12518553086E+02 -0.19406927862E+03  0.19720175201E+03  0.00000000000E+00 0. -1.
<mgrwt>
<rscale>  0 0.16143427E+03</rscale>
<asrwt>0</asrwt>
<pdfrwt beam="2">  1        2 0.12027546E+00 0.16547246E+03</pdfrwt>
<pdfrwt beam="1">  1       -2 0.93019714E-02 0.16547246E+03</pdfrwt>
<totfact> 0.26878246E+03</totfact>
</mgrwt>
</event>
<event>
 7    1  0.1111284E-005  0.1942649E+03  0.7546771E-02  0.1186323E+00
          2   -1    0    0  501    0  0.00000000000E+00  0.00000000000E+00  0.92473479361E+03  0.92473479361E+03  0.00000000000E+00 0. -1.
         -2   -1    0    0    0  501 -0.00000000000E+00 -0.00000000000E+00 -0.22505652924E+02  0.22505652924E+02  0.00000000000E+00 0.  1.
         23    2    1    2    0    0  0.46170499367E+01 -0.18587953238E+02  0.28782614192E+03  0.30285709722E+03  0.92258897703E+02 0.  0.
          5    1    1    2  502    0 -0.44353147045E+02 -0.20499469357E+02  0.57222679970E+03  0.57432832961E+03  0.47000000000E+01 0. -1.
         -5    1    1    2    0  502  0.39736097109E+02  0.39087422594E+02  0.42176199060E+02  0.70055019703E+02  0.47000000000E+01 0.  1.
        -11    1    3    3    0    0 -0.32603971094E+02 -0.11737811173E+01  0.39861783580E+02  0.51510760850E+02  0.00000000000E+00 0. -1.
         11    1    3    3    0    0  0.37221021030E+02 -0.17414172120E+02  0.24796435834E+03  0.25134633637E+03  0.00000000000E+00 0.  1.
<mgrwt>
<rscale>  0 0.16212068E+03</rscale>
<asrwt>0</asrwt>
<pdfrwt beam="1">  1        2 0.14226686E+00 0.19426491E+03</pdfrwt>
<pdfrwt beam="2">  1       -2 0.34624089E-02 0.19426491E+03</pdfrwt>
<totfact> 0.98210226E+03</totfact>
</mgrwt>
</event>
<event>
 7    1  0.1111284E-005  0.1519385E+03  0.7546771E-02  0.1206275E+00
          1   -1    0    0  501    0  0.00000000000E+00  0.00000000000E+00  0.76474845093E+03  0.76474845093E+03  0.00000000000E+00 0. -1.
         -1   -1    0    0    0  501 -0.00000000000E+00 -0.00000000000E+00 -0.30185369635E+02  0.30185369635E+02  0.00000000000E+00 0.  1.
         23    2    1    2    0    0  0.85246536984E+02 -0.64653726295E+01  0.49608851071E+03  0.51216988655E+03  0.94368475240E+02 0.  0.
          5    1    1    2  502    0  0.29736883433E+02 -0.10235156023E+01  0.89085815220E+02  0.94040960724E+02  0.47000000000E+01 0. -1.
         -5    1    1    2    0  502 -0.11498342042E+03  0.74888882318E+01  0.14938875536E+03  0.18872297329E+03  0.47000000000E+01 0.  1.
        -11    1    3    3    0    0  0.10381955802E+03  0.35958841966E+01  0.44336663685E+03  0.45537391853E+03  0.00000000000E+00 0. -1.
         11    1    3    3    0    0 -0.18573021038E+02 -0.10061256826E+02  0.52721873866E+02  0.56795968020E+02  0.00000000000E+00 0.  1.
<mgrwt>
<rscale>  0 0.14537437E+03</rscale>
<asrwt>0</asrwt>
<pdfrwt beam="1">  1        1 0.11765359E+00 0.15193855E+03</pdfrwt>
<pdfrwt beam="2">  1       -1 0.46439036E-02 0.15193855E+03</pdfrwt>
<totfact> 0.47433246E+03</totfact>
</mgrwt>
</event>
<event>
 7    1  0.1111284E-005  0.1386655E+03  0.7546771E-02  0.1226275E+00
         -2   -1    0    0    0  501 -0.00000000000E+00  0.00000000000E+00  0.46946244940E+02  0.46946244940E+02  0.00000000000E+00 0.  1.
          2   -1    0    0  501    0  0.00000000000E+00 -0.00000000000E+00 -0.32870961602E+03  0.32870961602E+03  0.00000000000E+00 0. -1.
         23    2    1    2    0    0 -0.42385462372E+02 -0.42351762025E+02 -0.12312497917E+03  0.16495641553E+03  0.91981842556E+02 0.  0.
          5    1    1    2  502    0  0.44296379821E+00  0.45400975622E+02 -0.16194548983E+03  0.16825539064E+03  0.47000000000E+01 0. -1.
         -5    1    1    2    0  502  0.41942498573E+02 -0.30492135969E+01  0.33070979242E+01  0.42444054788E+02  0.47000000000E+01 0. -1.
        -11    1    3    3    0    0 -0.57642707321E+02  0.67515387504E+01 -0.71550363310E+02  0.92128819989E+02  0.00000000000E+00 0.  1.
         11    1    3    3    0    0  0.15257244949E+02 -0.49103300775E+02 -0.51574615863E+02  0.72827595538E+02  0.00000000000E+00 0. -1.
<mgrwt>
<rscale>  0 0.13079873E+03</rscale>
<asrwt>0</asrwt>
<pdfrwt beam="2">  1        2 0.50570711E-01 0.13866549E+03</pdfrwt>
<pdfrwt beam="1">  1       -2 0.72224991E-02 0.13866549E+03</pdfrwt>
<totfact> 0.10412427E+04</totfact>
</mgrwt>
</event>
<event>
 7    1  0.1111284E-005  0.1252975E+03  0.7546771E-02  0.1251723E+00
          1   -1    0    0  501    0  0.00000000000E+00  0.00000000000E+00  0.14846166870E+02  0.14846166870E+02  0.00000000000E+00 0.  1.
         -1   -1    0    0    0  501 -0.00000000000E+00 -0.00000000000E+00 -0.80397267737E+03  0.80397267737E+03  0.00000000000E+00 0. -1.
         23    2    1    2    0    0  0.73601012657E+01  0.42819486167E+01 -0.24789820938E+03  0.26327628292E+03  0.88251757816E+02 0.  0.
          5    1    1    2  502    0 -0.67358360482E+01  0.22177337200E+02 -0.13702419179E+02  0.27332253180E+02  0.47000000000E+01 0.  1.
         -5    1    1    2    0  502 -0.62426521748E+00 -0.26459285816E+02 -0.52752588194E+03  0.52821030814E+03  0.47000000000E+01 0.  1.
        -11    1    3    3    0    0  0.45592656749E+02  0.16380251872E+02 -0.14226215687E+03  0.15028481054E+03  0.00000000000E+00 0.  1.
         11    1    3    3    0    0 -0.38232555484E+02 -0.12098303256E+02 -0.10563605251E+03  0.11299147237E+03  0.00000000000E+00 0. -1.
<mgrwt>
<rscale>  0 0.11491870E+03</rscale>
<asrwt>0</asrwt>
<pdfrwt beam="1">  1        1 0.22840257E-02 0.12529750E+03</pdfrwt>
<pdfrwt beam="2">  1       -1 0.12368810E+00 0.12529750E+03</pdfrwt>
<totfact> 0.29534818E+03</totfact>
</mgrwt>
</event>
<event>
 7    1  0.1111284E-005  0.1614249E+03  0.7546771E-02  0.1210584E+00
         -1   -1    0    0    0  501 -0.00000000000E+00  0.00000000000E+00  0.23491735937E+02  0.23491735937E+02  0.00000000000E+00 0.  1.
          1   -1    0    0  501    0  0.00000000000E+00 -0.00000000000E+00 -0.75288670147E+03  0.75288670147E+03  0.00000000000E+00 0. -1.
         23    2    1    2    0    0 -0.30098323886E+02  0.23201267688E+02 -0.36884478389E+03  0.38134118553E+03  0.89052890223E+02 0.  0.
          5    1    1    2  502    0 -0.52623595026E+02  0.58782776405E+01 -0.52490130272E+02  0.74706764603E+02  0.47000000000E+01 0. -1.
         -5    1    1    2    0  502  0.82721918912E+02 -0.29079545328E+02 -0.30806005137E+03  0.32033048727E+03  0.47000000000E+01 0.  1.
        -11    1    3    3    0    0 -0.41884873716E+02 -0.23806153173E+02 -0.17217793844E+03  0.17879126953E+03  0.00000000000E+00 0. -1.
         11    1    3    3    0    0  0.11786549830E+02  0.47007420860E+02 -0.19666684545E+03  0.20254991600E+03  0.00000000000E+00 0.  1.
<mgrwt>
<rscale>  0 0.14206010E+03</rscale>
<asrwt>0</asrwt>
<pdfrwt beam="2">  1        1 0.11582872E+00 0.16142490E+03</pdfrwt>
<pdfrwt beam="1">  1       -1 0.36141132E-02 0.16142490E+03</pdfrwt>
<totfact> 0.70459272E+03</totfact>
</mgrwt>
</event>
<event>
 7    1  0.1111284E-005  0.1647958E+03  0.7546771E-02  0.1190163E+00
         -2   -1    0    0    0  501 -0.00000000000E+00  0.00000000000E+00  0.98144354443E+02  0.98144354443E+02  0.00000000000E+00 0.  1.
          2   -1    0    0  501    0  0.00000000000E+00 -0.00000000000E+00 -0.25334973781E+03  0.25334973781E+03  0.00000000000E+00 0. -1.
         23    2    1    2    0    0 -0.81404347621E+02 -0.70024484425E+02 -0.11324109363E+03  0.18143921359E+03  0.92555641164E+02 0.  0.
          5    1    1    2  502    0  0.10045614034E+03  0.47466094541E+02  0.83599540816E+01  0.11151881050E+03  0.47000000000E+01 0.  1.
         -5    1    1    2    0  502 -0.19051792719E+02  0.22558389884E+02 -0.50324243814E+02  0.58536068158E+02  0.47000000000E+01 0.  1.
        -11    1    3    3    0    0 -0.32126788546E+02 -0.75478184142E+02 -0.10147318148E+03  0.13048330691E+03  0.00000000000E+00 0. -1.
         11    1    3    3    0    0 -0.49277559076E+02  0.54536997174E+01 -0.11767912155E+02  0.50955906680E+02  0.00000000000E+00 0.  1.
<mgrwt>
<rscale>  0 0.15870846E+03</rscale>
<asrwt>0</asrwt>
<pdfrwt beam="2">  1        2 0.38976882E-01 0.16479581E+03</pdfrwt>
<pdfrwt beam="1">  1       -2 0.15099132E-01 0.16479581E+03</pdfrwt>
<totfact> 0.43199096E+03</totfact>
</mgrwt>
</event>
<event>
 7    1  0.1111284E-005  0.1294546E+03  0.7546771E-02  0.1242028E+00
          2   -1    0    0  501    0  0.00000000000E+00  0.00000000000E+00  0.56956362111E+03  0.56956362111E+03  0.00000000000E+00 0.  1.
         -2   -1    0    0    0  501 -0.00000000000E+00 -0.00000000000E+00 -0.23407823053E+02  0.23407823053E+02  0.00000000000E+00 0. -1.
         23    2    1    2    0    0 -0.14130859012E+02  0.30539471317E+02  0.28920593453E+03  0.30525330325E+03  0.91690599816E+02 0.  0.
          5    1    1    2  502    0 -0.10493662347E+02 -0.69263099780E+02  0.21194268853E+03  0.22326953927E+03  0.47000000000E+01 0. -1.
         -5    1    1    2    0  502  0.24624521358E+02  0.38723628463E+02  0.45007174999E+02  0.64448601652E+02  0.47000000000E+01 0. -1.
        -11    1    3    3    0    0 -0.34111285363E+02 -0.12328574740E+02  0.20913830657E+03  0.21226022901E+03  0.00000000000E+00 0. -1.
         11    1    3    3    0    0  0.19980426352E+02  0.42868046057E+02  0.80067627955E+02  0.92993074238E+02  0.00000000000E+00 0.  1.
<mgrwt>
<rscale>  0 0.12065043E+03</rscale>
<asrwt>0</asrwt>
<pdfrwt beam="1">  1        2 0.87625162E-01 0.12945461E+03</pdfrwt>
<pdfrwt beam="2">  1       -2 0.36012040E-02 0.12945461E+03</pdfrwt>
<totfact> 0.16274231E+04</totfact>
</mgrwt>
</event>
<event>
 7    1  0.1111284E-005  0.2282004E+03  0.7546771E-02  0.1131013E+00
          2   -1    0    0  501    0  0.00000000000E+00  0.00000000000E+00  0.51842387188E+03  0.51842387188E+03  0.00000000000E+00 0.  1.
         -2   -1    0    0    0  501 -0.00000000000E+00 -0.00000000000E+00 -0.94491885064E+02  0.94491885064E+02  0.00000000000E+00 0. -1.
         23    2    1    2    0    0  0.18793812182E+03 -0.33646141894E+02  0.23963046223E+03  0.31958581158E+03  0.90881967628E+02 0.  0.
          5    1    1    2  502    0 -0.54575219919E+01 -0.33054569245E+02  0.28867578825E+02  0.44472645541E+02  0.47000000000E+01 0. -1.
         -5    1    1    2    0  502 -0.18248059983E+03  0.66700711139E+02  0.15543394576E+03  0.24885729982E+03  0.47000000000E+01 0. -1.
        -11    1    3    3    0    0  0.89276532643E+02  0.29098053616E+02  0.11907261205E+03  0.15164195641E+03  0.00000000000E+00 0.  1.
         11    1    3    3    0    0  0.98661589174E+02 -0.62744195510E+02  0.12055785018E+03  0.16794385517E+03  0.00000000000E+00 0. -1.
<mgrwt>
<rscale>  0 0.22389308E+03</rscale>
<asrwt>0</asrwt>
<pdfrwt beam="1">  1        2 0.79757517E-01 0.22820036E+03</pdfrwt>
<pdfrwt beam="2">  1       -2 0.14537213E-01 0.22820036E+03</pdfrwt>
<totfact> 0.21426168E+03</totfact>
</mgrwt>
</event>
<event>
 7    1  0.1111284E-005  0.2185278E+03  0.7546771E-02  0.1168695E+00
          1   -1    0    0  501    0  0.00000000000E+00  0.00000000000E+00  0.28258049744E+02  0.28258049744E+02  0.00000000000E+00 0. -1.
         -1   -1    0    0    0  501 -0.00000000000E+00 -0.00000000000E+00 -0.15297579173E+04  0.15297579173E+04  0.00000000000E+00 0.  1.
         23    2    1    2    0    0  0.42920711200E+01  0.38291845427E+02 -0.10303874040E+03  0.14258390078E+03  0.90711076712E+02 0.  0.
          5    1    1    2  502    0 -0.27484458313E+02  0.86818793546E+02 -0.59101653743E+03  0.59800964531E+03  0.47000000000E+01 0. -1.
         -5    1    1    2    0  502  0.23192387193E+02 -0.12511063897E+03 -0.80744458971E+03  0.81742242094E+03  0.47000000000E+01 0.  1.
        -11    1    3    3    0    0 -0.31552821517E+01  0.16514458984E+02  0.14872655229E+02  0.22447250044E+02  0.00000000000E+00 0. -1.
         11    1    3    3    0    0  0.74473532717E+01  0.21777386444E+02 -0.11791139563E+03  0.12013665074E+03  0.00000000000E+00 0.  1.
<mgrwt>
<rscale>  0 0.17908131E+03</rscale>
<asrwt>0</asrwt>
<pdfrwt beam="1">  1        1 0.43473906E-02 0.21852782E+03</pdfrwt>
<pdfrwt beam="2">  1       -1 0.23534746E+00 0.21852782E+03</pdfrwt>
<totfact> 0.19955254E+02</totfact>
</mgrwt>
</event>
<event>
 7    1  0.1111284E-005  0.1712122E+03  0.7546771E-02  0.1203403E+00
          2   -1    0    0  501    0  0.00000000000E+00  0.00000000000E+00  0.44187902643E+03  0.44187902643E+03  0.00000000000E+00 0. -1.
         -2   -1    0    0    0  501 -0.00000000000E+00 -0.00000000000E+00 -0.70224065806E+02  0.70224065806E+02  0.00000000000E+00 0.  1.
         23    2    1    2    0    0 -0.20857925713E+02 -0.97820612142E+01  0.31933912543E+03  0.33307635474E+03  0.91823958045E+02 0.  0.
          5    1    1    2  502    0 -0.64437512798E+02 -0.16338462933E+02  0.59593871145E+02  0.89401666118E+02  0.47000000000E+01 0. -1.
         -5    1    1    2    0  502  0.85295438511E+02  0.26120524147E+02 -0.72780359479E+01  0.89625071379E+02  0.47000000000E+01 0.  1.
        -11    1    3    3    0    0 -0.39585907000E+02 -0.33606806403E+02  0.27168322272E+03  0.27660122013E+03  0.00000000000E+00 0. -1.
         11    1    3    3    0    0  0.18727981287E+02  0.23824745189E+02  0.47655902712E+02  0.56475134614E+02  0.00000000000E+00 0.  1.
<mgrwt>
<rscale>  0 0.14763999E+03</rscale>
<asrwt>0</asrwt>
<pdfrwt beam="1">  1        2 0.67981387E-01 0.17121223E+03</pdfrwt>
<pdfrwt beam="2">  1       -2 0.10803703E-01 0.17121223E+03</pdfrwt>
<totfact> 0.40942674E+03</totfact>
</mgrwt>
</event>
<event>
 7    1  0.1111284E-005  0.1276495E+03  0.7546771E-02  0.1246181E+00
         -2   -1    0    0    0  501 -0.00000000000E+00  0.00000000000E+00  0.18149994514E+03  0.18149994514E+03  0.00000000000E+00 0.  1.
          2   -1    0    0  501    0  0.00000000000E+00 -0.00000000000E+00 -0.94170844952E+02  0.94170844952E+02  0.00000000000E+00 0. -1.
         23    2    1    2    0    0  0.25852614818E+02  0.11596314654E+01 -0.33897980055E+02  0.99629898912E+02  0.90040775581E+02 0.  0.
          5    1    1    2  502    0  0.45402042776E+02 -0.10004349579E+02  0.81243159019E+02  0.93722854129E+02  0.47000000000E+01 0.  1.
         -5    1    1    2    0  502 -0.71254657595E+02  0.88447181137E+01  0.39983921224E+02  0.82318037051E+02  0.47000000000E+01 0.  1.
        -11    1    3    3    0    0 -0.23763575446E+02 -0.24325100460E+02  0.66201559618E+00  0.34012590242E+02  0.00000000000E+00 0.  1.
         11    1    3    3    0    0  0.49616190264E+02  0.25484731925E+02 -0.34559995652E+02  0.65617308670E+02  0.00000000000E+00 0. -1.
<mgrwt>
<rscale>  0 0.11814976E+03</rscale>
<asrwt>0</asrwt>
<pdfrwt beam="2">  1        2 0.14487822E-01 0.12764948E+03</pdfrwt>
<pdfrwt beam="1">  1       -2 0.27923068E-01 0.12764948E+03</pdfrwt>
<totfact> 0.45013028E+03</totfact>
</mgrwt>
</event>
<event>
 7    1  0.1111284E-005  0.1391184E+03  0.7546771E-02  0.1225466E+00
         -2   -1    0    0    0  501 -0.00000000000E+00  0.00000000000E+00  0.48733308196E+02  0.48733308196E+02  0.00000000000E+00 0.  1.
          2   -1    0    0  501    0  0.00000000000E+00 -0.00000000000E+00 -0.42186707710E+03  0.42186707710E+03  0.00000000000E+00 0. -1.
         23    2    1    2    0    0  0.39764359595E+02 -0.46345632218E+02 -0.28556159588E+03  0.30621419222E+03  0.92155219901E+02 0.  0.
          5    1    1    2  502    0 -0.51793870173E+02  0.18433078635E+02  0.15100723784E+02  0.57205814689E+02  0.47000000000E+01 0. -1.
         -5    1    1    2    0  502  0.12029510578E+02  0.27912553584E+02 -0.10267289681E+03  0.10718037839E+03  0.47000000000E+01 0. -1.
        -11    1    3    3    0    0  0.15929762238E+02 -0.72309425925E+02 -0.21393155188E+03  0.22638268329E+03  0.00000000000E+00 0. -1.
         11    1    3    3    0    0  0.23834597357E+02  0.25963793706E+02 -0.71630043992E+02  0.79831508924E+02  0.00000000000E+00 0.  1.
<mgrwt>
<rscale>  0 0.13134996E+03</rscale>
<asrwt>0</asrwt>
<pdfrwt beam="2">  1        2 0.64902626E-01 0.13911842E+03</pdfrwt>
<pdfrwt beam="1">  1       -2 0.74974321E-02 0.13911842E+03</pdfrwt>
<totfact> 0.75365814E+03</totfact>
</mgrwt>
</event>
<event>
 7    1  0.1111284E-005  0.1322411E+03  0.7546771E-02  0.1237546E+00
         -2   -1    0    0    0  501 -0.00000000000E+00  0.00000000000E+00  0.34402659837E+02  0.34402659837E+02  0.00000000000E+00 0. -1.
          2   -1    0    0  501    0  0.00000000000E+00 -0.00000000000E+00 -0.43573726307E+03  0.43573726307E+03  0.00000000000E+00 0.  1.
         23    2    1    2    0    0 -0.41516921055E+02  0.11559981741E+02 -0.24870334979E+03  0.26818942538E+03  0.90636216714E+02 0.  0.
          5    1    1    2  502    0 -0.44121048156E+02 -0.13345226354E+02 -0.57700270737E+02  0.74001170261E+02  0.47000000000E+01 0. -1.
         -5    1    1    2    0  502  0.85637969211E+02  0.17852446127E+01 -0.94930982707E+02  0.12794932726E+03  0.47000000000E+01 0. -1.
        -11    1    3    3    0    0 -0.12930341665E+02  0.46600883823E+02 -0.17639373726E+03  0.18290321663E+03  0.00000000000E+00 0.  1.
         11    1    3    3    0    0 -0.28586579390E+02 -0.35040902082E+02 -0.72309612529E+02  0.85286208756E+02  0.00000000000E+00 0. -1.
<mgrwt>
<rscale>  0 0.12342849E+03</rscale>
<asrwt>0</asrwt>
<pdfrwt beam="2">  1        2 0.67036508E-01 0.13224108E+03</pdfrwt>
<pdfrwt beam="1">  1       -2 0.52927165E-02 0.13224108E+03</pdfrwt>
<totfact> 0.12318399E+04</totfact>
</mgrwt>
</event>
<event>
 7    1  0.1111284E-005  0.1379589E+03  0.7546771E-02  0.1226493E+00
          1   -1    0    0  501    0  0.00000000000E+00  0.00000000000E+00  0.56509316115E+02  0.56509316115E+02  0.00000000000E+00 0. -1.
         -1   -1    0    0    0  501 -0.00000000000E+00 -0.00000000000E+00 -0.28735113680E+03  0.28735113680E+03  0.00000000000E+00 0.  1.
         23    2    1    2    0    0 -0.33435013649E+02  0.47853884205E+02 -0.66821385864E+02  0.12953505802E+03  0.94373403439E+02 0.  0.
          5    1    1    2  502    0  0.28079158924E+02  0.10503733226E+02 -0.15111864572E+03  0.15413533878E+03  0.47000000000E+01 0. -1.
         -5    1    1    2    0  502  0.53558547255E+01 -0.58357617431E+02 -0.12901789096E+02  0.60190056105E+02  0.47000000000E+01 0. -1.
        -11    1    3    3    0    0 -0.70847745393E+01  0.73300261357E+02 -0.37654296886E+02  0.82710147015E+02  0.00000000000E+00 0. -1.
         11    1    3    3    0    0 -0.26350239110E+02 -0.25446377152E+02 -0.29167088978E+02  0.46824911006E+02  0.00000000000E+00 0.  1.
<mgrwt>
<rscale>  0 0.13065118E+03</rscale>
<asrwt>0</asrwt>
<pdfrwt beam="1">  1        1 0.86937408E-02 0.13795895E+03</pdfrwt>
<pdfrwt beam="2">  1       -1 0.44207868E-01 0.13795895E+03</pdfrwt>
<totfact> 0.38403228E+03</totfact>
</mgrwt>
</event>
<event>
 7    1  0.1111284E-005  0.1489656E+03  0.7546771E-02  0.1213179E+00
          3   -1    0    0  501    0  0.00000000000E+00  0.00000000000E+00  0.45899354751E+02  0.45899354751E+02  0.00000000000E+00 0. -1.
         -3   -1    0    0    0  501 -0.00000000000E+00 -0.00000000000E+00 -0.38713606185E+03  0.38713606185E+03  0.00000000000E+00 0.  1.
         23    2    1    2    0    0 -0.81028382867E+02  0.14653902084E+00 -0.16906229384E+03  0.20536286342E+03  0.83822587458E+02 0.  0.
          5    1    1    2  502    0  0.70152791631E+02 -0.24639556794E+02 -0.18361720092E+03  0.19815622222E+03  0.47000000000E+01 0. -1.
         -5    1    1    2    0  502  0.10875591235E+02  0.24493017774E+02  0.11442787655E+02  0.29516330966E+02  0.47000000000E+01 0. -1.
        -11    1    3    3    0    0 -0.31441782827E+02  0.32642217183E+02 -0.30441939189E+02  0.54596810452E+02  0.00000000000E+00 0. -1.
         11    1    3    3    0    0 -0.49586600040E+02 -0.32495678162E+02 -0.13862035465E+03  0.15076605296E+03  0.00000000000E+00 0.  1.
<mgrwt>
<rscale>  0 0.14011170E+03</rscale>
<asrwt>0</asrwt>
<pdfrwt beam="1">  1        3 0.70614390E-02 0.14896564E+03</pdfrwt>
<pdfrwt beam="2">  1       -3 0.59559395E-01 0.14896564E+03</pdfrwt>
<totfact> 0.85624662E+02</totfact>
</mgrwt>
</event>
<event>
 7    1  0.1111284E-005  0.1424522E+03  0.7546771E-02  0.1218247E+00
         -1   -1    0    0    0  501 -0.00000000000E+00  0.00000000000E+00  0.27201126152E+02  0.27201126152E+02  0.00000000000E+00 0.  1.
          1   -1    0    0  501    0  0.00000000000E+00 -0.00000000000E+00 -0.65003952292E+03  0.65003952292E+03  0.00000000000E+00 0. -1.
         23    2    1    2    0    0 -0.33994356218E+02 -0.59256650090E+02 -0.34150245528E+03  0.36189552445E+03  0.98374167457E+02 0.  0.
          5    1    1    2  502    0 -0.67349788013E+01  0.90383636003E+02 -0.18780489349E+03  0.20858410682E+03  0.47000000000E+01 0.  1.
         -5    1    1    2    0  502  0.40729335019E+02 -0.31126985913E+02 -0.93531048004E+02  0.10676101781E+03  0.47000000000E+01 0.  1.
        -11    1    3    3    0    0 -0.32384786317E+02 -0.86538756895E+02 -0.26736216176E+03  0.28287851875E+03  0.00000000000E+00 0.  1.
         11    1    3    3    0    0 -0.16095699009E+01  0.27282106805E+02 -0.74140293520E+02  0.79017005703E+02  0.00000000000E+00 0. -1.
<mgrwt>
<rscale>  0 0.13640723E+03</rscale>
<asrwt>0</asrwt>
<pdfrwt beam="2">  1        1 0.10000608E+00 0.14245222E+03</pdfrwt>
<pdfrwt beam="1">  1       -1 0.41847887E-02 0.14245222E+03</pdfrwt>
<totfact> 0.69657258E+03</totfact>
</mgrwt>
</event>
<event>
 7    1  0.1316442E-005  0.1759594E+03  0.7546771E-02  0.1177521E+00
          1   -1    0    0  501    0  0.00000000000E+00  0.00000000000E+00  0.56066941588E+03  0.56066941588E+03  0.00000000000E+00 0. -1.
         -1   -1    0    0    0  501 -0.00000000000E+00 -0.00000000000E+00 -0.48756122084E+02  0.48756122084E+02  0.00000000000E+00 0.  1.
         23    2    1    2    0    0  0.21523294082E+02  0.12195785307E+03  0.25165312287E+03  0.29526462003E+03  0.92276386356E+02 0.  0.
          5    1    1    2  502    0  0.28523693704E+02  0.58050085238E+00  0.92630248451E+01  0.30361681657E+02  0.47000000000E+01 0.  1.
         -5    1    1    2    0  502 -0.50046987786E+02 -0.12253835392E+03  0.25099714608E+03  0.28379923627E+03  0.47000000000E+01 0.  1.
        -11    1    3    3    0    0  0.62189281806E+00  0.69885354505E+02  0.22001625019E+03  0.23084951780E+03  0.00000000000E+00 0. -1.
         11    1    3    3    0    0  0.20901401263E+02  0.52072498566E+02  0.31636872683E+02  0.64415102226E+02  0.00000000000E+00 0.  1.
<mgrwt>
<rscale>  0 0.17031379E+03</rscale>
<asrwt>0</asrwt>
<pdfrwt beam="1">  1        1 0.86256829E-01 0.17595944E+03</pdfrwt>
<pdfrwt beam="2">  1       -1 0.75009423E-02 0.17595944E+03</pdfrwt>
<totfact> 0.36074746E+03</totfact>
</mgrwt>
</event>
<event>
 7    1  0.1111284E-005  0.1371212E+03  0.7546771E-02  0.1228505E+00
          1   -1    0    0  501    0  0.00000000000E+00  0.00000000000E+00  0.17200009270E+03  0.17200009270E+03  0.00000000000E+00 0. -1.
         -1   -1    0    0    0  501 -0.00000000000E+00 -0.00000000000E+00 -0.87979206126E+02  0.87979206126E+02  0.00000000000E+00 0.  1.
         23    2    1    2    0    0 -0.35723362487E+02 -0.43525615817E+02  0.45415855984E+02  0.11752731944E+03  0.92625228642E+02 0.  0.
          5    1    1    2  502    0 -0.97637270571E-01  0.81744714359E+02  0.36957492900E+02  0.89834036646E+02  0.47000000000E+01 0. -1.
         -5    1    1    2    0  502  0.35820999757E+02 -0.38219098543E+02  0.16475376869E+01  0.52617942733E+02  0.47000000000E+01 0. -1.
        -11    1    3    3    0    0  0.81618690720E+01 -0.62469866264E+01  0.57735159503E+02  0.58642898901E+02  0.00000000000E+00 0. -1.
         11    1    3    3    0    0 -0.43885231559E+02 -0.37278629190E+02 -0.12319303519E+02  0.58884420541E+02  0.00000000000E+00 0.  1.
<mgrwt>
<rscale>  0 0.12929552E+03</rscale>
<asrwt>0</asrwt>
<pdfrwt beam="1">  1        1 0.26461553E-01 0.13712118E+03</pdfrwt>
<pdfrwt beam="2">  1       -1 0.13535263E-01 0.13712118E+03</pdfrwt>
<totfact> 0.64061993E+03</totfact>
</mgrwt>
</event>
<event>
 7    1  0.1111284E-005  0.1818264E+03  0.7546771E-02  0.1170819E+00
         -2   -1    0    0    0  501 -0.00000000000E+00  0.00000000000E+00  0.27452587588E+02  0.27452587588E+02  0.00000000000E+00 0.  1.
          2   -1    0    0  501    0  0.00000000000E+00 -0.00000000000E+00 -0.12451450963E+04  0.12451450963E+04  0.00000000000E+00 0. -1.
         23    2    1    2    0    0 -0.13392839164E+03 -0.14208587345E+02 -0.80945483169E+03  0.82569852966E+03  0.91772759021E+02 0.  0.
          5    1    1    2  502    0  0.74533548809E+02 -0.41502982295E+02 -0.29644182797E+03  0.30850866245E+03  0.47000000000E+01 0. -1.
         -5    1    1    2    0  502  0.59394842831E+02  0.55711569639E+02 -0.11179584902E+03  0.13839049174E+03  0.47000000000E+01 0.  1.
        -11    1    3    3    0    0  0.10039467625E+02  0.11277216819E+02 -0.47454628955E+02  0.49798678081E+02  0.00000000000E+00 0.  1.
         11    1    3    3    0    0 -0.14396785926E+03 -0.25485804164E+02 -0.76200020274E+03  0.77589985158E+03  0.00000000000E+00 0. -1.
<mgrwt>
<rscale>  0 0.17691848E+03</rscale>
<asrwt>0</asrwt>
<pdfrwt beam="2">  1        2 0.19156079E+00 0.18182644E+03</pdfrwt>
<pdfrwt beam="1">  1       -2 0.42234748E-02 0.18182644E+03</pdfrwt>
<totfact> 0.47216521E+03</totfact>
</mgrwt>
</event>
<event>
 7    1  0.1111284E-005  0.1429127E+03  0.7546771E-02  0.1220167E+00
          2   -1    0    0  501    0  0.00000000000E+00  0.00000000000E+00  0.24001323150E+03  0.24001323150E+03  0.00000000000E+00 0. -1.
         -2   -1    0    0    0  501 -0.00000000000E+00 -0.00000000000E+00 -0.81568051979E+02  0.81568051979E+02  0.00000000000E+00 0.  1.
         23    2    1    2    0    0  0.49952396203E+02  0.47990836815E+02  0.13519052776E+03  0.17678896589E+03  0.90440573636E+02 0.  0.
          5    1    1    2  502    0 -0.70037129966E+01  0.42108543617E+02  0.86562641738E+01  0.43808701769E+02  0.47000000000E+01 0. -1.
         -5    1    1    2    0  502 -0.42948683206E+02 -0.90099380432E+02  0.14598387583E+02  0.10098361582E+03  0.47000000000E+01 0. -1.
        -11    1    3    3    0    0  0.50770397716E+01  0.36415732008E+02  0.32095861367E+01  0.36907767661E+02  0.00000000000E+00 0.  1.
         11    1    3    3    0    0  0.44875356431E+02  0.11575104807E+02  0.13198094163E+03  0.13988119823E+03  0.00000000000E+00 0. -1.
<mgrwt>
<rscale>  0 0.13503722E+03</rscale>
<asrwt>0</asrwt>
<pdfrwt beam="1">  1        2 0.36925112E-01 0.14291269E+03</pdfrwt>
<pdfrwt beam="2">  1       -2 0.12548931E-01 0.14291269E+03</pdfrwt>
<totfact> 0.61309229E+03</totfact>
</mgrwt>
</event>
<event>
 7    1  0.1111284E-005  0.1333117E+03  0.7546771E-02  0.1229347E+00
         -1   -1    0    0    0  501 -0.00000000000E+00  0.00000000000E+00  0.55863077883E+02  0.55863077883E+02  0.00000000000E+00 0.  1.
          1   -1    0    0  501    0  0.00000000000E+00 -0.00000000000E+00 -0.27873155314E+03  0.27873155314E+03  0.00000000000E+00 0. -1.
         23    2    1    2    0    0  0.44401189328E+02  0.13506530859E+02 -0.95075892207E+02  0.14992477810E+03  0.10622674720E+03 0.  0.
          5    1    1    2  502    0  0.41206827213E+02 -0.22088441201E+02 -0.49424169276E+02  0.68196336795E+02  0.47000000000E+01 0. -1.
         -5    1    1    2    0  502 -0.85608016542E+02  0.85819103424E+01 -0.78368413772E+02  0.11647351612E+03  0.47000000000E+01 0. -1.
        -11    1    3    3    0    0  0.27900100183E+02 -0.22250924148E+02 -0.10364966763E+03  0.10962104184E+03  0.00000000000E+00 0. -1.
         11    1    3    3    0    0  0.16501089145E+02  0.35757455006E+02  0.85737754192E+01  0.40303736259E+02  0.00000000000E+00 0.  1.
<mgrwt>
<rscale>  0 0.12873395E+03</rscale>
<asrwt>0</asrwt>
<pdfrwt beam="2">  1        1 0.42881777E-01 0.13331170E+03</pdfrwt>
<pdfrwt beam="1">  1       -1 0.85943197E-02 0.13331170E+03</pdfrwt>
<totfact> 0.70495177E+03</totfact>
</mgrwt>
</event>
<event>
 7    1  0.1111284E-005  0.2302665E+03  0.7546771E-02  0.1126452E+00
         -1   -1    0    0    0  501 -0.00000000000E+00  0.00000000000E+00  0.16270982447E+02  0.16270982447E+02  0.00000000000E+00 0.  1.
          1   -1    0    0  501    0  0.00000000000E+00 -0.00000000000E+00 -0.81468108611E+03  0.81468108611E+03  0.00000000000E+00 0. -1.
         23    2    1    2    0    0  0.29979257584E+01 -0.30005581574E+02 -0.41332012293E+03  0.42496049036E+03  0.94066847823E+02 0.  0.
          5    1    1    2  502    0 -0.46156241779E+02  0.54434613875E+02 -0.15698568749E+03  0.17251122259E+03  0.47000000000E+01 0. -1.
         -5    1    1    2    0  502  0.43158316021E+02 -0.24429032302E+02 -0.22810429325E+03  0.23348035562E+03  0.47000000000E+01 0. -1.
        -11    1    3    3    0    0  0.40110894586E+02 -0.43486389424E+02 -0.25869457666E+03  0.26537300903E+03  0.00000000000E+00 0.  1.
         11    1    3    3    0    0 -0.37112968828E+02  0.13480807851E+02 -0.15462554628E+03  0.15958748133E+03  0.00000000000E+00 0. -1.
<mgrwt>
<rscale>  0 0.23026647E+03</rscale>
<asrwt>0</asrwt>
<pdfrwt beam="2">  1        1 0.12533550E+00 0.23026647E+03</pdfrwt>
<pdfrwt beam="1">  1       -1 0.25032292E-02 0.23026647E+03</pdfrwt>
<totfact> 0.10923254E+04</totfact>
</mgrwt>
</event>
<event>
 7    1  0.1111284E-005  0.1713499E+03  0.7546771E-02  0.1182729E+00
          1   -1    0    0  501    0  0.00000000000E+00  0.00000000000E+00  0.72977366906E+03  0.72977366906E+03  0.00000000000E+00 0. -1.
         -1   -1    0    0    0  501 -0.00000000000E+00 -0.00000000000E+00 -0.36977376280E+02  0.36977376280E+02  0.00000000000E+00 0.  1.
         23    2    1    2    0    0 -0.73897867153E+02 -0.90965117949E+02  0.40925508494E+03  0.43545602156E+03  0.91633371158E+02 0.  0.
          5    1    1    2  502    0 -0.12203482784E+02 -0.65554776833E+01 -0.44161263263E+01  0.15280427070E+02  0.47000000000E+01 0.  1.
         -5    1    1    2    0  502  0.86101349937E+02  0.97520595633E+02  0.28795733417E+03  0.31601459671E+03  0.47000000000E+01 0.  1.
        -11    1    3    3    0    0 -0.71452752373E+02 -0.17514404120E+02  0.23764504392E+03  0.24877181728E+03  0.00000000000E+00 0.  1.
         11    1    3    3    0    0 -0.24451147799E+01 -0.73450713829E+02  0.17161004101E+03  0.18668420427E+03  0.00000000000E+00 0. -1.
<mgrwt>
<rscale>  0 0.16540207E+03</rscale>
<asrwt>0</asrwt>
<pdfrwt beam="1">  1        1 0.11227286E+00 0.17134987E+03</pdfrwt>
<pdfrwt beam="2">  1       -1 0.56888277E-02 0.17134987E+03</pdfrwt>
<totfact> 0.37750491E+03</totfact>
</mgrwt>
</event>
<event>
 7    1  0.1111284E-005  0.1443467E+03  0.7546771E-02  0.1229516E+00
         -1   -1    0    0    0  501 -0.00000000000E+00  0.00000000000E+00  0.10521319938E+03  0.10521319938E+03  0.00000000000E+00 0.  1.
          1   -1    0    0  501    0  0.00000000000E+00 -0.00000000000E+00 -0.15695987853E+03  0.15695987853E+03  0.00000000000E+00 0. -1.
         23    2    1    2    0    0 -0.17755782255E+02  0.20604925781E+01 -0.72492673861E+02  0.11634319735E+03  0.89224651149E+02 0.  0.
          5    1    1    2  502    0  0.72437257919E+02 -0.34675695664E+02  0.13605895135E+02  0.81589034723E+02  0.47000000000E+01 0. -1.
         -5    1    1    2    0  502 -0.54681475664E+02  0.32615203086E+02  0.71400995757E+01  0.64240845847E+02  0.47000000000E+01 0.  1.
        -11    1    3    3    0    0 -0.22350464779E+02 -0.38316296893E+02 -0.16872125872E+02  0.47458935037E+02  0.00000000000E+00 0.  1.
         11    1    3    3    0    0  0.45946825234E+01  0.40376789472E+02 -0.55620547989E+02  0.68884262311E+02  0.00000000000E+00 0. -1.
<mgrwt>
<rscale>  0 0.12862117E+03</rscale>
<asrwt>0</asrwt>
<pdfrwt beam="2">  1        1 0.24147673E-01 0.14434666E+03</pdfrwt>
<pdfrwt beam="1">  1       -1 0.16186646E-01 0.14434666E+03</pdfrwt>
<totfact> 0.54474121E+03</totfact>
</mgrwt>
</event>
<event>
 7    1  0.1111284E-005  0.1480009E+03  0.7546771E-02  0.1226311E+00
          1   -1    0    0  501    0  0.00000000000E+00  0.00000000000E+00  0.58019312763E+02  0.58019312763E+02  0.00000000000E+00 0. -1.
         -1   -1    0    0    0  501 -0.00000000000E+00 -0.00000000000E+00 -0.25843775899E+03  0.25843775899E+03  0.00000000000E+00 0.  1.
         23    2    1    2    0    0 -0.37107865804E+01 -0.12101753281E+02 -0.41537297860E+02  0.99322353447E+02  0.89327265777E+02 0.  0.
          5    1    1    2  502    0  0.59834860439E+02  0.34490195995E+02 -0.13552933215E+03  0.15218434222E+03  0.47000000000E+01 0. -1.
         -5    1    1    2    0  502 -0.56124073859E+02 -0.22388442714E+02 -0.23351816221E+02  0.64950376092E+02  0.47000000000E+01 0.  1.
        -11    1    3    3    0    0  0.20527913997E+02 -0.10953737981E+02  0.21559357138E+02  0.31720427315E+02  0.00000000000E+00 0. -1.
         11    1    3    3    0    0 -0.24238700578E+02 -0.11480152999E+01 -0.63096654998E+02  0.67601926132E+02  0.00000000000E+00 0.  1.
<mgrwt>
<rscale>  0 0.13077464E+03</rscale>
<asrwt>0</asrwt>
<pdfrwt beam="1">  1        1 0.89260481E-02 0.14800090E+03</pdfrwt>
<pdfrwt beam="2">  1       -1 0.39759656E-01 0.14800090E+03</pdfrwt>
<totfact> 0.44914960E+03</totfact>
</mgrwt>
</event>
<event>
 7    1  0.1111284E-005  0.1548928E+03  0.7546771E-02  0.1202860E+00
         -1   -1    0    0    0  501 -0.00000000000E+00  0.00000000000E+00  0.20557680124E+03  0.20557680124E+03  0.00000000000E+00 0.  1.
          1   -1    0    0  501    0  0.00000000000E+00 -0.00000000000E+00 -0.29671599935E+03  0.29671599935E+03  0.00000000000E+00 0. -1.
         23    2    1    2    0    0  0.22382110519E+02  0.88689329427E+02 -0.24933202562E+03  0.28089553556E+03  0.91482713511E+02 0.  0.
          5    1    1    2  502    0 -0.39973486001E+02  0.39098696954E+01  0.10622617799E+03  0.11366291196E+03  0.47000000000E+01 0. -1.
         -5    1    1    2    0  502  0.17591375481E+02 -0.92599199122E+02  0.51966649523E+02  0.10773435307E+03  0.47000000000E+01 0. -1.
        -11    1    3    3    0    0  0.31025720538E+01  0.23153214244E+02 -0.10464681777E+01  0.23383592085E+02  0.00000000000E+00 0.  1.
         11    1    3    3    0    0  0.19279538465E+02  0.65536115183E+02 -0.24828555745E+03  0.25751194348E+03  0.00000000000E+00 0. -1.
<mgrwt>
<rscale>  0 0.14807419E+03</rscale>
<asrwt>0</asrwt>
<pdfrwt beam="2">  1        1 0.45648615E-01 0.15489280E+03</pdfrwt>
<pdfrwt beam="1">  1       -1 0.31627200E-01 0.15489280E+03</pdfrwt>
<totfact> 0.82788368E+02</totfact>
</mgrwt>
</event>
<event>
 7    1  0.1111284E-005  0.1429804E+03  0.7546771E-02  0.1220175E+00
          1   -1    0    0  501    0  0.00000000000E+00  0.00000000000E+00  0.23301482789E+03  0.23301482789E+03  0.00000000000E+00 0. -1.
         -1   -1    0    0    0  501 -0.00000000000E+00 -0.00000000000E+00 -0.11625427341E+03  0.11625427341E+03  0.00000000000E+00 0.  1.
         23    2    1    2    0    0  0.52615126979E+02  0.45273663351E+02  0.16320962462E+03  0.19893312865E+03  0.90105226956E+02 0.  0.
          5    1    1    2  502    0 -0.31765518448E+02 -0.87443542874E+02 -0.43930260011E+02  0.10299213124E+03  0.47000000000E+01 0. -1.
         -5    1    1    2    0  502 -0.20849608531E+02  0.42169879523E+02 -0.25188101371E+01  0.47343841409E+02  0.47000000000E+01 0. -1.
        -11    1    3    3    0    0  0.27950675420E+02 -0.61648696698E+01  0.12959856420E+03  0.13272163997E+03  0.00000000000E+00 0. -1.
         11    1    3    3    0    0  0.24664451560E+02  0.51438533021E+02  0.33611060422E+02  0.66211488677E+02  0.00000000000E+00 0.  1.
<mgrwt>
<rscale>  0 0.13503196E+03</rscale>
<asrwt>0</asrwt>
<pdfrwt beam="1">  1        1 0.35848435E-01 0.14298038E+03</pdfrwt>
<pdfrwt beam="2">  1       -1 0.17885273E-01 0.14298038E+03</pdfrwt>
<totfact> 0.28388450E+03</totfact>
</mgrwt>
</event>
<event>
 7    1  0.1111284E-005  0.3495896E+03  0.7546771E-02  0.1063611E+00
          2   -1    0    0  501    0  0.00000000000E+00  0.00000000000E+00  0.94272479934E+03  0.94272479934E+03  0.00000000000E+00 0. -1.
         -2   -1    0    0    0  501 -0.00000000000E+00 -0.00000000000E+00 -0.13606492589E+03  0.13606492589E+03  0.00000000000E+00 0.  1.
         23    2    1    2    0    0  0.21446824265E+03 -0.25031887931E+03  0.54047698900E+03  0.63939672335E+03  0.89758708456E+02 0.  0.
          5    1    1    2  502    0 -0.11878726048E+03  0.16525579269E+03  0.92577174490E+02  0.22363477705E+03  0.47000000000E+01 0. -1.
         -5    1    1    2    0  502 -0.95680982171E+02  0.85063086620E+02  0.17360570995E+03  0.21575822483E+03  0.47000000000E+01 0.  1.
        -11    1    3    3    0    0  0.19151246178E+03 -0.18886887994E+03  0.47973691384E+03  0.54999634847E+03  0.00000000000E+00 0. -1.
         11    1    3    3    0    0  0.22955780874E+02 -0.61449999373E+02  0.60740075158E+02  0.89400374880E+02  0.00000000000E+00 0.  1.
<mgrwt>
<rscale>  0 0.34758312E+03</rscale>
<asrwt>0</asrwt>
<pdfrwt beam="1">  1        2 0.14503458E+00 0.34958959E+03</pdfrwt>
<pdfrwt beam="2">  1       -2 0.20933066E-01 0.34958959E+03</pdfrwt>
<totfact> 0.55356239E+02</totfact>
</mgrwt>
</event>
<event>
 7    1  0.1111284E-005  0.1291020E+03  0.7546771E-02  0.1243371E+00
          1   -1    0    0  501    0  0.00000000000E+00  0.00000000000E+00  0.80784523243E+02  0.80784523243E+02  0.00000000000E+00 0. -1.
         -1   -1    0    0    0  501 -0.00000000000E+00 -0.00000000000E+00 -0.17608984530E+03  0.17608984530E+03  0.00000000000E+00 0.  1.
         23    2    1    2    0    0 -0.23443853332E+02  0.22181459592E+02  0.94881602918E+00  0.95839661926E+02  0.90236961039E+02 0.  0.
          5    1    1    2  502    0  0.53838069977E+02 -0.16013206373E+02  0.34911976073E+01  0.56473347855E+02  0.47000000000E+01 0. -1.
         -5    1    1    2    0  502 -0.30394216646E+02 -0.61682532184E+01 -0.99745335695E+02  0.10456135876E+03  0.47000000000E+01 0. -1.
        -11    1    3    3    0    0 -0.44531047674E+02 -0.18271821505E+02  0.10416427441E+02  0.49248102792E+02  0.00000000000E+00 0. -1.
         11    1    3    3    0    0  0.21087194342E+02  0.40453281096E+02 -0.94676114118E+01  0.46591559134E+02  0.00000000000E+00 0.  1.
<mgrwt>
<rscale>  0 0.11983416E+03</rscale>
<asrwt>0</asrwt>
<pdfrwt beam="1">  1        1 0.12428388E-01 0.12910197E+03</pdfrwt>
<pdfrwt beam="2">  1       -1 0.27090745E-01 0.12910197E+03</pdfrwt>
<totfact> 0.55219178E+03</totfact>
</mgrwt>
</event>
<event>
 7    1  0.1111284E-005  0.1463082E+03  0.7546771E-02  0.1214909E+00
          2   -1    0    0  501    0  0.00000000000E+00  0.00000000000E+00  0.23573923989E+02  0.23573923989E+02  0.00000000000E+00 0. -1.
         -2   -1    0    0    0  501 -0.00000000000E+00 -0.00000000000E+00 -0.77847587481E+03  0.77847587481E+03  0.00000000000E+00 0.  1.
         23    2    1    2    0    0 -0.56584700894E+02 -0.50821083809E+02 -0.42328241849E+03  0.43958931406E+03  0.91028282972E+02 0.  0.
          5    1    1    2  502    0 -0.26291540522E+02  0.53024614410E+02 -0.98693387862E+02  0.11517521280E+03  0.47000000000E+01 0. -1.
         -5    1    1    2    0  502  0.82876241415E+02 -0.22035306013E+01 -0.23292614447E+03  0.24728527193E+03  0.47000000000E+01 0. -1.
        -11    1    3    3    0    0 -0.23948994979E+02 -0.70390018259E+02 -0.33985476596E+03  0.34789304532E+03  0.00000000000E+00 0.  1.
         11    1    3    3    0    0 -0.32635705915E+02  0.19568934450E+02 -0.83427652522E+02  0.91696268743E+02  0.00000000000E+00 0. -1.
<mgrwt>
<rscale>  0 0.13883251E+03</rscale>
<asrwt>0</asrwt>
<pdfrwt beam="1">  1        2 0.36267573E-02 0.14630820E+03</pdfrwt>
<pdfrwt beam="2">  1       -2 0.11976553E+00 0.14630820E+03</pdfrwt>
<totfact> 0.13087194E+03</totfact>
</mgrwt>
</event>
<event>
 7    1  0.1111284E-005  0.1674929E+03  0.7546771E-02  0.1186828E+00
          2   -1    0    0  501    0  0.00000000000E+00  0.00000000000E+00  0.27932822933E+03  0.27932822933E+03  0.00000000000E+00 0. -1.
         -2   -1    0    0    0  501 -0.00000000000E+00 -0.00000000000E+00 -0.11603909573E+03  0.11603909573E+03  0.00000000000E+00 0.  1.
         23    2    1    2    0    0 -0.98247200815E+02 -0.52326597184E+02  0.17495118061E+03  0.22746894792E+03  0.93507333558E+02 0.  0.
          5    1    1    2  502    0  0.86069364536E+02  0.44828667443E+02 -0.62068898233E+02  0.11529173025E+03  0.47000000000E+01 0. -1.
         -5    1    1    2    0  502  0.12177836279E+02  0.74979297414E+01  0.50406851222E+02  0.52606646890E+02  0.47000000000E+01 0. -1.
        -11    1    3    3    0    0 -0.66204380946E+02 -0.23637501372E+02  0.30283054896E+02  0.76542896087E+02  0.00000000000E+00 0.  1.
         11    1    3    3    0    0 -0.32042819869E+02 -0.28689095813E+02  0.14466812571E+03  0.15092605183E+03  0.00000000000E+00 0. -1.
<mgrwt>
<rscale>  0 0.16166667E+03</rscale>
<asrwt>0</asrwt>
<pdfrwt beam="1">  1        2 0.42973574E-01 0.16749287E+03</pdfrwt>
<pdfrwt beam="2">  1       -2 0.17852169E-01 0.16749287E+03</pdfrwt>
<totfact> 0.29502668E+03</totfact>
</mgrwt>
</event>
<event>
 7    1  0.1111284E-005  0.1384025E+03  0.7546771E-02  0.1226267E+00
         -2   -1    0    0    0  501 -0.00000000000E+00  0.00000000000E+00  0.72223238658E+02  0.72223238658E+02  0.00000000000E+00 0.  1.
          2   -1    0    0  501    0  0.00000000000E+00 -0.00000000000E+00 -0.26373122216E+03  0.26373122216E+03  0.00000000000E+00 0. -1.
         23    2    1    2    0    0  0.57176103066E+02 -0.16149138754E+02 -0.15934076950E+03  0.19386300715E+03  0.93077834486E+02 0.  0.
          5    1    1    2  502    0 -0.59626790175E+02  0.43981978182E+02 -0.65034083081E+02  0.98697976036E+02  0.47000000000E+01 0. -1.
         -5    1    1    2    0  502  0.24506871085E+01 -0.27832839428E+02  0.32866869079E+02  0.43393477632E+02  0.47000000000E+01 0. -1.
        -11    1    3    3    0    0  0.32664044206E+02  0.28263812935E+02 -0.24193197696E+02  0.49508521693E+02  0.00000000000E+00 0.  1.
         11    1    3    3    0    0  0.24512058861E+02 -0.44412951689E+02 -0.13514757180E+03  0.14435448546E+03  0.00000000000E+00 0. -1.
<mgrwt>
<rscale>  0 0.13080474E+03</rscale>
<asrwt>0</asrwt>
<pdfrwt beam="2">  1        2 0.40574034E-01 0.13840250E+03</pdfrwt>
<pdfrwt beam="1">  1       -2 0.11111267E-01 0.13840250E+03</pdfrwt>
<totfact> 0.67192681E+03</totfact>
</mgrwt>
</event>
<event>
 7    1  0.1111284E-005  0.1301098E+03  0.7546771E-02  0.1241566E+00
         -2   -1    0    0    0  501 -0.00000000000E+00  0.00000000000E+00  0.77908335453E+02  0.77908335453E+02  0.00000000000E+00 0.  1.
          2   -1    0    0  501    0  0.00000000000E+00 -0.00000000000E+00 -0.18513723997E+03  0.18513723997E+03  0.00000000000E+00 0. -1.
         23    2    1    2    0    0  0.29701575737E+02  0.20501389057E+02 -0.88893737220E+02  0.13165025438E+03  0.90150997821E+02 0.  0.
          5    1    1    2  502    0 -0.21354759339E+01  0.42321320732E+02  0.25659287338E+02  0.49760862860E+02  0.47000000000E+01 0. -1.
         -5    1    1    2    0  502 -0.27566099803E+02 -0.62822709788E+02 -0.43994454636E+02  0.81634458179E+02  0.47000000000E+01 0. -1.
        -11    1    3    3    0    0 -0.17350458933E+02 -0.24247485858E+02 -0.42203586879E+02  0.51673220735E+02  0.00000000000E+00 0. -1.
         11    1    3    3    0    0  0.47052034670E+02  0.44748874914E+02 -0.46690150341E+02  0.79977033650E+02  0.00000000000E+00 0.  1.
<mgrwt>
<rscale>  0 0.12093294E+03</rscale>
<asrwt>0</asrwt>
<pdfrwt beam="2">  1        2 0.28482652E-01 0.13010977E+03</pdfrwt>
<pdfrwt beam="1">  1       -2 0.11985898E-01 0.13010977E+03</pdfrwt>
<totfact> 0.86706923E+03</totfact>
</mgrwt>
</event>
<event>
 7    1  0.1111284E-005  0.2078771E+03  0.7546771E-02  0.1154476E+00
         -1   -1    0    0    0  501 -0.00000000000E+00  0.00000000000E+00  0.62716772701E+03  0.62716772701E+03  0.00000000000E+00 0.  1.
          1   -1    0    0  501    0  0.00000000000E+00 -0.00000000000E+00 -0.10588516139E+03  0.10588516139E+03  0.00000000000E+00 0. -1.
         23    2    1    2    0    0 -0.10442404678E+03  0.78706278192E+02 -0.12956160704E+02  0.15979561549E+03  0.90926986408E+02 0.  0.
          5    1    1    2  502    0 -0.41313174094E+02  0.21443840246E+00  0.92010553544E+02  0.10096958107E+03  0.47000000000E+01 0. -1.
         -5    1    1    2    0  502  0.14573722087E+03 -0.78920716594E+02  0.44222817278E+03  0.47228769183E+03  0.47000000000E+01 0.  1.
        -11    1    3    3    0    0 -0.97139230264E+02  0.65351483536E+02 -0.44122719432E+02  0.12511459078E+03  0.00000000000E+00 0. -1.
         11    1    3    3    0    0 -0.72848165174E+01  0.13354794656E+02  0.31166558728E+02  0.34681024710E+02  0.00000000000E+00 0.  1.
<mgrwt>
<rscale>  0 0.19448590E+03</rscale>
<asrwt>0</asrwt>
<pdfrwt beam="2">  1        1 0.16290025E-01 0.20787709E+03</pdfrwt>
<pdfrwt beam="1">  1       -1 0.96487341E-01 0.20787709E+03</pdfrwt>
<totfact> 0.36640806E+02</totfact>
</mgrwt>
</event>
<event>
 7    1  0.1111284E-005  0.1926261E+03  0.7546771E-02  0.1183124E+00
         -1   -1    0    0    0  501 -0.00000000000E+00  0.00000000000E+00  0.50955339310E+03  0.50955339310E+03  0.00000000000E+00 0.  1.
          1   -1    0    0  501    0  0.00000000000E+00 -0.00000000000E+00 -0.44001191126E+02  0.44001191126E+02  0.00000000000E+00 0. -1.
         23    2    1    2    0    0 -0.31946770070E+02 -0.45637084626E+02  0.12681470743E+03  0.16387790657E+03  0.87582296324E+02 0.  0.
          5    1    1    2  502    0  0.75413819297E+02 -0.40087496227E+02  0.96096690492E+02  0.12865036113E+03  0.47000000000E+01 0. -1.
         -5    1    1    2    0  502 -0.43467049227E+02  0.85724580853E+02  0.24264080406E+03  0.26102631654E+03  0.47000000000E+01 0.  1.
        -11    1    3    3    0    0 -0.46582237055E+02  0.85823635568E+01  0.52146921455E+02  0.70447591801E+02  0.00000000000E+00 0.  1.
         11    1    3    3    0    0  0.14635466985E+02 -0.54219448182E+02  0.74667785972E+02  0.93430314765E+02  0.00000000000E+00 0. -1.
<mgrwt>
<rscale>  0 0.16503783E+03</rscale>
<asrwt>0</asrwt>
<pdfrwt beam="2">  1        1 0.67694144E-02 0.19262612E+03</pdfrwt>
<pdfrwt beam="1">  1       -1 0.78392826E-01 0.19262612E+03</pdfrwt>
<totfact> 0.18364934E+03</totfact>
</mgrwt>
</event>
<event>
 7    1  0.1446559E-005  0.1839746E+03  0.7546771E-02  0.1169280E+00
          2   -1    0    0  501    0  0.00000000000E+00  0.00000000000E+00  0.11521152040E+04  0.11521152040E+04  0.00000000000E+00 0. -1.
         -2   -1    0    0    0  501 -0.00000000000E+00 -0.00000000000E+00 -0.27005535129E+02  0.27005535129E+02  0.00000000000E+00 0.  1.
         23    2    1    2    0    0  0.11657679401E+03 -0.68047232308E+02  0.63620643702E+03  0.65674826097E+03  0.91318525280E+02 0.  0.
          5    1    1    2  502    0 -0.86306954803E+02  0.58486796471E+02  0.15457466226E+03  0.18650740474E+03  0.47000000000E+01 0.  1.
         -5    1    1    2    0  502 -0.30269839203E+02  0.95604358375E+01  0.33432856955E+03  0.33586507338E+03  0.47000000000E+01 0.  1.
        -11    1    3    3    0    0  0.47322066038E+02 -0.73116388173E+02  0.26036008357E+03  0.27454099379E+03  0.00000000000E+00 0.  1.
         11    1    3    3    0    0  0.69254727968E+02  0.50691558645E+01  0.37584635344E+03  0.38220726718E+03  0.00000000000E+00 0. -1.
<mgrwt>
<rscale>  0 0.17848269E+03</rscale>
<asrwt>0</asrwt>
<pdfrwt beam="1">  1        2 0.17724845E+00 0.18397455E+03</pdfrwt>
<pdfrwt beam="2">  1       -2 0.41546986E-02 0.18397455E+03</pdfrwt>
<totfact> 0.54592515E+03</totfact>
</mgrwt>
</event>
<event>
 7    1  0.1111284E-005  0.2236017E+03  0.7546771E-02  0.1134789E+00
         -1   -1    0    0    0  501 -0.00000000000E+00  0.00000000000E+00  0.39977785149E+02  0.39977785149E+02  0.00000000000E+00 0.  1.
          1   -1    0    0  501    0  0.00000000000E+00 -0.00000000000E+00 -0.11619755664E+04  0.11619755664E+04  0.00000000000E+00 0. -1.
         23    2    1    2    0    0 -0.62719056313E+02 -0.17446970422E+03 -0.60139011873E+03  0.63535820986E+03  0.87387769264E+02 0.  0.
          5    1    1    2  502    0 -0.22647742441E+02  0.68268142482E+02 -0.92294927518E+02  0.11710637541E+03  0.47000000000E+01 0. -1.
         -5    1    1    2    0  502  0.85366798754E+02  0.10620156173E+03 -0.42831273495E+03  0.44948876623E+03  0.47000000000E+01 0. -1.
        -11    1    3    3    0    0 -0.82461649935E+02 -0.11873936673E+03 -0.39310839016E+03  0.41884742727E+03  0.00000000000E+00 0.  1.
         11    1    3    3    0    0  0.19742593621E+02 -0.55730337482E+02 -0.20828172858E+03  0.21651078259E+03  0.00000000000E+00 0. -1.
<mgrwt>
<rscale>  0 0.21878894E+03</rscale>
<asrwt>0</asrwt>
<pdfrwt beam="2">  1        1 0.17876548E+00 0.22360169E+03</pdfrwt>
<pdfrwt beam="1">  1       -1 0.61504283E-02 0.22360169E+03</pdfrwt>
<totfact> 0.15680121E+03</totfact>
</mgrwt>
</event>
<event>
 7    1  0.1996816E-005  0.2021270E+04  0.7546771E-02  0.9375338E-01
          2   -1    0    0  501    0  0.00000000000E+00  0.00000000000E+00  0.18136740497E+04  0.18136740497E+04  0.00000000000E+00 0. -1.
         -2   -1    0    0    0  501 -0.00000000000E+00 -0.00000000000E+00 -0.64367817752E+03  0.64367817752E+03  0.00000000000E+00 0.  1.
         23    2    1    2    0    0  0.27017570159E+02  0.11860808676E+02  0.18687598261E+03  0.20967446820E+03  0.90388726388E+02 0.  0.
          5    1    1    2  502    0 -0.22386099096E+02  0.57690060814E+03  0.14078755225E+04  0.15216606146E+04  0.47000000000E+01 0. -1.
         -5    1    1    2    0  502 -0.46314710634E+01 -0.58876141681E+03 -0.42475563288E+03  0.72601714450E+03  0.47000000000E+01 0.  1.
        -11    1    3    3    0    0  0.25812429163E+02  0.47417671990E+02  0.75953583663E+02  0.93186179166E+02  0.00000000000E+00 0.  1.
         11    1    3    3    0    0  0.12051409963E+01 -0.35556863314E+02  0.11092239895E+03  0.11648828903E+03  0.00000000000E+00 0. -1.
<mgrwt>
<rscale>  0 0.94133397E+03</rscale>
<asrwt>0</asrwt>
<pdfrwt beam="1">  1        2 0.27902678E+00 0.20212695E+04</pdfrwt>
<pdfrwt beam="2">  1       -2 0.99027412E-01 0.20212695E+04</pdfrwt>
<totfact> 0.66206791E+00</totfact>
</mgrwt>
</event>
<event>
 7    1  0.1111284E-005  0.1698009E+03  0.7546771E-02  0.1185254E+00
         -2   -1    0    0    0  501 -0.00000000000E+00  0.00000000000E+00  0.30125472450E+03  0.30125472450E+03  0.00000000000E+00 0.  1.
          2   -1    0    0  501    0  0.00000000000E+00 -0.00000000000E+00 -0.15721984128E+03  0.15721984128E+03  0.00000000000E+00 0. -1.
         23    2    1    2    0    0  0.98781497816E+02 -0.58761424191E+02 -0.89321190531E+02  0.16987900518E+03  0.87578034005E+02 0.  0.
          5    1    1    2  502    0 -0.11562399014E+03  0.63668745554E+02  0.23579945609E+03  0.27027040117E+03  0.47000000000E+01 0. -1.
         -5    1    1    2    0  502  0.16842492321E+02 -0.49073213636E+01 -0.24433823456E+01  0.18325159422E+02  0.47000000000E+01 0. -1.
        -11    1    3    3    0    0  0.10948119687E+03 -0.34241695152E+02 -0.57529083068E+02  0.12832856874E+03  0.00000000000E+00 0.  1.
         11    1    3    3    0    0 -0.10699699055E+02 -0.24519729039E+02 -0.31792107462E+02  0.41550436446E+02  0.00000000000E+00 0. -1.
<mgrwt>
<rscale>  0 0.16308831E+03</rscale>
<asrwt>0</asrwt>
<pdfrwt beam="2">  1        2 0.24187668E-01 0.16980088E+03</pdfrwt>
<pdfrwt beam="1">  1       -2 0.46346881E-01 0.16980088E+03</pdfrwt>
<totfact> 0.98854665E+02</totfact>
</mgrwt>
</event>
<event>
 7    1  0.1111284E-005  0.1443853E+03  0.7546771E-02  0.1217487E+00
         -3   -1    0    0    0  501 -0.00000000000E+00  0.00000000000E+00  0.39821909156E+02  0.39821909156E+02  0.00000000000E+00 0.  1.
          3   -1    0    0  501    0  0.00000000000E+00 -0.00000000000E+00 -0.44098225330E+03  0.44098225330E+03  0.00000000000E+00 0. -1.
         23    2    1    2    0    0 -0.70610863809E+02  0.15369562352E+02 -0.22025184791E+03  0.24934142812E+03  0.91859423783E+02 0.  0.
          5    1    1    2  502    0 -0.45314503720E+01 -0.51001780934E+02 -0.31203951429E+02  0.60145592405E+02  0.47000000000E+01 0. -1.
         -5    1    1    2    0  502  0.75142314181E+02  0.35632218582E+02 -0.14970454481E+03  0.17131714193E+03  0.47000000000E+01 0. -1.
        -11    1    3    3    0    0 -0.30374900030E+02  0.52752242374E+02 -0.13259245274E+03  0.14589788261E+03  0.00000000000E+00 0. -1.
         11    1    3    3    0    0 -0.40235963780E+02 -0.37382680022E+02 -0.87659395169E+02  0.10344354551E+03  0.00000000000E+00 0.  1.
<mgrwt>
<rscale>  0 0.13695397E+03</rscale>
<asrwt>0</asrwt>
<pdfrwt beam="2">  1        3 0.67843426E-01 0.14438529E+03</pdfrwt>
<pdfrwt beam="1">  1       -3 0.61264474E-02 0.14438529E+03</pdfrwt>
<totfact> 0.81734182E+02</totfact>
</mgrwt>
</event>
<event>
 7    1  0.1111284E-005  0.1292847E+03  0.7546771E-02  0.1242875E+00
          2   -1    0    0  501    0  0.00000000000E+00  0.00000000000E+00  0.66996132538E+02  0.66996132538E+02  0.00000000000E+00 0. -1.
         -2   -1    0    0    0  501 -0.00000000000E+00 -0.00000000000E+00 -0.27336452584E+03  0.27336452584E+03  0.00000000000E+00 0.  1.
         23    2    1    2    0    0  0.27441412786E+02 -0.18349901159E+02  0.52836257168E+00  0.96391791289E+02  0.90561295555E+02 0.  0.
          5    1    1    2  502    0  0.17837159608E+02  0.10304705640E+02 -0.19512581388E+03  0.19626646291E+03  0.47000000000E+01 0.  1.
         -5    1    1    2    0  502 -0.45278572394E+02  0.80451955191E+01 -0.11770941993E+02  0.47702404178E+02  0.47000000000E+01 0.  1.
        -11    1    3    3    0    0  0.70095652485E+01  0.19761786390E+02  0.35195583459E+02  0.40968174250E+02  0.00000000000E+00 0. -1.
         11    1    3    3    0    0  0.20431847537E+02 -0.38111687549E+02 -0.34667220888E+02  0.55423617039E+02  0.00000000000E+00 0.  1.
<mgrwt>
<rscale>  0 0.12013479E+03</rscale>
<asrwt>0</asrwt>
<pdfrwt beam="1">  1        2 0.10307097E-01 0.12928473E+03</pdfrwt>
<pdfrwt beam="2">  1       -2 0.42056082E-01 0.12928473E+03</pdfrwt>
<totfact> 0.31892889E+03</totfact>
</mgrwt>
</event>
<event>
 7    1  0.1111284E-005  0.1338341E+03  0.7546771E-02  0.1233805E+00
         -1   -1    0    0    0  501 -0.00000000000E+00  0.00000000000E+00  0.17337096988E+02  0.17337096988E+02  0.00000000000E+00 0.  1.
          1   -1    0    0  501    0  0.00000000000E+00 -0.00000000000E+00 -0.82979968495E+03  0.82979968495E+03  0.00000000000E+00 0. -1.
         23    2    1    2    0    0  0.23107507516E+02 -0.41797965625E+02 -0.30945863578E+03  0.32663265432E+03  0.92968902189E+02 0.  0.
          5    1    1    2  502    0 -0.10816932031E+02 -0.37052467814E+02 -0.29697560927E+03  0.29951042367E+03  0.47000000000E+01 0.  1.
         -5    1    1    2    0  502 -0.12290575485E+02  0.78850433439E+02 -0.20602834292E+03  0.22099370395E+03  0.47000000000E+01 0.  1.
        -11    1    3    3    0    0  0.25555506536E+02  0.26044669378E+02 -0.10014171618E+03  0.10658223134E+03  0.00000000000E+00 0. -1.
         11    1    3    3    0    0 -0.24479990198E+01 -0.67842635003E+02 -0.20931691960E+03  0.22005042298E+03  0.00000000000E+00 0.  1.
<mgrwt>
<rscale>  0 0.12581258E+03</rscale>
<asrwt>0</asrwt>
<pdfrwt beam="2">  1        1 0.12766147E+00 0.13383412E+03</pdfrwt>
<pdfrwt beam="1">  1       -1 0.26672462E-02 0.13383412E+03</pdfrwt>
<totfact> 0.93887134E+03</totfact>
</mgrwt>
</event>
<event>
 7    1  0.1111284E-005  0.1915883E+03  0.7546771E-02  0.1162048E+00
         -1   -1    0    0    0  501 -0.00000000000E+00  0.00000000000E+00  0.15149147975E+04  0.15149147975E+04  0.00000000000E+00 0.  1.
          1   -1    0    0  501    0  0.00000000000E+00 -0.00000000000E+00 -0.23338978143E+02  0.23338978143E+02  0.00000000000E+00 0. -1.
         23    2    1    2    0    0  0.14515972944E+03  0.31229318379E+01  0.49790091856E+03  0.52627754316E+03  0.89339957316E+02 0.  0.
          5    1    1    2  502    0 -0.17468602696E+01 -0.11582607830E+02  0.43253285559E+03  0.43271696233E+03  0.47000000000E+01 0.  1.
         -5    1    1    2    0  502 -0.14341286917E+03  0.84596759916E+01  0.56114204518E+03  0.57925927013E+03  0.47000000000E+01 0.  1.
        -11    1    3    3    0    0  0.85442129386E+02 -0.12728674637E+02  0.40894620296E+03  0.41797054149E+03  0.00000000000E+00 0.  1.
         11    1    3    3    0    0  0.59717600051E+02  0.15851606475E+02  0.88954715597E+02  0.10830700167E+03  0.00000000000E+00 0. -1.
<mgrwt>
<rscale>  0 0.18607749E+03</rscale>
<asrwt>0</asrwt>
<pdfrwt beam="2">  1        1 0.35906132E-02 0.19158833E+03</pdfrwt>
<pdfrwt beam="1">  1       -1 0.23306374E+00 0.19158833E+03</pdfrwt>
<totfact> 0.26962914E+02</totfact>
</mgrwt>
</event>
<event>
 7    1  0.1111284E-005  0.1638128E+03  0.7546771E-02  0.1191504E+00
         -3   -1    0    0    0  501 -0.00000000000E+00  0.00000000000E+00  0.14608034905E+04  0.14608034905E+04  0.00000000000E+00 0.  1.
          3   -1    0    0  501    0  0.00000000000E+00 -0.00000000000E+00 -0.15972718066E+02  0.15972718066E+02  0.00000000000E+00 0. -1.
         23    2    1    2    0    0 -0.11705254021E+02 -0.10522530448E+03  0.59216325057E+03  0.60851557098E+03  0.91785113841E+02 0.  0.
          5    1    1    2  502    0 -0.50682428338E+02  0.82876517800E+02  0.52263994427E+03  0.53161247831E+03  0.47000000000E+01 0. -1.
         -5    1    1    2    0  502  0.62387682358E+02  0.22348786677E+02  0.33002757762E+03  0.33664815931E+03  0.47000000000E+01 0. -1.
        -11    1    3    3    0    0  0.28374543615E+02 -0.21716539162E+02  0.74442285609E+02  0.82573462355E+02  0.00000000000E+00 0. -1.
         11    1    3    3    0    0 -0.40079797635E+02 -0.83508765316E+02  0.51772096496E+03  0.52594210863E+03  0.00000000000E+00 0.  1.
<mgrwt>
<rscale>  0 0.15753848E+03</rscale>
<asrwt>0</asrwt>
<pdfrwt beam="2">  1        3 0.24573424E-02 0.16381280E+03</pdfrwt>
<pdfrwt beam="1">  1       -3 0.22473889E+00 0.16381280E+03</pdfrwt>
<totfact> 0.19085736E+02</totfact>
</mgrwt>
</event>
<event>
 7    1  0.1111284E-005  0.1588095E+03  0.7546771E-02  0.1197583E+00
         -1   -1    0    0    0  501 -0.00000000000E+00  0.00000000000E+00  0.33628151063E+03  0.33628151063E+03  0.00000000000E+00 0.  1.
          1   -1    0    0  501    0  0.00000000000E+00 -0.00000000000E+00 -0.69064931785E+02  0.69064931785E+02  0.00000000000E+00 0. -1.
         23    2    1    2    0    0 -0.39832139688E+01  0.97871435697E+02  0.68682577357E+02  0.15110994539E+03  0.92315953362E+02 0.  0.
          5    1    1    2  502    0  0.63969334321E+01 -0.10543565255E+03  0.73285413624E+02  0.12864851121E+03  0.47000000000E+01 0. -1.
         -5    1    1    2    0  502 -0.24137194633E+01  0.75642168565E+01  0.12524858786E+03  0.12558798581E+03  0.47000000000E+01 0. -1.
        -11    1    3    3    0    0 -0.48292615228E+01  0.75281684404E+02  0.91771845173E+02  0.11879699213E+03  0.00000000000E+00 0.  1.
         11    1    3    3    0    0  0.84604755405E+00  0.22589751294E+02 -0.23089267817E+02  0.32312953259E+02  0.00000000000E+00 0. -1.
<mgrwt>
<rscale>  0 0.15237644E+03</rscale>
<asrwt>0</asrwt>
<pdfrwt beam="2">  1        1 0.10625374E-01 0.15880947E+03</pdfrwt>
<pdfrwt beam="1">  1       -1 0.51735616E-01 0.15880947E+03</pdfrwt>
<totfact> 0.22261014E+03</totfact>
</mgrwt>
</event>
<event>
 7    1  0.1111284E-005  0.1678312E+03  0.7546771E-02  0.1186915E+00
         -3   -1    0    0    0  501 -0.00000000000E+00  0.00000000000E+00  0.67015668141E+03  0.67015668141E+03  0.00000000000E+00 0.  1.
          3   -1    0    0  501    0  0.00000000000E+00 -0.00000000000E+00 -0.38576878588E+02  0.38576878588E+02  0.00000000000E+00 0. -1.
         23    2    1    2    0    0 -0.11090733694E+03 -0.15576429712E+02  0.20791721116E+03  0.25303925907E+03  0.90863839792E+02 0.  0.
          5    1    1    2  502    0 -0.12130194766E+02 -0.29709166020E+02  0.49314069100E+02  0.59023246115E+02  0.47000000000E+01 0.  1.
         -5    1    1    2    0  502  0.12303753170E+03  0.45285595733E+02  0.37434852256E+03  0.39667105482E+03  0.47000000000E+01 0.  1.
        -11    1    3    3    0    0 -0.40998125389E+02  0.77003296745E+01  0.11521910169E+02  0.43276965887E+02  0.00000000000E+00 0. -1.
         11    1    3    3    0    0 -0.69909211548E+02 -0.23276759387E+02  0.19639530100E+03  0.20976229318E+03  0.00000000000E+00 0.  1.
<mgrwt>
<rscale>  0 0.16158855E+03</rscale>
<asrwt>0</asrwt>
<pdfrwt beam="2">  1        3 0.59349049E-02 0.16783118E+03</pdfrwt>
<pdfrwt beam="1">  1       -3 0.10310102E+00 0.16783118E+03</pdfrwt>
<totfact> 0.34961874E+02</totfact>
</mgrwt>
</event>
<event>
 7    1  0.1111284E-005  0.1896178E+03  0.7546771E-02  0.1164694E+00
         -1   -1    0    0    0  501 -0.00000000000E+00  0.00000000000E+00  0.10066124054E+03  0.10066124054E+03  0.00000000000E+00 0.  1.
          1   -1    0    0  501    0  0.00000000000E+00 -0.00000000000E+00 -0.32438546228E+03  0.32438546228E+03  0.00000000000E+00 0. -1.
         23    2    1    2    0    0  0.73795616687E+02  0.12198839193E+03 -0.14417611723E+03  0.21941883483E+03  0.83850530644E+02 0.  0.
          5    1    1    2  502    0 -0.50227279980E+02 -0.23000259088E+02 -0.87356715795E+02  0.10346534380E+03  0.47000000000E+01 0.  1.
         -5    1    1    2    0  502 -0.23568336707E+02 -0.98988132844E+02  0.78086112825E+01  0.10216252419E+03  0.47000000000E+01 0.  1.
        -11    1    3    3    0    0  0.72945653589E+02  0.54294339487E+02 -0.51043651364E+02  0.10428038177E+03  0.00000000000E+00 0. -1.
         11    1    3    3    0    0  0.84996309783E+00  0.67694052445E+02 -0.93132465870E+02  0.11513845306E+03  0.00000000000E+00 0.  1.
<mgrwt>
<rscale>  0 0.18325028E+03</rscale>
<asrwt>0</asrwt>
<pdfrwt beam="2">  1        1 0.49905456E-01 0.18961782E+03</pdfrwt>
<pdfrwt beam="1">  1       -1 0.15486345E-01 0.18961782E+03</pdfrwt>
<totfact> 0.23891491E+03</totfact>
</mgrwt>
</event>
<event>
 7    1  0.1111284E-005  0.1781405E+03  0.7546771E-02  0.1175167E+00
          2   -1    0    0  501    0  0.00000000000E+00  0.00000000000E+00  0.13240104671E+03  0.13240104671E+03  0.00000000000E+00 0. -1.
         -2   -1    0    0    0  501 -0.00000000000E+00 -0.00000000000E+00 -0.21746303813E+03  0.21746303813E+03  0.00000000000E+00 0.  1.
         23    2    1    2    0    0  0.69959339048E+02 -0.10586820300E+03 -0.12380633285E+02  0.15746705138E+03  0.92413238575E+02 0.  0.
          5    1    1    2  502    0 -0.40768871621E+02 -0.21935556054E+02 -0.24977822797E+02  0.52813361418E+02  0.47000000000E+01 0.  1.
         -5    1    1    2    0  502 -0.29190467428E+02  0.12780375905E+03 -0.47703535339E+02  0.13958367204E+03  0.47000000000E+01 0.  1.
        -11    1    3    3    0    0  0.20042038563E+02 -0.57387196484E+02 -0.49689032944E+02  0.78510977736E+02  0.00000000000E+00 0.  1.
         11    1    3    3    0    0  0.49917300486E+02 -0.48481006512E+02  0.37308399659E+02  0.78956073644E+02  0.00000000000E+00 0. -1.
<mgrwt>
<rscale>  0 0.17259683E+03</rscale>
<asrwt>0</asrwt>
<pdfrwt beam="1">  1        2 0.20369392E-01 0.17814050E+03</pdfrwt>
<pdfrwt beam="2">  1       -2 0.33455852E-01 0.17814050E+03</pdfrwt>
<totfact> 0.22292563E+03</totfact>
</mgrwt>
</event>
<event>
 7    1  0.1111284E-005  0.1306422E+03  0.7546771E-02  0.1239435E+00
          2   -1    0    0  501    0  0.00000000000E+00  0.00000000000E+00  0.15903741012E+03  0.15903741012E+03  0.00000000000E+00 0. -1.
         -2   -1    0    0    0  501 -0.00000000000E+00 -0.00000000000E+00 -0.83740145688E+02  0.83740145688E+02  0.00000000000E+00 0.  1.
         23    2    1    2    0    0  0.61120868052E+01  0.37480662655E+02  0.32976293690E+02  0.10545144549E+03  0.92684484852E+02 0.  0.
          5    1    1    2  502    0 -0.20927859066E+02  0.33789339809E+01 -0.39206381793E+02  0.44817662291E+02  0.47000000000E+01 0.  1.
         -5    1    1    2    0  502  0.14815772261E+02 -0.40859596636E+02  0.81527352531E+02  0.92508448023E+02  0.47000000000E+01 0.  1.
        -11    1    3    3    0    0 -0.27940839537E+02 -0.11662581888E+02 -0.99262736268E+01  0.31862787675E+02  0.00000000000E+00 0.  1.
         11    1    3    3    0    0  0.34052926342E+02  0.49143244543E+02  0.42902567317E+02  0.73588657815E+02  0.00000000000E+00 0. -1.
<mgrwt>
<rscale>  0 0.12224729E+03</rscale>
<asrwt>0</asrwt>
<pdfrwt beam="1">  1        2 0.24467294E-01 0.13064224E+03</pdfrwt>
<pdfrwt beam="2">  1       -2 0.12883099E-01 0.13064224E+03</pdfrwt>
<totfact> 0.91267612E+03</totfact>
</mgrwt>
</event>
<event>
 7    1  0.1111284E-005  0.2230976E+03  0.7546771E-02  0.1131595E+00
          3   -1    0    0  501    0  0.00000000000E+00  0.00000000000E+00  0.34564100687E+03  0.34564100687E+03  0.00000000000E+00 0. -1.
         -3   -1    0    0    0  501 -0.00000000000E+00 -0.00000000000E+00 -0.36000155221E+02  0.36000155221E+02  0.00000000000E+00 0.  1.
         23    2    1    2    0    0  0.24491006737E+02  0.24758141146E+02  0.13104918486E+03  0.16088455668E+03  0.86586238874E+02 0.  0.
          5    1    1    2  502    0 -0.49563016848E+02 -0.58747573781E+02  0.15263449928E+03  0.17095949940E+03  0.47000000000E+01 0.  1.
         -5    1    1    2    0  502  0.25072010111E+02  0.33989432635E+02  0.25957167509E+02  0.49797106010E+02  0.47000000000E+01 0.  1.
        -11    1    3    3    0    0  0.76594135953E+01  0.55296649645E+02  0.98309434073E+02  0.11305366383E+03  0.00000000000E+00 0. -1.
         11    1    3    3    0    0  0.16831593142E+02 -0.30538508499E+02  0.32739750789E+02  0.47830892849E+02  0.00000000000E+00 0.  1.
<mgrwt>
<rscale>  0 0.22309756E+03</rscale>
<asrwt>0</asrwt>
<pdfrwt beam="1">  1        3 0.53175537E-01 0.22309756E+03</pdfrwt>
<pdfrwt beam="2">  1       -3 0.55384857E-02 0.22309756E+03</pdfrwt>
<totfact> 0.16956244E+03</totfact>
</mgrwt>
</event>
<event>
 7    1  0.1111284E-005  0.2188301E+03  0.7546771E-02  0.1137642E+00
         -1   -1    0    0    0  501 -0.00000000000E+00  0.00000000000E+00  0.35939789860E+02  0.35939789860E+02  0.00000000000E+00 0.  1.
          1   -1    0    0  501    0  0.00000000000E+00 -0.00000000000E+00 -0.13383517504E+04  0.13383517504E+04  0.00000000000E+00 0. -1.
         23    2    1    2    0    0 -0.12759026247E+03 -0.12651319157E+03 -0.81254275649E+03  0.83776713496E+03  0.96660118818E+02 0.  0.
          5    1    1    2  502    0  0.37813086185E+02  0.85970034288E+02 -0.11322149690E+03  0.14717973244E+03  0.47000000000E+01 0. -1.
         -5    1    1    2    0  502  0.89777176285E+02  0.40543157279E+02 -0.37664770720E+03  0.38934467291E+03  0.47000000000E+01 0. -1.
        -11    1    3    3    0    0 -0.39179023404E+02 -0.97572757835E+02 -0.33023501768E+03  0.34656977053E+03  0.00000000000E+00 0.  1.
         11    1    3    3    0    0 -0.88411239066E+02 -0.28940433732E+02 -0.48230773882E+03  0.49119736443E+03  0.00000000000E+00 0. -1.
<mgrwt>
<rscale>  0 0.21503220E+03</rscale>
<asrwt>0</asrwt>
<pdfrwt beam="2">  1        1 0.20590024E+00 0.21883007E+03</pdfrwt>
<pdfrwt beam="1">  1       -1 0.55291992E-02 0.21883007E+03</pdfrwt>
<totfact> 0.13918766E+03</totfact>
</mgrwt>
</event>
<event>
 7    1  0.1111284E-005  0.2187987E+03  0.7546771E-02  0.1138206E+00
          1   -1    0    0  501    0  0.00000000000E+00  0.00000000000E+00  0.27957004365E+03  0.27957004365E+03  0.00000000000E+00 0. -1.
         -1   -1    0    0    0  501 -0.00000000000E+00 -0.00000000000E+00 -0.15828834387E+03  0.15828834387E+03  0.00000000000E+00 0.  1.
         23    2    1    2    0    0  0.15539608192E+03  0.89514087194E+02  0.69623604669E+02  0.21304416281E+03  0.91540454971E+02 0.  0.
          5    1    1    2  502    0 -0.59322269998E+02  0.17642534195E+02 -0.18319311472E+02  0.64715360644E+02  0.47000000000E+01 0. -1.
         -5    1    1    2    0  502 -0.96073811921E+02 -0.10715662139E+03  0.69977406580E+02  0.16009886407E+03  0.47000000000E+01 0. -1.
        -11    1    3    3    0    0  0.13934705590E+03  0.94993442722E+02  0.31834163014E+02  0.17162392049E+03  0.00000000000E+00 0.  1.
         11    1    3    3    0    0  0.16049026019E+02 -0.54793555284E+01  0.37789441655E+02  0.41420242319E+02  0.00000000000E+00 0. -1.
<mgrwt>
<rscale>  0 0.21429870E+03</rscale>
<asrwt>0</asrwt>
<pdfrwt beam="1">  1        1 0.43010776E-01 0.21879871E+03</pdfrwt>
<pdfrwt beam="2">  1       -1 0.24352053E-01 0.21879871E+03</pdfrwt>
<totfact> 0.13887258E+03</totfact>
</mgrwt>
</event>
<event>
 7    1  0.1111284E-005  0.1376687E+03  0.7546771E-02  0.1227825E+00
         -2   -1    0    0    0  501 -0.00000000000E+00  0.00000000000E+00  0.27705331355E+02  0.27705331355E+02  0.00000000000E+00 0. -1.
          2   -1    0    0  501    0  0.00000000000E+00 -0.00000000000E+00 -0.55912755788E+03  0.55912755788E+03  0.00000000000E+00 0.  1.
         23    2    1    2    0    0  0.19347807036E+02 -0.54339754418E+02 -0.27727378755E+03  0.29779291364E+03  0.92047376962E+02 0.  0.
          5    1    1    2  502    0 -0.38640881900E+02  0.32078992531E+02 -0.25425425129E+03  0.25920936290E+03  0.47000000000E+01 0. -1.
         -5    1    1    2    0  502  0.19293074864E+02  0.22260761887E+02  0.10581231477E+00  0.29830612695E+02  0.47000000000E+01 0. -1.
        -11    1    3    3    0    0 -0.10582945167E+02  0.23200987738E+02 -0.63429583592E+02  0.68363708465E+02  0.00000000000E+00 0.  1.
         11    1    3    3    0    0  0.29930752203E+02 -0.77540742156E+02 -0.21384420396E+03  0.22942920518E+03  0.00000000000E+00 0. -1.
<mgrwt>
<rscale>  0 0.12975112E+03</rscale>
<asrwt>0</asrwt>
<pdfrwt beam="2">  1        2 0.86019617E-01 0.13766873E+03</pdfrwt>
<pdfrwt beam="1">  1       -2 0.42623590E-02 0.13766873E+03</pdfrwt>
<totfact> 0.12999280E+04</totfact>
</mgrwt>
</event>
