<event>
 7    1  0.2788485E-009  0.1137898E+03  0.7561462E-02  0.1253708E+00
          1   -1    0    0  501    0  0.00000000000E+00  0.00000000000E+00  0.53731393345E+03  0.53731393345E+03  0.00000000000E+00 0. -1.
         -1   -1    0    0    0  501 -0.00000000000E+00 -0.00000000000E+00 -0.29074054384E+02  0.29074054384E+02  0.00000000000E+00 0.  1.
         25    2    1    2    0    0  0.53324713005E+02 -0.31814102669E+02  0.29529092178E+03  0.32664963089E+03  0.12509033027E+03 0.  0.
          5    1    3    3  502    0 -0.31135342506E+02  0.17748699462E+01  0.21431932540E+02  0.38070459003E+02  0.41800000000E+01 0.  1.
         -5    1    3    3    0  502  0.84460055511E+02 -0.33588972615E+02  0.27385898924E+03  0.28857917189E+03  0.41800000000E+01 0.  1.
        -11    1    1    2    0    0 -0.72772790968E+02  0.63017631996E+01  0.11114172562E+03  0.13299652062E+03  0.00000000000E+00 0.  1.
         11    1    1    2    0    0  0.19448077963E+02  0.25512339469E+02  0.10180723166E+03  0.10674183632E+03  0.00000000000E+00 0. -1.
</event>
<event>
 7    1  0.2788485E-009  0.1039462E+03  0.7561462E-02  0.1272210E+00
          1   -1    0    0  501    0  0.00000000000E+00  0.00000000000E+00  0.52408743749E+02  0.52408743749E+02  0.00000000000E+00 0. -1.
         -1   -1    0    0    0  501 -0.00000000000E+00 -0.00000000000E+00 -0.25955340639E+03  0.25955340639E+03  0.00000000000E+00 0.  1.
         25    2    1    2    0    0  0.32379558546E+02  0.25878606322E+02 -0.91605716161E+02  0.16049090461E+03  0.12509030799E+03 0.  0.
          5    1    3    3  502    0  0.33637951622E+02 -0.45331688330E+02 -0.21738973948E+02  0.60634389125E+02  0.41800000000E+01 0. -1.
         -5    1    3    3    0  502 -0.12583930759E+01  0.71210294652E+02 -0.69866742213E+02  0.99856515486E+02  0.41800000000E+01 0. -1.
        -11    1    1    2    0    0 -0.53822034291E+02 -0.22049196658E+02 -0.34653011847E+02  0.67703837990E+02  0.00000000000E+00 0. -1.
         11    1    1    2    0    0  0.21442475745E+02 -0.38294096635E+01 -0.80885934634E+02  0.83767407541E+02  0.00000000000E+00 0.  1.
</event>
<event>
 7    1  0.2788485E-009  0.1113310E+03  0.7561462E-02  0.1258125E+00
          2   -1    0    0  501    0  0.00000000000E+00  0.00000000000E+00  0.98905717613E+03  0.98905717613E+03  0.00000000000E+00 0.  1.
         -2   -1    0    0    0  501 -0.00000000000E+00 -0.00000000000E+00 -0.19423576614E+02  0.19423576614E+02  0.00000000000E+00 0. -1.
         25    2    1    2    0    0  0.36903831985E+02 -0.19950141728E+02  0.80556890490E+03  0.81630221074E+03  0.12509251674E+03 0.  0.
          5    1    3    3  502    0  0.26342184329E+02 -0.69906864599E+02  0.59019016823E+03  0.59491410092E+03  0.41800000000E+01 0. -1.
         -5    1    3    3    0  502  0.10561647656E+02  0.49956722871E+02  0.21537873667E+03  0.22138810982E+03  0.41800000000E+01 0. -1.
        -11    1    1    2    0    0 -0.16439350100E+02 -0.34621118512E+02  0.41665937092E+02  0.56612051654E+02  0.00000000000E+00 0. -1.
         11    1    1    2    0    0 -0.20464481885E+02  0.54571260239E+02  0.12239875752E+03  0.13556649035E+03  0.00000000000E+00 0.  1.
</event>
<event>
 7    1  0.2788485E-009  0.1147847E+03  0.7561462E-02  0.1251957E+00
         -1   -1    0    0    0  501 -0.00000000000E+00  0.00000000000E+00  0.40731319690E+02  0.40731319690E+02  0.00000000000E+00 0.  1.
          1   -1    0    0  501    0  0.00000000000E+00 -0.00000000000E+00 -0.37562432629E+03  0.37562432629E+03  0.00000000000E+00 0. -1.
         25    2    1    2    0    0 -0.14440841757E+02 -0.55650164430E+02 -0.23393345906E+03  0.27143664963E+03  0.12509001871E+03 0.  0.
          5    1    3    3  502    0  0.46325470494E+02  0.21281739933E+01 -0.45293355201E+02  0.64957976927E+02  0.41800000000E+01 0. -1.
         -5    1    3    3    0  502 -0.60766312251E+02 -0.57778338424E+02 -0.18864010386E+03  0.20647867270E+03  0.41800000000E+01 0. -1.
        -11    1    1    2    0    0  0.43693363206E+02  0.99823825882E+01 -0.24205243704E+02  0.50937724460E+02  0.00000000000E+00 0.  1.
         11    1    1    2    0    0 -0.29252521449E+02  0.45667781842E+02 -0.76754303826E+02  0.93981271886E+02  0.00000000000E+00 0. -1.
</event>
<event>
 7    1  0.2865841E-009  0.1469638E+03  0.7561462E-02  0.1204254E+00
          3   -1    0    0  501    0  0.00000000000E+00  0.00000000000E+00  0.58846369409E+02  0.58846369409E+02  0.00000000000E+00 0. -1.
         -3   -1    0    0    0  501 -0.00000000000E+00 -0.00000000000E+00 -0.49125866768E+03  0.49125866768E+03  0.00000000000E+00 0.  1.
         25    2    1    2    0    0 -0.27702845881E+01 -0.12541308402E+03 -0.28940137123E+03  0.33931824179E+03  0.12509036504E+03 0.  0.
          5    1    3    3  502    0 -0.54171389864E+02 -0.89562979310E+02 -0.12360367821E+03  0.16202286385E+03  0.41800000000E+01 0. -1.
         -5    1    3    3    0  502  0.51401105276E+02 -0.35850104707E+02 -0.16579769301E+03  0.17729537794E+03  0.41800000000E+01 0. -1.
        -11    1    1    2    0    0  0.90642549573E+01  0.81781780332E+02 -0.26866213253E+02  0.86557574636E+02  0.00000000000E+00 0. -1.
         11    1    1    2    0    0 -0.62939703692E+01  0.43631303685E+02 -0.11614471379E+03  0.12422922066E+03  0.00000000000E+00 0.  1.
</event>
<event>
 7    1  0.2788485E-009  0.2058416E+03  0.7561462E-02  0.1144902E+00
          2   -1    0    0  501    0  0.00000000000E+00  0.00000000000E+00  0.84177398576E+03  0.84177398576E+03  0.00000000000E+00 0. -1.
         -2   -1    0    0    0  501 -0.00000000000E+00 -0.00000000000E+00 -0.85106457701E+02  0.85106457701E+02  0.00000000000E+00 0.  1.
         25    2    1    2    0    0  0.48879102555E+02  0.18818835393E+03  0.13144446698E+03  0.26594850588E+03  0.12508771584E+03 0.  0.
          5    1    3    3  502    0  0.51510536530E+02  0.18364535502E+03  0.15225285418E+03  0.24408473078E+03  0.41800000000E+01 0.  1.
         -5    1    3    3    0  502 -0.26314339753E+01  0.45429989163E+01 -0.20808387196E+02  0.21863775100E+02  0.41800000000E+01 0.  1.
        -11    1    1    2    0    0  0.23638883459E+02 -0.83928445365E+02  0.26508858653E+03  0.27906045844E+03  0.00000000000E+00 0.  1.
         11    1    1    2    0    0 -0.72517986013E+02 -0.10425990857E+03  0.36013447455E+03  0.38187147915E+03  0.00000000000E+00 0. -1.
</event>
<event>
 7    1  0.2788485E-009  0.2588640E+03  0.7561462E-02  0.1107828E+00
         -3   -1    0    0    0  501 -0.00000000000E+00  0.00000000000E+00  0.91635602730E+03  0.91635602730E+03  0.00000000000E+00 0.  1.
          3   -1    0    0  501    0  0.00000000000E+00 -0.00000000000E+00 -0.84487656514E+02  0.84487656514E+02  0.00000000000E+00 0. -1.
         25    2    1    2    0    0 -0.24583025040E+03  0.53339917483E+02  0.50955307283E+03  0.58186510926E+03  0.12508002455E+03 0.  0.
          5    1    3    3  502    0 -0.73001988732E+02 -0.66890978547E+01  0.27348261918E+03  0.28316823583E+03  0.41800000000E+01 0.  1.
         -5    1    3    3    0  502 -0.17282826167E+03  0.60029015338E+02  0.23607045364E+03  0.29869687343E+03  0.41800000000E+01 0.  1.
        -11    1    1    2    0    0  0.16218583235E+03 -0.68905716835E+02  0.17193655393E+03  0.24619996062E+03  0.00000000000E+00 0.  1.
         11    1    1    2    0    0  0.83644418044E+02  0.15565799352E+02  0.15037874403E+03  0.17277861394E+03  0.00000000000E+00 0. -1.
</event>
<event>
 7    1  0.2788485E-009  0.1148103E+03  0.7561462E-02  0.1251913E+00
         -1   -1    0    0    0  501 -0.00000000000E+00  0.00000000000E+00  0.23246052728E+03  0.23246052728E+03  0.00000000000E+00 0.  1.
          1   -1    0    0  501    0  0.00000000000E+00 -0.00000000000E+00 -0.61835813024E+02  0.61835813024E+02  0.00000000000E+00 0. -1.
         25    2    1    2    0    0 -0.31066301158E+02 -0.51397494620E+02  0.84167142559E+02  0.16229400491E+03  0.12509363941E+03 0.  0.
          5    1    3    3  502    0 -0.18011063079E+02 -0.93072282379E+02  0.57803199377E+02  0.11111044235E+03  0.41800000000E+01 0.  1.
         -5    1    3    3    0  502 -0.13055238079E+02  0.41674787760E+02  0.26363943182E+02  0.51183562559E+02  0.41800000000E+01 0.  1.
        -11    1    1    2    0    0  0.10493874765E+02  0.65229325134E+02  0.84319464302E+02  0.10712029838E+03  0.00000000000E+00 0. -1.
         11    1    1    2    0    0  0.20572426392E+02 -0.13831830514E+02  0.21381073980E+01  0.24882037020E+02  0.00000000000E+00 0.  1.
</event>
<event>
 7    1  0.2788485E-009  0.9240035E+02  0.7561462E-02  0.1297141E+00
          1   -1    0    0  501    0  0.00000000000E+00  0.00000000000E+00  0.45378571041E+03  0.45378571041E+03  0.00000000000E+00 0. -1.
         -1   -1    0    0    0  501 -0.00000000000E+00 -0.00000000000E+00 -0.37314072444E+02  0.37314072444E+02  0.00000000000E+00 0.  1.
         25    2    1    2    0    0 -0.34182178184E+02  0.25878330802E+02  0.34272464067E+03  0.36734980245E+03  0.12509032230E+03 0.  0.
          5    1    3    3  502    0  0.30305582703E+02 -0.30742111084E+02  0.80955669900E+02  0.91841159759E+02  0.41800000000E+01 0. -1.
         -5    1    3    3    0  502 -0.64487760888E+02  0.56620441886E+02  0.26176897077E+03  0.27550864269E+03  0.41800000000E+01 0. -1.
        -11    1    1    2    0    0  0.25853503710E+02  0.24643839199E+01 -0.15154506470E+02  0.30068852797E+02  0.00000000000E+00 0.  1.
         11    1    1    2    0    0  0.83286744747E+01 -0.28342714722E+02  0.88901503776E+02  0.93681127608E+02  0.00000000000E+00 0. -1.
</event>
<event>
 7    1  0.2788485E-009  0.4114543E+03  0.7561462E-02  0.1039884E+00
         -1   -1    0    0    0  501 -0.00000000000E+00  0.00000000000E+00  0.27061549652E+03  0.27061549652E+03  0.00000000000E+00 0.  1.
          1   -1    0    0  501    0  0.00000000000E+00 -0.00000000000E+00 -0.66844331507E+03  0.66844331507E+03  0.00000000000E+00 0. -1.
         25    2    1    2    0    0  0.14167351601E+03  0.38319147557E+03 -0.14415056843E+03  0.45092900245E+03  0.12510190561E+03 0.  0.
          5    1    3    3  502    0  0.28805648756E+02  0.13961412197E+03  0.70540560663E+01  0.14279040780E+03  0.41800000000E+01 0.  1.
         -5    1    3    3    0  502  0.11286786725E+03  0.24357735360E+03 -0.15120462449E+03  0.30813859465E+03  0.41800000000E+01 0.  1.
        -11    1    1    2    0    0 -0.64499577693E+02 -0.10611320634E+03 -0.11320762557E+03  0.16803622993E+03  0.00000000000E+00 0.  1.
         11    1    1    2    0    0 -0.77173938317E+02 -0.27707826923E+03 -0.14046962455E+03  0.32009357922E+03  0.00000000000E+00 0. -1.
</event>
<event>
 7    1  0.2788485E-009  0.1109979E+03  0.7561462E-02  0.1258733E+00
          2   -1    0    0  501    0  0.00000000000E+00  0.00000000000E+00  0.27409720382E+03  0.27409720382E+03  0.00000000000E+00 0. -1.
         -2   -1    0    0    0  501 -0.00000000000E+00 -0.00000000000E+00 -0.63249178662E+02  0.63249178662E+02  0.00000000000E+00 0.  1.
         25    2    1    2    0    0  0.63829617403E+02  0.35755436130E+02  0.10530078489E+03  0.17913011111E+03  0.12508665051E+03 0.  0.
          5    1    3    3  502    0  0.95315365180E+02  0.51842796969E+02  0.71301388510E+02  0.12990017260E+03  0.41800000000E+01 0. -1.
         -5    1    3    3    0  502 -0.31485747777E+02 -0.16087360839E+02  0.33999396376E+02  0.49229938511E+02  0.41800000000E+01 0. -1.
        -11    1    1    2    0    0 -0.21811439544E+02 -0.27310035208E+02 -0.88500384068E+01  0.36054127335E+02  0.00000000000E+00 0. -1.
         11    1    1    2    0    0 -0.42018177859E+02 -0.84454009219E+01  0.11439727868E+03  0.12216214404E+03  0.00000000000E+00 0.  1.
</event>
<event>
 7    1  0.2788485E-009  0.8213252E+02  0.7561462E-02  0.1323106E+00
          2   -1    0    0  501    0  0.00000000000E+00  0.00000000000E+00  0.79611427118E+02  0.79611427118E+02  0.00000000000E+00 0. -1.
         -2   -1    0    0    0  501 -0.00000000000E+00 -0.00000000000E+00 -0.12304712914E+03  0.12304712914E+03  0.00000000000E+00 0.  1.
         25    2    1    2    0    0  0.48500937263E+02  0.14883394002E+02 -0.96287262633E+01  0.13532921601E+03  0.12508967984E+03 0.  0.
          5    1    3    3  502    0  0.77825655275E+02  0.11613912782E+02 -0.43666898732E+02  0.90088767523E+02  0.41800000000E+01 0.  1.
         -5    1    3    3    0  502 -0.29324718012E+02  0.32694812195E+01  0.34038172469E+02  0.45240448483E+02  0.41800000000E+01 0.  1.
        -11    1    1    2    0    0 -0.79370264811E+01 -0.12783898286E+02 -0.18677615357E+02  0.23984948618E+02  0.00000000000E+00 0. -1.
         11    1    1    2    0    0 -0.40563910782E+02 -0.20994957154E+01 -0.15129360405E+02  0.43344391638E+02  0.00000000000E+00 0.  1.
</event>
<event>
 7    1  0.2788485E-009  0.1215811E+03  0.7561462E-02  0.1240511E+00
          1   -1    0    0  501    0  0.00000000000E+00  0.00000000000E+00  0.46233910822E+03  0.46233910822E+03  0.00000000000E+00 0. -1.
         -1   -1    0    0    0  501 -0.00000000000E+00 -0.00000000000E+00 -0.34018135739E+02  0.34018135739E+02  0.00000000000E+00 0.  1.
         25    2    1    2    0    0  0.26897853457E+02 -0.47905488456E+02  0.29134711165E+03  0.32179316795E+03  0.12509705484E+03 0.  0.
          5    1    3    3  502    0  0.67386988958E+02  0.62240636461E+01  0.12537220506E+03  0.14253212779E+03  0.41800000000E+01 0. -1.
         -5    1    3    3    0  502 -0.40489135501E+02 -0.54129552102E+02  0.16597490658E+03  0.17926104016E+03  0.41800000000E+01 0. -1.
        -11    1    1    2    0    0 -0.26889071673E+02  0.75445099793E+02  0.93657471637E+02  0.12323435905E+03  0.00000000000E+00 0. -1.
         11    1    1    2    0    0 -0.87817840004E-02 -0.27539611337E+02  0.43316389198E+02  0.51329716956E+02  0.00000000000E+00 0.  1.
</event>
<event>
 7    1  0.2788485E-009  0.1081334E+03  0.7561462E-02  0.1264066E+00
         -1   -1    0    0    0  501 -0.00000000000E+00  0.00000000000E+00  0.35815197920E+02  0.35815197920E+02  0.00000000000E+00 0.  1.
          1   -1    0    0  501    0  0.00000000000E+00 -0.00000000000E+00 -0.41996666285E+03  0.41996666285E+03  0.00000000000E+00 0. -1.
         25    2    1    2    0    0 -0.12731057742E+02 -0.38970527377E+02 -0.29160339776E+03  0.31994004074E+03  0.12509319026E+03 0.  0.
          5    1    3    3  502    0 -0.16232200260E+02  0.39497027456E+02 -0.50160982782E+02  0.66008303241E+02  0.41800000000E+01 0. -1.
         -5    1    3    3    0  502  0.35011425182E+01 -0.78467554833E+02 -0.24144241498E+03  0.25393173750E+03  0.41800000000E+01 0. -1.
        -11    1    1    2    0    0 -0.33549831748E+02  0.34634841084E+02 -0.67748316549E+02  0.83156465909E+02  0.00000000000E+00 0.  1.
         11    1    1    2    0    0  0.46280889490E+02  0.43356862935E+01 -0.24799750619E+02  0.52685354116E+02  0.00000000000E+00 0. -1.
</event>
<event>
 7    1  0.2788485E-009  0.1053210E+03  0.7561462E-02  0.1269488E+00
         -1   -1    0    0    0  501 -0.00000000000E+00  0.00000000000E+00  0.19209017245E+02  0.19209017245E+02  0.00000000000E+00 0.  1.
          1   -1    0    0  501    0  0.00000000000E+00 -0.00000000000E+00 -0.10857347676E+04  0.10857347676E+04  0.00000000000E+00 0. -1.
         25    2    1    2    0    0  0.77393511254E+01 -0.62156579893E+02 -0.80155278902E+03  0.81366934636E+03  0.12509034186E+03 0.  0.
          5    1    3    3  502    0  0.36007793790E+02  0.62622326787E+01 -0.55477289403E+03  0.55599119878E+03  0.41800000000E+01 0.  1.
         -5    1    3    3    0  502 -0.28268442665E+02 -0.68418812572E+02 -0.24677989500E+03  0.25767814758E+03  0.41800000000E+01 0.  1.
        -11    1    1    2    0    0  0.32506190940E+02  0.46034044371E+02 -0.22618958595E+03  0.23310408509E+03  0.00000000000E+00 0. -1.
         11    1    1    2    0    0 -0.40245542065E+02  0.16122535522E+02 -0.38783375342E+02  0.58170353366E+02  0.00000000000E+00 0.  1.
</event>
<event>
 7    1  0.2788485E-009  0.1316172E+03  0.7561462E-02  0.1225076E+00
          2   -1    0    0  501    0  0.00000000000E+00  0.00000000000E+00  0.38153296435E+03  0.38153296435E+03  0.00000000000E+00 0. -1.
         -2   -1    0    0    0  501 -0.00000000000E+00 -0.00000000000E+00 -0.62213673475E+02  0.62213673475E+02  0.00000000000E+00 0.  1.
         25    2    1    2    0    0  0.10446888887E+03 -0.24513616840E+02  0.20878829877E+03  0.26599566878E+03  0.12508587432E+03 0.  0.
          5    1    3    3  502    0  0.81893724427E+02  0.12828318554E+02  0.20597724443E+03  0.22207036155E+03  0.41800000000E+01 0.  1.
         -5    1    3    3    0  502  0.22575164447E+02 -0.37341935394E+02  0.28110543438E+01  0.43925307230E+02  0.41800000000E+01 0.  1.
        -11    1    1    2    0    0 -0.96553938776E+02  0.50692405336E+02  0.10142002365E+03  0.14892415603E+03  0.00000000000E+00 0.  1.
         11    1    1    2    0    0 -0.79149500974E+01 -0.26178788496E+02  0.91109684489E+01  0.28826813009E+02  0.00000000000E+00 0. -1.
</event>
<event>
 7    1  0.2788485E-009  0.1055861E+03  0.7561462E-02  0.1268969E+00
          2   -1    0    0  501    0  0.00000000000E+00  0.00000000000E+00  0.42266017351E+02  0.42266017351E+02  0.00000000000E+00 0.  1.
         -2   -1    0    0    0  501 -0.00000000000E+00 -0.00000000000E+00 -0.52623049931E+03  0.52623049931E+03  0.00000000000E+00 0. -1.
         25    2    1    2    0    0  0.92427577970E+01  0.86049840288E+02 -0.36656182049E+03  0.39686891035E+03  0.12508940874E+03 0.  0.
          5    1    3    3  502    0  0.13932048996E+02  0.29293029534E+02 -0.78421866425E+01  0.33632660612E+02  0.41800000000E+01 0. -1.
         -5    1    3    3    0  502 -0.46892911992E+01  0.56756810754E+02 -0.35871963385E+03  0.36323624974E+03  0.41800000000E+01 0. -1.
        -11    1    1    2    0    0  0.33469617829E+02 -0.11400192050E+02 -0.54935272165E+02  0.65330420359E+02  0.00000000000E+00 0. -1.
         11    1    1    2    0    0 -0.42712375626E+02 -0.74649648238E+02 -0.62467389300E+02  0.10629718594E+03  0.00000000000E+00 0.  1.
</event>
<event>
 7    1  0.4960272E-009  0.9583946E+02  0.7561462E-02  0.1289297E+00
         -2   -1    0    0    0  501 -0.00000000000E+00  0.00000000000E+00  0.12777580892E+02  0.12777580892E+02  0.00000000000E+00 0.  1.
          2   -1    0    0  501    0  0.00000000000E+00 -0.00000000000E+00 -0.12622219879E+04  0.12622219879E+04  0.00000000000E+00 0. -1.
         25    2    1    2    0    0 -0.38810888991E+02  0.20507780027E+02 -0.94410291154E+03  0.95336511315E+03  0.12509147548E+03 0.  0.
          5    1    3    3  502    0 -0.73525980162E+01 -0.41551666130E+02 -0.63882740723E+03  0.64023318430E+03  0.41800000000E+01 0.  1.
         -5    1    3    3    0  502 -0.31458290975E+02  0.62059446156E+02 -0.30527550431E+03  0.31313192884E+03  0.41800000000E+01 0.  1.
        -11    1    1    2    0    0  0.39695321247E+01  0.23279178748E+02 -0.20265938379E+02  0.31118894692E+02  0.00000000000E+00 0.  1.
         11    1    1    2    0    0  0.34841356866E+02 -0.43786958774E+02 -0.28507555711E+03  0.29051556097E+03  0.00000000000E+00 0. -1.
</event>
<event>
 7    1  0.2788485E-009  0.2200613E+03  0.7561462E-02  0.1133837E+00
         -2   -1    0    0    0  501 -0.00000000000E+00  0.00000000000E+00  0.94343066020E+02  0.94343066020E+02  0.00000000000E+00 0.  1.
          2   -1    0    0  501    0  0.00000000000E+00 -0.00000000000E+00 -0.54647680623E+03  0.54647680623E+03  0.00000000000E+00 0. -1.
         25    2    1    2    0    0 -0.11481737339E+03  0.16032766154E+03 -0.19099531848E+03  0.30168474034E+03  0.12508590082E+03 0.  0.
          5    1    3    3  502    0 -0.11847952560E+03  0.17863424142E+03 -0.17531699047E+03  0.27694965200E+03  0.41800000000E+01 0.  1.
         -5    1    3    3    0  502  0.36621522141E+01 -0.18306579882E+02 -0.15678328008E+02  0.24735088335E+02  0.41800000000E+01 0.  1.
        -11    1    1    2    0    0  0.53030103745E+02 -0.26693405678E+02 -0.12601424513E+03  0.13929938904E+03  0.00000000000E+00 0.  1.
         11    1    1    2    0    0  0.61787269643E+02 -0.13363425586E+03 -0.13512417660E+03  0.19983574288E+03  0.00000000000E+00 0. -1.
</event>
<event>
 7    1  0.2788485E-009  0.7871287E+02  0.7561462E-02  0.1332744E+00
         -2   -1    0    0    0  501 -0.00000000000E+00  0.00000000000E+00  0.47870875392E+03  0.47870875392E+03  0.00000000000E+00 0.  1.
          2   -1    0    0  501    0  0.00000000000E+00 -0.00000000000E+00 -0.32754993949E+02  0.32754993949E+02  0.00000000000E+00 0. -1.
         25    2    1    2    0    0 -0.39447112978E+02  0.36910569562E+02  0.17430667908E+03  0.22124308659E+03  0.12508884892E+03 0.  0.
          5    1    3    3  502    0 -0.34298753071E+02  0.38669568604E+02  0.19377875641E+03  0.20059765410E+03  0.41800000000E+01 0. -1.
         -5    1    3    3    0  502 -0.51483599069E+01 -0.17589990418E+01 -0.19472077323E+02  0.20645432488E+02  0.41800000000E+01 0. -1.
        -11    1    1    2    0    0  0.64217722824E+02 -0.15730908584E+02  0.14357583619E+03  0.15806770116E+03  0.00000000000E+00 0. -1.
         11    1    1    2    0    0 -0.24770609846E+02 -0.21179660978E+02  0.12807124470E+03  0.13215296012E+03  0.00000000000E+00 0.  1.
</event>
<event>
 7    1  0.2788485E-009  0.1336225E+03  0.7561462E-02  0.1222177E+00
         -2   -1    0    0    0  501 -0.00000000000E+00  0.00000000000E+00  0.19647911835E+03  0.19647911835E+03  0.00000000000E+00 0. -1.
          2   -1    0    0  501    0  0.00000000000E+00 -0.00000000000E+00 -0.98167555377E+02  0.98167555377E+02  0.00000000000E+00 0.  1.
         25    2    1    2    0    0  0.81249004682E+02 -0.63376487904E+01  0.20649652432E+02  0.15071877592E+03  0.12509266452E+03 0.  0.
          5    1    3    3  502    0 -0.31750780598E+02  0.76537515093E+01  0.16191128881E+02  0.36692193110E+02  0.41800000000E+01 0. -1.
         -5    1    3    3    0  502  0.11299978528E+03 -0.13991400300E+02  0.44585235510E+01  0.11402658281E+03  0.41800000000E+01 0. -1.
        -11    1    1    2    0    0 -0.39732317643E+02 -0.41218448810E+02  0.28724438497E+02  0.64052407875E+02  0.00000000000E+00 0.  1.
         11    1    1    2    0    0 -0.41516687039E+02  0.47556097601E+02  0.48937472048E+02  0.79875489934E+02  0.00000000000E+00 0. -1.
</event>
<event>
 7    1  0.2788485E-009  0.1007333E+03  0.7561462E-02  0.1278761E+00
          2   -1    0    0  501    0  0.00000000000E+00  0.00000000000E+00  0.54318417445E+02  0.54318417445E+02  0.00000000000E+00 0. -1.
         -2   -1    0    0    0  501 -0.00000000000E+00 -0.00000000000E+00 -0.29045851645E+03  0.29045851645E+03  0.00000000000E+00 0.  1.
         25    2    1    2    0    0  0.46292077647E+02  0.30809280272E+02 -0.15717850249E+03  0.20843650862E+03  0.12509407770E+03 0.  0.
          5    1    3    3  502    0  0.27779134011E+02  0.62298588505E+02 -0.27530911125E+02  0.73676440492E+02  0.41800000000E+01 0.  1.
         -5    1    3    3    0  502  0.18512943636E+02 -0.31489308233E+02 -0.12964759137E+03  0.13476006813E+03  0.41800000000E+01 0.  1.
        -11    1    1    2    0    0 -0.14376970167E+01 -0.48223229615E+02 -0.55462055157E+01  0.48562405653E+02  0.00000000000E+00 0. -1.
         11    1    1    2    0    0 -0.44854380631E+02  0.17413949342E+02 -0.73415390999E+02  0.87778019623E+02  0.00000000000E+00 0.  1.
</event>
<event>
 7    1  0.2788485E-009  0.1662828E+03  0.7561462E-02  0.1181781E+00
         -2   -1    0    0    0  501 -0.00000000000E+00  0.00000000000E+00  0.46647384576E+03  0.46647384576E+03  0.00000000000E+00 0.  1.
          2   -1    0    0  501    0  0.00000000000E+00 -0.00000000000E+00 -0.10343470443E+03  0.10343470443E+03  0.00000000000E+00 0. -1.
         25    2    1    2    0    0  0.96805694419E+02 -0.84760715700E+02  0.37143018497E+03  0.41251024798E+03  0.12509436832E+03 0.  0.
          5    1    3    3  502    0 -0.18660709848E+02 -0.57485973209E+02  0.13370655628E+03  0.14679160330E+03  0.41800000000E+01 0.  1.
         -5    1    3    3    0  502  0.11546640427E+03 -0.27274742491E+02  0.23772362869E+03  0.26571864468E+03  0.41800000000E+01 0.  1.
        -11    1    1    2    0    0 -0.83179032360E+02  0.17969909082E+02  0.12706531306E+02  0.86041414415E+02  0.00000000000E+00 0.  1.
         11    1    1    2    0    0 -0.13626662059E+02  0.66790806618E+02 -0.21097574947E+02  0.71356887798E+02  0.00000000000E+00 0. -1.
</event>
<event>
 7    1  0.2788485E-009  0.1200387E+03  0.7561462E-02  0.1243033E+00
          2   -1    0    0  501    0  0.00000000000E+00  0.00000000000E+00  0.13404874930E+03  0.13404874930E+03  0.00000000000E+00 0. -1.
         -2   -1    0    0    0  501 -0.00000000000E+00 -0.00000000000E+00 -0.12731464049E+03  0.12731464049E+03  0.00000000000E+00 0.  1.
         25    2    1    2    0    0  0.28070146176E+02 -0.53972954891E+02 -0.32767831715E+02  0.14290715155E+03  0.12509080783E+03 0.  0.
          5    1    3    3  502    0 -0.24286762512E+02  0.27441457278E+02 -0.27261051955E+02  0.45864122847E+02  0.41800000000E+01 0. -1.
         -5    1    3    3    0  502  0.52356908688E+02 -0.81414412169E+02 -0.55067797593E+01  0.97043028701E+02  0.41800000000E+01 0. -1.
        -11    1    1    2    0    0  0.28918075592E+02  0.36771131559E+02 -0.41860797274E+00  0.46781902961E+02  0.00000000000E+00 0.  1.
         11    1    1    2    0    0 -0.56988221768E+02  0.17201823333E+02  0.39920548496E+02  0.71674335284E+02  0.00000000000E+00 0. -1.
</event>
<event>
 7    1  0.2788485E-009  0.2894880E+03  0.7561462E-02  0.1090617E+00
          1   -1    0    0  501    0  0.00000000000E+00  0.00000000000E+00  0.20499394493E+03  0.20499394493E+03  0.00000000000E+00 0. -1.
         -1   -1    0    0    0  501 -0.00000000000E+00 -0.00000000000E+00 -0.45371612409E+03  0.45371612409E+03  0.00000000000E+00 0.  1.
         25    2    1    2    0    0  0.23941855027E+03  0.15321802917E+03 -0.95933170984E+02  0.32503377165E+03  0.12508706067E+03 0.  0.
          5    1    3    3  502    0  0.15889041173E+03  0.94555846016E+02  0.24386407977E+01  0.18496051017E+03  0.41800000000E+01 0.  1.
         -5    1    3    3    0  502  0.80528138540E+02  0.58662183153E+02 -0.98371811782E+02  0.14007326148E+03  0.41800000000E+01 0.  1.
        -11    1    1    2    0    0 -0.12500192815E+03 -0.35032272744E+02 -0.46825880888E+02  0.13800509156E+03  0.00000000000E+00 0.  1.
         11    1    1    2    0    0 -0.11441662211E+03 -0.11818575642E+03 -0.10596312729E+03  0.19567120581E+03  0.00000000000E+00 0. -1.
</event>
<event>
 7    1  0.2788485E-009  0.2148261E+03  0.7561462E-02  0.1137800E+00
          2   -1    0    0  501    0  0.00000000000E+00  0.00000000000E+00  0.28527963534E+04  0.28527963534E+04  0.00000000000E+00 0. -1.
         -2   -1    0    0    0  501 -0.00000000000E+00 -0.00000000000E+00 -0.34565003314E+02  0.34565003314E+02  0.00000000000E+00 0.  1.
         25    2    1    2    0    0 -0.19019388633E+03 -0.48632778525E+02  0.24426819295E+04  0.24537483689E+04  0.12508871910E+03 0.  0.
          5    1    3    3  502    0  0.12927681018E+02 -0.23465838425E+02  0.22185253167E+03  0.22350344229E+03  0.41800000000E+01 0. -1.
         -5    1    3    3    0  502 -0.20312156735E+03 -0.25166940100E+02  0.22208293979E+04  0.22302449266E+04  0.41800000000E+01 0. -1.
        -11    1    1    2    0    0  0.15669101228E+02  0.11373323957E+02  0.18011713262E+01  0.19445242329E+02  0.00000000000E+00 0.  1.
         11    1    1    2    0    0  0.17452478510E+03  0.37259454568E+02  0.37374824923E+03  0.41416774545E+03  0.00000000000E+00 0. -1.
</event>
<event>
 7    1  0.2788485E-009  0.9965957E+02  0.7561462E-02  0.1281013E+00
         -1   -1    0    0    0  501 -0.00000000000E+00  0.00000000000E+00  0.25943336474E+02  0.25943336474E+02  0.00000000000E+00 0.  1.
          1   -1    0    0  501    0  0.00000000000E+00 -0.00000000000E+00 -0.81121595881E+03  0.81121595881E+03  0.00000000000E+00 0. -1.
         25    2    1    2    0    0 -0.70877636221E+02 -0.65172776388E+02 -0.46429524199E+03  0.49039617896E+03  0.12508881044E+03 0.  0.
          5    1    3    3  502    0 -0.54783034299E+02 -0.64059403491E+02 -0.12576868992E+03  0.15145964409E+03  0.41800000000E+01 0. -1.
         -5    1    3    3    0  502 -0.16094601922E+02 -0.11133728970E+01 -0.33852655207E+03  0.33893653487E+03  0.41800000000E+01 0. -1.
        -11    1    1    2    0    0  0.61355827029E+02  0.45440529510E+02 -0.31490367953E+03  0.32402732387E+03  0.00000000000E+00 0. -1.
         11    1    1    2    0    0  0.95218091926E+01  0.19732246878E+02 -0.60737008115E+01  0.22735792458E+02  0.00000000000E+00 0.  1.
</event>
<event>
 7    1  0.2788485E-009  0.2252506E+03  0.7561462E-02  0.1130028E+00
         -2   -1    0    0    0  501 -0.00000000000E+00  0.00000000000E+00  0.61046148979E+02  0.61046148979E+02  0.00000000000E+00 0.  1.
          2   -1    0    0  501    0  0.00000000000E+00 -0.00000000000E+00 -0.99603754807E+03  0.99603754807E+03  0.00000000000E+00 0. -1.
         25    2    1    2    0    0 -0.13419238469E+03  0.17378365069E+03 -0.39670107442E+03  0.47034967268E+03  0.12509483920E+03 0.  0.
          5    1    3    3  502    0  0.35810112188E+01  0.20045295595E+02 -0.13699942360E+03  0.13856749974E+03  0.41800000000E+01 0. -1.
         -5    1    3    3    0  502 -0.13777339591E+03  0.15373835509E+03 -0.25970165081E+03  0.33178217294E+03  0.41800000000E+01 0. -1.
        -11    1    1    2    0    0  0.31946341893E+02 -0.17364277910E+02 -0.37591585359E+02  0.52299275305E+02  0.00000000000E+00 0.  1.
         11    1    1    2    0    0  0.10224604280E+03 -0.15641937278E+03 -0.50069873931E+03  0.53443474906E+03  0.00000000000E+00 0. -1.
</event>
<event>
 7    1  0.2788485E-009  0.1367234E+03  0.7561462E-02  0.1217807E+00
          2   -1    0    0  501    0  0.00000000000E+00  0.00000000000E+00  0.11956785837E+03  0.11956785837E+03  0.00000000000E+00 0. -1.
         -2   -1    0    0    0  501 -0.00000000000E+00 -0.00000000000E+00 -0.22698237989E+03  0.22698237989E+03  0.00000000000E+00 0.  1.
         25    2    1    2    0    0 -0.84398535944E+02  0.75334468885E+02 -0.21215392368E+02  0.16998624860E+03  0.12508731658E+03 0.  0.
          5    1    3    3  502    0 -0.77518625081E+01 -0.29159816733E+02 -0.26278055160E+02  0.40229278731E+02  0.41800000000E+01 0. -1.
         -5    1    3    3    0  502 -0.76646673436E+02  0.10449428562E+03  0.50626627918E+01  0.12975696987E+03  0.41800000000E+01 0. -1.
        -11    1    1    2    0    0  0.73650912658E+02 -0.68564751588E+02 -0.11031036148E+03  0.14931161356E+03  0.00000000000E+00 0.  1.
         11    1    1    2    0    0  0.10747623287E+02 -0.67697172973E+01  0.24111232329E+02  0.27252376099E+02  0.00000000000E+00 0. -1.
</event>
<event>
 7    1  0.2788485E-009  0.1195613E+03  0.7561462E-02  0.1243822E+00
         -2   -1    0    0    0  501 -0.00000000000E+00  0.00000000000E+00  0.80392409968E+02  0.80392409968E+02  0.00000000000E+00 0.  1.
          2   -1    0    0  501    0  0.00000000000E+00 -0.00000000000E+00 -0.28241693604E+03  0.28241693604E+03  0.00000000000E+00 0. -1.
         25    2    1    2    0    0 -0.20306381453E+00  0.10425649672E+03 -0.10844943154E+03  0.19564800087E+03  0.12508957871E+03 0.  0.
          5    1    3    3  502    0  0.20639422105E+00  0.92935029097E+02 -0.67930149318E+01  0.93276897910E+02  0.41800000000E+01 0.  1.
         -5    1    3    3    0  502 -0.40945803557E+00  0.11321467620E+02 -0.10165641660E+03  0.10237110296E+03  0.41800000000E+01 0.  1.
        -11    1    1    2    0    0  0.36111856499E+02 -0.86961291668E+02 -0.45100103443E+02  0.10440474970E+03  0.00000000000E+00 0.  1.
         11    1    1    2    0    0 -0.35908792685E+02 -0.17295205049E+02 -0.48474991092E+02  0.62756595439E+02  0.00000000000E+00 0. -1.
</event>
<event>
 7    1  0.2788485E-009  0.2721497E+03  0.7561462E-02  0.1100056E+00
          2   -1    0    0  501    0  0.00000000000E+00  0.00000000000E+00  0.30779593237E+03  0.30779593237E+03  0.00000000000E+00 0. -1.
         -2   -1    0    0    0  501 -0.00000000000E+00 -0.00000000000E+00 -0.30947678129E+03  0.30947678129E+03  0.00000000000E+00 0.  1.
         25    2    1    2    0    0 -0.25606723225E+03  0.67942539029E+02 -0.11551796824E+03  0.31492664011E+03  0.12509105332E+03 0.  0.
          5    1    3    3  502    0 -0.20247493243E+03  0.30465263778E+02 -0.13650222196E+03  0.24611899471E+03  0.41800000000E+01 0.  1.
         -5    1    3    3    0  502 -0.53592299825E+02  0.37477275251E+02  0.20984253720E+02  0.68807645396E+02  0.41800000000E+01 0.  1.
        -11    1    1    2    0    0  0.18170907281E+03 -0.80182934091E+02  0.53186211653E+02  0.20561192371E+03  0.00000000000E+00 0.  1.
         11    1    1    2    0    0  0.74358159438E+02  0.12240395062E+02  0.60650907660E+02  0.96734149845E+02  0.00000000000E+00 0. -1.
</event>
<event>
 7    1  0.2788485E-009  0.1042609E+03  0.7561462E-02  0.1271583E+00
         -2   -1    0    0    0  501 -0.00000000000E+00  0.00000000000E+00  0.42131866379E+02  0.42131866379E+02  0.00000000000E+00 0. -1.
          2   -1    0    0  501    0  0.00000000000E+00 -0.00000000000E+00 -0.45282043420E+03  0.45282043420E+03  0.00000000000E+00 0.  1.
         25    2    1    2    0    0  0.17577441881E+02 -0.20263795123E+02 -0.81139225992E+02  0.15149170532E+03  0.12508626995E+03 0.  0.
          5    1    3    3  502    0  0.30871275711E+02  0.44675042008E+02 -0.12300770109E+02  0.55836156635E+02  0.41800000000E+01 0. -1.
         -5    1    3    3    0  502 -0.13293833830E+02 -0.64938837132E+02 -0.68838455883E+02  0.95655548685E+02  0.41800000000E+01 0. -1.
        -11    1    1    2    0    0  0.27903879921E+02 -0.13498270419E+02 -0.55040390724E+02  0.63168619029E+02  0.00000000000E+00 0. -1.
         11    1    1    2    0    0 -0.45481321801E+02  0.33762065542E+02 -0.27450895110E+03  0.28029197623E+03  0.00000000000E+00 0.  1.
</event>
<event>
 7    1  0.2788485E-009  0.1097867E+03  0.7561462E-02  0.1260965E+00
          1   -1    0    0  501    0  0.00000000000E+00  0.00000000000E+00  0.11216280521E+03  0.11216280521E+03  0.00000000000E+00 0. -1.
         -1   -1    0    0    0  501 -0.00000000000E+00 -0.00000000000E+00 -0.12202178728E+03  0.12202178728E+03  0.00000000000E+00 0.  1.
         25    2    1    2    0    0  0.29457800868E+02  0.26590426164E+02  0.14713830294E+02  0.13205880167E+03  0.12509283553E+03 0.  0.
          5    1    3    3  502    0 -0.41283864678E+02  0.31019363147E+02 -0.16677438806E+02  0.54425800296E+02  0.41800000000E+01 0.  1.
         -5    1    3    3    0  502  0.70741665546E+02 -0.44289369830E+01  0.31391269100E+02  0.77633001376E+02  0.41800000000E+01 0.  1.
        -11    1    1    2    0    0  0.13742410795E+02 -0.47011394139E+02 -0.23513188060E+02  0.54330424682E+02  0.00000000000E+00 0.  1.
         11    1    1    2    0    0 -0.43200211663E+02  0.20420967975E+02 -0.10596243026E+01  0.47795366139E+02  0.00000000000E+00 0. -1.
</event>
<event>
 7    1  0.2788485E-009  0.8541865E+02  0.7561462E-02  0.1314341E+00
          2   -1    0    0  501    0  0.00000000000E+00  0.00000000000E+00  0.61381829056E+03  0.61381829056E+03  0.00000000000E+00 0.  1.
         -2   -1    0    0    0  501 -0.00000000000E+00 -0.00000000000E+00 -0.21234630746E+02  0.21234630746E+02  0.00000000000E+00 0. -1.
         25    2    1    2    0    0 -0.69374612779E+01 -0.21578370606E+02  0.38306280861E+03  0.40360647687E+03  0.12508924167E+03 0.  0.
          5    1    3    3  502    0 -0.44210112912E+02 -0.11144507499E+02  0.48165175510E+02  0.66453673059E+02  0.41800000000E+01 0. -1.
         -5    1    3    3    0  502  0.37272651634E+02 -0.10433863106E+02  0.33489763310E+03  0.33715280381E+03  0.41800000000E+01 0. -1.
        -11    1    1    2    0    0  0.28445158595E+00  0.53507110437E+02  0.17882497123E+03  0.18665867811E+03  0.00000000000E+00 0.  1.
         11    1    1    2    0    0  0.66530096920E+01 -0.31928739831E+02  0.30695879981E+02  0.44787766332E+02  0.00000000000E+00 0. -1.
</event>
<event>
 7    1  0.2788485E-009  0.1985211E+03  0.7561462E-02  0.1150993E+00
         -1   -1    0    0    0  501 -0.00000000000E+00  0.00000000000E+00  0.44210215545E+03  0.44210215545E+03  0.00000000000E+00 0.  1.
          1   -1    0    0  501    0  0.00000000000E+00 -0.00000000000E+00 -0.14846171841E+03  0.14846171841E+03  0.00000000000E+00 0. -1.
         25    2    1    2    0    0 -0.11171376601E+03  0.12892122053E+03  0.33087516710E+03  0.39271880021E+03  0.12509609592E+03 0.  0.
          5    1    3    3  502    0 -0.11649342371E+03  0.48866818713E+02  0.24141279008E+03  0.27250007588E+03  0.41800000000E+01 0.  1.
         -5    1    3    3    0  502  0.47796576996E+01  0.80054401818E+02  0.89462377020E+02  0.12021872433E+03  0.41800000000E+01 0.  1.
        -11    1    1    2    0    0  0.71885493612E+02 -0.13209169553E+03 -0.12612579961E+02  0.15091327772E+03  0.00000000000E+00 0.  1.
         11    1    1    2    0    0  0.39828272396E+02  0.31704749964E+01 -0.24622150102E+02  0.46931795932E+02  0.00000000000E+00 0. -1.
</event>
<event>
 7    1  0.2788485E-009  0.9070892E+02  0.7561462E-02  0.1301144E+00
          1   -1    0    0  501    0  0.00000000000E+00  0.00000000000E+00  0.11585017870E+03  0.11585017870E+03  0.00000000000E+00 0. -1.
         -1   -1    0    0    0  501 -0.00000000000E+00 -0.00000000000E+00 -0.11173631872E+03  0.11173631872E+03  0.00000000000E+00 0.  1.
         25    2    1    2    0    0  0.20371445564E+02  0.14370142515E+02 -0.21741482862E+02  0.12938735345E+03  0.12508756279E+03 0.  0.
          5    1    3    3  502    0  0.11841516042E+02  0.64239526485E+02  0.14462586158E+02  0.67034148488E+02  0.41800000000E+01 0.  1.
         -5    1    3    3    0  502  0.85299295230E+01 -0.49869383970E+02 -0.36204069020E+02  0.62353204960E+02  0.41800000000E+01 0.  1.
        -11    1    1    2    0    0 -0.28391124668E+02 -0.33820583854E+02 -0.19446757326E+02  0.48250017851E+02  0.00000000000E+00 0.  1.
         11    1    1    2    0    0  0.80196791033E+01  0.19450441339E+02  0.45302100161E+02  0.49949126120E+02  0.00000000000E+00 0. -1.
</event>
<event>
 7    1  0.2788485E-009  0.1295976E+03  0.7561462E-02  0.1228054E+00
          1   -1    0    0  501    0  0.00000000000E+00  0.00000000000E+00  0.13440690153E+04  0.13440690153E+04  0.00000000000E+00 0. -1.
         -1   -1    0    0    0  501 -0.00000000000E+00 -0.00000000000E+00 -0.15600851538E+02  0.15600851538E+02  0.00000000000E+00 0.  1.
         25    2    1    2    0    0  0.74745121132E+02 -0.27668674703E+02  0.97788813703E+03  0.98907330058E+03  0.12509355177E+03 0.  0.
          5    1    3    3  502    0  0.91691504509E+02  0.17090637239E+02  0.48922195293E+03  0.49805121575E+03  0.41800000000E+01 0. -1.
         -5    1    3    3    0  502 -0.16946383377E+02 -0.44759311942E+02  0.48866618410E+03  0.49102208484E+03  0.41800000000E+01 0. -1.
        -11    1    1    2    0    0 -0.19402440429E+02 -0.31358167596E+02  0.78306838744E+02  0.86554897977E+02  0.00000000000E+00 0.  1.
         11    1    1    2    0    0 -0.55342680703E+02  0.59026842300E+02  0.27227318797E+03  0.28404166826E+03  0.00000000000E+00 0. -1.
</event>
<event>
 7    1  0.2788485E-009  0.1302739E+03  0.7561462E-02  0.1227050E+00
          1   -1    0    0  501    0  0.00000000000E+00  0.00000000000E+00  0.46216926278E+03  0.46216926278E+03  0.00000000000E+00 0. -1.
         -1   -1    0    0    0  501 -0.00000000000E+00 -0.00000000000E+00 -0.47283654082E+02  0.47283654082E+02  0.00000000000E+00 0.  1.
         25    2    1    2    0    0 -0.14030075572E+02 -0.76307580103E+02  0.11607160722E+03  0.18745550727E+03  0.12508900591E+03 0.  0.
          5    1    3    3  502    0 -0.46393209629E+02 -0.95343913776E+02  0.66884080109E+02  0.12543422326E+03  0.41800000000E+01 0.  1.
         -5    1    3    3    0  502  0.32363134058E+02  0.19036333673E+02  0.49187527115E+02  0.62021284004E+02  0.41800000000E+01 0.  1.
        -11    1    1    2    0    0 -0.36401056135E+02  0.42412032554E+02  0.18105689418E+03  0.18948724581E+03  0.00000000000E+00 0. -1.
         11    1    1    2    0    0  0.50431131706E+02  0.33895547549E+02  0.11775710730E+03  0.13251016379E+03  0.00000000000E+00 0.  1.
</event>
<event>
 7    1  0.2788485E-009  0.1095495E+03  0.7561462E-02  0.1261406E+00
          2   -1    0    0  501    0  0.00000000000E+00  0.00000000000E+00  0.73284661612E+03  0.73284661612E+03  0.00000000000E+00 0. -1.
         -2   -1    0    0    0  501 -0.00000000000E+00 -0.00000000000E+00 -0.27095226944E+02  0.27095226944E+02  0.00000000000E+00 0.  1.
         25    2    1    2    0    0 -0.70411575760E+02 -0.14670259041E+02  0.52581676088E+03  0.54525556271E+03  0.12508939262E+03 0.  0.
          5    1    3    3  502    0 -0.45240592554E+02 -0.48090035193E+02  0.47367497571E+03  0.47827274406E+03  0.41800000000E+01 0.  1.
         -5    1    3    3    0  502 -0.25170983206E+02  0.33419776152E+02  0.52141785167E+02  0.66982818648E+02  0.41800000000E+01 0.  1.
        -11    1    1    2    0    0  0.88767068588E+02  0.23698019048E+01  0.16684617551E+03  0.18900490658E+03  0.00000000000E+00 0. -1.
         11    1    1    2    0    0 -0.18355492828E+02  0.12300457136E+02  0.13088452784E+02  0.25681373776E+02  0.00000000000E+00 0.  1.
</event>
<event>
 7    1  0.2788485E-009  0.1071669E+03  0.7561462E-02  0.1265908E+00
          1   -1    0    0  501    0  0.00000000000E+00  0.00000000000E+00  0.41479543937E+02  0.41479543937E+02  0.00000000000E+00 0. -1.
         -1   -1    0    0    0  501 -0.00000000000E+00 -0.00000000000E+00 -0.29664599960E+03  0.29664599960E+03  0.00000000000E+00 0.  1.
         25    2    1    2    0    0  0.30812771864E+02  0.22746724390E+02 -0.11576921587E+03  0.17468800188E+03  0.12508615543E+03 0.  0.
          5    1    3    3  502    0  0.36167944798E+01  0.72212483507E+02 -0.79086510883E+02  0.10723745885E+03  0.41800000000E+01 0. -1.
         -5    1    3    3    0  502  0.27195977384E+02 -0.49465759117E+02 -0.36682704986E+02  0.67450543037E+02  0.41800000000E+01 0. -1.
        -11    1    1    2    0    0 -0.27160453803E+01 -0.47670812035E+02 -0.76365182186E+02  0.90064000982E+02  0.00000000000E+00 0.  1.
         11    1    1    2    0    0 -0.28096726483E+02  0.24924087645E+02 -0.63032057606E+02  0.73373540667E+02  0.00000000000E+00 0. -1.
</event>
<event>
 7    1  0.2788485E-009  0.6823638E+02  0.7561462E-02  0.1366195E+00
          1   -1    0    0  501    0  0.00000000000E+00  0.00000000000E+00  0.65061568237E+02  0.65061568237E+02  0.00000000000E+00 0. -1.
         -1   -1    0    0    0  501 -0.00000000000E+00 -0.00000000000E+00 -0.20263113759E+03  0.20263113759E+03  0.00000000000E+00 0.  1.
         25    2    1    2    0    0  0.28712377316E+02 -0.17974573411E+02 -0.70080922112E+02  0.14733244028E+03  0.12509207175E+03 0.  0.
          5    1    3    3  502    0  0.87185725007E+01 -0.46854912496E-01 -0.10367305646E+03  0.10412295971E+03  0.41800000000E+01 0.  1.
         -5    1    3    3    0  502  0.19993804815E+02 -0.17927718499E+02  0.33592134351E+02  0.43209480577E+02  0.41800000000E+01 0.  1.
        -11    1    1    2    0    0 -0.15470662736E+02 -0.38567230563E+02 -0.29673088809E+02  0.51061383435E+02  0.00000000000E+00 0.  1.
         11    1    1    2    0    0 -0.13241714579E+02  0.56541803975E+02 -0.37815558428E+02  0.69298882104E+02  0.00000000000E+00 0. -1.
</event>
<event>
 7    1  0.2788485E-009  0.9448052E+02  0.7561462E-02  0.1292350E+00
         -2   -1    0    0    0  501 -0.00000000000E+00  0.00000000000E+00  0.89315744096E+02  0.89315744096E+02  0.00000000000E+00 0. -1.
          2   -1    0    0  501    0  0.00000000000E+00 -0.00000000000E+00 -0.19778931220E+03  0.19778931220E+03  0.00000000000E+00 0.  1.
         25    2    1    2    0    0 -0.29691981788E+02  0.47424807622E+02 -0.10834384457E+03  0.17469042976E+03  0.12509049298E+03 0.  0.
          5    1    3    3  502    0 -0.41380252404E+02  0.48776121124E+02 -0.13267157877E+03  0.14734536129E+03  0.41800000000E+01 0. -1.
         -5    1    3    3    0  502  0.11688270617E+02 -0.13513135022E+01  0.24327734202E+02  0.27345068470E+02  0.41800000000E+01 0. -1.
        -11    1    1    2    0    0  0.65719582116E+02 -0.27911603925E+02  0.13758784470E+01  0.71414383346E+02  0.00000000000E+00 0. -1.
         11    1    1    2    0    0 -0.36027600329E+02 -0.19513203697E+02 -0.15056019795E+01  0.41000243185E+02  0.00000000000E+00 0.  1.
</event>
<event>
 7    1  0.2788485E-009  0.1090795E+03  0.7561462E-02  0.1262284E+00
          2   -1    0    0  501    0  0.00000000000E+00  0.00000000000E+00  0.91624372711E+03  0.91624372711E+03  0.00000000000E+00 0. -1.
         -2   -1    0    0    0  501 -0.00000000000E+00 -0.00000000000E+00 -0.19012298465E+02  0.19012298465E+02  0.00000000000E+00 0.  1.
         25    2    1    2    0    0  0.23210086566E+02 -0.51290268462E+02  0.66854620830E+03  0.68247439934E+03  0.12509146001E+03 0.  0.
          5    1    3    3  502    0 -0.38051541078E+02  0.16870825375E+02  0.14349031052E+03  0.14946399613E+03  0.41800000000E+01 0. -1.
         -5    1    3    3    0  502  0.61261627644E+02 -0.68161093837E+02  0.52505589778E+03  0.53301040321E+03  0.41800000000E+01 0. -1.
        -11    1    1    2    0    0  0.17467834813E+02  0.37947149615E+02  0.19172645448E+03  0.19622473025E+03  0.00000000000E+00 0. -1.
         11    1    1    2    0    0 -0.40677921379E+02  0.13343118848E+02  0.36958765871E+02  0.56556895981E+02  0.00000000000E+00 0.  1.
</event>
<event>
 7    1  0.2788485E-009  0.1135889E+03  0.7561462E-02  0.1254065E+00
          2   -1    0    0  501    0  0.00000000000E+00  0.00000000000E+00  0.59543554633E+03  0.59543554633E+03  0.00000000000E+00 0. -1.
         -2   -1    0    0    0  501 -0.00000000000E+00 -0.00000000000E+00 -0.24546325461E+02  0.24546325461E+02  0.00000000000E+00 0.  1.
         25    2    1    2    0    0  0.57679860040E+00 -0.52215866543E+02  0.31977269098E+03  0.34731669623E+03  0.12508990432E+03 0.  0.
          5    1    3    3  502    0 -0.24530124425E+02 -0.87619615196E+02  0.19719940730E+03  0.21721878973E+03  0.41800000000E+01 0.  1.
         -5    1    3    3    0  502  0.25106923026E+02  0.35403748653E+02  0.12257328368E+03  0.13009790650E+03  0.41800000000E+01 0.  1.
        -11    1    1    2    0    0 -0.29886690867E+02 -0.29389404283E+01  0.28315282087E+02  0.41274772700E+02  0.00000000000E+00 0.  1.
         11    1    1    2    0    0  0.29309892266E+02  0.55154806972E+02  0.22280124780E+03  0.23139040287E+03  0.00000000000E+00 0. -1.
</event>
<event>
 7    1  0.2788485E-009  0.9471155E+02  0.7561462E-02  0.1291827E+00
         -2   -1    0    0    0  501 -0.00000000000E+00  0.00000000000E+00  0.17316833406E+03  0.17316833406E+03  0.00000000000E+00 0.  1.
          2   -1    0    0  501    0  0.00000000000E+00 -0.00000000000E+00 -0.97649080749E+02  0.97649080749E+02  0.00000000000E+00 0. -1.
         25    2    1    2    0    0 -0.10553997652E+02  0.52976258501E+02  0.94108513905E+02  0.16560734971E+03  0.12510599928E+03 0.  0.
          5    1    3    3  502    0 -0.36689679161E+02 -0.15061626009E+02  0.82569680823E+02  0.91696290689E+02  0.41800000000E+01 0.  1.
         -5    1    3    3    0  502  0.26135681509E+02  0.68037884510E+02  0.11538833082E+02  0.73911059020E+02  0.41800000000E+01 0.  1.
        -11    1    1    2    0    0  0.32572525256E+02 -0.37233725437E+02  0.23814325129E+02  0.54903932399E+02  0.00000000000E+00 0.  1.
         11    1    1    2    0    0 -0.22018527604E+02 -0.15742533064E+02 -0.42403585724E+02  0.50306132701E+02  0.00000000000E+00 0. -1.
</event>
<event>
 7    1  0.2788485E-009  0.1227824E+03  0.7561462E-02  0.1238576E+00
          2   -1    0    0  501    0  0.00000000000E+00  0.00000000000E+00  0.24746077925E+03  0.24746077925E+03  0.00000000000E+00 0. -1.
         -2   -1    0    0    0  501 -0.00000000000E+00 -0.00000000000E+00 -0.67273440907E+02  0.67273440907E+02  0.00000000000E+00 0.  1.
         25    2    1    2    0    0 -0.36448821772E+02  0.53505881541E+02  0.79688805656E+02  0.16183494527E+03  0.12509535481E+03 0.  0.
          5    1    3    3  502    0  0.40780644815E+02  0.58561045656E+01  0.64139655113E+00  0.41415440861E+02  0.41800000000E+01 0.  1.
         -5    1    3    3    0  502 -0.77229466587E+02  0.47649776975E+02  0.79047409104E+02  0.12041950441E+03  0.41800000000E+01 0.  1.
        -11    1    1    2    0    0 -0.62384702554E+01 -0.67958494606E+02  0.46576032899E+02  0.82623255448E+02  0.00000000000E+00 0.  1.
         11    1    1    2    0    0  0.42687292027E+02  0.14452613065E+02  0.53922499787E+02  0.70276019440E+02  0.00000000000E+00 0. -1.
</event>
<event>
 7    1  0.2788485E-009  0.7863368E+02  0.7561462E-02  0.1332974E+00
         -1   -1    0    0    0  501 -0.00000000000E+00  0.00000000000E+00  0.13670712380E+03  0.13670712380E+03  0.00000000000E+00 0.  1.
          1   -1    0    0  501    0  0.00000000000E+00 -0.00000000000E+00 -0.95953185515E+02  0.95953185515E+02  0.00000000000E+00 0. -1.
         25    2    1    2    0    0 -0.10302203203E+02 -0.32219774216E+02  0.10720431095E+02  0.13002697277E+03  0.12509131371E+03 0.  0.
          5    1    3    3  502    0  0.62920292975E+01 -0.42220143629E+02 -0.50162459012E+02  0.65999051924E+02  0.41800000000E+01 0.  1.
         -5    1    3    3    0  502 -0.16594232500E+02  0.10000369412E+02  0.60882890107E+02  0.64027920851E+02  0.41800000000E+01 0.  1.
        -11    1    1    2    0    0 -0.30753880587E+02  0.42283609579E+02  0.28227245743E+01  0.52360983415E+02  0.00000000000E+00 0. -1.
         11    1    1    2    0    0  0.41056083790E+02 -0.10063835363E+02  0.27210782621E+02  0.50272353130E+02  0.00000000000E+00 0.  1.
</event>
<event>
 7    1  0.2788485E-009  0.2102015E+03  0.7561462E-02  0.1141407E+00
          1   -1    0    0  501    0  0.00000000000E+00  0.00000000000E+00  0.35958658415E+03  0.35958658415E+03  0.00000000000E+00 0. -1.
         -1   -1    0    0    0  501 -0.00000000000E+00 -0.00000000000E+00 -0.15956388887E+03  0.15956388887E+03  0.00000000000E+00 0.  1.
         25    2    1    2    0    0  0.19558674539E+03  0.45672238292E+02  0.28441793991E+02  0.23832030337E+03  0.12508997973E+03 0.  0.
          5    1    3    3  502    0  0.15749337133E+03  0.20709991468E+02 -0.32432171610E+02  0.16218009716E+03  0.41800000000E+01 0. -1.
         -5    1    3    3    0  502  0.38093374060E+02  0.24962246825E+02  0.60873965601E+02  0.76140206210E+02  0.41800000000E+01 0. -1.
        -11    1    1    2    0    0 -0.10511442169E+03 -0.64537342461E+02  0.63856832837E+02  0.13889494346E+03  0.00000000000E+00 0. -1.
         11    1    1    2    0    0 -0.90472323694E+02  0.18865104169E+02  0.10772406846E+03  0.14193522620E+03  0.00000000000E+00 0.  1.
</event>
<event>
 7    1  0.2788485E-009  0.4534029E+03  0.7561462E-02  0.1026712E+00
          2   -1    0    0  501    0  0.00000000000E+00  0.00000000000E+00  0.67899167909E+02  0.67899167909E+02  0.00000000000E+00 0.  1.
         -2   -1    0    0    0  501 -0.00000000000E+00 -0.00000000000E+00 -0.31386657263E+04  0.31386657263E+04  0.00000000000E+00 0. -1.
         25    2    1    2    0    0 -0.29823252505E+03  0.33038385113E+03 -0.17439978709E+04  0.18042369823E+04  0.12508551757E+03 0.  0.
          5    1    3    3  502    0 -0.13052500883E+02 -0.98813334337E+01 -0.96183811971E+02  0.97656574868E+02  0.41800000000E+01 0.  1.
         -5    1    3    3    0  502 -0.28518002417E+03  0.34026518457E+03 -0.16478140589E+04  0.17065804075E+04  0.41800000000E+01 0.  1.
        -11    1    1    2    0    0  0.89700218798E+02 -0.11863254144E+03 -0.57560829772E+03  0.59451217106E+03  0.00000000000E+00 0. -1.
         11    1    1    2    0    0  0.20853230626E+03 -0.21175130969E+03 -0.75116038984E+03  0.80781574086E+03  0.00000000000E+00 0.  1.
</event>
<event>
 7    1  0.2788485E-009  0.1597088E+03  0.7561462E-02  0.1189026E+00
          2   -1    0    0  501    0  0.00000000000E+00  0.00000000000E+00  0.11917399144E+04  0.11917399144E+04  0.00000000000E+00 0. -1.
         -2   -1    0    0    0  501 -0.00000000000E+00 -0.00000000000E+00 -0.34953292607E+02  0.34953292607E+02  0.00000000000E+00 0.  1.
         25    2    1    2    0    0  0.70900677410E+02  0.13341851499E+03  0.85037339555E+03  0.87270256689E+03  0.12508977658E+03 0.  0.
          5    1    3    3  502    0  0.34307354975E+02  0.40066349888E+02  0.60905171268E+03  0.61134586620E+03  0.41800000000E+01 0. -1.
         -5    1    3    3    0  502  0.36593322435E+02  0.93352165100E+02  0.24132168287E+03  0.26135670070E+03  0.41800000000E+01 0. -1.
        -11    1    1    2    0    0 -0.44722776378E+02 -0.18687765369E+02  0.15391301701E+03  0.16136473006E+03  0.00000000000E+00 0. -1.
         11    1    1    2    0    0 -0.26177901032E+02 -0.11473074962E+03  0.15250020925E+03  0.19262591007E+03  0.00000000000E+00 0.  1.
</event>
<event>
 7    1  0.2788485E-009  0.1154177E+03  0.7561462E-02  0.1250854E+00
          1   -1    0    0  501    0  0.00000000000E+00  0.00000000000E+00  0.82173261749E+03  0.82173261749E+03  0.00000000000E+00 0. -1.
         -1   -1    0    0    0  501 -0.00000000000E+00 -0.00000000000E+00 -0.17993816905E+02  0.17993816905E+02  0.00000000000E+00 0.  1.
         25    2    1    2    0    0  0.34518198271E+02  0.42871112510E+02  0.42618197795E+03  0.44755877478E+03  0.12509332616E+03 0.  0.
          5    1    3    3  502    0  0.72505952123E+02  0.46820966623E+02  0.36672920131E+03  0.37677194097E+03  0.41800000000E+01 0. -1.
         -5    1    3    3    0  502 -0.37987753852E+02 -0.39498541129E+01  0.59452776647E+02  0.70786833813E+02  0.41800000000E+01 0. -1.
        -11    1    1    2    0    0 -0.63489791502E+02 -0.13821331885E+02  0.23692830304E+03  0.24567662409E+03  0.00000000000E+00 0. -1.
         11    1    1    2    0    0  0.28971593231E+02 -0.29049780625E+02  0.14062851959E+03  0.14649103553E+03  0.00000000000E+00 0.  1.
</event>
<event>
 7    1  0.2788485E-009  0.1012246E+03  0.7561462E-02  0.1277742E+00
         -1   -1    0    0    0  501 -0.00000000000E+00  0.00000000000E+00  0.57227131277E+02  0.57227131277E+02  0.00000000000E+00 0.  1.
          1   -1    0    0  501    0  0.00000000000E+00 -0.00000000000E+00 -0.27878347720E+03  0.27878347720E+03  0.00000000000E+00 0. -1.
         25    2    1    2    0    0 -0.23819533262E+02  0.42196665733E+02 -0.66273228573E+02  0.14962021291E+03  0.12508452551E+03 0.  0.
          5    1    3    3  502    0 -0.75025848262E+02  0.19082279888E+02 -0.43112636569E+02  0.88708416428E+02  0.41800000000E+01 0.  1.
         -5    1    3    3    0  502  0.51206315000E+02  0.23114385845E+02 -0.23160592004E+02  0.60911796483E+02  0.41800000000E+01 0.  1.
        -11    1    1    2    0    0  0.28835383282E+02 -0.29126157600E+01 -0.31101391390E+01  0.29148509826E+02  0.00000000000E+00 0.  1.
         11    1    1    2    0    0 -0.50158500201E+01 -0.39284049973E+02 -0.15217297821E+03  0.15724188574E+03  0.00000000000E+00 0. -1.
</event>
<event>
 7    1  0.2788485E-009  0.1496561E+03  0.7561462E-02  0.1200896E+00
         -1   -1    0    0    0  501 -0.00000000000E+00  0.00000000000E+00  0.12641868714E+03  0.12641868714E+03  0.00000000000E+00 0.  1.
          1   -1    0    0  501    0  0.00000000000E+00 -0.00000000000E+00 -0.29863607156E+03  0.29863607156E+03  0.00000000000E+00 0. -1.
         25    2    1    2    0    0 -0.64152836372E+02  0.54354569336E+02 -0.52024787035E+01  0.15081240953E+03  0.12508921401E+03 0.  0.
          5    1    3    3  502    0 -0.25746036958E+02 -0.69833155613E+00  0.54791192862E+02  0.60686846197E+02  0.41800000000E+01 0.  1.
         -5    1    3    3    0  502 -0.38406799415E+02  0.55052900892E+02 -0.59993671566E+02  0.90125563332E+02  0.41800000000E+01 0.  1.
        -11    1    1    2    0    0 -0.61389297866E+02  0.14076359974E+02 -0.13418449134E+02  0.64395998166E+02  0.00000000000E+00 0.  1.
         11    1    1    2    0    0  0.12554213424E+03 -0.68430929311E+02 -0.15359645658E+03  0.20984635100E+03  0.00000000000E+00 0. -1.
</event>
<event>
 7    1  0.2788485E-009  0.1084177E+03  0.7561462E-02  0.1263528E+00
          2   -1    0    0  501    0  0.00000000000E+00  0.00000000000E+00  0.14730450694E+04  0.14730450694E+04  0.00000000000E+00 0. -1.
         -2   -1    0    0    0  501 -0.00000000000E+00 -0.00000000000E+00 -0.13695593710E+02  0.13695593710E+02  0.00000000000E+00 0.  1.
         25    2    1    2    0    0  0.63541564883E+02 -0.23118547202E+01  0.11395267774E+04  0.11481334256E+04  0.12508481735E+03 0.  0.
          5    1    3    3  502    0 -0.24520008445E+02 -0.24889076891E+02  0.59622345091E+03  0.59726089172E+03  0.41800000000E+01 0.  1.
         -5    1    3    3    0  502  0.88061573328E+02  0.22577222171E+02  0.54330332649E+03  0.55087253392E+03  0.41800000000E+01 0.  1.
        -11    1    1    2    0    0 -0.39774746042E+02 -0.30503003560E+02  0.26890030984E+03  0.27353215585E+03  0.00000000000E+00 0. -1.
         11    1    1    2    0    0 -0.23766818841E+02  0.32814858280E+02  0.50922388425E+02  0.65075081596E+02  0.00000000000E+00 0.  1.
</event>
<event>
 7    1  0.2788485E-009  0.1155892E+03  0.7561462E-02  0.1250556E+00
          3   -1    0    0  501    0  0.00000000000E+00  0.00000000000E+00  0.25445900959E+03  0.25445900959E+03  0.00000000000E+00 0. -1.
         -3   -1    0    0    0  501 -0.00000000000E+00 -0.00000000000E+00 -0.11626897283E+03  0.11626897283E+03  0.00000000000E+00 0.  1.
         25    2    1    2    0    0  0.64407500944E+02 -0.33900808327E+02  0.19275163491E+03  0.24103896841E+03  0.12509596535E+03 0.  0.
          5    1    3    3  502    0 -0.30258801908E+02  0.17424699733E+02  0.32253759861E+02  0.47717844449E+02  0.41800000000E+01 0.  1.
         -5    1    3    3    0  502  0.94666302852E+02 -0.51325508060E+02  0.16049787505E+03  0.19332112396E+03  0.41800000000E+01 0.  1.
        -11    1    1    2    0    0 -0.31658764050E+01 -0.11553324977E+02  0.19818275351E+02  0.23157420611E+02  0.00000000000E+00 0. -1.
         11    1    1    2    0    0 -0.61241624539E+02  0.45454133304E+02 -0.74379873500E+02  0.10653159340E+03  0.00000000000E+00 0.  1.
</event>
<event>
 7    1  0.2788485E-009  0.7791052E+02  0.7561462E-02  0.1335088E+00
          1   -1    0    0  501    0  0.00000000000E+00  0.00000000000E+00  0.35731374667E+02  0.35731374667E+02  0.00000000000E+00 0. -1.
         -1   -1    0    0    0  501 -0.00000000000E+00 -0.00000000000E+00 -0.42004722908E+03  0.42004722908E+03  0.00000000000E+00 0.  1.
         25    2    1    2    0    0 -0.27700818095E+02  0.29344345743E+02 -0.14419987722E+03  0.19511285039E+03  0.12508794445E+03 0.  0.
          5    1    3    3  502    0 -0.50932032271E+02  0.11826442973E+01 -0.14949033614E+03  0.15798830196E+03  0.41800000000E+01 0.  1.
         -5    1    3    3    0  502  0.23231214177E+02  0.28161701445E+02  0.52904589155E+01  0.37124548428E+02  0.41800000000E+01 0.  1.
        -11    1    1    2    0    0 -0.18584736399E+01 -0.37300788453E+02 -0.22194947897E+03  0.22506970911E+03  0.00000000000E+00 0.  1.
         11    1    1    2    0    0  0.29559291734E+02  0.79564427103E+01 -0.18166498222E+02  0.35596044248E+02  0.00000000000E+00 0. -1.
</event>
<event>
 7    1  0.2788485E-009  0.1548754E+03  0.7561462E-02  0.1194607E+00
          1   -1    0    0  501    0  0.00000000000E+00  0.00000000000E+00  0.85774327311E+03  0.85774327311E+03  0.00000000000E+00 0. -1.
         -1   -1    0    0    0  501 -0.00000000000E+00 -0.00000000000E+00 -0.35969247482E+02  0.35969247482E+02  0.00000000000E+00 0.  1.
         25    2    1    2    0    0  0.12712299298E+03 -0.41316004784E+02  0.35559851643E+03  0.39995644922E+03  0.12509032252E+03 0.  0.
          5    1    3    3  502    0  0.11492246444E+03 -0.76493011026E+02  0.22426295731E+03  0.26338128253E+03  0.41800000000E+01 0. -1.
         -5    1    3    3    0  502  0.12200528542E+02  0.35177006242E+02  0.13133555912E+03  0.13657516669E+03  0.41800000000E+01 0. -1.
        -11    1    1    2    0    0 -0.98941226000E+02  0.26998084904E+02  0.44258760498E+03  0.45431492477E+03  0.00000000000E+00 0. -1.
         11    1    1    2    0    0 -0.28181766980E+02  0.14317919880E+02  0.23587904224E+02  0.39441146605E+02  0.00000000000E+00 0.  1.
</event>
<event>
 7    1  0.2788485E-009  0.1207200E+03  0.7561462E-02  0.1241914E+00
          2   -1    0    0  501    0  0.00000000000E+00  0.00000000000E+00  0.10266571518E+04  0.10266571518E+04  0.00000000000E+00 0. -1.
         -2   -1    0    0    0  501 -0.00000000000E+00 -0.00000000000E+00 -0.30261958006E+02  0.30261958006E+02  0.00000000000E+00 0.  1.
         25    2    1    2    0    0  0.64664138136E+02  0.34910464065E+02  0.87874646518E+03  0.89064262663E+03  0.12509495212E+03 0.  0.
          5    1    3    3  502    0 -0.14590223285E+02  0.59612335419E+02  0.33954018958E+03  0.34506741065E+03  0.41800000000E+01 0.  1.
         -5    1    3    3    0  502  0.79254361421E+02 -0.24701871354E+02  0.53920627560E+03  0.54557521598E+03  0.41800000000E+01 0.  1.
        -11    1    1    2    0    0  0.65126413811E+00  0.14744647645E+02 -0.75581991062E+01  0.16581771705E+02  0.00000000000E+00 0.  1.
         11    1    1    2    0    0 -0.65315402274E+02 -0.49655111710E+02  0.12520692773E+03  0.14969471148E+03  0.00000000000E+00 0. -1.
</event>
<event>
 7    1  0.2788485E-009  0.1191379E+03  0.7561462E-02  0.1244526E+00
         -2   -1    0    0    0  501 -0.00000000000E+00  0.00000000000E+00  0.20708602635E+03  0.20708602635E+03  0.00000000000E+00 0.  1.
          2   -1    0    0  501    0  0.00000000000E+00 -0.00000000000E+00 -0.10386811700E+03  0.10386811700E+03  0.00000000000E+00 0. -1.
         25    2    1    2    0    0  0.79586833927E+02  0.52552526862E+02  0.30981113760E+02  0.16032896147E+03  0.12509881799E+03 0.  0.
          5    1    3    3  502    0  0.39613738548E+02  0.66887256029E+02  0.68358497158E+02  0.10360265361E+03  0.41800000000E+01 0.  1.
         -5    1    3    3    0  502  0.39973095380E+02 -0.14334729167E+02 -0.37377383398E+02  0.56726307867E+02  0.41800000000E+01 0.  1.
        -11    1    1    2    0    0 -0.58778990169E+02  0.25706161908E+01  0.70302954413E+02  0.91673786613E+02  0.00000000000E+00 0.  1.
         11    1    1    2    0    0 -0.20807843759E+02 -0.55123143053E+02  0.19338411740E+01  0.58951395264E+02  0.00000000000E+00 0. -1.
</event>
<event>
 7    1  0.2788485E-009  0.1030476E+03  0.7561462E-02  0.1274015E+00
         -2   -1    0    0    0  501 -0.00000000000E+00  0.00000000000E+00  0.66324375085E+02  0.66324375085E+02  0.00000000000E+00 0.  1.
          2   -1    0    0  501    0  0.00000000000E+00 -0.00000000000E+00 -0.28362715663E+03  0.28362715663E+03  0.00000000000E+00 0. -1.
         25    2    1    2    0    0 -0.51062665107E+02 -0.58676960914E+02 -0.89554730002E+02  0.17239161340E+03  0.12509371365E+03 0.  0.
          5    1    3    3  502    0 -0.59738714599E+02 -0.68026374087E+02 -0.93945718221E+01  0.91115487010E+02  0.41800000000E+01 0.  1.
         -5    1    3    3    0  502  0.86760494921E+01  0.93494131731E+01 -0.80160158180E+02  0.81276126389E+02  0.41800000000E+01 0.  1.
        -11    1    1    2    0    0 -0.15609223118E+02  0.18483882857E+02  0.40082871038E+01  0.24522808513E+02  0.00000000000E+00 0.  1.
         11    1    1    2    0    0  0.66671888225E+02  0.40193078057E+02 -0.13175633865E+03  0.15303710980E+03  0.00000000000E+00 0. -1.
</event>
<event>
 7    1  0.2788485E-009  0.1207863E+03  0.7561462E-02  0.1241805E+00
          1   -1    0    0  501    0  0.00000000000E+00  0.00000000000E+00  0.91664641351E+02  0.91664641351E+02  0.00000000000E+00 0. -1.
         -1   -1    0    0    0  501 -0.00000000000E+00 -0.00000000000E+00 -0.24451035207E+03  0.24451035207E+03  0.00000000000E+00 0.  1.
         25    2    1    2    0    0 -0.67996751012E+02  0.65315813877E+02 -0.36794061868E+02  0.16090458136E+03  0.12508704019E+03 0.  0.
          5    1    3    3  502    0 -0.92568414916E+02  0.34596589913E+02  0.10248183946E+02  0.99440098289E+02  0.41800000000E+01 0. -1.
         -5    1    3    3    0  502  0.24571663904E+02  0.30719223964E+02 -0.47042245814E+02  0.61464483071E+02  0.41800000000E+01 0. -1.
        -11    1    1    2    0    0  0.34629002620E+02 -0.60054293741E+02 -0.12261848330E+03  0.14085800817E+03  0.00000000000E+00 0.  1.
         11    1    1    2    0    0  0.33367748392E+02 -0.52615201354E+01  0.65668344479E+01  0.34412403891E+02  0.00000000000E+00 0. -1.
</event>
<event>
 7    1  0.2788485E-009  0.8686495E+02  0.7561462E-02  0.1310626E+00
         -2   -1    0    0    0  501 -0.00000000000E+00  0.00000000000E+00  0.31519182824E+02  0.31519182824E+02  0.00000000000E+00 0.  1.
          2   -1    0    0  501    0  0.00000000000E+00 -0.00000000000E+00 -0.39156569447E+03  0.39156569447E+03  0.00000000000E+00 0. -1.
         25    2    1    2    0    0 -0.23961933362E+01 -0.92500806184E+01 -0.26208718588E+03  0.29056788988E+03  0.12509476366E+03 0.  0.
          5    1    3    3  502    0 -0.26498089646E+02 -0.53002115289E+02 -0.68849046044E+02  0.90934242841E+02  0.41800000000E+01 0. -1.
         -5    1    3    3    0  502  0.24101896310E+02  0.43752034670E+02 -0.19323813983E+03  0.19963364704E+03  0.41800000000E+01 0. -1.
        -11    1    1    2    0    0 -0.11570375238E+02  0.33926425368E+02 -0.97799898345E+02  0.10416187420E+03  0.00000000000E+00 0. -1.
         11    1    1    2    0    0  0.13966568575E+02 -0.24676344749E+02 -0.15942742102E+00  0.28355113208E+02  0.00000000000E+00 0.  1.
</event>
<event>
 7    1  0.2788485E-009  0.8766190E+02  0.7561462E-02  0.1308615E+00
          1   -1    0    0  501    0  0.00000000000E+00  0.00000000000E+00  0.67924112871E+02  0.67924112871E+02  0.00000000000E+00 0. -1.
         -1   -1    0    0    0  501 -0.00000000000E+00 -0.00000000000E+00 -0.20626224931E+03  0.20626224931E+03  0.00000000000E+00 0.  1.
         25    2    1    2    0    0 -0.34901985653E+02  0.27172420455E+02 -0.48317880590E+02  0.14120481732E+03  0.12509074231E+03 0.  0.
          5    1    3    3  502    0  0.29984870853E+01  0.60969122048E+02 -0.63357981914E+02  0.88079118072E+02  0.41800000000E+01 0.  1.
         -5    1    3    3    0  502 -0.37900472739E+02 -0.33796701593E+02  0.15040101325E+02  0.53125699245E+02  0.41800000000E+01 0.  1.
        -11    1    1    2    0    0  0.20621170179E+02 -0.39344776638E+02 -0.10163133982E+03  0.11091516282E+03  0.00000000000E+00 0.  1.
         11    1    1    2    0    0  0.14280815475E+02  0.12172356183E+02  0.11611083974E+02  0.22066382049E+02  0.00000000000E+00 0. -1.
</event>
<event>
 7    1  0.2788485E-009  0.1572246E+03  0.7561462E-02  0.1191866E+00
         -2   -1    0    0    0  501 -0.00000000000E+00  0.00000000000E+00  0.37558981364E+02  0.37558981364E+02  0.00000000000E+00 0. -1.
          2   -1    0    0  501    0  0.00000000000E+00 -0.00000000000E+00 -0.90920831114E+03  0.90920831114E+03  0.00000000000E+00 0.  1.
         25    2    1    2    0    0  0.13483773157E+03 -0.39854492289E+02 -0.58402635885E+03  0.61359921756E+03  0.12509043748E+03 0.  0.
          5    1    3    3  502    0  0.33022943769E+02  0.16405825277E+02 -0.30700899499E+02  0.48163093217E+02  0.41800000000E+01 0.  1.
         -5    1    3    3    0  502  0.10181478781E+03 -0.56260317565E+02 -0.55332545935E+03  0.56543612434E+03  0.41800000000E+01 0.  1.
        -11    1    1    2    0    0 -0.57795275958E+01 -0.18441307378E+02 -0.10586827196E+02  0.22035554613E+02  0.00000000000E+00 0. -1.
         11    1    1    2    0    0 -0.12905820398E+03  0.58295799666E+02 -0.27703614373E+03  0.31113252033E+03  0.00000000000E+00 0.  1.
</event>
<event>
 7    1  0.2788485E-009  0.1947541E+03  0.7561462E-02  0.1154242E+00
          1   -1    0    0  501    0  0.00000000000E+00  0.00000000000E+00  0.16201499629E+03  0.16201499629E+03  0.00000000000E+00 0. -1.
         -1   -1    0    0    0  501 -0.00000000000E+00 -0.00000000000E+00 -0.26729085466E+03  0.26729085466E+03  0.00000000000E+00 0.  1.
         25    2    1    2    0    0 -0.78318147520E+02  0.15723197951E+03 -0.85271360085E+02  0.23189186783E+03  0.12508799264E+03 0.  0.
          5    1    3    3  502    0  0.17075324438E+02  0.22298668582E+02 -0.57698701402E+02  0.64307152547E+02  0.41800000000E+01 0.  1.
         -5    1    3    3    0  502 -0.95393471958E+02  0.13493331092E+03 -0.27572658683E+02  0.16758471528E+03  0.41800000000E+01 0.  1.
        -11    1    1    2    0    0 -0.18009636987E+02 -0.41485295605E+02  0.17741006943E+01  0.45260625373E+02  0.00000000000E+00 0. -1.
         11    1    1    2    0    0  0.96327784507E+02 -0.11574668390E+03 -0.21778598977E+02  0.15215335775E+03  0.00000000000E+00 0.  1.
</event>
<event>
 7    1  0.2788485E-009  0.1837038E+03  0.7561462E-02  0.1164266E+00
         -2   -1    0    0    0  501 -0.00000000000E+00  0.00000000000E+00  0.15826637188E+03  0.15826637188E+03  0.00000000000E+00 0.  1.
          2   -1    0    0  501    0  0.00000000000E+00 -0.00000000000E+00 -0.26805439243E+03  0.26805439243E+03  0.00000000000E+00 0. -1.
         25    2    1    2    0    0  0.17089068791E+03  0.12506440440E+02 -0.23015056054E+02  0.21340302238E+03  0.12510443193E+03 0.  0.
          5    1    3    3  502    0  0.11148740665E+03  0.34496695400E+02 -0.68429858335E+02  0.13534984945E+03  0.41800000000E+01 0. -1.
         -5    1    3    3    0  502  0.59403281259E+02 -0.21990254960E+02  0.45414802281E+02  0.78053172926E+02  0.41800000000E+01 0. -1.
        -11    1    1    2    0    0 -0.86664307283E+02 -0.44041981467E+02 -0.16103522162E+02  0.98537920185E+02  0.00000000000E+00 0.  1.
         11    1    1    2    0    0 -0.84226380627E+02  0.31535541027E+02 -0.70669442336E+02  0.11437982174E+03  0.00000000000E+00 0. -1.
</event>
<event>
 7    1  0.2788485E-009  0.1289161E+03  0.7561462E-02  0.1229073E+00
         -2   -1    0    0    0  501 -0.00000000000E+00  0.00000000000E+00  0.90700039900E+02  0.90700039900E+02  0.00000000000E+00 0.  1.
          2   -1    0    0  501    0  0.00000000000E+00 -0.00000000000E+00 -0.27100046947E+03  0.27100046947E+03  0.00000000000E+00 0. -1.
         25    2    1    2    0    0  0.90567398270E+02  0.75075939858E+01 -0.17567107667E+03  0.23402306097E+03  0.12509056035E+03 0.  0.
          5    1    3    3  502    0  0.92287526716E+02 -0.42576346264E+02 -0.13674499623E+03  0.17043004208E+03  0.41800000000E+01 0. -1.
         -5    1    3    3    0  502 -0.17201284468E+01  0.50083940249E+02 -0.38926080437E+02  0.63593018885E+02  0.41800000000E+01 0. -1.
        -11    1    1    2    0    0 -0.69991171914E+01 -0.20125592874E+02  0.29618302270E+02  0.36486586019E+02  0.00000000000E+00 0.  1.
         11    1    1    2    0    0 -0.83568281078E+02  0.12617998888E+02 -0.34247655173E+02  0.91190862389E+02  0.00000000000E+00 0. -1.
</event>
<event>
 7    1  0.2788485E-009  0.1072825E+03  0.7561462E-02  0.1265687E+00
         -3   -1    0    0    0  501 -0.00000000000E+00  0.00000000000E+00  0.10394283428E+03  0.10394283428E+03  0.00000000000E+00 0.  1.
          3   -1    0    0  501    0  0.00000000000E+00 -0.00000000000E+00 -0.15225719348E+03  0.15225719348E+03  0.00000000000E+00 0. -1.
         25    2    1    2    0    0 -0.27479600631E+02 -0.13736229699E+02  0.31372132858E+02  0.13257168255E+03  0.12508887975E+03 0.  0.
          5    1    3    3  502    0  0.23554969835E+02  0.44852282177E+02  0.15648492791E+02  0.53187513074E+02  0.41800000000E+01 0. -1.
         -5    1    3    3    0  502 -0.51034570466E+02 -0.58588511876E+02  0.15723640068E+02  0.79384169476E+02  0.41800000000E+01 0. -1.
        -11    1    1    2    0    0 -0.25994596098E+02  0.18984738203E+02 -0.65051138609E+01  0.32839851054E+02  0.00000000000E+00 0. -1.
         11    1    1    2    0    0  0.53474196729E+02 -0.52485085045E+01 -0.73181378199E+02  0.90788494163E+02  0.00000000000E+00 0.  1.
</event>
<event>
 7    1  0.2788485E-009  0.9377574E+02  0.7561462E-02  0.1293957E+00
         -1   -1    0    0    0  501 -0.00000000000E+00  0.00000000000E+00  0.19890975091E+03  0.19890975091E+03  0.00000000000E+00 0.  1.
          1   -1    0    0  501    0  0.00000000000E+00 -0.00000000000E+00 -0.73123412512E+02  0.73123412512E+02  0.00000000000E+00 0. -1.
         25    2    1    2    0    0 -0.24992452070E+02  0.43031410878E+02  0.54762612260E+02  0.14533697641E+03  0.12509023954E+03 0.  0.
          5    1    3    3  502    0 -0.17262946468E+02 -0.30214203413E+02 -0.19960588669E+02  0.40333669665E+02  0.41800000000E+01 0.  1.
         -5    1    3    3    0  502 -0.77295056020E+01  0.73245614291E+02  0.74723200930E+02  0.10500330674E+03  0.41800000000E+01 0.  1.
        -11    1    1    2    0    0  0.15532148654E+02 -0.58540340124E+02  0.84580198888E+02  0.10402898206E+03  0.00000000000E+00 0.  1.
         11    1    1    2    0    0  0.94603034165E+01  0.15508929246E+02 -0.13556472752E+02  0.22667204957E+02  0.00000000000E+00 0. -1.
</event>
<event>
 7    1  0.2788485E-009  0.1096706E+03  0.7561462E-02  0.1261181E+00
          1   -1    0    0  501    0  0.00000000000E+00  0.00000000000E+00  0.13708092855E+04  0.13708092855E+04  0.00000000000E+00 0. -1.
         -1   -1    0    0    0  501 -0.00000000000E+00 -0.00000000000E+00 -0.11389592126E+02  0.11389592126E+02  0.00000000000E+00 0.  1.
         25    2    1    2    0    0  0.11680372785E+02  0.55398614723E+02  0.89714532293E+03  0.90759181383E+03  0.12509089683E+03 0.  0.
          5    1    3    3  502    0  0.43395867397E+02  0.69449896559E+02  0.80293278035E+03  0.80710904567E+03  0.41800000000E+01 0. -1.
         -5    1    3    3    0  502 -0.31715494611E+02 -0.14051281836E+02  0.94212542579E+02  0.10048276817E+03  0.41800000000E+01 0. -1.
        -11    1    1    2    0    0  0.34964394786E+02 -0.40346156226E+02  0.31219165887E+03  0.31672378043E+03  0.00000000000E+00 0. -1.
         11    1    1    2    0    0 -0.46644767572E+02 -0.15052458498E+02  0.15008271154E+03  0.15788328332E+03  0.00000000000E+00 0.  1.
</event>
<event>
 7    1  0.2788485E-009  0.1136420E+03  0.7561462E-02  0.1253970E+00
          2   -1    0    0  501    0  0.00000000000E+00  0.00000000000E+00  0.30341320510E+03  0.30341320510E+03  0.00000000000E+00 0. -1.
         -2   -1    0    0    0  501 -0.00000000000E+00 -0.00000000000E+00 -0.77709938741E+02  0.77709938741E+02  0.00000000000E+00 0.  1.
         25    2    1    2    0    0 -0.72607433084E+02 -0.79512674985E+02  0.12742844361E+03  0.20851934495E+03  0.12509278220E+03 0.  0.
          5    1    3    3  502    0 -0.41291410632E+02 -0.65743560506E+02  0.14885640513E+03  0.16793718495E+03  0.41800000000E+01 0.  1.
         -5    1    3    3    0  502 -0.31316022452E+02 -0.13769114479E+02 -0.21427961523E+02  0.40582160006E+02  0.41800000000E+01 0.  1.
        -11    1    1    2    0    0  0.68378366222E+02  0.48644005107E+02  0.17080029317E+02  0.85636251678E+02  0.00000000000E+00 0.  1.
         11    1    1    2    0    0  0.42290668617E+01  0.30868669878E+02  0.81194793441E+02  0.86967547214E+02  0.00000000000E+00 0. -1.
</event>
<event>
 7    1  0.2788485E-009  0.2786084E+03  0.7561462E-02  0.1096451E+00
          2   -1    0    0  501    0  0.00000000000E+00  0.00000000000E+00  0.10553722300E+04  0.10553722300E+04  0.00000000000E+00 0.  1.
         -2   -1    0    0    0  501 -0.00000000000E+00 -0.00000000000E+00 -0.12800465122E+03  0.12800465122E+03  0.00000000000E+00 0. -1.
         25    2    1    2    0    0 -0.14884322165E+03 -0.21907703354E+03  0.83756035397E+03  0.88730201671E+03  0.12509384903E+03 0.  0.
          5    1    3    3  502    0 -0.61721897701E+02 -0.19021823802E+03  0.60717026211E+03  0.63926971642E+03  0.41800000000E+01 0.  1.
         -5    1    3    3    0  502 -0.87121323945E+02 -0.28858795519E+02  0.23039009186E+03  0.24803230030E+03  0.41800000000E+01 0.  1.
        -11    1    1    2    0    0  0.24627204721E+02  0.47420427807E+02  0.62829125696E+02  0.82478453074E+02  0.00000000000E+00 0.  1.
         11    1    1    2    0    0  0.12421601692E+03  0.17165660573E+03  0.26978099124E+02  0.21359641145E+03  0.00000000000E+00 0. -1.
</event>
<event>
 7    1  0.2788485E-009  0.1534380E+03  0.7561462E-02  0.1196311E+00
         -1   -1    0    0    0  501 -0.00000000000E+00  0.00000000000E+00  0.56241260221E+02  0.56241260221E+02  0.00000000000E+00 0.  1.
          1   -1    0    0  501    0  0.00000000000E+00 -0.00000000000E+00 -0.50269647103E+03  0.50269647103E+03  0.00000000000E+00 0. -1.
         25    2    1    2    0    0  0.10935546726E+03 -0.64737121501E+02 -0.25733348766E+03  0.31307710991E+03  0.12508892740E+03 0.  0.
          5    1    3    3  502    0  0.83454042731E+02 -0.10089641991E+03 -0.21350702837E+03  0.25049428809E+03  0.41800000000E+01 0. -1.
         -5    1    3    3    0  502  0.25901424526E+02  0.36159298409E+02 -0.43826459287E+02  0.62582821825E+02  0.41800000000E+01 0. -1.
        -11    1    1    2    0    0 -0.88953174287E+02  0.36018771316E+02 -0.18745554754E+03  0.21059345053E+03  0.00000000000E+00 0. -1.
         11    1    1    2    0    0 -0.20402292970E+02  0.28718350185E+02 -0.16661756089E+01  0.35267170810E+02  0.00000000000E+00 0.  1.
</event>
<event>
 7    1  0.2788485E-009  0.8443776E+02  0.7561462E-02  0.1316909E+00
         -1   -1    0    0    0  501 -0.00000000000E+00  0.00000000000E+00  0.49700271565E+02  0.49700271565E+02  0.00000000000E+00 0.  1.
          1   -1    0    0  501    0  0.00000000000E+00 -0.00000000000E+00 -0.33478676512E+03  0.33478676512E+03  0.00000000000E+00 0. -1.
         25    2    1    2    0    0 -0.20169272357E+02 -0.66656418524E+02 -0.15936619306E+03  0.21423120632E+03  0.12509016185E+03 0.  0.
          5    1    3    3  502    0  0.65579506865E+00  0.65474418669E+01  0.18850268029E+02  0.20398629046E+02  0.41800000000E+01 0. -1.
         -5    1    3    3    0  502 -0.20825067426E+02 -0.73203860391E+02 -0.17821646109E+03  0.19383257727E+03  0.41800000000E+01 0. -1.
        -11    1    1    2    0    0 -0.13035697228E+02  0.34903273892E+01  0.10082114489E+02  0.16845201693E+02  0.00000000000E+00 0.  1.
         11    1    1    2    0    0  0.33204969585E+02  0.63166091135E+02 -0.13580241499E+03  0.15341062868E+03  0.00000000000E+00 0. -1.
</event>
<event>
 7    1  0.2788485E-009  0.1267556E+03  0.7561462E-02  0.1232351E+00
          1   -1    0    0  501    0  0.00000000000E+00  0.00000000000E+00  0.33929370274E+03  0.33929370274E+03  0.00000000000E+00 0. -1.
         -1   -1    0    0    0  501 -0.00000000000E+00 -0.00000000000E+00 -0.52041246507E+02  0.52041246507E+02  0.00000000000E+00 0.  1.
         25    2    1    2    0    0 -0.42397352853E+02  0.53514842342E+02  0.20967009156E+03  0.25351617404E+03  0.12509008484E+03 0.  0.
          5    1    3    3  502    0  0.34824532824E+02 -0.13255377253E+02  0.80653304465E+02  0.88943133707E+02  0.41800000000E+01 0. -1.
         -5    1    3    3    0  502 -0.77221885678E+02  0.66770219596E+02  0.12901678710E+03  0.16457304034E+03  0.41800000000E+01 0. -1.
        -11    1    1    2    0    0  0.69801911920E+02 -0.50749051514E+02  0.56817624057E+02  0.10332480603E+03  0.00000000000E+00 0.  1.
         11    1    1    2    0    0 -0.27404559067E+02 -0.27657908287E+01  0.20764740609E+02  0.34493969170E+02  0.00000000000E+00 0. -1.
</event>
<event>
 7    1  0.3083611E-009  0.9643809E+02  0.7561462E-02  0.1287970E+00
          3   -1    0    0  501    0  0.00000000000E+00  0.00000000000E+00  0.14896892942E+03  0.14896892942E+03  0.00000000000E+00 0.  1.
         -3   -1    0    0    0  501 -0.00000000000E+00 -0.00000000000E+00 -0.12788574897E+03  0.12788574897E+03  0.00000000000E+00 0. -1.
         25    2    1    2    0    0 -0.39478342102E+02  0.69579233957E+02  0.39404351071E+02  0.15362212854E+03  0.12508895316E+03 0.  0.
          5    1    3    3  502    0  0.67125630487E+01 -0.12793179003E+02  0.55701026860E+02  0.57695760025E+02  0.41800000000E+01 0.  1.
         -5    1    3    3    0  502 -0.46190905151E+02  0.82372412959E+02 -0.16296675789E+02  0.95926368519E+02  0.41800000000E+01 0.  1.
        -11    1    1    2    0    0  0.41781908725E+02 -0.57906210463E+02 -0.51463615084E+02  0.88019093295E+02  0.00000000000E+00 0. -1.
         11    1    1    2    0    0 -0.23035666232E+01 -0.11673023494E+02  0.33142444471E+02  0.35213456549E+02  0.00000000000E+00 0.  1.
</event>
<event>
 7    1  0.2788485E-009  0.7267434E+02  0.7561462E-02  0.1351228E+00
          2   -1    0    0  501    0  0.00000000000E+00  0.00000000000E+00  0.52061392156E+03  0.52061392156E+03  0.00000000000E+00 0.  1.
         -2   -1    0    0    0  501 -0.00000000000E+00 -0.00000000000E+00 -0.40842130091E+02  0.40842130091E+02  0.00000000000E+00 0. -1.
         25    2    1    2    0    0 -0.73129150371E+01 -0.75996900561E+01  0.44811355873E+03  0.46536440843E+03  0.12508811735E+03 0.  0.
          5    1    3    3  502    0  0.12810296460E+01 -0.36289261843E+02  0.33287550609E+02  0.49437687927E+02  0.41800000000E+01 0.  1.
         -5    1    3    3    0  502 -0.85939446831E+01  0.28689571787E+02  0.41482600813E+03  0.41592672051E+03  0.41800000000E+01 0.  1.
        -11    1    1    2    0    0 -0.17779160551E+02 -0.29099151076E+02 -0.96141300736E+01  0.35430081009E+02  0.00000000000E+00 0. -1.
         11    1    1    2    0    0  0.25092075588E+02  0.36698841132E+02  0.41272362810E+02  0.60661562209E+02  0.00000000000E+00 0.  1.
</event>
<event>
 7    1  0.2788485E-009  0.1560779E+03  0.7561462E-02  0.1193197E+00
          1   -1    0    0  501    0  0.00000000000E+00  0.00000000000E+00  0.87358789359E+03  0.87358789359E+03  0.00000000000E+00 0. -1.
         -1   -1    0    0    0  501 -0.00000000000E+00 -0.00000000000E+00 -0.40444704450E+02  0.40444704450E+02  0.00000000000E+00 0.  1.
         25    2    1    2    0    0  0.13405447336E+03 -0.74552856237E+02  0.42655602217E+03  0.47024025502E+03  0.12508847746E+03 0.  0.
          5    1    3    3  502    0  0.11440688290E+03 -0.48449572800E+02  0.16484459926E+03  0.20646430748E+03  0.41800000000E+01 0. -1.
         -5    1    3    3    0  502  0.19647590457E+02 -0.26103283437E+02  0.26171142291E+03  0.26377594754E+03  0.41800000000E+01 0. -1.
        -11    1    1    2    0    0 -0.11253939938E+03  0.52801416093E+02  0.38926959125E+03  0.40863666089E+03  0.00000000000E+00 0. -1.
         11    1    1    2    0    0 -0.21515073984E+02  0.21751440144E+02  0.17317575720E+02  0.35155682125E+02  0.00000000000E+00 0.  1.
</event>
<event>
 7    1  0.2788485E-009  0.1113418E+03  0.7561462E-02  0.1258105E+00
         -4   -1    0    0    0  501 -0.00000000000E+00  0.00000000000E+00  0.58468594966E+03  0.58468594966E+03  0.00000000000E+00 0.  1.
          4   -1    0    0  501    0  0.00000000000E+00 -0.00000000000E+00 -0.28938283461E+02  0.28938283461E+02  0.00000000000E+00 0. -1.
         25    2    1    2    0    0 -0.50817981130E+02 -0.18480981887E+02  0.42140951363E+03  0.44289653811E+03  0.12508937365E+03 0.  0.
          5    1    3    3  502    0 -0.88105035572E+02 -0.26339242400E+02  0.34935442781E+03  0.36127862047E+03  0.41800000000E+01 0. -1.
         -5    1    3    3    0  502  0.37287054441E+02  0.78582605134E+01  0.72055085820E+02  0.81617917639E+02  0.41800000000E+01 0. -1.
        -11    1    1    2    0    0  0.56688964580E+02  0.40395288137E+02  0.56507179507E+02  0.89657567135E+02  0.00000000000E+00 0. -1.
         11    1    1    2    0    0 -0.58709834495E+01 -0.21914306250E+02  0.77830973061E+02  0.81070127870E+02  0.00000000000E+00 0.  1.
</event>
<event>
 7    1  0.2788485E-009  0.1190674E+03  0.7561462E-02  0.1244644E+00
          1   -1    0    0  501    0  0.00000000000E+00  0.00000000000E+00  0.90830352174E+02  0.90830352174E+02  0.00000000000E+00 0. -1.
         -1   -1    0    0    0  501 -0.00000000000E+00 -0.00000000000E+00 -0.20589903950E+03  0.20589903950E+03  0.00000000000E+00 0.  1.
         25    2    1    2    0    0  0.66356399665E+02 -0.44248861424E+02 -0.36751556283E+02  0.15285233097E+03  0.12510805202E+03 0.  0.
          5    1    3    3  502    0  0.14720682974E+02 -0.65542976161E+02  0.22835034608E+02  0.71073844956E+02  0.41800000000E+01 0. -1.
         -5    1    3    3    0  502  0.51635716690E+02  0.21294114737E+02 -0.59586590891E+02  0.81778486013E+02  0.41800000000E+01 0. -1.
        -11    1    1    2    0    0 -0.39020625839E+02  0.68134955170E+02 -0.72959572329E+02  0.10718246382E+03  0.00000000000E+00 0.  1.
         11    1    1    2    0    0 -0.27335773826E+02 -0.23886093746E+02 -0.53575587164E+01  0.36694596884E+02  0.00000000000E+00 0. -1.
</event>
<event>
 7    1  0.2788485E-009  0.1620233E+03  0.7561462E-02  0.1186431E+00
          2   -1    0    0  501    0  0.00000000000E+00  0.00000000000E+00  0.49312673688E+03  0.49312673688E+03  0.00000000000E+00 0. -1.
         -2   -1    0    0    0  501 -0.00000000000E+00 -0.00000000000E+00 -0.81905449211E+02  0.81905449211E+02  0.00000000000E+00 0.  1.
         25    2    1    2    0    0 -0.78017357169E+02  0.10204515017E+03  0.36865655993E+03  0.40994557131E+03  0.12509113306E+03 0.  0.
          5    1    3    3  502    0  0.10670968229E+02  0.88634627012E+02  0.17604602874E+03  0.19743262979E+03  0.41800000000E+01 0.  1.
         -5    1    3    3    0  502 -0.88688325398E+02  0.13410523153E+02  0.19261053118E+03  0.21251294152E+03  0.41800000000E+01 0.  1.
        -11    1    1    2    0    0  0.90573670475E+01 -0.66845340760E+02 -0.14385415601E+02  0.68973006758E+02  0.00000000000E+00 0.  1.
         11    1    1    2    0    0  0.68959990122E+02 -0.35199809405E+02  0.56950143345E+02  0.96113608021E+02  0.00000000000E+00 0. -1.
</event>
<event>
 7    1  0.2788485E-009  0.1073983E+03  0.7561462E-02  0.1265465E+00
          2   -1    0    0  501    0  0.00000000000E+00  0.00000000000E+00  0.14847546069E+03  0.14847546069E+03  0.00000000000E+00 0.  1.
         -2   -1    0    0    0  501 -0.00000000000E+00 -0.00000000000E+00 -0.16127259685E+03  0.16127259685E+03  0.00000000000E+00 0. -1.
         25    2    1    2    0    0  0.91122272250E+02 -0.30603047422E+02  0.52446857401E+02  0.16624602070E+03  0.12508897448E+03 0.  0.
          5    1    3    3  502    0  0.15614945328E+02  0.13328908279E+02 -0.36131932434E+02  0.41766915793E+02  0.41800000000E+01 0.  1.
         -5    1    3    3    0  502  0.75507326922E+02 -0.43931955701E+02  0.88578789835E+02  0.12447910491E+03  0.41800000000E+01 0.  1.
        -11    1    1    2    0    0 -0.80357798571E+02  0.72637455736E+01 -0.84050134134E+01  0.81122019461E+02  0.00000000000E+00 0.  1.
         11    1    1    2    0    0 -0.10764473679E+02  0.23339301848E+02 -0.56838980146E+02  0.62380017380E+02  0.00000000000E+00 0. -1.
</event>
<event>
 7    1  0.2788485E-009  0.2603946E+03  0.7561462E-02  0.1106906E+00
          2   -1    0    0  501    0  0.00000000000E+00  0.00000000000E+00  0.10052311696E+04  0.10052311696E+04  0.00000000000E+00 0. -1.
         -2   -1    0    0    0  501 -0.00000000000E+00 -0.00000000000E+00 -0.70746032063E+02  0.70746032063E+02  0.00000000000E+00 0.  1.
         25    2    1    2    0    0  0.52375497183E+02 -0.23678131812E+03  0.43731969096E+03  0.51546581471E+03  0.12509160131E+03 0.  0.
          5    1    3    3  502    0  0.44036641327E+01 -0.21037471088E+03  0.38914524410E+03  0.44241203040E+03  0.41800000000E+01 0. -1.
         -5    1    3    3    0  502  0.47971833050E+02 -0.26406607238E+02  0.48174446863E+02  0.73053784313E+02  0.41800000000E+01 0. -1.
        -11    1    1    2    0    0 -0.65123516004E+02  0.10885529032E+03  0.29246317150E+03  0.31878715980E+03  0.00000000000E+00 0. -1.
         11    1    1    2    0    0  0.12748018821E+02  0.12792602780E+03  0.20470227509E+03  0.24172422717E+03  0.00000000000E+00 0.  1.
</event>
<event>
 7    1  0.2788485E-009  0.9572131E+02  0.7561462E-02  0.1289560E+00
          1   -1    0    0  501    0  0.00000000000E+00  0.00000000000E+00  0.10528249400E+03  0.10528249400E+03  0.00000000000E+00 0. -1.
         -1   -1    0    0    0  501 -0.00000000000E+00 -0.00000000000E+00 -0.13161733099E+03  0.13161733099E+03  0.00000000000E+00 0.  1.
         25    2    1    2    0    0  0.38468479304E+02 -0.24330869609E+02 -0.46574369557E+01  0.13320134122E+03  0.12509632475E+03 0.  0.
          5    1    3    3  502    0 -0.93182973484E+01 -0.67640440291E+02 -0.17910574379E-01  0.68407108907E+02  0.41800000000E+01 0. -1.
         -5    1    3    3    0  502  0.47786776652E+02  0.43309570682E+02 -0.46395263814E+01  0.64794232309E+02  0.41800000000E+01 0. -1.
        -11    1    1    2    0    0 -0.39906661638E+02  0.63969534699E+01 -0.53555126050E+02  0.67094069656E+02  0.00000000000E+00 0.  1.
         11    1    1    2    0    0  0.14381823339E+01  0.17933916139E+02  0.31877726022E+02  0.36604414117E+02  0.00000000000E+00 0. -1.
</event>
<event>
 7    1  0.2808434E-009  0.1053142E+03  0.7561462E-02  0.1269502E+00
          1   -1    0    0  501    0  0.00000000000E+00  0.00000000000E+00  0.59614477710E+02  0.59614477710E+02  0.00000000000E+00 0. -1.
         -1   -1    0    0    0  501 -0.00000000000E+00 -0.00000000000E+00 -0.29385805000E+03  0.29385805000E+03  0.00000000000E+00 0.  1.
         25    2    1    2    0    0 -0.65836807578E+02 -0.31121924614E+02 -0.15666424386E+03  0.21329315612E+03  0.12508887128E+03 0.  0.
          5    1    3    3  502    0 -0.72226627458E+02 -0.78044310257E+01 -0.21438618602E+02  0.75859617881E+02  0.41800000000E+01 0.  1.
         -5    1    3    3    0  502  0.63898198791E+01 -0.23317493588E+02 -0.13522562526E+03  0.13743353824E+03  0.41800000000E+01 0.  1.
        -11    1    1    2    0    0  0.83629327303E+02  0.40821803061E+02 -0.75448241282E+02  0.11980284263E+03  0.00000000000E+00 0.  1.
         11    1    1    2    0    0 -0.17792519724E+02 -0.96998784473E+01 -0.21310871454E+01  0.20376528960E+02  0.00000000000E+00 0. -1.
</event>
<event>
 7    1  0.2788485E-009  0.1080040E+03  0.7561462E-02  0.1264311E+00
          2   -1    0    0  501    0  0.00000000000E+00  0.00000000000E+00  0.68659799671E+03  0.68659799671E+03  0.00000000000E+00 0. -1.
         -2   -1    0    0    0  501 -0.00000000000E+00 -0.00000000000E+00 -0.19273599112E+02  0.19273599112E+02  0.00000000000E+00 0.  1.
         25    2    1    2    0    0  0.26306202342E+00 -0.32218636090E+02  0.45814587420E+03  0.47600650436E+03  0.12508573234E+03 0.  0.
          5    1    3    3  502    0  0.40718338637E+02  0.32791373530E+02  0.18047067402E+03  0.18793720723E+03  0.41800000000E+01 0.  1.
         -5    1    3    3    0  502 -0.40455276614E+02 -0.65010009620E+02  0.27767520017E+03  0.28806929713E+03  0.41800000000E+01 0.  1.
        -11    1    1    2    0    0 -0.10171177846E+02  0.58193849538E+02  0.91249586340E+02  0.10870356015E+03  0.00000000000E+00 0.  1.
         11    1    1    2    0    0  0.99081158222E+01 -0.25975213448E+02  0.11792893706E+03  0.12116153130E+03  0.00000000000E+00 0. -1.
</event>
<event>
 7    1  0.2788485E-009  0.9662077E+02  0.7561462E-02  0.1287567E+00
          2   -1    0    0  501    0  0.00000000000E+00  0.00000000000E+00  0.46745247943E+02  0.46745247943E+02  0.00000000000E+00 0. -1.
         -2   -1    0    0    0  501 -0.00000000000E+00 -0.00000000000E+00 -0.28128537258E+03  0.28128537258E+03  0.00000000000E+00 0.  1.
         25    2    1    2    0    0 -0.49349999595E+01  0.30701928036E+02 -0.16543465918E+03  0.20972105806E+03  0.12508930060E+03 0.  0.
          5    1    3    3  502    0  0.39581767204E+02  0.56504063896E+02 -0.12960509845E+03  0.14688219591E+03  0.41800000000E+01 0. -1.
         -5    1    3    3    0  502 -0.44516767163E+02 -0.25802135860E+02 -0.35829560729E+02  0.62838862145E+02  0.41800000000E+01 0. -1.
        -11    1    1    2    0    0 -0.10133282677E+02 -0.48290706985E+02 -0.78984317619E+02  0.93130007134E+02  0.00000000000E+00 0.  1.
         11    1    1    2    0    0  0.15068282636E+02  0.17588778949E+02  0.98788521633E+01  0.25179555330E+02  0.00000000000E+00 0. -1.
</event>
<event>
 7    1  0.2788485E-009  0.5004880E+03  0.7561462E-02  0.1013652E+00
         -1   -1    0    0    0  501 -0.00000000000E+00  0.00000000000E+00  0.67425735001E+03  0.67425735001E+03  0.00000000000E+00 0.  1.
          1   -1    0    0  501    0  0.00000000000E+00 -0.00000000000E+00 -0.38610380545E+03  0.38610380545E+03  0.00000000000E+00 0. -1.
         25    2    1    2    0    0 -0.31898905751E+03 -0.38054988136E+03  0.18115070001E+03  0.54317343725E+03  0.12509826460E+03 0.  0.
          5    1    3    3  502    0 -0.27056549393E+03 -0.34241307279E+03  0.19784335437E+03  0.47917832191E+03  0.41800000000E+01 0.  1.
         -5    1    3    3    0  502 -0.48423563580E+02 -0.38136808568E+02 -0.16692654358E+02  0.63995115337E+02  0.41800000000E+01 0.  1.
        -11    1    1    2    0    0  0.26504541744E+03  0.26278467346E+03  0.10466969078E+03  0.38763462446E+03  0.00000000000E+00 0. -1.
         11    1    1    2    0    0  0.53943640063E+02  0.11776520790E+03  0.23331537618E+01  0.12955309375E+03  0.00000000000E+00 0.  1.
</event>
<event>
 7    1  0.2788485E-009  0.4551329E+03  0.7561462E-02  0.1026202E+00
          2   -1    0    0  501    0  0.00000000000E+00  0.00000000000E+00  0.18315194264E+04  0.18315194264E+04  0.00000000000E+00 0. -1.
         -2   -1    0    0    0  501 -0.00000000000E+00 -0.00000000000E+00 -0.11944157426E+03  0.11944157426E+03  0.00000000000E+00 0.  1.
         25    2    1    2    0    0 -0.36063868994E+03 -0.25791653451E+03  0.10733454174E+04  0.11680323052E+04  0.12509147694E+03 0.  0.
          5    1    3    3  502    0 -0.25803671224E+03 -0.24652192721E+03  0.85383359605E+03  0.92542168097E+03  0.41800000000E+01 0.  1.
         -5    1    3    3    0  502 -0.10260197770E+03 -0.11394607300E+02  0.21951182133E+03  0.24261062426E+03  0.41800000000E+01 0.  1.
        -11    1    1    2    0    0  0.30183440747E+02  0.53665032795E+02  0.60550596136E+02  0.86355952502E+02  0.00000000000E+00 0.  1.
         11    1    1    2    0    0  0.33045524919E+03  0.20425150172E+03  0.57818183861E+03  0.69657274291E+03  0.00000000000E+00 0. -1.
</event>
<event>
 7    1  0.2788485E-009  0.1168896E+03  0.7561462E-02  0.1248318E+00
         -1   -1    0    0    0  501 -0.00000000000E+00  0.00000000000E+00  0.11335417352E+03  0.11335417352E+03  0.00000000000E+00 0.  1.
          1   -1    0    0  501    0  0.00000000000E+00 -0.00000000000E+00 -0.15010574670E+03  0.15010574670E+03  0.00000000000E+00 0. -1.
         25    2    1    2    0    0  0.14844906987E+02  0.64154623618E+02 -0.50926161032E+02  0.15025754178E+03  0.12509063910E+03 0.  0.
          5    1    3    3  502    0 -0.41940857959E+02  0.44803347737E+02 -0.63942566986E+02  0.88727108639E+02  0.41800000000E+01 0. -1.
         -5    1    3    3    0  502  0.56785764947E+02  0.19351275881E+02  0.13016405953E+02  0.61530433143E+02  0.41800000000E+01 0. -1.
        -11    1    1    2    0    0 -0.45846946316E+02 -0.60156318699E+01  0.90312779973E+01  0.47113631738E+02  0.00000000000E+00 0.  1.
         11    1    1    2    0    0  0.31002039328E+02 -0.58138991748E+02  0.51433098490E+01  0.66088746699E+02  0.00000000000E+00 0. -1.
</event>
<event>
 7    1  0.2788485E-009  0.1120928E+03  0.7561462E-02  0.1256743E+00
          3   -1    0    0  501    0  0.00000000000E+00  0.00000000000E+00  0.43635872985E+03  0.43635872985E+03  0.00000000000E+00 0. -1.
         -3   -1    0    0    0  501 -0.00000000000E+00 -0.00000000000E+00 -0.33347879977E+02  0.33347879977E+02  0.00000000000E+00 0.  1.
         25    2    1    2    0    0 -0.35096803242E+02 -0.50663118203E+02  0.28504641105E+03  0.31732843724E+03  0.12508934202E+03 0.  0.
          5    1    3    3  502    0 -0.34562839578E+02 -0.86603204809E+02  0.25039777157E+03  0.26722878095E+03  0.41800000000E+01 0. -1.
         -5    1    3    3    0  502 -0.53396366420E+00  0.35940086606E+02  0.34648639478E+02  0.50099656287E+02  0.41800000000E+01 0. -1.
        -11    1    1    2    0    0 -0.21559314762E+02  0.56173106593E+01  0.41413885320E+02  0.47026249365E+02  0.00000000000E+00 0.  1.
         11    1    1    2    0    0  0.56656118004E+02  0.45045807544E+02  0.76550553510E+02  0.10535192323E+03  0.00000000000E+00 0. -1.
</event>
<event>
 7    1  0.2788485E-009  0.1477551E+03  0.7561462E-02  0.1203259E+00
          1   -1    0    0  501    0  0.00000000000E+00  0.00000000000E+00  0.68519926677E+03  0.68519926677E+03  0.00000000000E+00 0. -1.
         -1   -1    0    0    0  501 -0.00000000000E+00 -0.00000000000E+00 -0.46804634106E+02  0.46804634106E+02  0.00000000000E+00 0.  1.
         25    2    1    2    0    0 -0.73145261409E+02 -0.11503432060E+03  0.46576768889E+03  0.50117043516E+03  0.12509652629E+03 0.  0.
          5    1    3    3  502    0 -0.17528994138E+01 -0.78926282072E+02  0.10398965666E+03  0.13062829614E+03  0.41800000000E+01 0. -1.
         -5    1    3    3    0  502 -0.71392361996E+02 -0.36108038525E+02  0.36177803222E+03  0.37054213903E+03  0.41800000000E+01 0. -1.
        -11    1    1    2    0    0  0.36066745058E+02  0.58935706428E+02  0.34549734502E+02  0.77252260455E+02  0.00000000000E+00 0.  1.
         11    1    1    2    0    0  0.37078516352E+02  0.56098614169E+02  0.13807720927E+03  0.15358120525E+03  0.00000000000E+00 0. -1.
</event>
<event>
 7    1  0.2788485E-009  0.1054644E+03  0.7561462E-02  0.1269207E+00
         -1   -1    0    0    0  501 -0.00000000000E+00  0.00000000000E+00  0.62199924289E+02  0.62199924289E+02  0.00000000000E+00 0.  1.
          1   -1    0    0  501    0  0.00000000000E+00 -0.00000000000E+00 -0.29577654058E+03  0.29577654058E+03  0.00000000000E+00 0. -1.
         25    2    1    2    0    0  0.34863228557E+02 -0.13564606370E+02 -0.22223667296E+03  0.25775179744E+03  0.12508959599E+03 0.  0.
          5    1    3    3  502    0 -0.46815779065E+02  0.68609095653E+00 -0.69358556383E+02  0.83787049320E+02  0.41800000000E+01 0.  1.
         -5    1    3    3    0  502  0.81679007622E+02 -0.14250697327E+02 -0.15287811658E+03  0.17396474812E+03  0.41800000000E+01 0.  1.
        -11    1    1    2    0    0 -0.54739177263E+02  0.22409302233E+02  0.19679810560E+02  0.62336580735E+02  0.00000000000E+00 0.  1.
         11    1    1    2    0    0  0.19875948707E+02 -0.88446958632E+01 -0.31019753892E+02  0.37888086695E+02  0.00000000000E+00 0. -1.
</event>
<event>
 7    1  0.2788485E-009  0.1176998E+03  0.7561462E-02  0.1246941E+00
          2   -1    0    0  501    0  0.00000000000E+00  0.00000000000E+00  0.23487387476E+03  0.23487387476E+03  0.00000000000E+00 0. -1.
         -2   -1    0    0    0  501 -0.00000000000E+00 -0.00000000000E+00 -0.77757242884E+02  0.77757242884E+02  0.00000000000E+00 0.  1.
         25    2    1    2    0    0  0.52152749519E+02 -0.53696651125E+02  0.12224778518E+03  0.19024613481E+03  0.12508329706E+03 0.  0.
          5    1    3    3  502    0  0.48605810194E+02  0.15729122914E+02  0.10744921549E+03  0.11904930240E+03  0.41800000000E+01 0.  1.
         -5    1    3    3    0  502  0.35469393250E+01 -0.69425774039E+02  0.14798569686E+02  0.71196832403E+02  0.41800000000E+01 0.  1.
        -11    1    1    2    0    0 -0.75213973263E+02  0.28736053450E+02  0.36411571439E+02  0.88366877712E+02  0.00000000000E+00 0. -1.
         11    1    1    2    0    0  0.23061223743E+02  0.24960597675E+02 -0.15427247433E+01  0.34018105127E+02  0.00000000000E+00 0.  1.
</event>
<event>
 7    1  0.4338634E-009  0.1212276E+03  0.7561462E-02  0.1241085E+00
         -2   -1    0    0    0  501 -0.00000000000E+00  0.00000000000E+00  0.35393709959E+02  0.35393709959E+02  0.00000000000E+00 0.  1.
          2   -1    0    0  501    0  0.00000000000E+00 -0.00000000000E+00 -0.56678817508E+03  0.56678817508E+03  0.00000000000E+00 0. -1.
         25    2    1    2    0    0 -0.90523065939E+02  0.11616821906E+01 -0.30138663515E+03  0.33863987055E+03  0.12508910066E+03 0.  0.
          5    1    3    3  502    0  0.17647266511E+02  0.23547599689E+00  0.27794542951E+00  0.18139214920E+02  0.41800000000E+01 0. -1.
         -5    1    3    3    0  502 -0.10817033245E+03  0.92620619370E+00 -0.30166458058E+03  0.32050065563E+03  0.41800000000E+01 0. -1.
        -11    1    1    2    0    0  0.12576870066E+02 -0.30333068663E+02 -0.22063003665E+02  0.39560698248E+02  0.00000000000E+00 0.  1.
         11    1    1    2    0    0  0.77946195873E+02  0.29171386472E+02 -0.20794482630E+03  0.22398131624E+03  0.00000000000E+00 0. -1.
</event>
<event>
 7    1  0.2788485E-009  0.8904465E+02  0.7561462E-02  0.1305182E+00
         -1   -1    0    0    0  501 -0.00000000000E+00  0.00000000000E+00  0.37643898741E+02  0.37643898741E+02  0.00000000000E+00 0.  1.
          1   -1    0    0  501    0  0.00000000000E+00 -0.00000000000E+00 -0.42151990101E+03  0.42151990101E+03  0.00000000000E+00 0. -1.
         25    2    1    2    0    0  0.30627795437E+02 -0.16694558891E+02 -0.31171526024E+03  0.33768383740E+03  0.12508877019E+03 0.  0.
          5    1    3    3  502    0 -0.97103563524E+00  0.26450687471E+02 -0.62122832737E+01  0.27507210716E+02  0.41800000000E+01 0.  1.
         -5    1    3    3    0  502  0.31598831072E+02 -0.43145246362E+02 -0.30550297696E+03  0.31017662669E+03  0.41800000000E+01 0.  1.
        -11    1    1    2    0    0 -0.50078067994E+02  0.42260651581E+02 -0.50631435634E+02  0.82808923676E+02  0.00000000000E+00 0.  1.
         11    1    1    2    0    0  0.19450272557E+02 -0.25566092690E+02 -0.21529306395E+02  0.38671038670E+02  0.00000000000E+00 0. -1.
</event>
<event>
 7    1  0.2788485E-009  0.1582583E+03  0.7561462E-02  0.1190677E+00
         -3   -1    0    0    0  501 -0.00000000000E+00  0.00000000000E+00  0.44340632962E+03  0.44340632962E+03  0.00000000000E+00 0.  1.
          3   -1    0    0  501    0  0.00000000000E+00 -0.00000000000E+00 -0.62313576421E+02  0.62313576421E+02  0.00000000000E+00 0. -1.
         25    2    1    2    0    0  0.53110748621E+02 -0.10302233067E+03  0.13018605556E+03  0.21454627958E+03  0.12508934720E+03 0.  0.
          5    1    3    3  502    0  0.93310501100E+02 -0.81940287339E+02  0.10359534828E+03  0.16177307839E+03  0.41800000000E+01 0.  1.
         -5    1    3    3    0  502 -0.40199752479E+02 -0.21082043328E+02  0.26590707280E+02  0.52773201191E+02  0.41800000000E+01 0.  1.
        -11    1    1    2    0    0  0.25482264774E+02  0.20339222408E+02  0.71309299911E+02  0.78409476723E+02  0.00000000000E+00 0.  1.
         11    1    1    2    0    0 -0.78593013395E+02  0.82683108259E+02  0.17959739773E+03  0.21276414974E+03  0.00000000000E+00 0. -1.
</event>
<event>
 7    1  0.2788485E-009  0.1008796E+03  0.7561462E-02  0.1278457E+00
          1   -1    0    0  501    0  0.00000000000E+00  0.00000000000E+00  0.31708217732E+03  0.31708217732E+03  0.00000000000E+00 0. -1.
         -1   -1    0    0    0  501 -0.00000000000E+00 -0.00000000000E+00 -0.65427263011E+02  0.65427263011E+02  0.00000000000E+00 0.  1.
         25    2    1    2    0    0  0.40946871813E+02 -0.25382154148E+02  0.24029576203E+03  0.27515504563E+03  0.12508935137E+03 0.  0.
          5    1    3    3  502    0  0.12794497531E+02 -0.55429346106E+02  0.22320539764E+03  0.23037845714E+03  0.41800000000E+01 0.  1.
         -5    1    3    3    0  502  0.28152374281E+02  0.30047191957E+02  0.17090364388E+02  0.44776588493E+02  0.41800000000E+01 0.  1.
        -11    1    1    2    0    0 -0.20900834227E-01 -0.32468602906E+02  0.16277507803E+02  0.36320350656E+02  0.00000000000E+00 0. -1.
         11    1    1    2    0    0 -0.40925970978E+02  0.57850757054E+02 -0.49183555235E+01  0.71034044044E+02  0.00000000000E+00 0.  1.
</event>
<event>
 7    1  0.2788485E-009  0.2022619E+03  0.7561462E-02  0.1147845E+00
          1   -1    0    0  501    0  0.00000000000E+00  0.00000000000E+00  0.16949063126E+04  0.16949063126E+04  0.00000000000E+00 0. -1.
         -1   -1    0    0    0  501 -0.00000000000E+00 -0.00000000000E+00 -0.29550611088E+02  0.29550611088E+02  0.00000000000E+00 0.  1.
         25    2    1    2    0    0  0.44351558362E+02  0.18890832019E+03  0.77370822071E+03  0.80741597499E+03  0.12507090672E+03 0.  0.
          5    1    3    3  502    0  0.87747769272E+01  0.39228989746E+02  0.41658140224E+03  0.41853727127E+03  0.41800000000E+01 0.  1.
         -5    1    3    3    0  502  0.35576781435E+02  0.14967933044E+03  0.35712681847E+03  0.38887870372E+03  0.41800000000E+01 0.  1.
        -11    1    1    2    0    0 -0.41742930451E+02 -0.30318960375E+02  0.30486741732E+03  0.30920196271E+03  0.00000000000E+00 0. -1.
         11    1    1    2    0    0 -0.26086279108E+01 -0.15858935982E+03  0.58678006348E+03  0.60783898599E+03  0.00000000000E+00 0.  1.
</event>
<event>
 7    1  0.2788485E-009  0.1116699E+03  0.7561462E-02  0.1257508E+00
          1   -1    0    0  501    0  0.00000000000E+00  0.00000000000E+00  0.63433140052E+03  0.63433140052E+03  0.00000000000E+00 0. -1.
         -1   -1    0    0    0  501 -0.00000000000E+00 -0.00000000000E+00 -0.26851881419E+02  0.26851881419E+02  0.00000000000E+00 0.  1.
         25    2    1    2    0    0  0.63461171767E+02 -0.14962518758E+02  0.24977537875E+03  0.28685605938E+03  0.12508981446E+03 0.  0.
          5    1    3    3  502    0 -0.20678044293E+02  0.12653223679E+02  0.15554111455E+03  0.15747443062E+03  0.41800000000E+01 0.  1.
         -5    1    3    3    0  502  0.84139216060E+02 -0.27615742437E+02  0.94234264204E+02  0.12938162876E+03  0.41800000000E+01 0.  1.
        -11    1    1    2    0    0 -0.75153976570E+02 -0.16131806280E+02  0.23848720220E+03  0.25056835591E+03  0.00000000000E+00 0.  1.
         11    1    1    2    0    0  0.11692804804E+02  0.31094325038E+02  0.11921693815E+03  0.12375886665E+03  0.00000000000E+00 0. -1.
</event>
<event>
 7    1  0.2788485E-009  0.1441484E+03  0.7561462E-02  0.1207853E+00
         -4   -1    0    0    0  501 -0.00000000000E+00  0.00000000000E+00  0.46880108599E+03  0.46880108599E+03  0.00000000000E+00 0. -1.
          4   -1    0    0  501    0  0.00000000000E+00 -0.00000000000E+00 -0.74811317721E+02  0.74811317721E+02  0.00000000000E+00 0.  1.
         25    2    1    2    0    0  0.14075381823E+03  0.26309057575E+02  0.13208901327E+03  0.23151037133E+03  0.12508293549E+03 0.  0.
          5    1    3    3  502    0  0.54053461199E+02 -0.56170872734E+00  0.12974209304E+03  0.14061498957E+03  0.41800000000E+01 0.  1.
         -5    1    3    3    0  502  0.86700357035E+02  0.26870766303E+02  0.23469202259E+01  0.90895381765E+02  0.41800000000E+01 0.  1.
        -11    1    1    2    0    0 -0.72783421895E+02 -0.14896189933E+02  0.50708863210E+02  0.89948384006E+02  0.00000000000E+00 0.  1.
         11    1    1    2    0    0 -0.67970396339E+02 -0.11412867642E+02  0.21119189179E+03  0.22215364837E+03  0.00000000000E+00 0. -1.
</event>
<event>
 7    1  0.2788485E-009  0.1121837E+03  0.7561462E-02  0.1256579E+00
         -2   -1    0    0    0  501 -0.00000000000E+00  0.00000000000E+00  0.88714457817E+02  0.88714457817E+02  0.00000000000E+00 0. -1.
          2   -1    0    0  501    0  0.00000000000E+00 -0.00000000000E+00 -0.22652136854E+03  0.22652136854E+03  0.00000000000E+00 0.  1.
         25    2    1    2    0    0  0.30623567664E+02 -0.70523617480E+02 -0.24034271997E+02  0.14878450982E+03  0.12509116921E+03 0.  0.
          5    1    3    3  502    0 -0.20136445670E+02 -0.54601783641E+02  0.35924099180E+02  0.68518935506E+02  0.41800000000E+01 0. -1.
         -5    1    3    3    0  502  0.50760013334E+02 -0.15921833840E+02 -0.59958371177E+02  0.80265574318E+02  0.41800000000E+01 0. -1.
        -11    1    1    2    0    0  0.21534825626E+02 -0.37917408755E+01 -0.12982745873E+01  0.21904600670E+02  0.00000000000E+00 0. -1.
         11    1    1    2    0    0 -0.52158393290E+02  0.74315358356E+02 -0.11247436414E+03  0.14454671586E+03  0.00000000000E+00 0.  1.
</event>
<event>
 7    1  0.2788485E-009  0.9979757E+02  0.7561462E-02  0.1280722E+00
         -1   -1    0    0    0  501 -0.00000000000E+00  0.00000000000E+00  0.24956594321E+03  0.24956594321E+03  0.00000000000E+00 0.  1.
          1   -1    0    0  501    0  0.00000000000E+00 -0.00000000000E+00 -0.71340842299E+02  0.71340842299E+02  0.00000000000E+00 0. -1.
         25    2    1    2    0    0  0.61700074696E+02  0.33109283459E+02  0.14922497861E+03  0.20692620759E+03  0.12508891749E+03 0.  0.
          5    1    3    3  502    0  0.32539436358E+02 -0.25673708446E+02  0.13276286026E+03  0.13914526111E+03  0.41800000000E+01 0.  1.
         -5    1    3    3    0  502  0.29160638338E+02  0.58782991905E+02  0.16462118345E+02  0.67780946482E+02  0.41800000000E+01 0.  1.
        -11    1    1    2    0    0 -0.34862283104E+02  0.14320455075E+02 -0.18229601945E+02  0.41866127165E+02  0.00000000000E+00 0.  1.
         11    1    1    2    0    0 -0.26837791592E+02 -0.47429738535E+02  0.47229724249E+02  0.72114450754E+02  0.00000000000E+00 0. -1.
</event>
<event>
 7    1  0.2788485E-009  0.1008744E+03  0.7561462E-02  0.1278468E+00
         -2   -1    0    0    0  501 -0.00000000000E+00  0.00000000000E+00  0.36487007254E+02  0.36487007254E+02  0.00000000000E+00 0.  1.
          2   -1    0    0  501    0  0.00000000000E+00 -0.00000000000E+00 -0.42321595440E+03  0.42321595440E+03  0.00000000000E+00 0. -1.
         25    2    1    2    0    0 -0.45605603286E+02 -0.24983226796E+02 -0.28234958471E+03  0.31316813900E+03  0.12509581379E+03 0.  0.
          5    1    3    3  502    0 -0.63941756343E+02  0.24655576188E+02 -0.87521066891E+02  0.11123783165E+03  0.41800000000E+01 0.  1.
         -5    1    3    3    0  502  0.18336153057E+02 -0.49638802984E+02 -0.19482851782E+03  0.20193030735E+03  0.41800000000E+01 0.  1.
        -11    1    1    2    0    0  0.71936093803E+01 -0.19766146598E+02  0.55772042994E+01  0.21761290749E+02  0.00000000000E+00 0.  1.
         11    1    1    2    0    0  0.38411993906E+02  0.44749373394E+02 -0.10995656674E+03  0.12477353190E+03  0.00000000000E+00 0. -1.
</event>
<event>
 7    1  0.2788485E-009  0.4775117E+02  0.7561462E-02  0.1457863E+00
         -2   -1    0    0    0  501 -0.00000000000E+00  0.00000000000E+00  0.14736522447E+03  0.14736522447E+03  0.00000000000E+00 0.  1.
          2   -1    0    0  501    0  0.00000000000E+00 -0.00000000000E+00 -0.94477559461E+02  0.94477559461E+02  0.00000000000E+00 0. -1.
         25    2    1    2    0    0  0.11446734588E+02 -0.13765394110E+02  0.70812842064E+02  0.14485328792E+03  0.12508997807E+03 0.  0.
          5    1    3    3  502    0 -0.22505965270E+01  0.67421821592E+01 -0.35085275402E+02  0.36041242418E+02  0.41800000000E+01 0. -1.
         -5    1    3    3    0  502  0.13697331115E+02 -0.20507576269E+02  0.10589811747E+03  0.10881204550E+03  0.41800000000E+01 0. -1.
        -11    1    1    2    0    0 -0.28454268735E+02  0.28107481031E+02  0.26033065882E+02  0.47722074749E+02  0.00000000000E+00 0.  1.
         11    1    1    2    0    0  0.17007534147E+02 -0.14342086920E+02 -0.43958242940E+02  0.49267421258E+02  0.00000000000E+00 0. -1.
</event>
<event>
 7    1  0.2788485E-009  0.2216733E+03  0.7561462E-02  0.1132642E+00
         -1   -1    0    0    0  501 -0.00000000000E+00  0.00000000000E+00  0.41947675575E+02  0.41947675575E+02  0.00000000000E+00 0.  1.
          1   -1    0    0  501    0  0.00000000000E+00 -0.00000000000E+00 -0.13162387455E+04  0.13162387455E+04  0.00000000000E+00 0. -1.
         25    2    1    2    0    0  0.18252105204E+03 -0.76139465245E+02 -0.46749743382E+03  0.52279320972E+03  0.12509091451E+03 0.  0.
          5    1    3    3  502    0  0.21000539687E+02 -0.60888028155E+02 -0.19743895362E+03  0.20772093647E+03  0.41800000000E+01 0. -1.
         -5    1    3    3    0  502  0.16152051235E+03 -0.15251437090E+02 -0.27005848020E+03  0.31507227325E+03  0.41800000000E+01 0. -1.
        -11    1    1    2    0    0 -0.12072017535E+03  0.30007222557E+01 -0.46796739860E+03  0.48329685621E+03  0.00000000000E+00 0.  1.
         11    1    1    2    0    0 -0.61800876690E+02  0.73138742989E+02 -0.33882623750E+03  0.35209635514E+03  0.00000000000E+00 0. -1.
</event>
<event>
 7    1  0.2788485E-009  0.2615671E+03  0.7561462E-02  0.1106205E+00
          1   -1    0    0  501    0  0.00000000000E+00  0.00000000000E+00  0.39301290366E+03  0.39301290366E+03  0.00000000000E+00 0. -1.
         -1   -1    0    0    0  501 -0.00000000000E+00 -0.00000000000E+00 -0.18425892657E+03  0.18425892657E+03  0.00000000000E+00 0.  1.
         25    2    1    2    0    0 -0.12247767709E+03 -0.20988148718E+03  0.14857679740E+03  0.31109029041E+03  0.12510429256E+03 0.  0.
          5    1    3    3  502    0 -0.14722868587E+03 -0.18499507798E+03  0.13968058719E+03  0.27464086305E+03  0.41800000000E+01 0. -1.
         -5    1    3    3    0  502  0.24751008782E+02 -0.24886409202E+02  0.88962102073E+01  0.36449427358E+02  0.41800000000E+01 0. -1.
        -11    1    1    2    0    0  0.34450991335E+02  0.12263224926E+03 -0.22670147337E+01  0.12739968100E+03  0.00000000000E+00 0.  1.
         11    1    1    2    0    0  0.88026685754E+02  0.87249237923E+02  0.62444194418E+02  0.13878185883E+03  0.00000000000E+00 0. -1.
</event>
<event>
 7    1  0.2788485E-009  0.1040812E+03  0.7561462E-02  0.1271940E+00
          2   -1    0    0  501    0  0.00000000000E+00  0.00000000000E+00  0.12066828024E+04  0.12066828024E+04  0.00000000000E+00 0. -1.
         -2   -1    0    0    0  501 -0.00000000000E+00 -0.00000000000E+00 -0.16380144254E+02  0.16380144254E+02  0.00000000000E+00 0.  1.
         25    2    1    2    0    0 -0.52857663736E+02  0.47100805022E+02  0.80035001196E+03  0.81315522443E+03  0.12509539931E+03 0.  0.
          5    1    3    3  502    0 -0.85826751836E+02  0.39770520205E+02  0.38732586971E+03  0.39873139751E+03  0.41800000000E+01 0.  1.
         -5    1    3    3    0  502  0.32969088100E+02  0.73302848174E+01  0.41302414224E+03  0.41442382692E+03  0.41800000000E+01 0.  1.
        -11    1    1    2    0    0 -0.33660443450E+01 -0.13571056249E+02 -0.51392047100E+00  0.13991709563E+02  0.00000000000E+00 0.  1.
         11    1    1    2    0    0  0.56223708081E+02 -0.33529748773E+02  0.39046656671E+03  0.39591601271E+03  0.00000000000E+00 0. -1.
</event>
<event>
 7    1  0.2788485E-009  0.7971227E+02  0.7561462E-02  0.1329870E+00
          1   -1    0    0  501    0  0.00000000000E+00  0.00000000000E+00  0.58891778164E+03  0.58891778164E+03  0.00000000000E+00 0.  1.
         -1   -1    0    0    0  501 -0.00000000000E+00 -0.00000000000E+00 -0.29959115576E+02  0.29959115576E+02  0.00000000000E+00 0. -1.
         25    2    1    2    0    0  0.37520561977E+02  0.15564487592E+02  0.15640540506E+03  0.20435284291E+03  0.12508951926E+03 0.  0.
          5    1    3    3  502    0  0.46892539701E+02  0.17226859214E+02  0.17555011108E+03  0.18256776511E+03  0.41800000000E+01 0.  1.
         -5    1    3    3    0  502 -0.93719777237E+01 -0.16623716217E+01 -0.19144706023E+02  0.21785077796E+02  0.41800000000E+01 0.  1.
        -11    1    1    2    0    0 -0.62726371650E+02 -0.30341778047E+02  0.28251899932E+03  0.29098488994E+03  0.00000000000E+00 0.  1.
         11    1    1    2    0    0  0.25205809672E+02  0.14777290455E+02  0.12003426169E+03  0.12353916437E+03  0.00000000000E+00 0. -1.
</event>
<event>
 7    1  0.2788485E-009  0.2332246E+03  0.7561462E-02  0.1124391E+00
          1   -1    0    0  501    0  0.00000000000E+00  0.00000000000E+00  0.14523689532E+03  0.14523689532E+03  0.00000000000E+00 0. -1.
         -1   -1    0    0    0  501 -0.00000000000E+00 -0.00000000000E+00 -0.49734188628E+03  0.49734188628E+03  0.00000000000E+00 0.  1.
         25    2    1    2    0    0 -0.17279363507E+03 -0.12860381760E+03 -0.39759116177E+02  0.25223739607E+03  0.12508530862E+03 0.  0.
          5    1    3    3  502    0 -0.13509716112E+03 -0.24647607876E+02 -0.10587983916E+02  0.13779813250E+03  0.41800000000E+01 0. -1.
         -5    1    3    3    0  502 -0.37696473957E+02 -0.10395620973E+03 -0.29171132261E+02  0.11443926357E+03  0.41800000000E+01 0. -1.
        -11    1    1    2    0    0  0.10036069994E+03  0.96299599139E+02 -0.12541902168E+03  0.18728538087E+03  0.00000000000E+00 0. -1.
         11    1    1    2    0    0  0.72432935130E+02  0.32304218464E+02 -0.18692685310E+03  0.20305600467E+03  0.00000000000E+00 0.  1.
</event>
<event>
 7    1  0.2788485E-009  0.1529597E+03  0.7561462E-02  0.1196883E+00
         -1   -1    0    0    0  501 -0.00000000000E+00  0.00000000000E+00  0.98050107818E+02  0.98050107818E+02  0.00000000000E+00 0.  1.
          1   -1    0    0  501    0  0.00000000000E+00 -0.00000000000E+00 -0.50739966739E+03  0.50739966739E+03  0.00000000000E+00 0. -1.
         25    2    1    2    0    0  0.12631929461E+03 -0.56329134310E+02 -0.39900861255E+03  0.44043726598E+03  0.12509027464E+03 0.  0.
          5    1    3    3  502    0  0.85652940213E+02 -0.51778648130E+02 -0.38367867798E+03  0.39654035722E+03  0.41800000000E+01 0.  1.
         -5    1    3    3    0  502  0.40666354396E+02 -0.45504861791E+01 -0.15329934571E+02  0.43896908756E+02  0.41800000000E+01 0.  1.
        -11    1    1    2    0    0 -0.11829852365E+03  0.77869279682E+02 -0.10635320004E+02  0.14202561546E+03  0.00000000000E+00 0. -1.
         11    1    1    2    0    0 -0.80207709589E+01 -0.21540145373E+02  0.29437298683E+00  0.22986893764E+02  0.00000000000E+00 0.  1.
</event>
<event>
 7    1  0.3078150E-009  0.1681031E+03  0.7561462E-02  0.1179841E+00
         -2   -1    0    0    0  501 -0.00000000000E+00  0.00000000000E+00  0.35247428068E+02  0.35247428068E+02  0.00000000000E+00 0.  1.
          2   -1    0    0  501    0  0.00000000000E+00 -0.00000000000E+00 -0.92394579242E+03  0.92394579242E+03  0.00000000000E+00 0. -1.
         25    2    1    2    0    0 -0.13740359831E+03  0.41763849033E+02 -0.48376511308E+03  0.51990402006E+03  0.12509011763E+03 0.  0.
          5    1    3    3  502    0 -0.13882240197E+03 -0.89468364975E+01 -0.33931933861E+03  0.36675167501E+03  0.41800000000E+01 0. -1.
         -5    1    3    3    0  502  0.14188036612E+01  0.50710685530E+02 -0.14444577447E+03  0.15315234505E+03  0.41800000000E+01 0. -1.
        -11    1    1    2    0    0  0.84041784204E+02 -0.11614345162E+02 -0.33820891941E+03  0.34868780833E+03  0.00000000000E+00 0.  1.
         11    1    1    2    0    0  0.53361814107E+02 -0.30149503870E+02 -0.66724331865E+02  0.90601392104E+02  0.00000000000E+00 0. -1.
</event>
<event>
 7    1  0.2788485E-009  0.2379097E+03  0.7561462E-02  0.1121193E+00
         -1   -1    0    0    0  501 -0.00000000000E+00  0.00000000000E+00  0.30094761882E+02  0.30094761882E+02  0.00000000000E+00 0.  1.
          1   -1    0    0  501    0  0.00000000000E+00 -0.00000000000E+00 -0.20431100469E+04  0.20431100469E+04  0.00000000000E+00 0. -1.
         25    2    1    2    0    0  0.19685261591E+03  0.78239169624E+02 -0.13240230734E+04  0.13466836561E+04  0.12508977072E+03 0.  0.
          5    1    3    3  502    0  0.14734902776E+02 -0.30301514359E+02 -0.18561937470E+03  0.18869902966E+03  0.41800000000E+01 0. -1.
         -5    1    3    3    0  502  0.18211771314E+03  0.10854068398E+03 -0.11384036987E+04  0.11579846264E+04  0.41800000000E+01 0. -1.
        -11    1    1    2    0    0 -0.12569567106E+03 -0.93973355696E+02 -0.49549848049E+03  0.51975873006E+03  0.00000000000E+00 0.  1.
         11    1    1    2    0    0 -0.71156944852E+02  0.15734186072E+02 -0.19349373119E+03  0.20676242265E+03  0.00000000000E+00 0. -1.
</event>
<event>
 7    1  0.2788485E-009  0.2185436E+03  0.7561462E-02  0.1134974E+00
          2   -1    0    0  501    0  0.00000000000E+00  0.00000000000E+00  0.45804460767E+03  0.45804460767E+03  0.00000000000E+00 0. -1.
         -2   -1    0    0    0  501 -0.00000000000E+00 -0.00000000000E+00 -0.14591430285E+03  0.14591430285E+03  0.00000000000E+00 0.  1.
         25    2    1    2    0    0 -0.15069681129E+03  0.12989572763E+03  0.15411036779E+02  0.23551401935E+03  0.12508766632E+03 0.  0.
          5    1    3    3  502    0 -0.11552698815E+03  0.28241258079E+02  0.39156107264E+02  0.12527859668E+03  0.41800000000E+01 0. -1.
         -5    1    3    3    0  502 -0.35169823133E+02  0.10165446955E+03 -0.23745070485E+02  0.11023542267E+03  0.41800000000E+01 0. -1.
        -11    1    1    2    0    0  0.40858117169E+02 -0.79931109474E+02  0.17700478127E+03  0.19846677453E+03  0.00000000000E+00 0.  1.
         11    1    1    2    0    0  0.10983869412E+03 -0.49964618156E+02  0.11971448677E+03  0.16997811664E+03  0.00000000000E+00 0. -1.
</event>
<event>
 7    1  0.2788485E-009  0.1171589E+03  0.7561462E-02  0.1247859E+00
         -2   -1    0    0    0  501 -0.00000000000E+00  0.00000000000E+00  0.22925702044E+02  0.22925702044E+02  0.00000000000E+00 0.  1.
          2   -1    0    0  501    0  0.00000000000E+00 -0.00000000000E+00 -0.96507285856E+03  0.96507285856E+03  0.00000000000E+00 0. -1.
         25    2    1    2    0    0  0.89406943471E+02 -0.12573843216E+01 -0.66831844042E+03  0.68577853574E+03  0.12508988660E+03 0.  0.
          5    1    3    3  502    0  0.94352996038E+02  0.19736245178E+02 -0.65014740337E+03  0.65726792539E+03  0.41800000000E+01 0.  1.
         -5    1    3    3    0  502 -0.49460525671E+01 -0.20993629500E+02 -0.18171037048E+02  0.28510610358E+02  0.41800000000E+01 0.  1.
        -11    1    1    2    0    0 -0.25219394911E+02  0.35161629426E+02 -0.17073786612E+03  0.17613567780E+03  0.00000000000E+00 0. -1.
         11    1    1    2    0    0 -0.64187548560E+02 -0.33904245105E+02 -0.10309084998E+03  0.12608434707E+03  0.00000000000E+00 0.  1.
</event>
<event>
 7    1  0.2788485E-009  0.5888763E+02  0.7561462E-02  0.1402560E+00
          2   -1    0    0  501    0  0.00000000000E+00  0.00000000000E+00  0.13701943038E+03  0.13701943038E+03  0.00000000000E+00 0. -1.
         -2   -1    0    0    0  501 -0.00000000000E+00 -0.00000000000E+00 -0.18312452960E+03  0.18312452960E+03  0.00000000000E+00 0.  1.
         25    2    1    2    0    0  0.69096399060E+01  0.36951589026E+02  0.85246216963E+02  0.15597402321E+03  0.12509122812E+03 0.  0.
          5    1    3    3  502    0  0.14408514245E+02  0.15813674035E+02 -0.30785096906E+02  0.37720977728E+02  0.41800000000E+01 0. -1.
         -5    1    3    3    0  502 -0.74988743387E+01  0.21137914990E+02  0.11603131387E+03  0.11825304548E+03  0.41800000000E+01 0. -1.
        -11    1    1    2    0    0 -0.28917016883E+02  0.13937841890E+01 -0.11239825599E+03  0.11606681028E+03  0.00000000000E+00 0.  1.
         11    1    1    2    0    0  0.22007376977E+02 -0.38345373215E+02 -0.18953060199E+02  0.48103126502E+02  0.00000000000E+00 0. -1.
</event>
<event>
 7    1  0.2788485E-009  0.1191918E+03  0.7561462E-02  0.1244436E+00
         -2   -1    0    0    0  501 -0.00000000000E+00  0.00000000000E+00  0.19201048818E+02  0.19201048818E+02  0.00000000000E+00 0. -1.
          2   -1    0    0  501    0  0.00000000000E+00 -0.00000000000E+00 -0.11956562119E+04  0.11956562119E+04  0.00000000000E+00 0.  1.
         25    2    1    2    0    0 -0.29254597694E+02  0.95396515868E+02 -0.52312270702E+03  0.54704991734E+03  0.12509963523E+03 0.  0.
          5    1    3    3  502    0 -0.21225593190E+02  0.65049154535E+02 -0.91827151609E+02  0.11459326544E+03  0.41800000000E+01 0. -1.
         -5    1    3    3    0  502 -0.80290045040E+01  0.30347361333E+02 -0.43129555542E+03  0.43245665190E+03  0.41800000000E+01 0. -1.
        -11    1    1    2    0    0 -0.26594121775E+02  0.11585661032E+01 -0.13740692352E+03  0.13996160981E+03  0.00000000000E+00 0.  1.
         11    1    1    2    0    0  0.55848719469E+02 -0.96555081971E+02 -0.51592553252E+03  0.52784573355E+03  0.00000000000E+00 0. -1.
</event>
<event>
 7    1  0.2788485E-009  0.2718478E+03  0.7561462E-02  0.1100227E+00
         -1   -1    0    0    0  501 -0.00000000000E+00  0.00000000000E+00  0.59299299717E+03  0.59299299717E+03  0.00000000000E+00 0.  1.
          1   -1    0    0  501    0  0.00000000000E+00 -0.00000000000E+00 -0.13577805616E+03  0.13577805616E+03  0.00000000000E+00 0. -1.
         25    2    1    2    0    0  0.10717003312E+03 -0.23874845428E+03  0.24212356141E+03  0.37783510683E+03  0.12509719637E+03 0.  0.
          5    1    3    3  502    0  0.50860607132E+02 -0.33968936348E+02  0.81906719818E+01  0.61848601455E+02  0.41800000000E+01 0.  1.
         -5    1    3    3    0  502  0.56309425991E+02 -0.20477951793E+03  0.23393288943E+03  0.31598650537E+03  0.41800000000E+01 0.  1.
        -11    1    1    2    0    0 -0.62078951707E+02  0.20343734577E+03  0.19940985987E+03  0.29155589878E+03  0.00000000000E+00 0.  1.
         11    1    1    2    0    0 -0.45091081416E+02  0.35311108507E+02  0.15681519734E+02  0.59380047730E+02  0.00000000000E+00 0. -1.
</event>
<event>
 7    1  0.2788485E-009  0.1185099E+03  0.7561462E-02  0.1245576E+00
         -2   -1    0    0    0  501 -0.00000000000E+00  0.00000000000E+00  0.83362519248E+02  0.83362519248E+02  0.00000000000E+00 0. -1.
          2   -1    0    0  501    0  0.00000000000E+00 -0.00000000000E+00 -0.17916801076E+03  0.17916801076E+03  0.00000000000E+00 0.  1.
         25    2    1    2    0    0 -0.26812202443E+02 -0.33272599285E+02 -0.76285909544E+02  0.15262096123E+03  0.12509059817E+03 0.  0.
          5    1    3    3  502    0  0.26227936607E+02  0.34437139197E+02 -0.40304007421E+02  0.59293394480E+02  0.41800000000E+01 0.  1.
         -5    1    3    3    0  502 -0.53040139050E+02 -0.67709738482E+02 -0.35981902123E+02  0.93327566754E+02  0.41800000000E+01 0.  1.
        -11    1    1    2    0    0  0.53673895212E+02  0.51953352798E+02 -0.19451557862E+02  0.77190679472E+02  0.00000000000E+00 0.  1.
         11    1    1    2    0    0 -0.26861692768E+02 -0.18680753513E+02 -0.68024110858E-01  0.32718889307E+02  0.00000000000E+00 0. -1.
</event>
<event>
 7    1  0.2788485E-009  0.1485914E+03  0.7561462E-02  0.1202215E+00
          2   -1    0    0  501    0  0.00000000000E+00  0.00000000000E+00  0.58985164510E+03  0.58985164510E+03  0.00000000000E+00 0. -1.
         -2   -1    0    0    0  501 -0.00000000000E+00 -0.00000000000E+00 -0.67595035561E+02  0.67595035561E+02  0.00000000000E+00 0.  1.
         25    2    1    2    0    0 -0.84243725826E+02 -0.96053957167E+02  0.96585997259E+02  0.20322488208E+03  0.12509248500E+03 0.  0.
          5    1    3    3  502    0 -0.54902089500E+02 -0.11795026236E+03  0.40886107531E+02  0.13643918063E+03  0.41800000000E+01 0.  1.
         -5    1    3    3    0  502 -0.29341636325E+02  0.21896305190E+02  0.55699889727E+02  0.66785701455E+02  0.41800000000E+01 0.  1.
        -11    1    1    2    0    0  0.62786438277E+02  0.53425110987E+02  0.37755979454E+03  0.38645540204E+03  0.00000000000E+00 0. -1.
         11    1    1    2    0    0  0.21457287549E+02  0.42628846180E+02  0.48110817745E+02  0.67766396538E+02  0.00000000000E+00 0.  1.
</event>
<event>
 7    1  0.2788485E-009  0.1987681E+03  0.7561462E-02  0.1150783E+00
         -1   -1    0    0    0  501 -0.00000000000E+00  0.00000000000E+00  0.98910057335E+02  0.98910057335E+02  0.00000000000E+00 0.  1.
          1   -1    0    0  501    0  0.00000000000E+00 -0.00000000000E+00 -0.48819087157E+03  0.48819087157E+03  0.00000000000E+00 0. -1.
         25    2    1    2    0    0  0.12893436407E+03  0.14069250426E+03 -0.21430327026E+03  0.31303589186E+03  0.12508847651E+03 0.  0.
          5    1    3    3  502    0  0.39546094699E+02  0.85771673486E+00 -0.11000597161E+03  0.11697613207E+03  0.41800000000E+01 0. -1.
         -5    1    3    3    0  502  0.89388269373E+02  0.13983478753E+03 -0.10429729865E+03  0.19605975979E+03  0.41800000000E+01 0. -1.
        -11    1    1    2    0    0 -0.87593609773E+02 -0.10788700880E+03 -0.67859472044E+02  0.15465172190E+03  0.00000000000E+00 0.  1.
         11    1    1    2    0    0 -0.41340754299E+02 -0.32805495460E+02 -0.10711807194E+03  0.11941331514E+03  0.00000000000E+00 0. -1.
</event>
<event>
 7    1  0.2788485E-009  0.1438522E+03  0.7561462E-02  0.1208238E+00
          2   -1    0    0  501    0  0.00000000000E+00  0.00000000000E+00  0.90588483914E+03  0.90588483914E+03  0.00000000000E+00 0. -1.
         -2   -1    0    0    0  501 -0.00000000000E+00 -0.00000000000E+00 -0.29237268256E+02  0.29237268256E+02  0.00000000000E+00 0.  1.
         25    2    1    2    0    0  0.22284967065E+02 -0.10264165952E+03  0.64905207132E+03  0.66928918522E+03  0.12508993621E+03 0.  0.
          5    1    3    3  502    0 -0.48900422517E+01 -0.12355447902E+03  0.42687757712E+03  0.44444522727E+03  0.41800000000E+01 0.  1.
         -5    1    3    3    0  502  0.27175009317E+02  0.20912819502E+02  0.22217449421E+03  0.22484395795E+03  0.41800000000E+01 0.  1.
        -11    1    1    2    0    0 -0.19209822428E+02 -0.64801118640E+01  0.10488556303E+02  0.22825839323E+02  0.00000000000E+00 0.  1.
         11    1    1    2    0    0 -0.30751446374E+01  0.10912177139E+03  0.21710694326E+03  0.24300708285E+03  0.00000000000E+00 0. -1.
</event>
<event>
 7    1  0.2788485E-009  0.9048915E+02  0.7561462E-02  0.1301671E+00
          1   -1    0    0  501    0  0.00000000000E+00  0.00000000000E+00  0.24810672209E+03  0.24810672209E+03  0.00000000000E+00 0. -1.
         -1   -1    0    0    0  501 -0.00000000000E+00 -0.00000000000E+00 -0.67456978586E+02  0.67456978586E+02  0.00000000000E+00 0.  1.
         25    2    1    2    0    0 -0.81684147509E+02 -0.14044192037E+02  0.11916792961E+03  0.19162018466E+03  0.12509100862E+03 0.  0.
          5    1    3    3  502    0 -0.30895475569E+02 -0.18849253162E+02  0.13356741482E+03  0.13844692650E+03  0.41800000000E+01 0. -1.
         -5    1    3    3    0  502 -0.50788671940E+02  0.48050611253E+01 -0.14399485202E+02  0.53173258166E+02  0.41800000000E+01 0. -1.
        -11    1    1    2    0    0  0.63262621171E+02 -0.89542511489E+01  0.10064211040E+02  0.64680956972E+02  0.00000000000E+00 0.  1.
         11    1    1    2    0    0  0.18421526339E+02  0.22998443186E+02  0.51417602852E+02  0.59262559046E+02  0.00000000000E+00 0. -1.
</event>
<event>
 7    1  0.2788485E-009  0.1097104E+03  0.7561462E-02  0.1261107E+00
         -2   -1    0    0    0  501 -0.00000000000E+00  0.00000000000E+00  0.22766635535E+02  0.22766635535E+02  0.00000000000E+00 0.  1.
          2   -1    0    0  501    0  0.00000000000E+00 -0.00000000000E+00 -0.62736121356E+03  0.62736121356E+03  0.00000000000E+00 0. -1.
         25    2    1    2    0    0 -0.47240865629E+02  0.17465788814E+02 -0.38361962704E+03  0.40662556979E+03  0.12507430828E+03 0.  0.
          5    1    3    3  502    0 -0.76136982902E+02  0.34134973128E+02 -0.16005085625E+03  0.18054302962E+03  0.41800000000E+01 0. -1.
         -5    1    3    3    0  502  0.28896117272E+02 -0.16669184314E+02 -0.22356877079E+03  0.22608254017E+03  0.41800000000E+01 0. -1.
        -11    1    1    2    0    0  0.30472130537E+02  0.35450693754E+02 -0.10414555046E+03  0.11415602528E+03  0.00000000000E+00 0. -1.
         11    1    1    2    0    0  0.16768735092E+02 -0.52916482568E+02 -0.11682940053E+03  0.12934625403E+03  0.00000000000E+00 0.  1.
</event>
<event>
 7    1  0.2788485E-009  0.9412148E+02  0.7561462E-02  0.1293167E+00
          1   -1    0    0  501    0  0.00000000000E+00  0.00000000000E+00  0.56765679871E+03  0.56765679871E+03  0.00000000000E+00 0. -1.
         -1   -1    0    0    0  501 -0.00000000000E+00 -0.00000000000E+00 -0.21088618377E+02  0.21088618377E+02  0.00000000000E+00 0.  1.
         25    2    1    2    0    0  0.41947846911E+01  0.13239339182E+02  0.34759202023E+03  0.36967674117E+03  0.12509118319E+03 0.  0.
          5    1    3    3  502    0  0.52448334685E+02  0.28719130686E+00  0.69869292387E+02  0.87464854135E+02  0.41800000000E+01 0.  1.
         -5    1    3    3    0  502 -0.48253549994E+02  0.12952147875E+02  0.27772272785E+03  0.28221188703E+03  0.41800000000E+01 0.  1.
        -11    1    1    2    0    0 -0.43943291980E+02 -0.12690559532E+02  0.66162153385E+02  0.80433163259E+02  0.00000000000E+00 0.  1.
         11    1    1    2    0    0  0.39748507289E+02 -0.54877964965E+00  0.13281400672E+03  0.13863551266E+03  0.00000000000E+00 0. -1.
</event>
<event>
 7    1  0.2819956E-009  0.1042486E+03  0.7561462E-02  0.1271607E+00
         -1   -1    0    0    0  501 -0.00000000000E+00  0.00000000000E+00  0.20112916093E+02  0.20112916093E+02  0.00000000000E+00 0.  1.
          1   -1    0    0  501    0  0.00000000000E+00 -0.00000000000E+00 -0.74040895523E+03  0.74040895523E+03  0.00000000000E+00 0. -1.
         25    2    1    2    0    0 -0.21098164420E+02  0.48746669281E+02 -0.34768834827E+03  0.37330510601E+03  0.12509254310E+03 0.  0.
          5    1    3    3  502    0 -0.81153851983E+01 -0.34064598746E+02 -0.35529104292E+02  0.50060423654E+02  0.41800000000E+01 0.  1.
         -5    1    3    3    0  502 -0.12982779222E+02  0.82811268027E+02 -0.31215924398E+03  0.32324468235E+03  0.41800000000E+01 0.  1.
        -11    1    1    2    0    0  0.46273270431E+02 -0.43661225386E+02 -0.33900312273E+03  0.34492120170E+03  0.00000000000E+00 0. -1.
         11    1    1    2    0    0 -0.25175106011E+02 -0.50854438949E+01 -0.33604568138E+02  0.42295563620E+02  0.00000000000E+00 0.  1.
</event>
<event>
 7    1  0.2788485E-009  0.8958683E+02  0.7561462E-02  0.1303855E+00
          1   -1    0    0  501    0  0.00000000000E+00  0.00000000000E+00  0.18519867143E+03  0.18519867143E+03  0.00000000000E+00 0. -1.
         -1   -1    0    0    0  501 -0.00000000000E+00 -0.00000000000E+00 -0.78874463460E+02  0.78874463460E+02  0.00000000000E+00 0.  1.
         25    2    1    2    0    0 -0.30976075960E+01  0.26505823575E+02  0.12343110436E+02  0.12851551919E+03  0.12510688406E+03 0.  0.
          5    1    3    3  502    0 -0.89360282600E+01 -0.38079500862E+02  0.41597058579E+02  0.57251101906E+02  0.41800000000E+01 0. -1.
         -5    1    3    3    0  502  0.58384206640E+01  0.64585324437E+02 -0.29253948143E+02  0.71264417281E+02  0.41800000000E+01 0. -1.
        -11    1    1    2    0    0  0.18475297646E+02  0.19190988111E+02  0.81514846637E+02  0.85757220513E+02  0.00000000000E+00 0. -1.
         11    1    1    2    0    0 -0.15377690050E+02 -0.45696811686E+02  0.12466250895E+02  0.49800395189E+02  0.00000000000E+00 0.  1.
</event>
<event>
 7    1  0.2788485E-009  0.9967732E+02  0.7561462E-02  0.1280976E+00
          2   -1    0    0  501    0  0.00000000000E+00  0.00000000000E+00  0.61102662401E+03  0.61102662401E+03  0.00000000000E+00 0. -1.
         -2   -1    0    0    0  501 -0.00000000000E+00 -0.00000000000E+00 -0.32399289250E+02  0.32399289250E+02  0.00000000000E+00 0.  1.
         25    2    1    2    0    0 -0.22921745921E+02 -0.47894468804E+02  0.47555289305E+03  0.49458840308E+03  0.12509135778E+03 0.  0.
          5    1    3    3  502    0 -0.41572056852E+02  0.21304550380E+02  0.31813417656E+03  0.32157261462E+03  0.41800000000E+01 0.  1.
         -5    1    3    3    0  502  0.18650310931E+02 -0.69199019185E+02  0.15741871649E+03  0.17301578846E+03  0.41800000000E+01 0.  1.
        -11    1    1    2    0    0  0.39355826079E+02  0.50501036410E+02  0.11269828245E+03  0.12961534859E+03  0.00000000000E+00 0. -1.
         11    1    1    2    0    0 -0.16434080158E+02 -0.26065676060E+01 -0.96238407419E+01  0.19222161584E+02  0.00000000000E+00 0.  1.
</event>
<event>
 7    1  0.2788485E-009  0.7988470E+02  0.7561462E-02  0.1329379E+00
         -2   -1    0    0    0  501 -0.00000000000E+00  0.00000000000E+00  0.69806503963E+02  0.69806503963E+02  0.00000000000E+00 0. -1.
          2   -1    0    0  501    0  0.00000000000E+00 -0.00000000000E+00 -0.18732493580E+03  0.18732493580E+03  0.00000000000E+00 0.  1.
         25    2    1    2    0    0  0.32200862086E+02  0.14108281131E+02 -0.45340955764E+02  0.13762009221E+03  0.12509016106E+03 0.  0.
          5    1    3    3  502    0  0.57431035921E+02  0.24832408065E+02  0.20664027091E+02  0.66026106904E+02  0.41800000000E+01 0. -1.
         -5    1    3    3    0  502 -0.25230173835E+02 -0.10724126933E+02 -0.66004982855E+02  0.71593985305E+02  0.41800000000E+01 0. -1.
        -11    1    1    2    0    0  0.17837288159E+02 -0.39689830763E+01 -0.65524200934E+02  0.68024573380E+02  0.00000000000E+00 0.  1.
         11    1    1    2    0    0 -0.50038150245E+02 -0.10139298055E+02 -0.66532751417E+01  0.51486774177E+02  0.00000000000E+00 0. -1.
</event>
<event>
 7    1  0.2788485E-009  0.1185920E+03  0.7561462E-02  0.1245438E+00
          1   -1    0    0  501    0  0.00000000000E+00  0.00000000000E+00  0.14073671932E+03  0.14073671932E+03  0.00000000000E+00 0. -1.
         -1   -1    0    0    0  501 -0.00000000000E+00 -0.00000000000E+00 -0.13300189531E+03  0.13300189531E+03  0.00000000000E+00 0.  1.
         25    2    1    2    0    0  0.19077660897E+02 -0.67710387765E+02  0.33170047205E+02  0.14729916166E+03  0.12509251471E+03 0.  0.
          5    1    3    3  502    0  0.55817258276E+02 -0.54840754204E+02 -0.20374708245E+02  0.80967127770E+02  0.41800000000E+01 0. -1.
         -5    1    3    3    0  502 -0.36739597380E+02 -0.12869633561E+02  0.53544755449E+02  0.66332033888E+02  0.41800000000E+01 0. -1.
        -11    1    1    2    0    0  0.17243786608E+02  0.79604490943E+02 -0.17371047888E+01  0.81469262228E+02  0.00000000000E+00 0.  1.
         11    1    1    2    0    0 -0.36321447505E+02 -0.11894103178E+02 -0.23698118402E+02  0.44970190738E+02  0.00000000000E+00 0. -1.
</event>
<event>
 7    1  0.2788485E-009  0.1346973E+03  0.7561462E-02  0.1220648E+00
          1   -1    0    0  501    0  0.00000000000E+00  0.00000000000E+00  0.52823102573E+03  0.52823102573E+03  0.00000000000E+00 0. -1.
         -1   -1    0    0    0  501 -0.00000000000E+00 -0.00000000000E+00 -0.50638355425E+02  0.50638355425E+02  0.00000000000E+00 0.  1.
         25    2    1    2    0    0  0.29005141750E+02  0.10113892414E+03  0.14643055475E+03  0.21945225067E+03  0.12508797998E+03 0.  0.
          5    1    3    3  502    0  0.59106892714E+02  0.62718784018E+02  0.14701221016E+03  0.17046211594E+03  0.41800000000E+01 0. -1.
         -5    1    3    3    0  502 -0.30101750965E+02  0.38420140119E+02 -0.58165540738E+00  0.48990134731E+02  0.41800000000E+01 0. -1.
        -11    1    1    2    0    0 -0.19889205492E+02  0.10242185336E+02  0.10242866254E+03  0.10484328193E+03  0.00000000000E+00 0. -1.
         11    1    1    2    0    0 -0.91159362579E+01 -0.11138110947E+03  0.22873345301E+03  0.25457384855E+03  0.00000000000E+00 0.  1.
</event>
<event>
 7    1  0.2788485E-009  0.1333373E+03  0.7561462E-02  0.1222586E+00
          2   -1    0    0  501    0  0.00000000000E+00  0.00000000000E+00  0.46457994970E+03  0.46457994970E+03  0.00000000000E+00 0. -1.
         -2   -1    0    0    0  501 -0.00000000000E+00 -0.00000000000E+00 -0.41516222483E+02  0.41516222483E+02  0.00000000000E+00 0.  1.
         25    2    1    2    0    0 -0.11902550378E+02 -0.85492432326E+02  0.26129794376E+03  0.30228270344E+03  0.12509033014E+03 0.  0.
          5    1    3    3  502    0  0.42104202498E+01 -0.11251873966E+03  0.23661674853E+03  0.26207470786E+03  0.41800000000E+01 0. -1.
         -5    1    3    3    0  502 -0.16112970628E+02  0.27026307336E+02  0.24681195225E+02  0.40207995578E+02  0.41800000000E+01 0. -1.
        -11    1    1    2    0    0 -0.19377687210E+02  0.88720208685E+02  0.13394365949E+03  0.16182606128E+03  0.00000000000E+00 0. -1.
         11    1    1    2    0    0  0.31280237587E+02 -0.32277763590E+01  0.27822123965E+02  0.41987407466E+02  0.00000000000E+00 0.  1.
</event>
<event>
 7    1  0.2788485E-009  0.3152382E+03  0.7561462E-02  0.1077862E+00
         -2   -1    0    0    0  501 -0.00000000000E+00  0.00000000000E+00  0.47389182519E+03  0.47389182519E+03  0.00000000000E+00 0.  1.
          2   -1    0    0  501    0  0.00000000000E+00 -0.00000000000E+00 -0.71451227747E+03  0.71451227747E+03  0.00000000000E+00 0. -1.
         25    2    1    2    0    0 -0.22361163762E+03  0.19599570926E+03 -0.61929655133E+03  0.69827796126E+03  0.12508960853E+03 0.  0.
          5    1    3    3  502    0 -0.14999976568E+03  0.54032228159E+02 -0.26066157332E+03  0.30558360491E+03  0.41800000000E+01 0. -1.
         -5    1    3    3    0  502 -0.73611871945E+02  0.14196348110E+03 -0.35863497800E+03  0.39269435635E+03  0.41800000000E+01 0. -1.
        -11    1    1    2    0    0  0.14134988271E+03 -0.63261215528E+02  0.18086037904E+03  0.23810133859E+03  0.00000000000E+00 0. -1.
         11    1    1    2    0    0  0.82261754916E+02 -0.13273449373E+03  0.19781572001E+03  0.25202480281E+03  0.00000000000E+00 0.  1.
</event>
<event>
 7    1  0.2788485E-009  0.1142609E+03  0.7561462E-02  0.1252877E+00
          2   -1    0    0  501    0  0.00000000000E+00  0.00000000000E+00  0.34975646159E+03  0.34975646159E+03  0.00000000000E+00 0. -1.
         -2   -1    0    0    0  501 -0.00000000000E+00 -0.00000000000E+00 -0.56923234984E+02  0.56923234984E+02  0.00000000000E+00 0.  1.
         25    2    1    2    0    0  0.54791780926E+02 -0.62196050502E+02  0.21101752064E+03  0.25893618777E+03  0.12509623243E+03 0.  0.
          5    1    3    3  502    0  0.63306608383E+02 -0.26672132562E+02  0.31495144304E+02  0.75687157663E+02  0.41800000000E+01 0. -1.
         -5    1    3    3    0  502 -0.85148274570E+01 -0.35523917940E+02  0.17952237633E+03  0.18324903011E+03  0.41800000000E+01 0. -1.
        -11    1    1    2    0    0 -0.34787738252E+02 -0.18770817306E+02  0.28990061360E+02  0.49019934441E+02  0.00000000000E+00 0.  1.
         11    1    1    2    0    0 -0.20004042674E+02  0.80966867808E+02  0.52825644611E+02  0.98723574360E+02  0.00000000000E+00 0. -1.
</event>
<event>
 7    1  0.2788485E-009  0.1387436E+03  0.7561462E-02  0.1215030E+00
          1   -1    0    0  501    0  0.00000000000E+00  0.00000000000E+00  0.92552658907E+02  0.92552658907E+02  0.00000000000E+00 0. -1.
         -1   -1    0    0    0  501 -0.00000000000E+00 -0.00000000000E+00 -0.30459234921E+03  0.30459234921E+03  0.00000000000E+00 0.  1.
         25    2    1    2    0    0  0.96492498207E+02 -0.71207970758E+02 -0.59173549529E+02  0.18311214142E+03  0.12508864882E+03 0.  0.
          5    1    3    3  502    0  0.46292589091E+02  0.20917806462E+02 -0.59192287665E+02  0.78113748796E+02  0.41800000000E+01 0.  1.
         -5    1    3    3    0  502  0.50199909116E+02 -0.92125777219E+02  0.18738135583E-01  0.10499839263E+03  0.41800000000E+01 0.  1.
        -11    1    1    2    0    0 -0.33381390061E+02  0.36615704104E+02 -0.12903363281E+03  0.13821977205E+03  0.00000000000E+00 0.  1.
         11    1    1    2    0    0 -0.63111108146E+02  0.34592266654E+02 -0.23832507968E+02  0.75813094646E+02  0.00000000000E+00 0. -1.
</event>
<event>
 7    1  0.2788485E-009  0.1132736E+03  0.7561462E-02  0.1254625E+00
          1   -1    0    0  501    0  0.00000000000E+00  0.00000000000E+00  0.20938801715E+02  0.20938801715E+02  0.00000000000E+00 0. -1.
         -1   -1    0    0    0  501 -0.00000000000E+00 -0.00000000000E+00 -0.84890209792E+03  0.84890209792E+03  0.00000000000E+00 0.  1.
         25    2    1    2    0    0  0.69399792609E+02 -0.33853209312E+02 -0.48987006579E+03  0.51145233735E+03  0.12509372897E+03 0.  0.
          5    1    3    3  502    0  0.32794186681E+02  0.43122056975E+02 -0.11790015072E+03  0.12981867515E+03  0.41800000000E+01 0.  1.
         -5    1    3    3    0  502  0.36605605928E+02 -0.76975266288E+02 -0.37196991507E+03  0.38163366220E+03  0.41800000000E+01 0.  1.
        -11    1    1    2    0    0 -0.14036349013E+02 -0.91624021843E+01 -0.42905528108E+01  0.17302530185E+02  0.00000000000E+00 0. -1.
         11    1    1    2    0    0 -0.55363443596E+02  0.43015611497E+02 -0.33380267760E+03  0.34108603210E+03  0.00000000000E+00 0.  1.
</event>
<event>
 7    1  0.2788485E-009  0.1098883E+03  0.7561462E-02  0.1260777E+00
         -1   -1    0    0    0  501 -0.00000000000E+00  0.00000000000E+00  0.86693451323E+03  0.86693451323E+03  0.00000000000E+00 0.  1.
          1   -1    0    0  501    0  0.00000000000E+00 -0.00000000000E+00 -0.15120363142E+02  0.15120363142E+02  0.00000000000E+00 0. -1.
         25    2    1    2    0    0  0.35176764900E+01 -0.36076616730E+02  0.47935555249E+03  0.49672938493E+03  0.12507773514E+03 0.  0.
          5    1    3    3  502    0 -0.54850853623E+02 -0.33074557939E+02  0.33206306725E+03  0.33820983954E+03  0.41800000000E+01 0. -1.
         -5    1    3    3    0  502  0.58368530113E+02 -0.30020587911E+01  0.14729248524E+03  0.15851954539E+03  0.41800000000E+01 0. -1.
        -11    1    1    2    0    0  0.43167504793E+02  0.20421282365E+02  0.21957731238E+03  0.22471016523E+03  0.00000000000E+00 0. -1.
         11    1    1    2    0    0 -0.46685181283E+02  0.15655334365E+02  0.15288128522E+03  0.16061532622E+03  0.00000000000E+00 0.  1.
</event>
<event>
 7    1  0.2788485E-009  0.1263087E+03  0.7561462E-02  0.1233038E+00
         -1   -1    0    0    0  501 -0.00000000000E+00  0.00000000000E+00  0.58585848162E+02  0.58585848162E+02  0.00000000000E+00 0.  1.
          1   -1    0    0  501    0  0.00000000000E+00 -0.00000000000E+00 -0.32470972851E+03  0.32470972851E+03  0.00000000000E+00 0. -1.
         25    2    1    2    0    0 -0.82928403273E+02  0.19278115061E+02 -0.16224105760E+03  0.22185100474E+03  0.12508773618E+03 0.  0.
          5    1    3    3  502    0  0.31264109448E+02  0.60075336230E+01 -0.59510916291E+02  0.67620681434E+02  0.41800000000E+01 0.  1.
         -5    1    3    3    0  502 -0.11419251272E+03  0.13270581438E+02 -0.10273014131E+03  0.15423032331E+03  0.41800000000E+01 0.  1.
        -11    1    1    2    0    0  0.55638668585E+01  0.18540803018E+02 -0.63401139699E+02  0.66290440533E+02  0.00000000000E+00 0. -1.
         11    1    1    2    0    0  0.77364536415E+02 -0.37818918079E+02 -0.40481683042E+02  0.95154131393E+02  0.00000000000E+00 0.  1.
</event>
<event>
 7    1  0.2788485E-009  0.1177924E+03  0.7561462E-02  0.1246784E+00
          1   -1    0    0  501    0  0.00000000000E+00  0.00000000000E+00  0.88850868298E+02  0.88850868298E+02  0.00000000000E+00 0. -1.
         -1   -1    0    0    0  501 -0.00000000000E+00 -0.00000000000E+00 -0.17200898825E+03  0.17200898825E+03  0.00000000000E+00 0.  1.
         25    2    1    2    0    0  0.56269733332E+02 -0.25358714743E+02 -0.55563253719E+02  0.15014814810E+03  0.12509134228E+03 0.  0.
          5    1    3    3  502    0  0.48554565842E+02 -0.73267118355E+02 -0.49782687536E+02  0.10110096377E+03  0.41800000000E+01 0.  1.
         -5    1    3    3    0  502  0.77151674900E+01  0.47908403612E+02 -0.57805661832E+01  0.49047184338E+02  0.41800000000E+01 0.  1.
        -11    1    1    2    0    0  0.19116459184E+02 -0.67906139726E+00 -0.24248872370E+02  0.30885400229E+02  0.00000000000E+00 0.  1.
         11    1    1    2    0    0 -0.75386192516E+02  0.26037776140E+02 -0.33459938633E+01  0.79826308216E+02  0.00000000000E+00 0. -1.
</event>
<event>
 7    1  0.2788485E-009  0.1498256E+03  0.7561462E-02  0.1200687E+00
         -2   -1    0    0    0  501 -0.00000000000E+00  0.00000000000E+00  0.21560321088E+02  0.21560321088E+02  0.00000000000E+00 0.  1.
          2   -1    0    0  501    0  0.00000000000E+00 -0.00000000000E+00 -0.11579722519E+04  0.11579722519E+04  0.00000000000E+00 0. -1.
         25    2    1    2    0    0  0.10386796277E+03 -0.39959848959E+02 -0.71405238012E+03  0.73341984828E+03  0.12509408089E+03 0.  0.
          5    1    3    3  502    0  0.20237910878E+02  0.37062784737E+02 -0.95671555723E+02  0.10466012624E+03  0.41800000000E+01 0.  1.
         -5    1    3    3    0  502  0.83630051888E+02 -0.77022633696E+02 -0.61838082440E+03  0.62875972205E+03  0.41800000000E+01 0.  1.
        -11    1    1    2    0    0 -0.20148094682E+02  0.54830267256E+02 -0.18314885307E+03  0.19223893026E+03  0.00000000000E+00 0. -1.
         11    1    1    2    0    0 -0.83719868084E+02 -0.14870418297E+02 -0.23921069763E+03  0.25387379446E+03  0.00000000000E+00 0.  1.
</event>
<event>
 7    1  0.2788485E-009  0.2890406E+03  0.7561462E-02  0.1090851E+00
          2   -1    0    0  501    0  0.00000000000E+00  0.00000000000E+00  0.10675402362E+04  0.10675402362E+04  0.00000000000E+00 0. -1.
         -2   -1    0    0    0  501 -0.00000000000E+00 -0.00000000000E+00 -0.82442402874E+02  0.82442402874E+02  0.00000000000E+00 0.  1.
         25    2    1    2    0    0  0.15892684860E+03 -0.22542158228E+03  0.48982279983E+03  0.57588753094E+03  0.12508972818E+03 0.  0.
          5    1    3    3  502    0  0.76969648380E+02 -0.37803550750E+02  0.22707954193E+03  0.24276743188E+03  0.41800000000E+01 0.  1.
         -5    1    3    3    0  502  0.81957200221E+02 -0.18761803153E+03  0.26274325791E+03  0.33312009906E+03  0.41800000000E+01 0.  1.
        -11    1    1    2    0    0 -0.16056234904E+03  0.17691380512E+03  0.43884633710E+03  0.49966475757E+03  0.00000000000E+00 0.  1.
         11    1    1    2    0    0  0.16355004427E+01  0.48507777159E+02  0.56428696344E+02  0.74430350514E+02  0.00000000000E+00 0. -1.
</event>
<event>
 7    1  0.2788485E-009  0.1191494E+03  0.7561462E-02  0.1244507E+00
         -1   -1    0    0    0  501 -0.00000000000E+00  0.00000000000E+00  0.41011684609E+02  0.41011684609E+02  0.00000000000E+00 0.  1.
          1   -1    0    0  501    0  0.00000000000E+00 -0.00000000000E+00 -0.41608363214E+03  0.41608363214E+03  0.00000000000E+00 0. -1.
         25    2    1    2    0    0 -0.68941865800E+02 -0.20788400825E+02 -0.20801691800E+03  0.25318783423E+03  0.12509157750E+03 0.  0.
          5    1    3    3  502    0 -0.66807785338E+02 -0.55886598566E+02 -0.73366978639E+02  0.11395954561E+03  0.41800000000E+01 0. -1.
         -5    1    3    3    0  502 -0.21340804625E+01  0.35098197741E+02 -0.13464993936E+03  0.13922828862E+03  0.41800000000E+01 0. -1.
        -11    1    1    2    0    0  0.65136569751E+02 -0.24978709995E+02 -0.11484908142E+03  0.13437641227E+03  0.00000000000E+00 0.  1.
         11    1    1    2    0    0  0.38052960491E+01  0.45767110820E+02 -0.52205948117E+02  0.69531070246E+02  0.00000000000E+00 0. -1.
</event>
<event>
 7    1  0.2788485E-009  0.7838786E+02  0.7561462E-02  0.1333690E+00
         -3   -1    0    0    0  501 -0.00000000000E+00  0.00000000000E+00  0.13979817835E+04  0.13979817835E+04  0.00000000000E+00 0.  1.
          3   -1    0    0  501    0  0.00000000000E+00 -0.00000000000E+00 -0.11970037079E+02  0.11970037079E+02  0.00000000000E+00 0. -1.
         25    2    1    2    0    0 -0.30666662833E+02 -0.26235389939E+02  0.10736804474E+04  0.10816960942E+04  0.12509195534E+03 0.  0.
          5    1    3    3  502    0 -0.40645305546E+02 -0.20134702661E+02  0.10662505471E+04  0.10672231017E+04  0.41800000000E+01 0. -1.
         -5    1    3    3    0  502  0.99786427130E+01 -0.61006872780E+01  0.74299002620E+01  0.14472992557E+02  0.41800000000E+01 0. -1.
        -11    1    1    2    0    0  0.57771942815E+02  0.38112363620E+02  0.18478096491E+03  0.19731739566E+03  0.00000000000E+00 0. -1.
         11    1    1    2    0    0 -0.27105279982E+02 -0.11876973681E+02  0.12755033415E+03  0.13093833071E+03  0.00000000000E+00 0.  1.
</event>
<event>
 7    1  0.2788485E-009  0.8674741E+02  0.7561462E-02  0.1310925E+00
         -2   -1    0    0    0  501 -0.00000000000E+00  0.00000000000E+00  0.20469850683E+02  0.20469850683E+02  0.00000000000E+00 0.  1.
          2   -1    0    0  501    0  0.00000000000E+00 -0.00000000000E+00 -0.66582511717E+03  0.66582511717E+03  0.00000000000E+00 0. -1.
         25    2    1    2    0    0  0.48517955755E+02 -0.64200703713E+01 -0.40120640575E+03  0.42309513628E+03  0.12509078701E+03 0.  0.
          5    1    3    3  502    0 -0.12871306367E+02  0.29957224990E+02 -0.28227838142E+02  0.43328848391E+02  0.41800000000E+01 0. -1.
         -5    1    3    3    0  502  0.61389262123E+02 -0.36377295362E+02 -0.37297856761E+03  0.37976628789E+03  0.41800000000E+01 0. -1.
        -11    1    1    2    0    0  0.93856547274E+01 -0.41837688367E+01  0.16877034570E+01  0.10413586284E+02  0.00000000000E+00 0.  1.
         11    1    1    2    0    0 -0.57903610483E+02  0.10603839208E+02 -0.24583656419E+03  0.25278624528E+03  0.00000000000E+00 0. -1.
</event>
<event>
 7    1  0.2788485E-009  0.1059271E+03  0.7561462E-02  0.1268304E+00
         -3   -1    0    0    0  501 -0.00000000000E+00  0.00000000000E+00  0.14199381097E+03  0.14199381097E+03  0.00000000000E+00 0.  1.
          3   -1    0    0  501    0  0.00000000000E+00 -0.00000000000E+00 -0.12631840188E+03  0.12631840188E+03  0.00000000000E+00 0. -1.
         25    2    1    2    0    0 -0.14549415007E+02 -0.49468466322E+02 -0.50399769940E+02  0.14439927999E+03  0.12510875515E+03 0.  0.
          5    1    3    3  502    0  0.38338700303E+01  0.34547086325E+02  0.13133761845E+02  0.37392082493E+02  0.41800000000E+01 0. -1.
         -5    1    3    3    0  502 -0.18383285037E+02 -0.84015552647E+02 -0.63533531786E+02  0.10700719750E+03  0.41800000000E+01 0. -1.
        -11    1    1    2    0    0 -0.29109005771E+02  0.72304842864E+01  0.54304192032E+02  0.62036758396E+02  0.00000000000E+00 0.  1.
         11    1    1    2    0    0  0.43658420778E+02  0.42237982036E+02  0.11770986997E+02  0.61876174463E+02  0.00000000000E+00 0. -1.
</event>
<event>
 7    1  0.2788485E-009  0.5678339E+02  0.7561462E-02  0.1411849E+00
         -4   -1    0    0    0  501 -0.00000000000E+00  0.00000000000E+00  0.16581580165E+03  0.16581580165E+03  0.00000000000E+00 0.  1.
          4   -1    0    0  501    0  0.00000000000E+00 -0.00000000000E+00 -0.72592914421E+02  0.72592914421E+02  0.00000000000E+00 0. -1.
         25    2    1    2    0    0 -0.25927888703E+02 -0.14797877530E+02  0.72751477328E+02  0.14775442143E+03  0.12508940405E+03 0.  0.
          5    1    3    3  502    0  0.11344027857E+02  0.94368601126E+01 -0.31118544631E+02  0.34692614729E+02  0.41800000000E+01 0. -1.
         -5    1    3    3    0  502 -0.37271916560E+02 -0.24234737642E+02  0.10387002196E+03  0.11306180670E+03  0.41800000000E+01 0. -1.
        -11    1    1    2    0    0  0.33019193111E+02  0.24813930547E+02 -0.21753564489E+02  0.46682071836E+02  0.00000000000E+00 0. -1.
         11    1    1    2    0    0 -0.70913044079E+01 -0.10016053018E+02  0.42224974395E+02  0.43972222811E+02  0.00000000000E+00 0.  1.
</event>
<event>
 7    1  0.2788485E-009  0.1762072E+03  0.7561462E-02  0.1171525E+00
          2   -1    0    0  501    0  0.00000000000E+00  0.00000000000E+00  0.76731450408E+03  0.76731450408E+03  0.00000000000E+00 0. -1.
         -2   -1    0    0    0  501 -0.00000000000E+00 -0.00000000000E+00 -0.57737800683E+02  0.57737800683E+02  0.00000000000E+00 0.  1.
         25    2    1    2    0    0  0.10989463740E+02  0.14993720180E+03  0.17071715862E+03  0.25960308476E+03  0.12508988996E+03 0.  0.
          5    1    3    3  502    0  0.25869918772E+02  0.16837550253E+03  0.15803723373E+03  0.23240654507E+03  0.41800000000E+01 0. -1.
         -5    1    3    3    0  502 -0.14880455032E+02 -0.18438300724E+02  0.12679924899E+02  0.27196539688E+02  0.41800000000E+01 0. -1.
        -11    1    1    2    0    0  0.18554575246E+02 -0.78166426322E+02  0.38298588101E+03  0.39132141203E+03  0.00000000000E+00 0. -1.
         11    1    1    2    0    0 -0.29544038986E+02 -0.71770775481E+02  0.15587366377E+03  0.17412780798E+03  0.00000000000E+00 0.  1.
</event>
<event>
 7    1  0.2788485E-009  0.9834266E+02  0.7561462E-02  0.1283820E+00
          2   -1    0    0  501    0  0.00000000000E+00  0.00000000000E+00  0.19174603768E+03  0.19174603768E+03  0.00000000000E+00 0. -1.
         -2   -1    0    0    0  501 -0.00000000000E+00 -0.00000000000E+00 -0.80122372518E+02  0.80122372518E+02  0.00000000000E+00 0.  1.
         25    2    1    2    0    0 -0.25691828052E+02 -0.31065963386E+01  0.63294864705E+01  0.12789106709E+03  0.12508533756E+03 0.  0.
          5    1    3    3  502    0  0.38688368179E+02 -0.53663073455E+01  0.39160265289E+02  0.55466979946E+02  0.41800000000E+01 0.  1.
         -5    1    3    3    0  502 -0.64380196231E+02  0.22597110069E+01 -0.32830778818E+02  0.72424087142E+02  0.41800000000E+01 0.  1.
        -11    1    1    2    0    0  0.40568609133E+02 -0.33960738712E+02  0.35990613535E+02  0.63988030783E+02  0.00000000000E+00 0.  1.
         11    1    1    2    0    0 -0.14876781081E+02  0.37067335051E+02  0.69303565156E+02  0.79989312326E+02  0.00000000000E+00 0. -1.
</event>
<event>
 7    1  0.2788485E-009  0.1124151E+03  0.7561462E-02  0.1256162E+00
         -1   -1    0    0    0  501 -0.00000000000E+00  0.00000000000E+00  0.86335250704E+02  0.86335250704E+02  0.00000000000E+00 0.  1.
          1   -1    0    0  501    0  0.00000000000E+00 -0.00000000000E+00 -0.20048851266E+03  0.20048851266E+03  0.00000000000E+00 0. -1.
         25    2    1    2    0    0 -0.49689947671E+02  0.26551831646E+02 -0.16215195452E+02  0.13814491927E+03  0.12508795103E+03 0.  0.
          5    1    3    3  502    0 -0.29591734283E+02 -0.46431844326E+02  0.13281850327E+02  0.56793193726E+02  0.41800000000E+01 0. -1.
         -5    1    3    3    0  502 -0.20098213387E+02  0.72983675972E+02 -0.29497045778E+02  0.81351725547E+02  0.41800000000E+01 0. -1.
        -11    1    1    2    0    0  0.33364719816E+02  0.23721970596E+02 -0.43150973441E+01  0.41164990981E+02  0.00000000000E+00 0.  1.
         11    1    1    2    0    0  0.16325227855E+02 -0.50273802242E+02 -0.93622969156E+02  0.10751385311E+03  0.00000000000E+00 0. -1.
</event>
<event>
 7    1  0.2788485E-009  0.8519592E+02  0.7561462E-02  0.1314921E+00
         -1   -1    0    0    0  501 -0.00000000000E+00  0.00000000000E+00  0.19635074161E+02  0.19635074161E+02  0.00000000000E+00 0.  1.
          1   -1    0    0  501    0  0.00000000000E+00 -0.00000000000E+00 -0.64766748884E+03  0.64766748884E+03  0.00000000000E+00 0. -1.
         25    2    1    2    0    0  0.21230381074E+02 -0.12922976089E+02 -0.41995886838E+03  0.43889757626E+03  0.12509156216E+03 0.  0.
          5    1    3    3  502    0 -0.10322322556E+02 -0.36058125927E+02 -0.38318971970E+03  0.38504359814E+03  0.41800000000E+01 0.  1.
         -5    1    3    3    0  502  0.31552703630E+02  0.23135149839E+02 -0.36769148687E+02  0.53853978122E+02  0.41800000000E+01 0.  1.
        -11    1    1    2    0    0 -0.15416672819E+02 -0.38542864693E+02 -0.10842961964E+03  0.11610430067E+03  0.00000000000E+00 0.  1.
         11    1    1    2    0    0 -0.58137082550E+01  0.51465840782E+02 -0.99643926655E+02  0.11230068606E+03  0.00000000000E+00 0. -1.
</event>
<event>
 7    1  0.2788485E-009  0.2214406E+03  0.7561462E-02  0.1132814E+00
          2   -1    0    0  501    0  0.00000000000E+00  0.00000000000E+00  0.96759152557E+03  0.96759152557E+03  0.00000000000E+00 0. -1.
         -2   -1    0    0    0  501 -0.00000000000E+00 -0.00000000000E+00 -0.51229730545E+02  0.51229730545E+02  0.00000000000E+00 0.  1.
         25    2    1    2    0    0 -0.12120812242E+03  0.14362860644E+03  0.42925448522E+03  0.48500337578E+03  0.12509306898E+03 0.  0.
          5    1    3    3  502    0 -0.12567520869E+02  0.11163161842E+03  0.21670026787E+03  0.24412300036E+03  0.41800000000E+01 0. -1.
         -5    1    3    3    0  502 -0.10864060155E+03  0.31996988028E+02  0.21255421736E+03  0.24088037542E+03  0.41800000000E+01 0. -1.
        -11    1    1    2    0    0  0.12860778914E+03 -0.76583802176E+02  0.30842398382E+03  0.34282706425E+03  0.00000000000E+00 0.  1.
         11    1    1    2    0    0 -0.73996667254E+01 -0.67044804266E+02  0.17868332598E+03  0.19099081609E+03  0.00000000000E+00 0. -1.
</event>
<event>
 7    1  0.2788485E-009  0.7783906E+02  0.7561462E-02  0.1335298E+00
         -1   -1    0    0    0  501 -0.00000000000E+00  0.00000000000E+00  0.13882135492E+03  0.13882135492E+03  0.00000000000E+00 0.  1.
          1   -1    0    0  501    0  0.00000000000E+00 -0.00000000000E+00 -0.88505821672E+02  0.88505821672E+02  0.00000000000E+00 0. -1.
         25    2    1    2    0    0 -0.12776100376E+02  0.21302764774E+02  0.25552006229E+02  0.13006782133E+03  0.12509075343E+03 0.  0.
          5    1    3    3  502    0 -0.52221559645E+02 -0.24715214504E+02 -0.11289794329E+02  0.59015802762E+02  0.41800000000E+01 0.  1.
         -5    1    3    3    0  502  0.39445459268E+02  0.46017979278E+02  0.36841800558E+02  0.71052018564E+02  0.41800000000E+01 0.  1.
        -11    1    1    2    0    0  0.20935215757E+02 -0.10388020675E+02  0.57354930925E+02  0.61933693042E+02  0.00000000000E+00 0.  1.
         11    1    1    2    0    0 -0.81591153807E+01 -0.10914744100E+02 -0.32591403910E+02  0.35325662221E+02  0.00000000000E+00 0. -1.
</event>
<event>
 7    1  0.2788485E-009  0.9307894E+02  0.7561462E-02  0.1295562E+00
         -2   -1    0    0    0  501 -0.00000000000E+00  0.00000000000E+00  0.69498895018E+02  0.69498895018E+02  0.00000000000E+00 0. -1.
          2   -1    0    0  501    0  0.00000000000E+00 -0.00000000000E+00 -0.36743789147E+03  0.36743789147E+03  0.00000000000E+00 0.  1.
         25    2    1    2    0    0  0.84222785012E+01  0.47530076129E+02 -0.30531827279E+03  0.33346193333E+03  0.12509024891E+03 0.  0.
          5    1    3    3  502    0 -0.10271089622E+02 -0.14418008158E+02 -0.24249991971E+03  0.24318112118E+03  0.41800000000E+01 0.  1.
         -5    1    3    3    0  502  0.18693368123E+02  0.61948084287E+02 -0.62818353079E+02  0.90280812148E+02  0.41800000000E+01 0.  1.
        -11    1    1    2    0    0  0.40878519384E+02 -0.30368180586E+02  0.57388464013E+01  0.51246600835E+02  0.00000000000E+00 0.  1.
         11    1    1    2    0    0 -0.49300797886E+02 -0.17161895543E+02  0.16404299285E+01  0.52228252327E+02  0.00000000000E+00 0. -1.
</event>
<event>
 7    1  0.2788485E-009  0.1035241E+03  0.7561462E-02  0.1273055E+00
          1   -1    0    0  501    0  0.00000000000E+00  0.00000000000E+00  0.76186489582E+02  0.76186489582E+02  0.00000000000E+00 0. -1.
         -1   -1    0    0    0  501 -0.00000000000E+00 -0.00000000000E+00 -0.17443954038E+03  0.17443954038E+03  0.00000000000E+00 0.  1.
         25    2    1    2    0    0  0.15185660145E+02 -0.20677695808E+02 -0.22458694021E+02  0.12965433980E+03  0.12509070115E+03 0.  0.
          5    1    3    3  502    0  0.66451565342E+02  0.33914172422E+01  0.44402630447E+01  0.66816918390E+02  0.41800000000E+01 0.  1.
         -5    1    3    3    0  502 -0.51265905197E+02 -0.24069113050E+02 -0.26898957065E+02  0.62837421413E+02  0.41800000000E+01 0.  1.
        -11    1    1    2    0    0 -0.27854584121E+02 -0.24236809159E+02 -0.62253978530E+02  0.72379960056E+02  0.00000000000E+00 0.  1.
         11    1    1    2    0    0  0.12668923977E+02  0.44914504967E+02 -0.13540378244E+02  0.48591730100E+02  0.00000000000E+00 0. -1.
</event>
<event>
 7    1  0.2788485E-009  0.8864706E+02  0.7561462E-02  0.1306162E+00
          3   -1    0    0  501    0  0.00000000000E+00  0.00000000000E+00  0.33424890687E+03  0.33424890687E+03  0.00000000000E+00 0. -1.
         -3   -1    0    0    0  501 -0.00000000000E+00 -0.00000000000E+00 -0.36248577209E+02  0.36248577209E+02  0.00000000000E+00 0.  1.
         25    2    1    2    0    0 -0.54914272239E+01  0.23226690650E+02  0.18070112716E+03  0.22106644322E+03  0.12509132675E+03 0.  0.
          5    1    3    3  502    0 -0.32253518143E+02  0.62697069051E+02  0.14520337462E+03  0.16147044405E+03  0.41800000000E+01 0. -1.
         -5    1    3    3    0  502  0.26762090919E+02 -0.39470378401E+02  0.35497752542E+02  0.59595999169E+02  0.41800000000E+01 0. -1.
        -11    1    1    2    0    0  0.17370834581E+02 -0.36837109303E+02  0.11808605832E+02  0.42404736616E+02  0.00000000000E+00 0.  1.
         11    1    1    2    0    0 -0.11879407357E+02  0.13610418653E+02  0.10549059666E+03  0.10702630424E+03  0.00000000000E+00 0. -1.
</event>
<event>
 7    1  0.2788485E-009  0.1518964E+03  0.7561462E-02  0.1198162E+00
         -2   -1    0    0    0  501 -0.00000000000E+00  0.00000000000E+00  0.74295879866E+02  0.74295879866E+02  0.00000000000E+00 0.  1.
          2   -1    0    0  501    0  0.00000000000E+00 -0.00000000000E+00 -0.35411221443E+03  0.35411221443E+03  0.00000000000E+00 0. -1.
         25    2    1    2    0    0 -0.99619481700E+02 -0.46950418821E+02 -0.21352976940E+03  0.27087051455E+03  0.12508992873E+03 0.  0.
          5    1    3    3  502    0 -0.89044729417E+02  0.21377313836E+02 -0.85754992993E+02  0.12552826218E+03  0.41800000000E+01 0.  1.
         -5    1    3    3    0  502 -0.10574752283E+02 -0.68327732657E+02 -0.12777477641E+03  0.14534225236E+03  0.41800000000E+01 0.  1.
        -11    1    1    2    0    0  0.90591171178E+02 -0.44184504861E+01 -0.39915269883E+02  0.99093449682E+02  0.00000000000E+00 0. -1.
         11    1    1    2    0    0  0.90283105225E+01  0.51368869307E+02 -0.26371295283E+02  0.58444130071E+02  0.00000000000E+00 0.  1.
</event>
<event>
 7    1  0.2788485E-009  0.1017927E+03  0.7561462E-02  0.1276571E+00
          1   -1    0    0  501    0  0.00000000000E+00  0.00000000000E+00  0.95638371668E+02  0.95638371668E+02  0.00000000000E+00 0. -1.
         -1   -1    0    0    0  501 -0.00000000000E+00 -0.00000000000E+00 -0.16510744845E+03  0.16510744845E+03  0.00000000000E+00 0.  1.
         25    2    1    2    0    0  0.13925905505E+02  0.64757823707E+02 -0.53282626672E+02  0.15124675437E+03  0.12509610636E+03 0.  0.
          5    1    3    3  502    0  0.52155842476E+02  0.78425693569E+02 -0.15335066730E+02  0.95516794271E+02  0.41800000000E+01 0.  1.
         -5    1    3    3    0  502 -0.38229936971E+02 -0.13667869862E+02 -0.37947559941E+02  0.55729960101E+02  0.41800000000E+01 0.  1.
        -11    1    1    2    0    0 -0.94984065813E+01 -0.10917075631E+02 -0.45702784550E+02  0.47938990222E+02  0.00000000000E+00 0.  1.
         11    1    1    2    0    0 -0.44274989241E+01 -0.53840748077E+02  0.29516334438E+02  0.61560075526E+02  0.00000000000E+00 0. -1.
</event>
<event>
 7    1  0.2788485E-009  0.1680527E+03  0.7561462E-02  0.1179894E+00
          2   -1    0    0  501    0  0.00000000000E+00  0.00000000000E+00  0.37829656921E+02  0.37829656921E+02  0.00000000000E+00 0. -1.
         -2   -1    0    0    0  501 -0.00000000000E+00 -0.00000000000E+00 -0.10203103819E+04  0.10203103819E+04  0.00000000000E+00 0.  1.
         25    2    1    2    0    0  0.15573918150E+03 -0.22802120553E+02 -0.63313822551E+03  0.66429354491E+03  0.12508905570E+03 0.  0.
          5    1    3    3  502    0  0.10797839189E+03 -0.26554095622E+02 -0.20318599827E+03  0.23166025857E+03  0.41800000000E+01 0.  1.
         -5    1    3    3    0  502  0.47760789612E+02  0.37519750691E+01 -0.42995222724E+03  0.43263328634E+03  0.41800000000E+01 0.  1.
        -11    1    1    2    0    0 -0.71027863107E+02  0.51021159052E+02 -0.12654777538E+03  0.15382605586E+03  0.00000000000E+00 0. -1.
         11    1    1    2    0    0 -0.84711318394E+02 -0.28219038499E+02 -0.22279472410E+03  0.24002043806E+03  0.00000000000E+00 0.  1.
</event>
<event>
 7    1  0.2788485E-009  0.2412256E+03  0.7561462E-02  0.1118979E+00
          1   -1    0    0  501    0  0.00000000000E+00  0.00000000000E+00  0.18008296489E+04  0.18008296489E+04  0.00000000000E+00 0. -1.
         -1   -1    0    0    0  501 -0.00000000000E+00 -0.00000000000E+00 -0.88000245448E+02  0.88000245448E+02  0.00000000000E+00 0.  1.
         25    2    1    2    0    0  0.16682001999E+03  0.15695102205E+03  0.15945141573E+04  0.16157305913E+04  0.12508958181E+03 0.  0.
          5    1    3    3  502    0  0.12101625195E+03  0.41272425448E+02  0.60220078631E+03  0.61563918472E+03  0.41800000000E+01 0. -1.
         -5    1    3    3    0  502  0.45803768037E+02  0.11567859660E+03  0.99231337101E+03  0.10000914066E+04  0.41800000000E+01 0. -1.
        -11    1    1    2    0    0 -0.14560872885E+03 -0.14585918131E+03  0.13274589996E+03  0.24514949857E+03  0.00000000000E+00 0. -1.
         11    1    1    2    0    0 -0.21211291140E+02 -0.11091840740E+02 -0.14430653784E+02  0.27949804498E+02  0.00000000000E+00 0.  1.
</event>
<event>
 7    1  0.2788485E-009  0.1365063E+03  0.7561462E-02  0.1218109E+00
          1   -1    0    0  501    0  0.00000000000E+00  0.00000000000E+00  0.12904136106E+03  0.12904136106E+03  0.00000000000E+00 0. -1.
         -1   -1    0    0    0  501 -0.00000000000E+00 -0.00000000000E+00 -0.21163127889E+03  0.21163127889E+03  0.00000000000E+00 0.  1.
         25    2    1    2    0    0  0.67658020419E+02  0.78718496612E+02 -0.11416723928E+03  0.19863505208E+03  0.12509003139E+03 0.  0.
          5    1    3    3  502    0 -0.33663461126E+02  0.25937776368E+02 -0.97407842530E+01  0.43798996972E+02  0.41800000000E+01 0.  1.
         -5    1    3    3    0  502  0.10132148154E+03  0.52780720244E+02 -0.10442645502E+03  0.15483605511E+03  0.41800000000E+01 0.  1.
        -11    1    1    2    0    0 -0.62250477916E+02 -0.33971465766E+02 -0.19861394029E+02  0.73645484993E+02  0.00000000000E+00 0.  1.
         11    1    1    2    0    0 -0.54075425025E+01 -0.44747030845E+02  0.51438715476E+02  0.68392102872E+02  0.00000000000E+00 0. -1.
</event>
<event>
 7    1  0.2788485E-009  0.5203173E+02  0.7561462E-02  0.1434681E+00
         -2   -1    0    0    0  501 -0.00000000000E+00  0.00000000000E+00  0.51073457537E+02  0.51073457537E+02  0.00000000000E+00 0.  1.
          2   -1    0    0  501    0  0.00000000000E+00 -0.00000000000E+00 -0.37810833116E+03  0.37810833116E+03  0.00000000000E+00 0. -1.
         25    2    1    2    0    0  0.42047184497E+02  0.10329689195E+02 -0.22363986822E+03  0.25987376898E+03  0.12507964242E+03 0.  0.
          5    1    3    3  502    0  0.12423700955E+02  0.18238599342E+02  0.97183899394E+01  0.24472726746E+02  0.41800000000E+01 0.  1.
         -5    1    3    3    0  502  0.29623483541E+02 -0.79089101465E+01 -0.23335825816E+03  0.23540104224E+03  0.41800000000E+01 0.  1.
        -11    1    1    2    0    0 -0.16811878512E+01 -0.10153804355E+02  0.29065217774E+02  0.30833634553E+02  0.00000000000E+00 0.  1.
         11    1    1    2    0    0 -0.40365996645E+02 -0.17588483989E+00 -0.13246022318E+03  0.13847438516E+03  0.00000000000E+00 0. -1.
</event>
<event>
 7    1  0.2788485E-009  0.1098625E+03  0.7561462E-02  0.1260825E+00
          2   -1    0    0  501    0  0.00000000000E+00  0.00000000000E+00  0.14738756045E+03  0.14738756045E+03  0.00000000000E+00 0. -1.
         -2   -1    0    0    0  501 -0.00000000000E+00 -0.00000000000E+00 -0.13668907706E+03  0.13668907706E+03  0.00000000000E+00 0.  1.
         25    2    1    2    0    0 -0.37271021742E+02 -0.83415676158E+02  0.50673347617E+01  0.15498761256E+03  0.12509267795E+03 0.  0.
          5    1    3    3  502    0 -0.13017797311E+02 -0.45146834561E+02  0.64643174373E+02  0.80024446956E+02  0.41800000000E+01 0. -1.
         -5    1    3    3    0  502 -0.24253224431E+02 -0.38268841597E+02 -0.59575839611E+02  0.74963165607E+02  0.41800000000E+01 0. -1.
        -11    1    1    2    0    0 -0.12822260983E+01 -0.18264775241E+02 -0.70246381601E+01  0.19611008634E+02  0.00000000000E+00 0. -1.
         11    1    1    2    0    0  0.38553247840E+02  0.10168045140E+03  0.12655786793E+02  0.10947801631E+03  0.00000000000E+00 0.  1.
</event>
<event>
 7    1  0.2788485E-009  0.1180205E+03  0.7561462E-02  0.1246399E+00
          2   -1    0    0  501    0  0.00000000000E+00  0.00000000000E+00  0.59764860607E+03  0.59764860607E+03  0.00000000000E+00 0. -1.
         -2   -1    0    0    0  501 -0.00000000000E+00 -0.00000000000E+00 -0.25416816461E+02  0.25416816461E+02  0.00000000000E+00 0.  1.
         25    2    1    2    0    0  0.30906813675E+02 -0.26346341825E+01  0.38011459095E+03  0.40136636068E+03  0.12508269587E+03 0.  0.
          5    1    3    3  502    0  0.64434140880E+02 -0.39268438720E+02  0.18171430872E+03  0.19680277230E+03  0.41800000000E+01 0.  1.
         -5    1    3    3    0  502 -0.33527327205E+02  0.36633804538E+02  0.19840028222E+03  0.20456358838E+03  0.41800000000E+01 0.  1.
        -11    1    1    2    0    0 -0.45028341696E+02 -0.43364749369E+02  0.10991831755E+03  0.12645192595E+03  0.00000000000E+00 0.  1.
         11    1    1    2    0    0  0.14121528020E+02  0.45999383552E+02  0.82198881107E+02  0.95247135894E+02  0.00000000000E+00 0. -1.
</event>
<event>
 7    1  0.2788485E-009  0.1652281E+03  0.7561462E-02  0.1182918E+00
         -2   -1    0    0    0  501 -0.00000000000E+00  0.00000000000E+00  0.13384028438E+03  0.13384028438E+03  0.00000000000E+00 0.  1.
          2   -1    0    0  501    0  0.00000000000E+00 -0.00000000000E+00 -0.26264672847E+03  0.26264672847E+03  0.00000000000E+00 0. -1.
         25    2    1    2    0    0  0.14338465937E+03  0.31080808158E+02 -0.22777838568E+02  0.19414397400E+03  0.12509146866E+03 0.  0.
          5    1    3    3  502    0  0.14520478325E+03 -0.14611383829E+01 -0.47699213245E+02  0.15290275128E+03  0.41800000000E+01 0.  1.
         -5    1    3    3    0  502 -0.18201238774E+01  0.32541946541E+02  0.24921374678E+02  0.41241222720E+02  0.41800000000E+01 0.  1.
        -11    1    1    2    0    0 -0.80957452494E+02  0.33589889922E+01 -0.10290667182E+03  0.13097776539E+03  0.00000000000E+00 0.  1.
         11    1    1    2    0    0 -0.62427206879E+02 -0.34439797150E+02 -0.31219337082E+01  0.71365273463E+02  0.00000000000E+00 0. -1.
</event>
<event>
 7    1  0.2788485E-009  0.9412790E+02  0.7561462E-02  0.1293152E+00
          2   -1    0    0  501    0  0.00000000000E+00  0.00000000000E+00  0.20701154103E+02  0.20701154103E+02  0.00000000000E+00 0. -1.
         -2   -1    0    0    0  501 -0.00000000000E+00 -0.00000000000E+00 -0.67249244693E+03  0.67249244693E+03  0.00000000000E+00 0.  1.
         25    2    1    2    0    0  0.24468240404E+02 -0.10231609631E+02 -0.49252946747E+03  0.50885737429E+03  0.12508865023E+03 0.  0.
          5    1    3    3  502    0  0.17229482705E+02  0.55455171011E+02 -0.17283734201E+03  0.18237968708E+03  0.41800000000E+01 0.  1.
         -5    1    3    3    0  502  0.72387576988E+01 -0.65686780642E+02 -0.31969212546E+03  0.32647768721E+03  0.41800000000E+01 0.  1.
        -11    1    1    2    0    0  0.61058558578E+01  0.27863804735E+02 -0.14238585573E+03  0.14521503022E+03  0.00000000000E+00 0.  1.
         11    1    1    2    0    0 -0.30574096262E+02 -0.17632195104E+02 -0.16875969624E+02  0.39121196520E+02  0.00000000000E+00 0. -1.
</event>
<event>
 7    1  0.2961189E-009  0.1327200E+03  0.7561462E-02  0.1223475E+00
         -2   -1    0    0    0  501 -0.00000000000E+00  0.00000000000E+00  0.71379678435E+02  0.71379678435E+02  0.00000000000E+00 0.  1.
          2   -1    0    0  501    0  0.00000000000E+00 -0.00000000000E+00 -0.30045082662E+03  0.30045082662E+03  0.00000000000E+00 0. -1.
         25    2    1    2    0    0  0.66437285913E+02 -0.71767595882E+02 -0.11277602016E+03  0.19475906977E+03  0.12509262071E+03 0.  0.
          5    1    3    3  502    0  0.79612054076E+02 -0.33159528412E+01 -0.92254335171E+02  0.12197298658E+03  0.41800000000E+01 0.  1.
         -5    1    3    3    0  502 -0.13174768163E+02 -0.68451643040E+02 -0.20521684985E+02  0.72786083187E+02  0.41800000000E+01 0.  1.
        -11    1    1    2    0    0 -0.10056211301E+02 -0.11487015185E+02 -0.59841119424E+02  0.61757902146E+02  0.00000000000E+00 0. -1.
         11    1    1    2    0    0 -0.56381074611E+02  0.83254611066E+02 -0.56454008607E+02  0.11531353314E+03  0.00000000000E+00 0.  1.
</event>
<event>
 7    1  0.2788485E-009  0.1263539E+03  0.7561462E-02  0.1232968E+00
          2   -1    0    0  501    0  0.00000000000E+00  0.00000000000E+00  0.11391532314E+04  0.11391532314E+04  0.00000000000E+00 0. -1.
         -2   -1    0    0    0  501 -0.00000000000E+00 -0.00000000000E+00 -0.15770507580E+02  0.15770507580E+02  0.00000000000E+00 0.  1.
         25    2    1    2    0    0  0.21990316545E+01  0.70703644835E+02  0.71354005362E+03  0.72786713253E+03  0.12508922160E+03 0.  0.
          5    1    3    3  502    0 -0.37993543631E+02  0.89028361426E+02  0.54719396821E+03  0.55570520039E+03  0.41800000000E+01 0.  1.
         -5    1    3    3    0  502  0.40192575285E+02 -0.18324716591E+02  0.16634608542E+03  0.17216193214E+03  0.41800000000E+01 0.  1.
        -11    1    1    2    0    0 -0.14398692936E+02  0.17355465358E+02  0.33685867023E+02  0.40537293609E+02  0.00000000000E+00 0. -1.
         11    1    1    2    0    0  0.12199661282E+02 -0.88059110193E+02  0.37615680313E+03  0.38651931279E+03  0.00000000000E+00 0.  1.
</event>
<event>
 7    1  0.2788485E-009  0.1794555E+03  0.7561462E-02  0.1168331E+00
         -4   -1    0    0    0  501 -0.00000000000E+00  0.00000000000E+00  0.38797026755E+03  0.38797026755E+03  0.00000000000E+00 0.  1.
          4   -1    0    0  501    0  0.00000000000E+00 -0.00000000000E+00 -0.96952529293E+02  0.96952529293E+02  0.00000000000E+00 0. -1.
         25    2    1    2    0    0  0.78081951017E+02  0.12429235975E+03  0.71470948326E+02  0.20567276532E+03  0.12509119942E+03 0.  0.
          5    1    3    3  502    0  0.34013183937E+02 -0.18193308407E+02  0.34588654279E+02  0.51978270048E+02  0.41800000000E+01 0.  1.
         -5    1    3    3    0  502  0.44068767080E+02  0.14248566816E+03  0.36882294047E+02  0.15369449527E+03  0.41800000000E+01 0.  1.
        -11    1    1    2    0    0  0.13513440358E+01 -0.79901389712E+02  0.12206983306E+03  0.14590100189E+03  0.00000000000E+00 0. -1.
         11    1    1    2    0    0 -0.79433295052E+02 -0.44390970040E+02  0.97476956874E+02  0.13334902964E+03  0.00000000000E+00 0.  1.
</event>
<event>
 7    1  0.2788485E-009  0.1023945E+03  0.7561462E-02  0.1275340E+00
         -2   -1    0    0    0  501 -0.00000000000E+00  0.00000000000E+00  0.89793992703E+02  0.89793992703E+02  0.00000000000E+00 0. -1.
          2   -1    0    0  501    0  0.00000000000E+00 -0.00000000000E+00 -0.21554113940E+03  0.21554113940E+03  0.00000000000E+00 0.  1.
         25    2    1    2    0    0 -0.40037054798E+01 -0.59995848290E+02  0.15901427947E+02  0.13969871114E+03  0.12508934013E+03 0.  0.
          5    1    3    3  502    0  0.29245713589E+02  0.25981878321E+02  0.25560741729E+02  0.46916880567E+02  0.41800000000E+01 0.  1.
         -5    1    3    3    0  502 -0.33249419069E+02 -0.85977726610E+02 -0.96593137813E+01  0.92781830572E+02  0.41800000000E+01 0.  1.
        -11    1    1    2    0    0  0.16584735725E+02  0.58130606643E+02 -0.14039521818E+03  0.15285626639E+03  0.00000000000E+00 0.  1.
         11    1    1    2    0    0 -0.12581030245E+02  0.18652416464E+01 -0.12533564637E+01  0.12780154570E+02  0.00000000000E+00 0. -1.
</event>
<event>
 7    1  0.2788485E-009  0.1102971E+03  0.7561462E-02  0.1260021E+00
         -2   -1    0    0    0  501 -0.00000000000E+00  0.00000000000E+00  0.31166891168E+02  0.31166891168E+02  0.00000000000E+00 0.  1.
          2   -1    0    0  501    0  0.00000000000E+00 -0.00000000000E+00 -0.72037920971E+03  0.72037920971E+03  0.00000000000E+00 0. -1.
         25    2    1    2    0    0  0.31701845413E+02 -0.60965926678E+02 -0.18062169004E+03  0.23020920690E+03  0.12510089051E+03 0.  0.
          5    1    3    3  502    0  0.47426961245E+02 -0.12341606454E+01 -0.15680386039E+03  0.16387727981E+03  0.41800000000E+01 0. -1.
         -5    1    3    3    0  502 -0.15725115832E+02 -0.59731766032E+02 -0.23817829653E+02  0.66331927084E+02  0.41800000000E+01 0. -1.
        -11    1    1    2    0    0  0.26124935054E+02 -0.12045935226E+01 -0.72875360030E+02  0.77425973527E+02  0.00000000000E+00 0.  1.
         11    1    1    2    0    0 -0.57826780468E+02  0.62170520200E+02 -0.43571526847E+03  0.44391092045E+03  0.00000000000E+00 0. -1.
</event>
<event>
 7    1  0.2788485E-009  0.1153161E+03  0.7561462E-02  0.1251030E+00
         -1   -1    0    0    0  501 -0.00000000000E+00  0.00000000000E+00  0.83788482243E+02  0.83788482243E+02  0.00000000000E+00 0.  1.
          1   -1    0    0  501    0  0.00000000000E+00 -0.00000000000E+00 -0.16032793895E+03  0.16032793895E+03  0.00000000000E+00 0. -1.
         25    2    1    2    0    0  0.31106381593E+02  0.25047046917E+02 -0.54022774703E+02  0.14199247232E+03  0.12509372676E+03 0.  0.
          5    1    3    3  502    0 -0.21116081701E+02 -0.41420920978E+02 -0.19514337634E+02  0.50595092394E+02  0.41800000000E+01 0.  1.
         -5    1    3    3    0  502  0.52222463294E+02  0.66467967895E+02 -0.34508437069E+02  0.91397379927E+02  0.41800000000E+01 0.  1.
        -11    1    1    2    0    0 -0.63204082046E+02 -0.22620546925E+02 -0.11541054784E+02  0.68114910820E+02  0.00000000000E+00 0. -1.
         11    1    1    2    0    0  0.32097700453E+02 -0.24264999921E+01 -0.10975627222E+02  0.34009038056E+02  0.00000000000E+00 0.  1.
</event>
<event>
 7    1  0.2788485E-009  0.8122519E+02  0.7561462E-02  0.1325610E+00
          1   -1    0    0  501    0  0.00000000000E+00  0.00000000000E+00  0.24719298225E+03  0.24719298225E+03  0.00000000000E+00 0. -1.
         -1   -1    0    0    0  501 -0.00000000000E+00 -0.00000000000E+00 -0.51466112645E+02  0.51466112645E+02  0.00000000000E+00 0.  1.
         25    2    1    2    0    0  0.53377046730E+00 -0.30142904391E+02  0.11622000193E+03  0.17338897724E+03  0.12509104278E+03 0.  0.
          5    1    3    3  502    0 -0.22314150848E+02 -0.40546278114E+02 -0.75067961369E+01  0.47071715342E+02  0.41800000000E+01 0.  1.
         -5    1    3    3    0  502  0.22847921315E+02  0.10403373723E+02  0.12372679807E+03  0.12631726190E+03  0.41800000000E+01 0.  1.
        -11    1    1    2    0    0 -0.12728609946E+02 -0.28193238439E+02  0.75569971316E+01  0.31843121871E+02  0.00000000000E+00 0. -1.
         11    1    1    2    0    0  0.12194839479E+02  0.58336142830E+02  0.71949870539E+02  0.93426995782E+02  0.00000000000E+00 0.  1.
</event>
<event>
 7    1  0.2788485E-009  0.1130391E+03  0.7561462E-02  0.1255043E+00
          1   -1    0    0  501    0  0.00000000000E+00  0.00000000000E+00  0.43084551731E+03  0.43084551731E+03  0.00000000000E+00 0. -1.
         -1   -1    0    0    0  501 -0.00000000000E+00 -0.00000000000E+00 -0.32180765677E+02  0.32180765677E+02  0.00000000000E+00 0.  1.
         25    2    1    2    0    0 -0.34601513425E+02 -0.26407902502E+02  0.21842549491E+03  0.25544692568E+03  0.12509513568E+03 0.  0.
          5    1    3    3  502    0 -0.36382677432E+02  0.41538729974E+02  0.14543896863E+03  0.15562497004E+03  0.41800000000E+01 0. -1.
         -5    1    3    3    0  502  0.17811640069E+01 -0.67946632476E+02  0.72986526277E+02  0.99821955641E+02  0.41800000000E+01 0. -1.
        -11    1    1    2    0    0  0.74953071239E+00  0.56982426382E+02  0.91321305468E+02  0.10764357642E+03  0.00000000000E+00 0.  1.
         11    1    1    2    0    0  0.33851982713E+02 -0.30574523879E+02  0.88917951260E+02  0.99935780881E+02  0.00000000000E+00 0. -1.
</event>
<event>
 7    1  0.2788485E-009  0.1259607E+03  0.7561462E-02  0.1233575E+00
         -2   -1    0    0    0  501 -0.00000000000E+00  0.00000000000E+00  0.31085341446E+02  0.31085341446E+02  0.00000000000E+00 0.  1.
          2   -1    0    0  501    0  0.00000000000E+00 -0.00000000000E+00 -0.63717556234E+03  0.63717556234E+03  0.00000000000E+00 0. -1.
         25    2    1    2    0    0  0.25788752540E+02  0.84603640448E+02 -0.34417872917E+03  0.37673495950E+03  0.12508955337E+03 0.  0.
          5    1    3    3  502    0  0.27820319370E+02 -0.25171305187E+02 -0.49590274166E+02  0.62323610827E+02  0.41800000000E+01 0. -1.
         -5    1    3    3    0  502 -0.20315668306E+01  0.10977494564E+03 -0.29458845500E+03  0.31441134867E+03  0.41800000000E+01 0. -1.
        -11    1    1    2    0    0  0.17601036943E+02 -0.24972112080E+02 -0.17452983865E+03  0.17718371105E+03  0.00000000000E+00 0. -1.
         11    1    1    2    0    0 -0.43389789483E+02 -0.59631528368E+02 -0.87381653077E+02  0.11434223324E+03  0.00000000000E+00 0.  1.
</event>
<event>
 7    1  0.2788485E-009  0.1004858E+03  0.7561462E-02  0.1279278E+00
         -2   -1    0    0    0  501 -0.00000000000E+00  0.00000000000E+00  0.33548378986E+02  0.33548378986E+02  0.00000000000E+00 0. -1.
          2   -1    0    0  501    0  0.00000000000E+00 -0.00000000000E+00 -0.49269955382E+03  0.49269955382E+03  0.00000000000E+00 0.  1.
         25    2    1    2    0    0  0.53850134929E+02  0.17581892311E+02 -0.33205261608E+03  0.35932455043E+03  0.12508490209E+03 0.  0.
          5    1    3    3  502    0  0.69784239582E+02  0.52822446648E+02 -0.15503027017E+03  0.17807837609E+03  0.41800000000E+01 0. -1.
         -5    1    3    3    0  502 -0.15934104653E+02 -0.35240554337E+02 -0.17702234591E+03  0.18124617434E+03  0.41800000000E+01 0. -1.
        -11    1    1    2    0    0 -0.55229858779E+02 -0.29388661216E+02 -0.13754090024E+03  0.15110105872E+03  0.00000000000E+00 0.  1.
         11    1    1    2    0    0  0.13797238501E+01  0.11806768905E+02  0.10442341486E+02  0.15822323647E+02  0.00000000000E+00 0. -1.
</event>
<event>
 7    1  0.2788485E-009  0.1202942E+03  0.7561462E-02  0.1242612E+00
         -2   -1    0    0    0  501 -0.00000000000E+00  0.00000000000E+00  0.40878766247E+02  0.40878766247E+02  0.00000000000E+00 0.  1.
          2   -1    0    0  501    0  0.00000000000E+00 -0.00000000000E+00 -0.38731777756E+03  0.38731777756E+03  0.00000000000E+00 0. -1.
         25    2    1    2    0    0  0.18717001478E+01  0.56981229269E+02 -0.14147718527E+03  0.19726761022E+03  0.12509337448E+03 0.  0.
          5    1    3    3  502    0  0.61441618005E+02  0.14383462880E+02 -0.76673856059E+02  0.99389682716E+02  0.41800000000E+01 0. -1.
         -5    1    3    3    0  502 -0.59569917857E+02  0.42597766389E+02 -0.64803329214E+02  0.97877927502E+02  0.41800000000E+01 0. -1.
        -11    1    1    2    0    0  0.42275364674E+02 -0.33833301637E+02 -0.13087224672E+03  0.14163136559E+03  0.00000000000E+00 0.  1.
         11    1    1    2    0    0 -0.44147064822E+02 -0.23147927632E+02 -0.74089579321E+02  0.89297567996E+02  0.00000000000E+00 0. -1.
</event>
<event>
 7    1  0.2788485E-009  0.9750668E+02  0.7561462E-02  0.1285628E+00
         -1   -1    0    0    0  501 -0.00000000000E+00  0.00000000000E+00  0.11147730862E+03  0.11147730862E+03  0.00000000000E+00 0.  1.
          1   -1    0    0  501    0  0.00000000000E+00 -0.00000000000E+00 -0.11334362260E+03  0.11334362260E+03  0.00000000000E+00 0. -1.
         25    2    1    2    0    0 -0.73873425532E+01  0.28156707490E+02 -0.14767898286E+02  0.12927989381E+03  0.12509127515E+03 0.  0.
          5    1    3    3  502    0  0.41707129054E+02 -0.86707151394E+01  0.30794360930E+02  0.52729792149E+02  0.41800000000E+01 0.  1.
         -5    1    3    3    0  502 -0.49094471607E+02  0.36827422629E+02 -0.45562259216E+02  0.76550101664E+02  0.41800000000E+01 0.  1.
        -11    1    1    2    0    0  0.32687796186E+02 -0.48323733334E+02  0.21310905149E+02  0.62111431324E+02  0.00000000000E+00 0.  1.
         11    1    1    2    0    0 -0.25300453633E+02  0.20167025844E+02 -0.84093208414E+01  0.33429606077E+02  0.00000000000E+00 0. -1.
</event>
<event>
 7    1  0.2788485E-009  0.1659123E+03  0.7561462E-02  0.1182179E+00
          1   -1    0    0  501    0  0.00000000000E+00  0.00000000000E+00  0.54816350588E+03  0.54816350588E+03  0.00000000000E+00 0. -1.
         -1   -1    0    0    0  501 -0.00000000000E+00 -0.00000000000E+00 -0.59526916816E+02  0.59526916816E+02  0.00000000000E+00 0.  1.
         25    2    1    2    0    0 -0.44518900859E+02 -0.13499701636E+03  0.18247561387E+03  0.26295833208E+03  0.12507440902E+03 0.  0.
          5    1    3    3  502    0 -0.15004122068E+02 -0.14572289631E+03  0.17861538798E+03  0.23104375216E+03  0.41800000000E+01 0.  1.
         -5    1    3    3    0  502 -0.29514778791E+02  0.10725879946E+02  0.38602258880E+01  0.31914579922E+02  0.41800000000E+01 0.  1.
        -11    1    1    2    0    0  0.51727928759E+02  0.64284422637E+02  0.12155084097E+03  0.14691110424E+03  0.00000000000E+00 0. -1.
         11    1    1    2    0    0 -0.72090279006E+01  0.70712593722E+02  0.18461013423E+03  0.19782098639E+03  0.00000000000E+00 0.  1.
</event>
<event>
 7    1  0.2788485E-009  0.1059456E+03  0.7561462E-02  0.1268268E+00
          2   -1    0    0  501    0  0.00000000000E+00  0.00000000000E+00  0.52736695261E+03  0.52736695261E+03  0.00000000000E+00 0. -1.
         -2   -1    0    0    0  501 -0.00000000000E+00 -0.00000000000E+00 -0.11105721298E+03  0.11105721298E+03  0.00000000000E+00 0.  1.
         25    2    1    2    0    0 -0.41581495313E+02 -0.19675102330E+02 -0.63612474722E+02  0.14767885594E+03  0.12508543940E+03 0.  0.
          5    1    3    3  502    0 -0.45788329042E+02 -0.58317005650E+02 -0.14883445876E+01  0.74277397599E+02  0.41800000000E+01 0. -1.
         -5    1    3    3    0  502  0.42068337292E+01  0.38641903321E+02 -0.62124130135E+02  0.73401458346E+02  0.41800000000E+01 0. -1.
        -11    1    1    2    0    0 -0.22533572107E+02  0.25649204861E+02  0.10731849783E+03  0.11261839796E+03  0.00000000000E+00 0.  1.
         11    1    1    2    0    0  0.64115067420E+02 -0.59741025309E+01  0.37260371652E+03  0.37812691168E+03  0.00000000000E+00 0. -1.
</event>
<event>
 7    1  0.3138666E-009  0.1742455E+03  0.7561462E-02  0.1173491E+00
         -1   -1    0    0    0  501 -0.00000000000E+00  0.00000000000E+00  0.43139378370E+02  0.43139378370E+02  0.00000000000E+00 0.  1.
          1   -1    0    0  501    0  0.00000000000E+00 -0.00000000000E+00 -0.81466566628E+03  0.81466566628E+03  0.00000000000E+00 0. -1.
         25    2    1    2    0    0  0.11143830271E+03 -0.10377839184E+03 -0.37731459300E+03  0.42567662330E+03  0.12508331467E+03 0.  0.
          5    1    3    3  502    0  0.13443333694E+03 -0.93486538288E+02 -0.35788653591E+03  0.39358899872E+03  0.41800000000E+01 0.  1.
         -5    1    3    3    0  502 -0.22995034238E+02 -0.10291853553E+02 -0.19428057089E+02  0.32087624584E+02  0.41800000000E+01 0.  1.
        -11    1    1    2    0    0 -0.84377560332E+02  0.47790509897E+02 -0.13921839455E+03  0.16966221413E+03  0.00000000000E+00 0. -1.
         11    1    1    2    0    0 -0.27060742376E+02  0.55987881943E+02 -0.25499330036E+03  0.26246620721E+03  0.00000000000E+00 0.  1.
</event>
<event>
 7    1  0.2788485E-009  0.1780303E+03  0.7561462E-02  0.1169723E+00
          2   -1    0    0  501    0  0.00000000000E+00  0.00000000000E+00  0.16251115383E+03  0.16251115383E+03  0.00000000000E+00 0. -1.
         -2   -1    0    0    0  501 -0.00000000000E+00 -0.00000000000E+00 -0.29695243866E+03  0.29695243866E+03  0.00000000000E+00 0.  1.
         25    2    1    2    0    0 -0.77058803174E+01  0.15149096341E+03  0.50842580076E+02  0.20307207975E+03  0.12507761206E+03 0.  0.
          5    1    3    3  502    0 -0.59508457154E+02  0.51574448225E+02 -0.15132600008E+01  0.78872951881E+02  0.41800000000E+01 0.  1.
         -5    1    3    3    0  502  0.51802576837E+02  0.99916515183E+02  0.52355840077E+02  0.12419912787E+03  0.41800000000E+01 0.  1.
        -11    1    1    2    0    0  0.29701771780E+02 -0.34443159591E+02 -0.10015647350E+03  0.10999929852E+03  0.00000000000E+00 0.  1.
         11    1    1    2    0    0 -0.21995891463E+02 -0.11704780382E+03 -0.85127391395E+02  0.14639221422E+03  0.00000000000E+00 0. -1.
</event>
<event>
 7    1  0.2788485E-009  0.1387477E+03  0.7561462E-02  0.1215024E+00
         -1   -1    0    0    0  501 -0.00000000000E+00  0.00000000000E+00  0.72967430292E+02  0.72967430292E+02  0.00000000000E+00 0.  1.
          1   -1    0    0  501    0  0.00000000000E+00 -0.00000000000E+00 -0.29919098852E+03  0.29919098852E+03  0.00000000000E+00 0. -1.
         25    2    1    2    0    0 -0.14529188550E+02  0.99158096721E+02 -0.12130845248E+03  0.20101454572E+03  0.12509069303E+03 0.  0.
          5    1    3    3  502    0  0.21498377653E+02 -0.23396144556E+02 -0.18622988629E+02  0.37065454634E+02  0.41800000000E+01 0. -1.
         -5    1    3    3    0  502 -0.36027566203E+02  0.12255424128E+03 -0.10268546385E+03  0.16394909108E+03  0.41800000000E+01 0. -1.
        -11    1    1    2    0    0  0.14429223088E+02  0.36080061719E+01 -0.54850632375E+02  0.56831435486E+02  0.00000000000E+00 0. -1.
         11    1    1    2    0    0  0.99965462103E-01 -0.10276610289E+03 -0.50064473374E+02  0.11431243760E+03  0.00000000000E+00 0.  1.
</event>
<event>
 7    1  0.2788485E-009  0.7869382E+02  0.7561462E-02  0.1332800E+00
         -2   -1    0    0    0  501 -0.00000000000E+00  0.00000000000E+00  0.16001178978E+03  0.16001178978E+03  0.00000000000E+00 0.  1.
          2   -1    0    0  501    0  0.00000000000E+00 -0.00000000000E+00 -0.11219188138E+03  0.11219188138E+03  0.00000000000E+00 0. -1.
         25    2    1    2    0    0  0.11216608403E+02  0.17666936142E+02  0.10411785245E+03  0.16409073264E+03  0.12508920178E+03 0.  0.
          5    1    3    3  502    0 -0.36398396204E+02  0.39994144571E+02  0.96622762500E+02  0.11080525926E+03  0.41800000000E+01 0.  1.
         -5    1    3    3    0  502  0.47615004607E+02 -0.22327208429E+02  0.74950899548E+01  0.53285473380E+02  0.41800000000E+01 0.  1.
        -11    1    1    2    0    0  0.90952761468E+01 -0.26667894111E+02  0.16052564360E+02  0.32428158243E+02  0.00000000000E+00 0.  1.
         11    1    1    2    0    0 -0.20311884550E+02  0.90009579693E+01 -0.72350508413E+02  0.75684780279E+02  0.00000000000E+00 0. -1.
</event>
<event>
 7    1  0.2788485E-009  0.5543985E+02  0.7561462E-02  0.1418030E+00
          2   -1    0    0  501    0  0.00000000000E+00  0.00000000000E+00  0.15398998463E+03  0.15398998463E+03  0.00000000000E+00 0. -1.
         -2   -1    0    0    0  501 -0.00000000000E+00 -0.00000000000E+00 -0.89544198384E+02  0.89544198384E+02  0.00000000000E+00 0.  1.
         25    2    1    2    0    0  0.16144827938E+02  0.31426273424E+02  0.65950539074E+02  0.14575373115E+03  0.12508561232E+03 0.  0.
          5    1    3    3  502    0  0.35126016321E+02 -0.10772607793E+01 -0.27566357491E+02  0.44859491512E+02  0.41800000000E+01 0. -1.
         -5    1    3    3    0  502 -0.18981188383E+02  0.32503534203E+02  0.93516896565E+02  0.10089423963E+03  0.41800000000E+01 0. -1.
        -11    1    1    2    0    0 -0.60263314760E+01 -0.24803120243E+02 -0.45490661969E+02  0.52162359717E+02  0.00000000000E+00 0.  1.
         11    1    1    2    0    0 -0.10118496462E+02 -0.66231531805E+01  0.43985909143E+02  0.45618092155E+02  0.00000000000E+00 0. -1.
</event>
<event>
 7    1  0.2788485E-009  0.9698201E+02  0.7561462E-02  0.1286773E+00
         -2   -1    0    0    0  501 -0.00000000000E+00  0.00000000000E+00  0.75320962088E+02  0.75320962088E+02  0.00000000000E+00 0.  1.
          2   -1    0    0  501    0  0.00000000000E+00 -0.00000000000E+00 -0.16893418856E+03  0.16893418856E+03  0.00000000000E+00 0. -1.
         25    2    1    2    0    0  0.15117724655E+02  0.73846057828E+01 -0.70488017883E+02  0.14456277735E+03  0.12508700143E+03 0.  0.
          5    1    3    3  502    0  0.24991083560E+02 -0.52891948543E+02 -0.11940152215E+02  0.59851082807E+02  0.41800000000E+01 0. -1.
         -5    1    3    3    0  502 -0.98733589046E+01  0.60276554326E+02 -0.58547865668E+02  0.84711694540E+02  0.41800000000E+01 0. -1.
        -11    1    1    2    0    0  0.26596240031E+02  0.10647986078E+02 -0.41704384500E+02  0.50596395898E+02  0.00000000000E+00 0. -1.
         11    1    1    2    0    0 -0.41713964687E+02 -0.18032591861E+02  0.18579175915E+02  0.49095977399E+02  0.00000000000E+00 0.  1.
</event>
<event>
 7    1  0.2788485E-009  0.2014090E+03  0.7561462E-02  0.1148556E+00
         -1   -1    0    0    0  501 -0.00000000000E+00  0.00000000000E+00  0.42412908015E+02  0.42412908015E+02  0.00000000000E+00 0.  1.
          1   -1    0    0  501    0  0.00000000000E+00 -0.00000000000E+00 -0.25300630285E+04  0.25300630285E+04  0.00000000000E+00 0. -1.
         25    2    1    2    0    0  0.42840613417E+02 -0.17652004640E+03 -0.22489330145E+04  0.22597214763E+04  0.12508717710E+03 0.  0.
          5    1    3    3  502    0 -0.13649506785E+02  0.83828589619E+01 -0.59362546387E+02  0.61627637254E+02  0.41800000000E+01 0.  1.
         -5    1    3    3    0  502  0.56490120202E+02 -0.18490290537E+03 -0.21895704681E+04  0.21980938390E+04  0.41800000000E+01 0.  1.
        -11    1    1    2    0    0 -0.52491693916E+02  0.78796882008E+02 -0.16397752725E+03  0.18934876812E+03  0.00000000000E+00 0. -1.
         11    1    1    2    0    0  0.96510804986E+01  0.97723164395E+02 -0.74739578792E+02  0.12340569214E+03  0.00000000000E+00 0.  1.
</event>
<event>
 7    1  0.2788485E-009  0.9200423E+02  0.7561462E-02  0.1298069E+00
         -1   -1    0    0    0  501 -0.00000000000E+00  0.00000000000E+00  0.85598261126E+02  0.85598261126E+02  0.00000000000E+00 0.  1.
          1   -1    0    0  501    0  0.00000000000E+00 -0.00000000000E+00 -0.16977451508E+03  0.16977451508E+03  0.00000000000E+00 0. -1.
         25    2    1    2    0    0 -0.21599718334E+02  0.26675128648E+02 -0.91188279476E+02  0.15855899957E+03  0.12509014234E+03 0.  0.
          5    1    3    3  502    0 -0.21288533333E+02 -0.26595098100E+02 -0.98793601433E+02  0.10458560598E+03  0.41800000000E+01 0. -1.
         -5    1    3    3    0  502 -0.31118500123E+00  0.53270226748E+02  0.76053219564E+01  0.53973393593E+02  0.41800000000E+01 0. -1.
        -11    1    1    2    0    0  0.52612654005E+02 -0.36137088665E+02  0.82931072470E+01  0.64364246025E+02  0.00000000000E+00 0.  1.
         11    1    1    2    0    0 -0.31012935671E+02  0.94619600171E+01 -0.12810817271E+01  0.32449530608E+02  0.00000000000E+00 0. -1.
</event>
<event>
 7    1  0.2788485E-009  0.1185231E+03  0.7561462E-02  0.1245554E+00
         -4   -1    0    0    0  501 -0.00000000000E+00  0.00000000000E+00  0.38741893382E+03  0.38741893382E+03  0.00000000000E+00 0. -1.
          4   -1    0    0  501    0  0.00000000000E+00 -0.00000000000E+00 -0.43889373286E+02  0.43889373286E+02  0.00000000000E+00 0.  1.
         25    2    1    2    0    0  0.58956970789E+02  0.20793786368E+01  0.12075366449E+03  0.18360114575E+03  0.12509070714E+03 0.  0.
          5    1    3    3  502    0  0.89371667728E+02  0.28274877185E+02  0.62527167723E+02  0.11275585473E+03  0.41800000000E+01 0. -1.
         -5    1    3    3    0  502 -0.30414696940E+02 -0.26195498549E+02  0.58226496765E+02  0.70845291020E+02  0.41800000000E+01 0. -1.
        -11    1    1    2    0    0  0.21182790986E+02  0.67518968508E+01  0.21691364022E+02  0.31061455506E+02  0.00000000000E+00 0. -1.
         11    1    1    2    0    0 -0.80139761774E+02 -0.88312754876E+01  0.20108453203E+03  0.21664570585E+03  0.00000000000E+00 0.  1.
</event>
<event>
 7    1  0.2788485E-009  0.1090565E+03  0.7561462E-02  0.1262327E+00
         -4   -1    0    0    0  501 -0.00000000000E+00  0.00000000000E+00  0.12941468365E+03  0.12941468365E+03  0.00000000000E+00 0.  1.
          4   -1    0    0  501    0  0.00000000000E+00 -0.00000000000E+00 -0.11066668392E+03  0.11066668392E+03  0.00000000000E+00 0. -1.
         25    2    1    2    0    0 -0.28580329096E+02 -0.41111332286E+02  0.87478913406E+01  0.13502355455E+03  0.12509139789E+03 0.  0.
          5    1    3    3  502    0 -0.77701401041E+02 -0.30237976691E+02 -0.15667071773E+01  0.83497125277E+02  0.41800000000E+01 0.  1.
         -5    1    3    3    0  502  0.49121071945E+02 -0.10873355595E+02  0.10314598518E+02  0.51526429272E+02  0.41800000000E+01 0.  1.
        -11    1    1    2    0    0  0.38382699913E+02 -0.34339856546E+01 -0.26392272899E+02  0.46707343950E+02  0.00000000000E+00 0. -1.
         11    1    1    2    0    0 -0.98023708169E+01  0.44545317941E+02  0.36392381293E+02  0.58350469066E+02  0.00000000000E+00 0.  1.
</event>
<event>
 7    1  0.2788485E-009  0.1543110E+03  0.7561462E-02  0.1195274E+00
          1   -1    0    0  501    0  0.00000000000E+00  0.00000000000E+00  0.58000226258E+03  0.58000226258E+03  0.00000000000E+00 0. -1.
         -1   -1    0    0    0  501 -0.00000000000E+00 -0.00000000000E+00 -0.43349830391E+02  0.43349830391E+02  0.00000000000E+00 0.  1.
         25    2    1    2    0    0 -0.79973558449E+02  0.67223467399E+02  0.29875216288E+03  0.34031628672E+03  0.12509018971E+03 0.  0.
          5    1    3    3  502    0 -0.23869775153E+02  0.95749752250E+02  0.16232041367E+03  0.19000834276E+03  0.41800000000E+01 0.  1.
         -5    1    3    3    0  502 -0.56103783296E+02 -0.28526284851E+02  0.13643174921E+03  0.15030794397E+03  0.41800000000E+01 0.  1.
        -11    1    1    2    0    0  0.79589160088E+02 -0.38640393212E-01  0.87333098865E+02  0.11815881708E+03  0.00000000000E+00 0.  1.
         11    1    1    2    0    0  0.38439836101E+00 -0.67184827006E+02  0.15056717044E+03  0.16487698917E+03  0.00000000000E+00 0. -1.
</event>
<event>
 7    1  0.2788485E-009  0.1106658E+03  0.7561462E-02  0.1259342E+00
          1   -1    0    0  501    0  0.00000000000E+00  0.00000000000E+00  0.23412555336E+03  0.23412555336E+03  0.00000000000E+00 0. -1.
         -1   -1    0    0    0  501 -0.00000000000E+00 -0.00000000000E+00 -0.61046220708E+02  0.61046220708E+02  0.00000000000E+00 0.  1.
         25    2    1    2    0    0 -0.43286182720E+02 -0.26281125315E+02  0.11817463679E+03  0.17938216761E+03  0.12509326966E+03 0.  0.
          5    1    3    3  502    0 -0.22072674890E+02 -0.72778924506E+02  0.98371517314E+02  0.12441222869E+03  0.41800000000E+01 0. -1.
         -5    1    3    3    0  502 -0.21213507830E+02  0.46497799191E+02  0.19803119475E+02  0.54969938921E+02  0.41800000000E+01 0. -1.
        -11    1    1    2    0    0  0.64665859632E+02  0.69078442988E+01  0.15333065132E+02  0.66816873626E+02  0.00000000000E+00 0. -1.
         11    1    1    2    0    0 -0.21379676912E+02  0.19373281016E+02  0.39571630732E+02  0.48972732831E+02  0.00000000000E+00 0.  1.
</event>
<event>
 7    1  0.2788485E-009  0.1142964E+03  0.7561462E-02  0.1252814E+00
         -2   -1    0    0    0  501 -0.00000000000E+00  0.00000000000E+00  0.26735047534E+02  0.26735047534E+02  0.00000000000E+00 0.  1.
          2   -1    0    0  501    0  0.00000000000E+00 -0.00000000000E+00 -0.73529996175E+03  0.73529996175E+03  0.00000000000E+00 0. -1.
         25    2    1    2    0    0 -0.71770872502E+02 -0.98836507816E+01 -0.52292773231E+03  0.54254027463E+03  0.12509113349E+03 0.  0.
          5    1    3    3  502    0 -0.27864374878E+02 -0.56824879489E+02 -0.38652608453E+03  0.39169551534E+03  0.41800000000E+01 0.  1.
         -5    1    3    3    0  502 -0.43906497624E+02  0.46941228707E+02 -0.13640164778E+03  0.15084475928E+03  0.41800000000E+01 0.  1.
        -11    1    1    2    0    0  0.43864686355E+01  0.30088854242E+02 -0.12990296376E+02  0.33065511589E+02  0.00000000000E+00 0.  1.
         11    1    1    2    0    0  0.67384403867E+02 -0.20205203460E+02 -0.17264688553E+03  0.18642922307E+03  0.00000000000E+00 0. -1.
</event>
<event>
 7    1  0.2788485E-009  0.6816775E+02  0.7561462E-02  0.1366437E+00
         -1   -1    0    0    0  501 -0.00000000000E+00  0.00000000000E+00  0.36051425097E+02  0.36051425097E+02  0.00000000000E+00 0. -1.
          1   -1    0    0  501    0  0.00000000000E+00 -0.00000000000E+00 -0.38435307526E+03  0.38435307526E+03  0.00000000000E+00 0.  1.
         25    2    1    2    0    0 -0.26991328846E+02  0.43201609711E+02 -0.19002597743E+03  0.23313601047E+03  0.12509043276E+03 0.  0.
          5    1    3    3  502    0 -0.36863730902E+02  0.30697779589E+02 -0.20517987692E+03  0.21075469774E+03  0.41800000000E+01 0. -1.
         -5    1    3    3    0  502  0.98724020562E+01  0.12503830123E+02  0.15153899489E+02  0.22381312737E+02  0.41800000000E+01 0. -1.
        -11    1    1    2    0    0  0.23018171129E+02  0.48268537213E+01 -0.18546732148E+01  0.23591831886E+02  0.00000000000E+00 0. -1.
         11    1    1    2    0    0  0.39731577169E+01 -0.48028463433E+02 -0.15642099952E+03  0.16367665800E+03  0.00000000000E+00 0.  1.
</event>
<event>
 7    1  0.2788485E-009  0.1840518E+03  0.7561462E-02  0.1163938E+00
          4   -1    0    0  501    0  0.00000000000E+00  0.00000000000E+00  0.60356898856E+02  0.60356898856E+02  0.00000000000E+00 0. -1.
         -4   -1    0    0    0  501 -0.00000000000E+00 -0.00000000000E+00 -0.64206623321E+03  0.64206623321E+03  0.00000000000E+00 0.  1.
         25    2    1    2    0    0  0.86911403593E+02 -0.13759262214E+03 -0.32725058135E+03  0.38629794764E+03  0.12509132511E+03 0.  0.
          5    1    3    3  502    0 -0.16060529612E+02 -0.15408702929E+02 -0.62089656227E+00  0.22654506172E+02  0.41800000000E+01 0. -1.
         -5    1    3    3    0  502  0.10297193320E+03 -0.12218391921E+03 -0.32662968478E+03  0.36364344147E+03  0.41800000000E+01 0. -1.
        -11    1    1    2    0    0 -0.43076154206E+02  0.20105498847E+01 -0.41188042709E+02  0.59632644032E+02  0.00000000000E+00 0. -1.
         11    1    1    2    0    0 -0.43835249387E+02  0.13558207225E+03 -0.21327071030E+03  0.25649254039E+03  0.00000000000E+00 0.  1.
</event>
<event>
 7    1  0.2788485E-009  0.9438283E+02  0.7561462E-02  0.1292572E+00
          1   -1    0    0  501    0  0.00000000000E+00  0.00000000000E+00  0.37589633025E+03  0.37589633025E+03  0.00000000000E+00 0. -1.
         -1   -1    0    0    0  501 -0.00000000000E+00 -0.00000000000E+00 -0.41509795911E+02  0.41509795911E+02  0.00000000000E+00 0.  1.
         25    2    1    2    0    0  0.31234598997E+02 -0.40134746954E+02  0.24501341466E+03  0.27976272844E+03  0.12509681359E+03 0.  0.
          5    1    3    3  502    0  0.62789083509E+02 -0.19094201284E+01  0.55820370241E+02  0.84139770780E+02  0.41800000000E+01 0.  1.
         -5    1    3    3    0  502 -0.31554484513E+02 -0.38225326825E+02  0.18919304442E+03  0.19562295766E+03  0.41800000000E+01 0.  1.
        -11    1    1    2    0    0 -0.32478892694E+02 -0.32702656391E+01 -0.56873403901E+01  0.33134860022E+02  0.00000000000E+00 0.  1.
         11    1    1    2    0    0  0.12442936976E+01  0.43405012593E+02  0.95060460065E+02  0.10450853770E+03  0.00000000000E+00 0. -1.
</event>
<event>
 7    1  0.2788485E-009  0.1457740E+03  0.7561462E-02  0.1205764E+00
          2   -1    0    0  501    0  0.00000000000E+00  0.00000000000E+00  0.16604019272E+03  0.16604019272E+03  0.00000000000E+00 0. -1.
         -2   -1    0    0    0  501 -0.00000000000E+00 -0.00000000000E+00 -0.15361168794E+03  0.15361168794E+03  0.00000000000E+00 0.  1.
         25    2    1    2    0    0  0.86521879517E+02  0.56859817257E+02  0.61865140391E+02  0.17376481783E+03  0.12509133410E+03 0.  0.
          5    1    3    3  502    0  0.10280456846E+03 -0.16656208852E+00  0.40985722134E+02  0.11075246660E+03  0.41800000000E+01 0.  1.
         -5    1    3    3    0  502 -0.16282688948E+02  0.57026379346E+02  0.20879418257E+02  0.63012351229E+02  0.41800000000E+01 0.  1.
        -11    1    1    2    0    0 -0.95734519087E+01 -0.51158299976E+02  0.37365550093E+01  0.52180307408E+02  0.00000000000E+00 0. -1.
         11    1    1    2    0    0 -0.76948427608E+02 -0.57015172814E+01 -0.53173190616E+02  0.93706755418E+02  0.00000000000E+00 0.  1.
</event>
<event>
 7    1  0.2788485E-009  0.1112922E+03  0.7561462E-02  0.1258195E+00
         -1   -1    0    0    0  501 -0.00000000000E+00  0.00000000000E+00  0.18318498548E+02  0.18318498548E+02  0.00000000000E+00 0.  1.
          1   -1    0    0  501    0  0.00000000000E+00 -0.00000000000E+00 -0.92780295412E+03  0.92780295412E+03  0.00000000000E+00 0. -1.
         25    2    1    2    0    0  0.14654131476E+02  0.66511824307E+02 -0.59096889960E+03  0.60789191345E+03  0.12509904796E+03 0.  0.
          5    1    3    3  502    0 -0.39553420894E+02  0.13016054525E+02 -0.40107127349E+03  0.40324871928E+03  0.41800000000E+01 0. -1.
         -5    1    3    3    0  502  0.54207552370E+02  0.53495769782E+02 -0.18989762611E+03  0.20464319417E+03  0.41800000000E+01 0. -1.
        -11    1    1    2    0    0  0.22560504060E+02 -0.63192217880E+02 -0.26218310743E+03  0.27063298869E+03  0.00000000000E+00 0. -1.
         11    1    1    2    0    0 -0.37214635537E+02 -0.33196064265E+01 -0.56332448542E+02  0.67596550531E+02  0.00000000000E+00 0.  1.
</event>
<event>
 7    1  0.3007018E-009  0.1926030E+03  0.7561462E-02  0.1156134E+00
          2   -1    0    0  501    0  0.00000000000E+00  0.00000000000E+00  0.11937962060E+04  0.11937962060E+04  0.00000000000E+00 0.  1.
         -2   -1    0    0    0  501 -0.00000000000E+00 -0.00000000000E+00 -0.38953492247E+02  0.38953492247E+02  0.00000000000E+00 0. -1.
         25    2    1    2    0    0 -0.28462600932E+02  0.18392329143E+03  0.58975028804E+03  0.63094511549E+03  0.12509372377E+03 0.  0.
          5    1    3    3  502    0 -0.30894851720E+02  0.11430226789E+03  0.18132612377E+03  0.21660132933E+03  0.41800000000E+01 0.  1.
         -5    1    3    3    0  502  0.24322507887E+01  0.69621023544E+02  0.40842416427E+03  0.41434378615E+03  0.41800000000E+01 0.  1.
        -11    1    1    2    0    0  0.43310667304E+02 -0.71903656188E+02  0.33645014519E+03  0.34676310339E+03  0.00000000000E+00 0.  1.
         11    1    1    2    0    0 -0.14848066373E+02 -0.11201963524E+03  0.22864228048E+03  0.25504147933E+03  0.00000000000E+00 0. -1.
</event>
<event>
 7    1  0.2788485E-009  0.1272540E+03  0.7561462E-02  0.1231588E+00
          2   -1    0    0  501    0  0.00000000000E+00  0.00000000000E+00  0.15918807162E+04  0.15918807162E+04  0.00000000000E+00 0. -1.
         -2   -1    0    0    0  501 -0.00000000000E+00 -0.00000000000E+00 -0.14450386137E+02  0.14450386137E+02  0.00000000000E+00 0.  1.
         25    2    1    2    0    0 -0.70039959674E+02 -0.73864953343E+02  0.10019838415E+04  0.10148796762E+04  0.12509001279E+03 0.  0.
          5    1    3    3  502    0 -0.17377871376E+02 -0.62188417215E+02  0.18285412897E+03  0.19396518897E+03  0.41800000000E+01 0. -1.
         -5    1    3    3    0  502 -0.52662088298E+02 -0.11676536129E+02  0.81912971251E+03  0.82091448723E+03  0.41800000000E+01 0. -1.
        -11    1    1    2    0    0  0.83705426081E+02  0.28663106015E+02  0.40735007006E+03  0.41684799578E+03  0.00000000000E+00 0.  1.
         11    1    1    2    0    0 -0.13665466406E+02  0.45201847328E+02  0.16809641856E+03  0.17460343039E+03  0.00000000000E+00 0. -1.
</event>
<event>
 7    1  0.2788485E-009  0.1304233E+03  0.7561462E-02  0.1226829E+00
         -2   -1    0    0    0  501 -0.00000000000E+00  0.00000000000E+00  0.15817387981E+02  0.15817387981E+02  0.00000000000E+00 0.  1.
          2   -1    0    0  501    0  0.00000000000E+00 -0.00000000000E+00 -0.24052672046E+04  0.24052672046E+04  0.00000000000E+00 0. -1.
         25    2    1    2    0    0 -0.76177583137E+02  0.76726746839E+02 -0.20470770783E+04  0.20537433659E+04  0.12508889148E+03 0.  0.
          5    1    3    3  502    0 -0.32882442416E+02 -0.23443121605E+02 -0.10341083287E+04  0.10349049922E+04  0.41800000000E+01 0.  1.
         -5    1    3    3    0  502 -0.43295140721E+02  0.10016986844E+03 -0.10129687496E+04  0.10188383737E+04  0.41800000000E+01 0.  1.
        -11    1    1    2    0    0  0.17492674669E+02 -0.46596217365E+01 -0.71330606571E+01  0.19457294163E+02  0.00000000000E+00 0.  1.
         11    1    1    2    0    0  0.58684908468E+02 -0.72067125103E+02 -0.33523967771E+03  0.34788393254E+03  0.00000000000E+00 0. -1.
</event>
<event>
 7    1  0.2788485E-009  0.1603152E+03  0.7561462E-02  0.1188341E+00
         -2   -1    0    0    0  501 -0.00000000000E+00  0.00000000000E+00  0.89973449552E+02  0.89973449552E+02  0.00000000000E+00 0.  1.
          2   -1    0    0  501    0  0.00000000000E+00 -0.00000000000E+00 -0.33985546496E+03  0.33985546496E+03  0.00000000000E+00 0. -1.
         25    2    1    2    0    0 -0.39914751032E+02  0.11734302070E+03 -0.60770349052E+02  0.18628803081E+03  0.12509046023E+03 0.  0.
          5    1    3    3  502    0  0.29535686623E+02  0.93601704417E+02 -0.54898549155E+02  0.11253869980E+03  0.41800000000E+01 0.  1.
         -5    1    3    3    0  502 -0.69450437655E+02  0.23741316280E+02 -0.58717998966E+01  0.73749331001E+02  0.41800000000E+01 0.  1.
        -11    1    1    2    0    0 -0.24958834522E+02 -0.46784797583E+02 -0.97316721635E+02  0.11082556120E+03  0.00000000000E+00 0. -1.
         11    1    1    2    0    0  0.64873585553E+02 -0.70558223114E+02 -0.91794944719E+02  0.13271532250E+03  0.00000000000E+00 0.  1.
</event>
<event>
 7    1  0.2788485E-009  0.8558779E+02  0.7561462E-02  0.1313903E+00
         -2   -1    0    0    0  501 -0.00000000000E+00  0.00000000000E+00  0.38252040421E+02  0.38252040421E+02  0.00000000000E+00 0.  1.
          2   -1    0    0  501    0  0.00000000000E+00 -0.00000000000E+00 -0.38518792099E+03  0.38518792099E+03  0.00000000000E+00 0. -1.
         25    2    1    2    0    0  0.45596870359E+02  0.19685621126E+02 -0.25219203794E+03  0.28586356198E+03  0.12510217344E+03 0.  0.
          5    1    3    3  502    0  0.62525506635E+02 -0.17645496849E+02 -0.23005810924E+03  0.23909205040E+03  0.41800000000E+01 0.  1.
         -5    1    3    3    0  502 -0.16928636276E+02  0.37331117975E+02 -0.22133928707E+02  0.46771511580E+02  0.41800000000E+01 0.  1.
        -11    1    1    2    0    0 -0.14762672355E+02  0.13190920827E+02  0.10984945941E+02  0.22640802209E+02  0.00000000000E+00 0.  1.
         11    1    1    2    0    0 -0.30834198003E+02 -0.32876541953E+02 -0.10572878857E+03  0.11493559723E+03  0.00000000000E+00 0. -1.
</event>
<event>
 7    1  0.2788485E-009  0.1184556E+03  0.7561462E-02  0.1245667E+00
          1   -1    0    0  501    0  0.00000000000E+00  0.00000000000E+00  0.60582563238E+03  0.60582563238E+03  0.00000000000E+00 0. -1.
         -1   -1    0    0    0  501 -0.00000000000E+00 -0.00000000000E+00 -0.23229246614E+02  0.23229246614E+02  0.00000000000E+00 0.  1.
         25    2    1    2    0    0 -0.45352433330E+02  0.19790269880E+02  0.31545560634E+03  0.34294146238E+03  0.12509240208E+03 0.  0.
          5    1    3    3  502    0  0.35464765299E+02 -0.23477342749E+02  0.97412208680E+02  0.10637455523E+03  0.41800000000E+01 0. -1.
         -5    1    3    3    0  502 -0.80817198629E+02  0.43267612629E+02  0.21804339766E+03  0.23656690715E+03  0.41800000000E+01 0. -1.
        -11    1    1    2    0    0  0.99536900352E+01 -0.52966471925E+02  0.14478759210E+03  0.15449262092E+03  0.00000000000E+00 0. -1.
         11    1    1    2    0    0  0.35398743295E+02  0.33176202045E+02  0.12235318734E+03  0.13162079570E+03  0.00000000000E+00 0.  1.
</event>
<event>
 7    1  0.2788485E-009  0.7251505E+02  0.7561462E-02  0.1351743E+00
         -2   -1    0    0    0  501 -0.00000000000E+00  0.00000000000E+00  0.55152069506E+03  0.55152069506E+03  0.00000000000E+00 0.  1.
          2   -1    0    0  501    0  0.00000000000E+00 -0.00000000000E+00 -0.25597790231E+02  0.25597790231E+02  0.00000000000E+00 0. -1.
         25    2    1    2    0    0  0.19304783542E+02  0.44085782555E+02  0.28974691199E+03  0.31924383612E+03  0.12508846070E+03 0.  0.
          5    1    3    3  502    0 -0.20062420941E+02  0.25040473106E+02  0.26850271322E+03  0.27044538345E+03  0.41800000000E+01 0. -1.
         -5    1    3    3    0  502  0.39367204483E+02  0.19045309448E+02  0.21244198774E+02  0.48798452663E+02  0.41800000000E+01 0. -1.
        -11    1    1    2    0    0 -0.29484150555E+02 -0.70271239146E+01  0.15815648454E+02  0.34188160824E+02  0.00000000000E+00 0. -1.
         11    1    1    2    0    0  0.10179367013E+02 -0.37058658640E+02  0.22036034438E+03  0.22368648835E+03  0.00000000000E+00 0.  1.
</event>
<event>
 7    1  0.2788485E-009  0.1080464E+03  0.7561462E-02  0.1264231E+00
          2   -1    0    0  501    0  0.00000000000E+00  0.00000000000E+00  0.64667293816E+03  0.64667293816E+03  0.00000000000E+00 0. -1.
         -2   -1    0    0    0  501 -0.00000000000E+00 -0.00000000000E+00 -0.24891785319E+02  0.24891785319E+02  0.00000000000E+00 0.  1.
         25    2    1    2    0    0  0.26667762987E+02  0.17523873939E+02  0.50788776269E+03  0.52403740888E+03  0.12508785183E+03 0.  0.
          5    1    3    3  502    0  0.27386812120E+01  0.70466875396E+02  0.29280818788E+03  0.30120954200E+03  0.41800000000E+01 0.  1.
         -5    1    3    3    0  502  0.23929081775E+02 -0.52943001457E+02  0.21507957481E+03  0.22282786688E+03  0.41800000000E+01 0.  1.
        -11    1    1    2    0    0  0.28985745052E+02 -0.46323552600E+00  0.14670681313E+02  0.32490258441E+02  0.00000000000E+00 0.  1.
         11    1    1    2    0    0 -0.55653508039E+02 -0.17060638413E+02  0.99222708842E+02  0.11503705616E+03  0.00000000000E+00 0. -1.
</event>
<event>
 7    1  0.2788485E-009  0.6895498E+02  0.7561462E-02  0.1363683E+00
         -2   -1    0    0    0  501 -0.00000000000E+00  0.00000000000E+00  0.16434424928E+03  0.16434424928E+03  0.00000000000E+00 0.  1.
          2   -1    0    0  501    0  0.00000000000E+00 -0.00000000000E+00 -0.15236865464E+03  0.15236865464E+03  0.00000000000E+00 0. -1.
         25    2    1    2    0    0 -0.11591649452E+02  0.39771646411E+02  0.11317289861E+03  0.17370126195E+03  0.12509145945E+03 0.  0.
          5    1    3    3  502    0  0.35239231610E+01 -0.25549977761E+01  0.12649410973E+03  0.12663798105E+03  0.41800000000E+01 0. -1.
         -5    1    3    3    0  502 -0.15115572613E+02  0.42326644187E+02 -0.13321211119E+02  0.47063280902E+02  0.41800000000E+01 0. -1.
        -11    1    1    2    0    0  0.44234155663E+02 -0.19750406547E+02 -0.91463825591E+02  0.10350058202E+03  0.00000000000E+00 0. -1.
         11    1    1    2    0    0 -0.32642506210E+02 -0.20021239864E+02 -0.97334783757E+01  0.39511059954E+02  0.00000000000E+00 0.  1.
</event>
<event>
 7    1  0.2788485E-009  0.1249934E+03  0.7561462E-02  0.1235080E+00
         -3   -1    0    0    0  501 -0.00000000000E+00  0.00000000000E+00  0.12699608330E+03  0.12699608330E+03  0.00000000000E+00 0.  1.
          3   -1    0    0  501    0  0.00000000000E+00 -0.00000000000E+00 -0.25214189770E+03  0.25214189770E+03  0.00000000000E+00 0. -1.
         25    2    1    2    0    0  0.10339178764E+03 -0.16799078402E+02 -0.16425420343E+03  0.23152234045E+03  0.12510427649E+03 0.  0.
          5    1    3    3  502    0  0.22835035076E+02  0.32699993813E+02 -0.12098606418E+03  0.12745912501E+03  0.41800000000E+01 0.  1.
         -5    1    3    3    0  502  0.80556752562E+02 -0.49499072215E+02 -0.43268139252E+02  0.10406321544E+03  0.41800000000E+01 0.  1.
        -11    1    1    2    0    0 -0.60459857409E+02 -0.14425270844E+02  0.63796283497E+02  0.89069908414E+02  0.00000000000E+00 0.  1.
         11    1    1    2    0    0 -0.42931930229E+02  0.31224349246E+02 -0.24687894462E+02  0.58545732142E+02  0.00000000000E+00 0. -1.
</event>
<event>
 7    1  0.2788485E-009  0.1201791E+03  0.7561462E-02  0.1242802E+00
         -2   -1    0    0    0  501 -0.00000000000E+00  0.00000000000E+00  0.10165776343E+03  0.10165776343E+03  0.00000000000E+00 0. -1.
          2   -1    0    0  501    0  0.00000000000E+00 -0.00000000000E+00 -0.29596323865E+03  0.29596323865E+03  0.00000000000E+00 0.  1.
         25    2    1    2    0    0 -0.40765621623E+02  0.75910722717E+02  0.15874729816E+02  0.15271705128E+03  0.12508483911E+03 0.  0.
          5    1    3    3  502    0 -0.30832968878E+02 -0.30039555426E+02  0.16300421206E+02  0.46219292417E+02  0.41800000000E+01 0.  1.
         -5    1    3    3    0  502 -0.99326527445E+01  0.10595027814E+03 -0.42569139028E+00  0.10649775886E+03  0.41800000000E+01 0.  1.
        -11    1    1    2    0    0  0.18958536387E+02 -0.61787961886E+02 -0.20914379208E+03  0.21890249907E+03  0.00000000000E+00 0.  1.
         11    1    1    2    0    0  0.21807085235E+02 -0.14122760831E+02 -0.10364129568E+01  0.26001451724E+02  0.00000000000E+00 0. -1.
</event>
<event>
 7    1  0.2788485E-009  0.4304581E+03  0.7561462E-02  0.1033715E+00
         -1   -1    0    0    0  501 -0.00000000000E+00  0.00000000000E+00  0.11572108233E+04  0.11572108233E+04  0.00000000000E+00 0. -1.
          1   -1    0    0  501    0  0.00000000000E+00 -0.00000000000E+00 -0.17422794332E+03  0.17422794332E+03  0.00000000000E+00 0.  1.
         25    2    1    2    0    0 -0.25733865523E+03 -0.34127950061E+03  0.61934245808E+03  0.76284259589E+03  0.12509542237E+03 0.  0.
          5    1    3    3  502    0 -0.17848173377E+03 -0.24258607166E+03  0.52445321922E+03  0.60479118959E+03  0.41800000000E+01 0.  1.
         -5    1    3    3    0  502 -0.78856921460E+02 -0.98693428952E+02  0.94889238866E+02  0.15805140630E+03  0.41800000000E+01 0.  1.
        -11    1    1    2    0    0  0.19291401949E+03  0.30043152170E+03  0.26894405402E+03  0.44699644555E+03  0.00000000000E+00 0.  1.
         11    1    1    2    0    0  0.64424635745E+02  0.40847978916E+02  0.94696367867E+02  0.12159972516E+03  0.00000000000E+00 0. -1.
</event>
<event>
 7    1  0.2788485E-009  0.1081621E+03  0.7561462E-02  0.1264012E+00
          2   -1    0    0  501    0  0.00000000000E+00  0.00000000000E+00  0.15693047445E+03  0.15693047445E+03  0.00000000000E+00 0. -1.
         -2   -1    0    0    0  501 -0.00000000000E+00 -0.00000000000E+00 -0.84953923275E+02  0.84953923275E+02  0.00000000000E+00 0.  1.
         25    2    1    2    0    0  0.56497072517E+01  0.23274982058E+02  0.27932443384E+02  0.13038365978E+03  0.12508410515E+03 0.  0.
          5    1    3    3  502    0  0.56725681139E+02 -0.16043511678E+02 -0.21321211005E+01  0.59137259897E+02  0.41800000000E+01 0.  1.
         -5    1    3    3    0  502 -0.51075973888E+02  0.39318493736E+02  0.30064564484E+02  0.71246399880E+02  0.41800000000E+01 0.  1.
        -11    1    1    2    0    0  0.30818890929E+02 -0.41637599460E+02  0.47814633922E+02  0.70496332841E+02  0.00000000000E+00 0. -1.
         11    1    1    2    0    0 -0.36468598181E+02  0.18362617402E+02 -0.37705261288E+01  0.41004405110E+02  0.00000000000E+00 0.  1.
</event>
<event>
 7    1  0.2788485E-009  0.1757065E+03  0.7561462E-02  0.1172024E+00
          2   -1    0    0  501    0  0.00000000000E+00  0.00000000000E+00  0.98036460189E+03  0.98036460189E+03  0.00000000000E+00 0. -1.
         -2   -1    0    0    0  501 -0.00000000000E+00 -0.00000000000E+00 -0.49380815730E+02  0.49380815730E+02  0.00000000000E+00 0.  1.
         25    2    1    2    0    0  0.55958137462E+02 -0.15798130391E+03  0.69755834328E+03  0.72823407533E+03  0.12509124934E+03 0.  0.
          5    1    3    3  502    0  0.36578589257E+02 -0.71328294003E+02  0.55106467554E+03  0.55688011972E+03  0.41800000000E+01 0. -1.
         -5    1    3    3    0  502  0.19379548205E+02 -0.86653009904E+02  0.14649366774E+03  0.17135395561E+03  0.41800000000E+01 0. -1.
        -11    1    1    2    0    0  0.12057337113E+02  0.21824575177E+01 -0.58881015458E+00  0.12267403820E+02  0.00000000000E+00 0. -1.
         11    1    1    2    0    0 -0.68015474575E+02  0.15579884639E+03  0.23401425303E+03  0.28924393847E+03  0.00000000000E+00 0.  1.
</event>
<event>
 7    1  0.2788485E-009  0.7532658E+02  0.7561462E-02  0.1342863E+00
         -1   -1    0    0    0  501 -0.00000000000E+00  0.00000000000E+00  0.20651989182E+02  0.20651989182E+02  0.00000000000E+00 0.  1.
          1   -1    0    0  501    0  0.00000000000E+00 -0.00000000000E+00 -0.68902721821E+03  0.68902721821E+03  0.00000000000E+00 0. -1.
         25    2    1    2    0    0  0.27533306803E+02  0.88790492209E+01 -0.48210586676E+03  0.49890945675E+03  0.12509060227E+03 0.  0.
          5    1    3    3  502    0  0.21025076439E+02  0.26035473349E+02 -0.26436460759E+02  0.42851587710E+02  0.41800000000E+01 0.  1.
         -5    1    3    3    0  502  0.65082303635E+01 -0.17156424128E+02 -0.45566940600E+03  0.45605786904E+03  0.41800000000E+01 0.  1.
        -11    1    1    2    0    0 -0.49570058161E+02  0.26665642689E+02 -0.96032956756E+02  0.11131296398E+03  0.00000000000E+00 0.  1.
         11    1    1    2    0    0  0.22036751358E+02 -0.35544691910E+02 -0.90236405518E+02  0.99456786667E+02  0.00000000000E+00 0. -1.
</event>
<event>
 7    1  0.4713523E-009  0.1378355E+03  0.7561462E-02  0.1216272E+00
          2   -1    0    0  501    0  0.00000000000E+00  0.00000000000E+00  0.76299166221E+03  0.76299166221E+03  0.00000000000E+00 0. -1.
         -2   -1    0    0    0  501 -0.00000000000E+00 -0.00000000000E+00 -0.28091187737E+02  0.28091187737E+02  0.00000000000E+00 0.  1.
         25    2    1    2    0    0 -0.70414501546E+02 -0.67842169166E+02  0.42105654752E+03  0.44999818994E+03  0.12509593437E+03 0.  0.
          5    1    3    3  502    0  0.17579284407E+02 -0.48778864464E+02  0.26258635052E+03  0.26768913452E+03  0.41800000000E+01 0.  1.
         -5    1    3    3    0  502 -0.87993785953E+02 -0.19063304703E+02  0.15847019700E+03  0.18230905543E+03  0.41800000000E+01 0.  1.
        -11    1    1    2    0    0 -0.22167249249E+02  0.16689507545E+02  0.69015176020E+02  0.74384280076E+02  0.00000000000E+00 0. -1.
         11    1    1    2    0    0  0.92581750795E+02  0.51152661621E+02  0.24482875093E+03  0.26670037992E+03  0.00000000000E+00 0.  1.
</event>
<event>
 7    1  0.2788485E-009  0.9476809E+02  0.7561462E-02  0.1291699E+00
         -2   -1    0    0    0  501 -0.00000000000E+00  0.00000000000E+00  0.10012915212E+03  0.10012915212E+03  0.00000000000E+00 0.  1.
          2   -1    0    0  501    0  0.00000000000E+00 -0.00000000000E+00 -0.13570420340E+03  0.13570420340E+03  0.00000000000E+00 0. -1.
         25    2    1    2    0    0  0.37169727892E+02 -0.42246938354E+02 -0.34465605910E+02  0.14142776084E+03  0.12509013180E+03 0.  0.
          5    1    3    3  502    0  0.47410321141E+00  0.28215621146E+02 -0.52594601724E+02  0.59833189627E+02  0.41800000000E+01 0. -1.
         -5    1    3    3    0  502  0.36695624681E+02 -0.70462559500E+02  0.18128995814E+02  0.81594571211E+02  0.41800000000E+01 0. -1.
        -11    1    1    2    0    0 -0.11915351225E+02  0.52767061449E+02 -0.23571272290E+02  0.59007993070E+02  0.00000000000E+00 0.  1.
         11    1    1    2    0    0 -0.25254376667E+02 -0.10520123095E+02  0.22461826922E+02  0.35397601606E+02  0.00000000000E+00 0. -1.
</event>
<event>
 7    1  0.2788485E-009  0.1022960E+03  0.7561462E-02  0.1275541E+00
          2   -1    0    0  501    0  0.00000000000E+00  0.00000000000E+00  0.23806121358E+03  0.23806121358E+03  0.00000000000E+00 0. -1.
         -2   -1    0    0    0  501 -0.00000000000E+00 -0.00000000000E+00 -0.68994188037E+02  0.68994188037E+02  0.00000000000E+00 0.  1.
         25    2    1    2    0    0 -0.29945436242E+02  0.64527011912E+02  0.95121574018E+02  0.17249873498E+03  0.12508890961E+03 0.  0.
          5    1    3    3  502    0 -0.66564468191E+02  0.38823150550E+02  0.12124864532E+02  0.78118820934E+02  0.41800000000E+01 0.  1.
         -5    1    3    3    0  502  0.36619031949E+02  0.25703861362E+02  0.82996709486E+02  0.94379914046E+02  0.41800000000E+01 0.  1.
        -11    1    1    2    0    0 -0.17945350998E+01 -0.45383719254E+02  0.84572812685E+02  0.95997202954E+02  0.00000000000E+00 0. -1.
         11    1    1    2    0    0  0.31739971342E+02 -0.19143292658E+02 -0.10627361157E+02  0.38559463686E+02  0.00000000000E+00 0.  1.
</event>
<event>
 7    1  0.2788485E-009  0.9743082E+02  0.7561462E-02  0.1285793E+00
         -2   -1    0    0    0  501 -0.00000000000E+00  0.00000000000E+00  0.11360690417E+03  0.11360690417E+03  0.00000000000E+00 0.  1.
          2   -1    0    0  501    0  0.00000000000E+00 -0.00000000000E+00 -0.13663977330E+03  0.13663977330E+03  0.00000000000E+00 0. -1.
         25    2    1    2    0    0  0.12214681122E+02  0.82573001034E+00 -0.44948519281E+02  0.13348494994E+03  0.12509189506E+03 0.  0.
          5    1    3    3  502    0 -0.55166347737E+02 -0.12187601653E+02 -0.24787938778E+02  0.61836703223E+02  0.41800000000E+01 0. -1.
         -5    1    3    3    0  502  0.67381028859E+02  0.13013331664E+02 -0.20160580503E+02  0.71648246715E+02  0.41800000000E+01 0. -1.
        -11    1    1    2    0    0 -0.40164728556E+02 -0.71613919500E+01 -0.34535264605E+02  0.53452553316E+02  0.00000000000E+00 0. -1.
         11    1    1    2    0    0  0.27950047434E+02  0.63356619396E+01  0.56450914754E+02  0.63309174219E+02  0.00000000000E+00 0.  1.
</event>
<event>
 7    1  0.2788485E-009  0.1292522E+03  0.7561462E-02  0.1228570E+00
          2   -1    0    0  501    0  0.00000000000E+00  0.00000000000E+00  0.58955008816E+03  0.58955008816E+03  0.00000000000E+00 0. -1.
         -2   -1    0    0    0  501 -0.00000000000E+00 -0.00000000000E+00 -0.38944673895E+02  0.38944673895E+02  0.00000000000E+00 0.  1.
         25    2    1    2    0    0 -0.91506424210E+01 -0.90393378104E+02  0.18407192163E+03  0.24038494149E+03  0.12509096970E+03 0.  0.
          5    1    3    3  502    0 -0.61961909471E+02 -0.78354883049E+02  0.11206027261E+03  0.15017903655E+03  0.41800000000E+01 0.  1.
         -5    1    3    3    0  502  0.52811267050E+02 -0.12038495055E+02  0.72011649020E+02  0.90205904936E+02  0.41800000000E+01 0.  1.
        -11    1    1    2    0    0 -0.11359556448E+02  0.80726808719E+02  0.35167692718E+03  0.36100210288E+03  0.00000000000E+00 0.  1.
         11    1    1    2    0    0  0.20510198869E+02  0.96665693854E+01  0.14856565456E+02  0.27107717693E+02  0.00000000000E+00 0. -1.
</event>
<event>
 7    1  0.2788485E-009  0.1711153E+03  0.7561462E-02  0.1176690E+00
          1   -1    0    0  501    0  0.00000000000E+00  0.00000000000E+00  0.55295779670E+02  0.55295779670E+02  0.00000000000E+00 0. -1.
         -1   -1    0    0    0  501 -0.00000000000E+00 -0.00000000000E+00 -0.10100321325E+04  0.10100321325E+04  0.00000000000E+00 0.  1.
         25    2    1    2    0    0 -0.11566017463E+03  0.11208253158E+03 -0.79465163580E+03  0.82040199451E+03  0.12509372662E+03 0.  0.
          5    1    3    3  502    0 -0.25764342432E+02  0.46390594369E+02 -0.73816882983E+02  0.91007105218E+02  0.41800000000E+01 0.  1.
         -5    1    3    3    0  502 -0.89895832195E+02  0.65691937214E+02 -0.72083475282E+03  0.72939488930E+03  0.41800000000E+01 0.  1.
        -11    1    1    2    0    0  0.12272915461E+03 -0.84244692050E+02 -0.10299387533E+03  0.18101754580E+03  0.00000000000E+00 0. -1.
         11    1    1    2    0    0 -0.70689799850E+01 -0.27837839532E+02 -0.57090841673E+02  0.63908371836E+02  0.00000000000E+00 0.  1.
</event>
<event>
 7    1  0.2788485E-009  0.1014521E+03  0.7561462E-02  0.1277272E+00
          1   -1    0    0  501    0  0.00000000000E+00  0.00000000000E+00  0.29554289706E+03  0.29554289706E+03  0.00000000000E+00 0. -1.
         -1   -1    0    0    0  501 -0.00000000000E+00 -0.00000000000E+00 -0.46216596149E+02  0.46216596149E+02  0.00000000000E+00 0.  1.
         25    2    1    2    0    0 -0.45479735326E+02 -0.14096737292E+02  0.12947215591E+03  0.18621912035E+03  0.12508955711E+03 0.  0.
          5    1    3    3  502    0 -0.62302674229E+02 -0.39948515372E+02  0.13555981507E+03  0.15450386066E+03  0.41800000000E+01 0. -1.
         -5    1    3    3    0  502  0.16822938903E+02  0.25851778080E+02 -0.60876591562E+01  0.31715259691E+02  0.41800000000E+01 0. -1.
        -11    1    1    2    0    0 -0.25559924249E+02  0.26917101806E+01  0.20528640097E+02  0.32893465849E+02  0.00000000000E+00 0.  1.
         11    1    1    2    0    0  0.71039659575E+02  0.11405027111E+02  0.99325504904E+02  0.12264690702E+03  0.00000000000E+00 0. -1.
</event>
<event>
 7    1  0.2788485E-009  0.9334004E+02  0.7561462E-02  0.1294959E+00
          1   -1    0    0  501    0  0.00000000000E+00  0.00000000000E+00  0.93704866776E+02  0.93704866776E+02  0.00000000000E+00 0. -1.
         -1   -1    0    0    0  501 -0.00000000000E+00 -0.00000000000E+00 -0.14372205897E+03  0.14372205897E+03  0.00000000000E+00 0.  1.
         25    2    1    2    0    0  0.37706615719E+02  0.26195161800E+02 -0.20078895443E+02  0.13475353536E+03  0.12508947949E+03 0.  0.
          5    1    3    3  502    0  0.38874139029E+02 -0.44768886876E+02  0.42988588723E+01  0.59593661617E+02  0.41800000000E+01 0. -1.
         -5    1    3    3    0  502 -0.11675233096E+01  0.70964048676E+02 -0.24377754315E+02  0.75159873740E+02  0.41800000000E+01 0. -1.
        -11    1    1    2    0    0  0.32371592085E+01 -0.12590763383E+02 -0.52430197752E+02  0.54017887395E+02  0.00000000000E+00 0.  1.
         11    1    1    2    0    0 -0.40943774928E+02 -0.13604398417E+02  0.22491900996E+02  0.48655502998E+02  0.00000000000E+00 0. -1.
</event>
<event>
 7    1  0.2788485E-009  0.9080066E+02  0.7561462E-02  0.1300924E+00
          4   -1    0    0  501    0  0.00000000000E+00  0.00000000000E+00  0.11130570946E+03  0.11130570946E+03  0.00000000000E+00 0. -1.
         -4   -1    0    0    0  501 -0.00000000000E+00 -0.00000000000E+00 -0.18986414830E+03  0.18986414830E+03  0.00000000000E+00 0.  1.
         25    2    1    2    0    0  0.58625441764E+01  0.14455344698E+02  0.55737995525E+02  0.13783768259E+03  0.12509666735E+03 0.  0.
          5    1    3    3  502    0  0.14897161815E+02 -0.34968261772E+02 -0.22792920011E+02  0.44516225852E+02  0.41800000000E+01 0. -1.
         -5    1    3    3    0  502 -0.90346176388E+01  0.49423606470E+02  0.78530915536E+02  0.93321456735E+02  0.41800000000E+01 0. -1.
        -11    1    1    2    0    0  0.32549255236E+02 -0.36301536900E+02 -0.71908019231E+02  0.86879334870E+02  0.00000000000E+00 0. -1.
         11    1    1    2    0    0 -0.38411799412E+02  0.21846192202E+02 -0.62388415130E+02  0.76452840302E+02  0.00000000000E+00 0.  1.
</event>
<event>
 7    1  0.2788485E-009  0.1500411E+03  0.7561462E-02  0.1200422E+00
         -2   -1    0    0    0  501 -0.00000000000E+00  0.00000000000E+00  0.39072121532E+02  0.39072121532E+02  0.00000000000E+00 0.  1.
          2   -1    0    0  501    0  0.00000000000E+00 -0.00000000000E+00 -0.76212778221E+03  0.76212778221E+03  0.00000000000E+00 0. -1.
         25    2    1    2    0    0 -0.10339513250E+03 -0.21040849169E+02 -0.19295366101E+03  0.25300733430E+03  0.12509326581E+03 0.  0.
          5    1    3    3  502    0 -0.11726853541E+03 -0.50386882046E+02 -0.13103361290E+03  0.18297001773E+03  0.41800000000E+01 0. -1.
         -5    1    3    3    0  502  0.13873402906E+02  0.29346032877E+02 -0.61920048110E+02  0.70037316566E+02  0.41800000000E+01 0. -1.
        -11    1    1    2    0    0  0.66581151642E+02 -0.32961625536E+02 -0.27775591870E+03  0.28752020605E+03  0.00000000000E+00 0.  1.
         11    1    1    2    0    0  0.36813980859E+02  0.54002474705E+02 -0.25234608096E+03  0.26067236339E+03  0.00000000000E+00 0. -1.
</event>
<event>
 7    1  0.2788485E-009  0.1174098E+03  0.7561462E-02  0.1247432E+00
         -2   -1    0    0    0  501 -0.00000000000E+00  0.00000000000E+00  0.26590828057E+03  0.26590828057E+03  0.00000000000E+00 0.  1.
          2   -1    0    0  501    0  0.00000000000E+00 -0.00000000000E+00 -0.60579503726E+02  0.60579503726E+02  0.00000000000E+00 0. -1.
         25    2    1    2    0    0  0.27027549281E+02 -0.55387477975E+02  0.81492870482E+02  0.16151911521E+03  0.12509626495E+03 0.  0.
          5    1    3    3  502    0  0.92701526997E+01 -0.95036604586E+02  0.60198923579E+02  0.11295695969E+03  0.41800000000E+01 0.  1.
         -5    1    3    3    0  502  0.17757396582E+02  0.39649126611E+02  0.21293946903E+02  0.48562155524E+02  0.41800000000E+01 0.  1.
        -11    1    1    2    0    0 -0.48808921368E+02  0.55373969993E+02  0.12265763110E+03  0.14315544637E+03  0.00000000000E+00 0.  1.
         11    1    1    2    0    0  0.21781372086E+02  0.13507981272E-01  0.11782752582E+01  0.21813222710E+02  0.00000000000E+00 0. -1.
</event>
<event>
 7    1  0.2788485E-009  0.1176529E+03  0.7561462E-02  0.1247020E+00
         -2   -1    0    0    0  501 -0.00000000000E+00  0.00000000000E+00  0.16467518961E+03  0.16467518961E+03  0.00000000000E+00 0.  1.
          2   -1    0    0  501    0  0.00000000000E+00 -0.00000000000E+00 -0.12489349818E+03  0.12489349818E+03  0.00000000000E+00 0. -1.
         25    2    1    2    0    0  0.83704830139E+02  0.12997352672E+02 -0.18786418999E+02  0.15223814393E+03  0.12509233855E+03 0.  0.
          5    1    3    3  502    0 -0.24303667212E+02  0.54052344084E+01  0.24851565912E+02  0.35425379705E+02  0.41800000000E+01 0.  1.
         -5    1    3    3    0  502  0.10800849735E+03  0.75921182635E+01 -0.43637984911E+02  0.11681276423E+03  0.41800000000E+01 0.  1.
        -11    1    1    2    0    0 -0.64157387373E+02  0.16567061183E+02 -0.29561369618E+01  0.66327796711E+02  0.00000000000E+00 0. -1.
         11    1    1    2    0    0 -0.19547442766E+02 -0.29564413855E+02  0.61524247385E+02  0.71002747141E+02  0.00000000000E+00 0.  1.
</event>
<event>
 7    1  0.2788485E-009  0.9241437E+02  0.7561462E-02  0.1297108E+00
         -1   -1    0    0    0  501 -0.00000000000E+00  0.00000000000E+00  0.31600676593E+03  0.31600676593E+03  0.00000000000E+00 0.  1.
          1   -1    0    0  501    0  0.00000000000E+00 -0.00000000000E+00 -0.57799828871E+02  0.57799828871E+02  0.00000000000E+00 0. -1.
         25    2    1    2    0    0  0.26389986714E+02 -0.34824294140E+02  0.23454226351E+03  0.26938167368E+03  0.12508896785E+03 0.  0.
          5    1    3    3  502    0  0.42218989726E+02  0.93762163210E+01  0.16780370515E+02  0.46576923048E+02  0.41800000000E+01 0. -1.
         -5    1    3    3    0  502 -0.15829003012E+02 -0.44200510461E+02  0.21776189300E+03  0.22280475063E+03  0.41800000000E+01 0. -1.
        -11    1    1    2    0    0  0.27764403809E+02  0.28389341151E+02  0.29656573548E+02  0.49561367661E+02  0.00000000000E+00 0.  1.
         11    1    1    2    0    0 -0.54154390523E+02  0.64349529896E+01 -0.59919000002E+01  0.54863553462E+02  0.00000000000E+00 0. -1.
</event>
<event>
 7    1  0.2788485E-009  0.1114871E+03  0.7561462E-02  0.1257840E+00
         -2   -1    0    0    0  501 -0.00000000000E+00  0.00000000000E+00  0.11587667498E+03  0.11587667498E+03  0.00000000000E+00 0.  1.
          2   -1    0    0  501    0  0.00000000000E+00 -0.00000000000E+00 -0.16114717773E+03  0.16114717773E+03  0.00000000000E+00 0. -1.
         25    2    1    2    0    0 -0.18428504102E+02  0.72163762878E+02  0.26392863092E+01  0.14560884160E+03  0.12509096884E+03 0.  0.
          5    1    3    3  502    0 -0.34708112394E+02  0.85971781376E+02  0.41038729467E+02  0.10147635180E+03  0.41800000000E+01 0. -1.
         -5    1    3    3    0  502  0.16279608292E+02 -0.13808018498E+02 -0.38399443158E+02  0.44132489798E+02  0.41800000000E+01 0. -1.
        -11    1    1    2    0    0 -0.73176943815E+01 -0.80896956643E+02 -0.59858599453E+01  0.81447509259E+02  0.00000000000E+00 0.  1.
         11    1    1    2    0    0  0.25746198484E+02  0.87331937645E+01 -0.41923929112E+02  0.49967501857E+02  0.00000000000E+00 0. -1.
</event>
<event>
 7    1  0.2788485E-009  0.1360717E+03  0.7561462E-02  0.1218715E+00
          2   -1    0    0  501    0  0.00000000000E+00  0.00000000000E+00  0.50271479548E+03  0.50271479548E+03  0.00000000000E+00 0. -1.
         -2   -1    0    0    0  501 -0.00000000000E+00 -0.00000000000E+00 -0.40277513428E+02  0.40277513428E+02  0.00000000000E+00 0.  1.
         25    2    1    2    0    0  0.37123333030E+01  0.86999808320E+02  0.19348524593E+03  0.24630612965E+03  0.12508965203E+03 0.  0.
          5    1    3    3  502    0 -0.47323802194E+02  0.37336347424E+00  0.36822703630E+02  0.60108781031E+02  0.41800000000E+01 0.  1.
         -5    1    3    3    0  502  0.51036135497E+02  0.86626444846E+02  0.15666254230E+03  0.18619734862E+03  0.41800000000E+01 0.  1.
        -11    1    1    2    0    0 -0.27565027873E+02 -0.94943172970E+02  0.22971242533E+03  0.25008365641E+03  0.00000000000E+00 0. -1.
         11    1    1    2    0    0  0.23852694570E+02  0.79433646497E+01  0.39239610791E+02  0.46602522842E+02  0.00000000000E+00 0.  1.
</event>
<event>
 7    1  0.2788485E-009  0.1400452E+03  0.7561462E-02  0.1213268E+00
          2   -1    0    0  501    0  0.00000000000E+00  0.00000000000E+00  0.15405374695E+03  0.15405374695E+03  0.00000000000E+00 0. -1.
         -2   -1    0    0    0  501 -0.00000000000E+00 -0.00000000000E+00 -0.19989680404E+03  0.19989680404E+03  0.00000000000E+00 0.  1.
         25    2    1    2    0    0 -0.13017108561E+03 -0.45485593798E+02 -0.12063873024E+02  0.18656524531E+03  0.12509037915E+03 0.  0.
          5    1    3    3  502    0 -0.14144852345E+02  0.47529723956E+01 -0.51719030084E+02  0.53990722048E+02  0.41800000000E+01 0.  1.
         -5    1    3    3    0  502 -0.11602623326E+03 -0.50238566193E+02  0.39655157060E+02  0.13257452327E+03  0.41800000000E+01 0.  1.
        -11    1    1    2    0    0  0.11333179885E+03  0.42191100123E+02  0.90282802941E+01  0.12126704171E+03  0.00000000000E+00 0. -1.
         11    1    1    2    0    0  0.16839286757E+02  0.32944936750E+01 -0.42807464353E+02  0.46118263968E+02  0.00000000000E+00 0.  1.
</event>
<event>
 7    1  0.2788485E-009  0.1089393E+03  0.7561462E-02  0.1262547E+00
          2   -1    0    0  501    0  0.00000000000E+00  0.00000000000E+00  0.25989466861E+03  0.25989466861E+03  0.00000000000E+00 0. -1.
         -2   -1    0    0    0  501 -0.00000000000E+00 -0.00000000000E+00 -0.55447424136E+02  0.55447424136E+02  0.00000000000E+00 0.  1.
         25    2    1    2    0    0 -0.55249410164E+01  0.18659603877E+02  0.54149913609E+02  0.13769116320E+03  0.12509171632E+03 0.  0.
          5    1    3    3  502    0 -0.65044138949E+02  0.80555550598E+01  0.33055787458E+02  0.73524074040E+02  0.41800000000E+01 0.  1.
         -5    1    3    3    0  502  0.59519197933E+02  0.10604048817E+02  0.21094126151E+02  0.64167089165E+02  0.41800000000E+01 0.  1.
        -11    1    1    2    0    0 -0.31201438541E+02  0.20953868447E+02  0.40305801355E+02  0.55110361937E+02  0.00000000000E+00 0.  1.
         11    1    1    2    0    0  0.36726379557E+02 -0.39613472324E+02  0.10999152951E+03  0.12254056760E+03  0.00000000000E+00 0. -1.
</event>
<event>
 7    1  0.2788485E-009  0.2303497E+03  0.7561462E-02  0.1126394E+00
          2   -1    0    0  501    0  0.00000000000E+00  0.00000000000E+00  0.35999688170E+03  0.35999688170E+03  0.00000000000E+00 0. -1.
         -2   -1    0    0    0  501 -0.00000000000E+00 -0.00000000000E+00 -0.15667894199E+03  0.15667894199E+03  0.00000000000E+00 0.  1.
         25    2    1    2    0    0  0.12230755127E+03  0.16956626976E+03  0.75315944250E+02  0.25501558742E+03  0.12509437010E+03 0.  0.
          5    1    3    3  502    0  0.13859927707E+03  0.97511342648E+02  0.48553408807E+02  0.17633243450E+03  0.41800000000E+01 0.  1.
         -5    1    3    3    0  502 -0.16291725799E+02  0.72054927112E+02  0.26762535443E+02  0.78683152924E+02  0.41800000000E+01 0.  1.
        -11    1    1    2    0    0 -0.55816271391E+02 -0.12569611375E+03  0.40591802187E+02  0.14339687434E+03  0.00000000000E+00 0.  1.
         11    1    1    2    0    0 -0.66491279880E+02 -0.43870156006E+02  0.87410193266E+02  0.11826336193E+03  0.00000000000E+00 0. -1.
</event>
<event>
 7    1  0.2788485E-009  0.8462716E+02  0.7561462E-02  0.1316410E+00
          3   -1    0    0  501    0  0.00000000000E+00  0.00000000000E+00  0.18809797985E+03  0.18809797985E+03  0.00000000000E+00 0. -1.
         -3   -1    0    0    0  501 -0.00000000000E+00 -0.00000000000E+00 -0.79313083410E+02  0.79313083410E+02  0.00000000000E+00 0.  1.
         25    2    1    2    0    0 -0.15725444022E+02 -0.15924682607E+01  0.37984536761E+01  0.12613554317E+03  0.12508365783E+03 0.  0.
          5    1    3    3  502    0 -0.48566534262E+02 -0.41753195936E+02  0.26389908045E+02  0.69396954311E+02  0.41800000000E+01 0.  1.
         -5    1    3    3    0  502  0.32841090239E+02  0.40160727675E+02 -0.22591454369E+02  0.56738588862E+02  0.41800000000E+01 0.  1.
        -11    1    1    2    0    0  0.31118573318E+02 -0.11134695309E+02 -0.13512848127E+01  0.33078286165E+02  0.00000000000E+00 0.  1.
         11    1    1    2    0    0 -0.15393129296E+02  0.12727163569E+02  0.10633772758E+03  0.10819723392E+03  0.00000000000E+00 0. -1.
</event>
<event>
 7    1  0.2788485E-009  0.1416611E+03  0.7561462E-02  0.1211111E+00
         -4   -1    0    0    0  501 -0.00000000000E+00  0.00000000000E+00  0.40109296383E+03  0.40109296383E+03  0.00000000000E+00 0.  1.
          4   -1    0    0  501    0  0.00000000000E+00 -0.00000000000E+00 -0.65814019250E+02  0.65814019250E+02  0.00000000000E+00 0. -1.
         25    2    1    2    0    0 -0.37239956989E+02 -0.10765933794E+03  0.12236142879E+03  0.20879926846E+03  0.12508983897E+03 0.  0.
          5    1    3    3  502    0 -0.14733377409E+02  0.27765933950E+02  0.19780126269E+02  0.37373055712E+02  0.41800000000E+01 0. -1.
         -5    1    3    3    0  502 -0.22506579580E+02 -0.13542527189E+03  0.10258130252E+03  0.17142621275E+03  0.41800000000E+01 0. -1.
        -11    1    1    2    0    0  0.18101192650E+01  0.14233465693E+02 -0.74346576352E+01  0.16159895158E+02  0.00000000000E+00 0. -1.
         11    1    1    2    0    0  0.35429837723E+02  0.93425872250E+02  0.22035217342E+03  0.24194781946E+03  0.00000000000E+00 0.  1.
</event>
<event>
 7    1  0.2788485E-009  0.2332817E+03  0.7561462E-02  0.1124351E+00
          2   -1    0    0  501    0  0.00000000000E+00  0.00000000000E+00  0.27942485199E+03  0.27942485199E+03  0.00000000000E+00 0. -1.
         -2   -1    0    0    0  501 -0.00000000000E+00 -0.00000000000E+00 -0.22810837226E+03  0.22810837226E+03  0.00000000000E+00 0.  1.
         25    2    1    2    0    0  0.43152963339E+02  0.21895552272E+03  0.65654632822E+02  0.26412383911E+03  0.12508865816E+03 0.  0.
          5    1    3    3  502    0  0.28049581343E+02  0.48673545759E+02 -0.34396094966E+02  0.66003460661E+02  0.41800000000E+01 0. -1.
         -5    1    3    3    0  502  0.15103381996E+02  0.17028197696E+03  0.10005072779E+03  0.19812037844E+03  0.41800000000E+01 0. -1.
        -11    1    1    2    0    0 -0.11671626067E+02 -0.20407456254E+03 -0.27364081613E+02  0.20623153709E+03  0.00000000000E+00 0. -1.
         11    1    1    2    0    0 -0.31481337272E+02 -0.14880960181E+02  0.13025928516E+02  0.37177848055E+02  0.00000000000E+00 0.  1.
</event>
<event>
 7    1  0.2788485E-009  0.1309934E+03  0.7561462E-02  0.1225989E+00
         -1   -1    0    0    0  501 -0.00000000000E+00  0.00000000000E+00  0.10844080249E+03  0.10844080249E+03  0.00000000000E+00 0.  1.
          1   -1    0    0  501    0  0.00000000000E+00 -0.00000000000E+00 -0.24198467989E+03  0.24198467989E+03  0.00000000000E+00 0. -1.
         25    2    1    2    0    0 -0.11607158038E+03  0.99236649277E+01 -0.10139558647E+03  0.19874558252E+03  0.12509057006E+03 0.  0.
          5    1    3    3  502    0  0.56930189151E+01  0.15804824944E+02 -0.70941584405E+02  0.73023172718E+02  0.41800000000E+01 0. -1.
         -5    1    3    3    0  502 -0.12176459929E+03 -0.58811600166E+01 -0.30454002063E+02  0.12572240980E+03  0.41800000000E+01 0. -1.
        -11    1    1    2    0    0  0.77427399643E+02  0.11869464286E+02  0.22300731893E+02  0.81444515106E+02  0.00000000000E+00 0.  1.
         11    1    1    2    0    0  0.38644180736E+02 -0.21793129213E+02 -0.54449022827E+02  0.70235384760E+02  0.00000000000E+00 0. -1.
</event>
<event>
 7    1  0.2788485E-009  0.1598686E+03  0.7561462E-02  0.1188845E+00
          2   -1    0    0  501    0  0.00000000000E+00  0.00000000000E+00  0.38460835996E+03  0.38460835996E+03  0.00000000000E+00 0.  1.
         -2   -1    0    0    0  501 -0.00000000000E+00 -0.00000000000E+00 -0.89455511564E+02  0.89455511564E+02  0.00000000000E+00 0. -1.
         25    2    1    2    0    0 -0.13812646903E+03  0.48031857813E+02  0.20055562011E+03  0.27794819544E+03  0.12508661710E+03 0.  0.
          5    1    3    3  502    0 -0.36170796056E+02  0.60515301001E+02  0.25785366598E+02  0.75185009630E+02  0.41800000000E+01 0. -1.
         -5    1    3    3    0  502 -0.10195567298E+03 -0.12483443187E+02  0.17477025351E+03  0.20276318581E+03  0.41800000000E+01 0. -1.
        -11    1    1    2    0    0  0.12528917082E+03 -0.42148220955E+02  0.11231390373E+03  0.17345968357E+03  0.00000000000E+00 0.  1.
         11    1    1    2    0    0  0.12837298217E+02 -0.58836368588E+01 -0.17716675442E+02  0.22655992516E+02  0.00000000000E+00 0. -1.
</event>
<event>
 7    1  0.2788485E-009  0.1064107E+03  0.7561462E-02  0.1267365E+00
          1   -1    0    0  501    0  0.00000000000E+00  0.00000000000E+00  0.20560849099E+03  0.20560849099E+03  0.00000000000E+00 0. -1.
         -1   -1    0    0    0  501 -0.00000000000E+00 -0.00000000000E+00 -0.79578980690E+02  0.79578980690E+02  0.00000000000E+00 0.  1.
         25    2    1    2    0    0  0.36259172948E+02 -0.50778459414E+02  0.61257104336E+02  0.15262336552E+03  0.12509308258E+03 0.  0.
          5    1    3    3  502    0  0.58204393345E+02 -0.75902460558E+02  0.69134563107E+02  0.11809316297E+03  0.41800000000E+01 0.  1.
         -5    1    3    3    0  502 -0.21945220397E+02  0.25124001144E+02 -0.78774587719E+01  0.34530202555E+02  0.41800000000E+01 0.  1.
        -11    1    1    2    0    0 -0.51238381615E+02  0.38463253770E+02  0.83740155663E+02  0.10543816819E+03  0.00000000000E+00 0. -1.
         11    1    1    2    0    0  0.14979208668E+02  0.12315205643E+02 -0.18967749695E+02  0.27125937971E+02  0.00000000000E+00 0.  1.
</event>
<event>
 7    1  0.2788485E-009  0.7653833E+02  0.7561462E-02  0.1339172E+00
         -4   -1    0    0    0  501 -0.00000000000E+00  0.00000000000E+00  0.25168753648E+03  0.25168753648E+03  0.00000000000E+00 0.  1.
          4   -1    0    0  501    0  0.00000000000E+00 -0.00000000000E+00 -0.51004715132E+02  0.51004715132E+02  0.00000000000E+00 0. -1.
         25    2    1    2    0    0 -0.32638031364E+02 -0.92504471213E+01  0.11711265239E+03  0.17468055944E+03  0.12508841925E+03 0.  0.
          5    1    3    3  502    0  0.16464524128E+02 -0.27596474308E+02 -0.12557804637E+02  0.34753658891E+02  0.41800000000E+01 0. -1.
         -5    1    3    3    0  502 -0.49102555492E+02  0.18346027187E+02  0.12967045703E+03  0.13992690054E+03  0.41800000000E+01 0. -1.
        -11    1    1    2    0    0  0.33049101947E+02 -0.20134254793E+02  0.89965923921E+02  0.97936197713E+02  0.00000000000E+00 0.  1.
         11    1    1    2    0    0 -0.41107058277E+00  0.29384701914E+02 -0.63957549668E+01  0.30075494463E+02  0.00000000000E+00 0. -1.
</event>
<event>
 7    1  0.2788485E-009  0.1605260E+03  0.7561462E-02  0.1188104E+00
          1   -1    0    0  501    0  0.00000000000E+00  0.00000000000E+00  0.37820710054E+03  0.37820710054E+03  0.00000000000E+00 0. -1.
         -1   -1    0    0    0  501 -0.00000000000E+00 -0.00000000000E+00 -0.98250089981E+02  0.98250089981E+02  0.00000000000E+00 0.  1.
         25    2    1    2    0    0  0.29571705925E+02  0.13817761335E+03  0.57196708725E+02  0.19719904403E+03  0.12509380823E+03 0.  0.
          5    1    3    3  502    0 -0.14068946676E+02  0.10108943384E+02  0.59195279934E+02  0.61819734417E+02  0.41800000000E+01 0.  1.
         -5    1    3    3    0  502  0.43640652601E+02  0.12806866996E+03 -0.19985712094E+01  0.13537930962E+03  0.41800000000E+01 0.  1.
        -11    1    1    2    0    0  0.23867837931E+02 -0.98384733018E+02  0.12319281144E+03  0.15945437645E+03  0.00000000000E+00 0. -1.
         11    1    1    2    0    0 -0.53439543856E+02 -0.39792880328E+02  0.99567490395E+02  0.11980377004E+03  0.00000000000E+00 0.  1.
</event>
<event>
 7    1  0.2788485E-009  0.9183116E+02  0.7561462E-02  0.1298477E+00
         -2   -1    0    0    0  501 -0.00000000000E+00  0.00000000000E+00  0.51759850178E+02  0.51759850178E+02  0.00000000000E+00 0. -1.
          2   -1    0    0  501    0  0.00000000000E+00 -0.00000000000E+00 -0.29725427397E+03  0.29725427397E+03  0.00000000000E+00 0.  1.
         25    2    1    2    0    0  0.22482170222E+02  0.32027981362E+01 -0.21932241444E+03  0.25350056179E+03  0.12507800549E+03 0.  0.
          5    1    3    3  502    0 -0.36094627746E+02  0.17078725802E+02 -0.19248826277E+02  0.44525214656E+02  0.41800000000E+01 0. -1.
         -5    1    3    3    0  502  0.58576797969E+02 -0.13875927665E+02 -0.20007358816E+03  0.20897534713E+03  0.41800000000E+01 0. -1.
        -11    1    1    2    0    0 -0.92464852655E+01  0.38407805958E+02 -0.32802068932E+02  0.51348152591E+02  0.00000000000E+00 0.  1.
         11    1    1    2    0    0 -0.13235684957E+02 -0.41610604094E+02  0.66300595856E+01  0.44165409762E+02  0.00000000000E+00 0. -1.
</event>
<event>
 7    1  0.2803995E-009  0.1124989E+03  0.7561462E-02  0.1256011E+00
         -3   -1    0    0    0  501 -0.00000000000E+00  0.00000000000E+00  0.47690942949E+02  0.47690942949E+02  0.00000000000E+00 0.  1.
          3   -1    0    0  501    0  0.00000000000E+00 -0.00000000000E+00 -0.39436258910E+03  0.39436258910E+03  0.00000000000E+00 0. -1.
         25    2    1    2    0    0 -0.19214953647E+02  0.35648185719E+02 -0.72808134367E+02  0.15030207954E+03  0.12509869342E+03 0.  0.
          5    1    3    3  502    0  0.36964462976E+02  0.59540041584E+02 -0.41713610821E+02  0.81663246339E+02  0.41800000000E+01 0.  1.
         -5    1    3    3    0  502 -0.56179416623E+02 -0.23891855866E+02 -0.31094523546E+02  0.68638833202E+02  0.41800000000E+01 0.  1.
        -11    1    1    2    0    0 -0.15572329200E+02 -0.52632789042E+02 -0.10470136859E+03  0.11821626159E+03  0.00000000000E+00 0.  1.
         11    1    1    2    0    0  0.34787282847E+02  0.16984603323E+02 -0.16916214320E+03  0.17353519092E+03  0.00000000000E+00 0. -1.
</event>
<event>
 7    1  0.2788485E-009  0.5965501E+02  0.7561462E-02  0.1399285E+00
         -2   -1    0    0    0  501 -0.00000000000E+00  0.00000000000E+00  0.12040570349E+03  0.12040570349E+03  0.00000000000E+00 0.  1.
          2   -1    0    0  501    0  0.00000000000E+00 -0.00000000000E+00 -0.16288065590E+03  0.16288065590E+03  0.00000000000E+00 0. -1.
         25    2    1    2    0    0  0.42139814689E+02 -0.11110854823E+02 -0.10136162016E+03  0.16679624248E+03  0.12509034090E+03 0.  0.
          5    1    3    3  502    0  0.47593162393E+02 -0.47588886252E+01 -0.12898488417E+03  0.13763113336E+03  0.41800000000E+01 0.  1.
         -5    1    3    3    0  502 -0.54533477032E+01 -0.63519661977E+01  0.27623264001E+02  0.29165109117E+02  0.41800000000E+01 0.  1.
        -11    1    1    2    0    0  0.40379438952E+01 -0.10282768895E+02  0.64362439117E+02  0.65303628507E+02  0.00000000000E+00 0.  1.
         11    1    1    2    0    0 -0.46177758585E+02  0.21393623718E+02 -0.54757713582E+01  0.51186488409E+02  0.00000000000E+00 0. -1.
</event>
<event>
 7    1  0.2788485E-009  0.9974171E+02  0.7561462E-02  0.1280840E+00
          1   -1    0    0  501    0  0.00000000000E+00  0.00000000000E+00  0.45763911536E+03  0.45763911536E+03  0.00000000000E+00 0. -1.
         -1   -1    0    0    0  501 -0.00000000000E+00 -0.00000000000E+00 -0.37172494837E+02  0.37172494837E+02  0.00000000000E+00 0.  1.
         25    2    1    2    0    0  0.24453412823E+02  0.53159601346E+02  0.31322726619E+03  0.34231967161E+03  0.12509006624E+03 0.  0.
          5    1    3    3  502    0 -0.33578647409E+02  0.96866435561E+01  0.22640384774E+03  0.22912339753E+03  0.41800000000E+01 0.  1.
         -5    1    3    3    0  502  0.58032060232E+02  0.43472957790E+02  0.86823418452E+02  0.11319627408E+03  0.41800000000E+01 0.  1.
        -11    1    1    2    0    0 -0.41572862949E+02 -0.66564441995E+01  0.91128877284E+02  0.10038467741E+03  0.00000000000E+00 0. -1.
         11    1    1    2    0    0  0.17119450126E+02 -0.46503157146E+02  0.16110477052E+02  0.52107261183E+02  0.00000000000E+00 0.  1.
</event>
<event>
 7    1  0.2788485E-009  0.1001179E+03  0.7561462E-02  0.1280048E+00
         -1   -1    0    0    0  501 -0.00000000000E+00  0.00000000000E+00  0.14487207301E+03  0.14487207301E+03  0.00000000000E+00 0.  1.
          1   -1    0    0  501    0  0.00000000000E+00 -0.00000000000E+00 -0.10473851332E+03  0.10473851332E+03  0.00000000000E+00 0. -1.
         25    2    1    2    0    0  0.14339648938E+02 -0.56380747466E+02  0.12390694962E+02  0.13851693012E+03  0.12509594875E+03 0.  0.
          5    1    3    3  502    0 -0.32500922328E+01  0.29981443608E+02  0.36030006769E+02  0.47170794440E+02  0.41800000000E+01 0. -1.
         -5    1    3    3    0  502  0.17589741171E+02 -0.86362191074E+02 -0.23639311807E+02  0.91346135683E+02  0.41800000000E+01 0. -1.
        -11    1    1    2    0    0  0.11636826622E+02 -0.66355292864E+01  0.39694083991E+02  0.41893511271E+02  0.00000000000E+00 0.  1.
         11    1    1    2    0    0 -0.25976475560E+02  0.63016276752E+02 -0.11951219264E+02  0.69200144943E+02  0.00000000000E+00 0. -1.
</event>
<event>
 7    1  0.2788485E-009  0.1093358E+03  0.7561462E-02  0.1261805E+00
         -1   -1    0    0    0  501 -0.00000000000E+00  0.00000000000E+00  0.11990300674E+02  0.11990300674E+02  0.00000000000E+00 0.  1.
          1   -1    0    0  501    0  0.00000000000E+00 -0.00000000000E+00 -0.20700668236E+04  0.20700668236E+04  0.00000000000E+00 0. -1.
         25    2    1    2    0    0  0.18325045701E+02  0.16920313681E+02 -0.18329522851E+04  0.18373847911E+04  0.12508671762E+03 0.  0.
          5    1    3    3  502    0 -0.50161655731E+02 -0.14047416641E+02 -0.73898616843E+03  0.74083166182E+03  0.41800000000E+01 0. -1.
         -5    1    3    3    0  502  0.68486701432E+02  0.30967730323E+02 -0.10939661166E+04  0.10965531293E+04  0.41800000000E+01 0. -1.
        -11    1    1    2    0    0 -0.53926406477E+02 -0.11171314734E+02 -0.96715434877E+02  0.11129569143E+03  0.00000000000E+00 0.  1.
         11    1    1    2    0    0  0.35601360776E+02 -0.57489989475E+01 -0.12840880300E+03  0.13337664175E+03  0.00000000000E+00 0. -1.
</event>
<event>
 7    1  0.2788485E-009  0.1196565E+03  0.7561462E-02  0.1243665E+00
          1   -1    0    0  501    0  0.00000000000E+00  0.00000000000E+00  0.77523886599E+02  0.77523886599E+02  0.00000000000E+00 0. -1.
         -1   -1    0    0    0  501 -0.00000000000E+00 -0.00000000000E+00 -0.21697156439E+03  0.21697156439E+03  0.00000000000E+00 0.  1.
         25    2    1    2    0    0 -0.57496520681E+02  0.37822275645E+02 -0.51176002294E+02  0.15166662283E+03  0.12508959527E+03 0.  0.
          5    1    3    3  502    0 -0.59859160586E+02 -0.26201944831E+02  0.59254815681E+01  0.65743781081E+02  0.41800000000E+01 0. -1.
         -5    1    3    3    0  502  0.23626399055E+01  0.64024220476E+02 -0.57101483862E+02  0.85922841749E+02  0.41800000000E+01 0. -1.
        -11    1    1    2    0    0  0.79873546858E+02 -0.24303853247E+02 -0.79412796292E+02  0.11522522721E+03  0.00000000000E+00 0.  1.
         11    1    1    2    0    0 -0.22377026178E+02 -0.13518422399E+02 -0.88588792058E+01  0.27603600951E+02  0.00000000000E+00 0. -1.
</event>
<event>
 7    1  0.2788485E-009  0.9736537E+02  0.7561462E-02  0.1285936E+00
          1   -1    0    0  501    0  0.00000000000E+00  0.00000000000E+00  0.11739152184E+03  0.11739152184E+03  0.00000000000E+00 0. -1.
         -1   -1    0    0    0  501 -0.00000000000E+00 -0.00000000000E+00 -0.17070108016E+03  0.17070108016E+03  0.00000000000E+00 0.  1.
         25    2    1    2    0    0 -0.33321148317E+02  0.78575091175E+02 -0.61196428064E+02  0.16333136483E+03  0.12509111900E+03 0.  0.
          5    1    3    3  502    0 -0.45772054301E+02  0.25606594415E+02 -0.88001925956E+02  0.10253092219E+03  0.41800000000E+01 0.  1.
         -5    1    3    3    0  502  0.12450905983E+02  0.52968496759E+02  0.26805497893E+02  0.60800442646E+02  0.41800000000E+01 0.  1.
        -11    1    1    2    0    0  0.18300853876E+02 -0.20155166312E+02  0.45969097180E+02  0.53425741709E+02  0.00000000000E+00 0. -1.
         11    1    1    2    0    0  0.15020294441E+02 -0.58419924863E+02 -0.38082227432E+02  0.71335495458E+02  0.00000000000E+00 0.  1.
</event>
<event>
 7    1  0.2788485E-009  0.2162469E+03  0.7561462E-02  0.1136712E+00
          2   -1    0    0  501    0  0.00000000000E+00  0.00000000000E+00  0.21334273424E+03  0.21334273424E+03  0.00000000000E+00 0. -1.
         -2   -1    0    0    0  501 -0.00000000000E+00 -0.00000000000E+00 -0.29099848902E+03  0.29099848902E+03  0.00000000000E+00 0.  1.
         25    2    1    2    0    0 -0.11194524273E+03 -0.15952514183E+03  0.72441097704E+02  0.24264312721E+03  0.12509183147E+03 0.  0.
          5    1    3    3  502    0 -0.83424345882E+02 -0.16844384180E+03  0.89226423348E+02  0.20811481531E+03  0.41800000000E+01 0.  1.
         -5    1    3    3    0  502 -0.28520896844E+02  0.89186999701E+01 -0.16785325644E+02  0.34528311904E+02  0.41800000000E+01 0.  1.
        -11    1    1    2    0    0  0.47549487250E+02  0.13869919270E+03 -0.10583722844E+03  0.18083124375E+03  0.00000000000E+00 0.  1.
         11    1    1    2    0    0  0.64395755475E+02  0.20825949130E+02 -0.44259624039E+02  0.80866852297E+02  0.00000000000E+00 0. -1.
</event>
<event>
 7    1  0.2788485E-009  0.2206839E+03  0.7561462E-02  0.1133374E+00
         -3   -1    0    0    0  501 -0.00000000000E+00  0.00000000000E+00  0.83322969336E+03  0.83322969336E+03  0.00000000000E+00 0.  1.
          3   -1    0    0  501    0  0.00000000000E+00 -0.00000000000E+00 -0.73439262508E+02  0.73439262508E+02  0.00000000000E+00 0. -1.
         25    2    1    2    0    0  0.16059409157E+03 -0.14805055838E+03  0.31775709750E+03  0.40537213904E+03  0.12509023946E+03 0.  0.
          5    1    3    3  502    0  0.13702189592E+03 -0.10226839110E+03  0.30871210486E+03  0.35292273923E+03  0.41800000000E+01 0. -1.
         -5    1    3    3    0  502  0.23572195656E+02 -0.45782167272E+02  0.90449926476E+01  0.52449399808E+02  0.41800000000E+01 0. -1.
        -11    1    1    2    0    0 -0.68868430519E+02  0.56515765148E+02  0.92087279314E+02  0.12812868314E+03  0.00000000000E+00 0. -1.
         11    1    1    2    0    0 -0.91725661053E+02  0.91534793229E+02  0.34994605403E+03  0.37316813369E+03  0.00000000000E+00 0.  1.
</event>
<event>
 7    1  0.2788485E-009  0.1052285E+03  0.7561462E-02  0.1269670E+00
          2   -1    0    0  501    0  0.00000000000E+00  0.00000000000E+00  0.10912921512E+04  0.10912921512E+04  0.00000000000E+00 0. -1.
         -2   -1    0    0    0  501 -0.00000000000E+00 -0.00000000000E+00 -0.17676743723E+02  0.17676743723E+02  0.00000000000E+00 0.  1.
         25    2    1    2    0    0 -0.75699240533E+01 -0.86421931456E+02  0.59444660347E+03  0.61362852009E+03  0.12508853785E+03 0.  0.
          5    1    3    3  502    0  0.89411799444E+01 -0.45247526380E+02  0.54540501055E+03  0.54736768381E+03  0.41800000000E+01 0.  1.
         -5    1    3    3    0  502 -0.16511103998E+02 -0.41174405076E+02  0.49041592917E+02  0.66260836279E+02  0.41800000000E+01 0.  1.
        -11    1    1    2    0    0  0.13943731887E+02 -0.13532038693E+02  0.35124541168E+02  0.40140716516E+02  0.00000000000E+00 0.  1.
         11    1    1    2    0    0 -0.63738078335E+01  0.99953970149E+02  0.44404426288E+03  0.45519965836E+03  0.00000000000E+00 0. -1.
</event>
<event>
 7    1  0.2788485E-009  0.1081142E+03  0.7561462E-02  0.1264102E+00
         -2   -1    0    0    0  501 -0.00000000000E+00  0.00000000000E+00  0.44090432157E+02  0.44090432157E+02  0.00000000000E+00 0. -1.
          2   -1    0    0  501    0  0.00000000000E+00 -0.00000000000E+00 -0.33129045705E+03  0.33129045705E+03  0.00000000000E+00 0.  1.
         25    2    1    2    0    0  0.54883998269E+01 -0.39975190197E+02 -0.22478122269E+03  0.26038832925E+03  0.12508935036E+03 0.  0.
          5    1    3    3  502    0  0.58923301504E+01 -0.80811130209E+02 -0.98556024911E+02  0.12765547684E+03  0.41800000000E+01 0.  1.
         -5    1    3    3    0  502 -0.40393032354E+00  0.40835940012E+02 -0.12622519778E+03  0.13273285241E+03  0.41800000000E+01 0.  1.
        -11    1    1    2    0    0  0.12265411135E+02  0.63442515657E+02 -0.30099153358E+02  0.71283603557E+02  0.00000000000E+00 0.  1.
         11    1    1    2    0    0 -0.17753810962E+02 -0.23467325461E+02 -0.32319648851E+02  0.43708956402E+02  0.00000000000E+00 0. -1.
</event>
<event>
 7    1  0.2788485E-009  0.1908379E+03  0.7561462E-02  0.1157708E+00
         -1   -1    0    0    0  501 -0.00000000000E+00  0.00000000000E+00  0.36217873243E+03  0.36217873243E+03  0.00000000000E+00 0.  1.
          1   -1    0    0  501    0  0.00000000000E+00 -0.00000000000E+00 -0.12503756400E+03  0.12503756400E+03  0.00000000000E+00 0. -1.
         25    2    1    2    0    0  0.14895189146E+03 -0.83735176017E+02  0.67231302600E+02  0.22218629658E+03  0.12509379149E+03 0.  0.
          5    1    3    3  502    0 -0.17484819142E+00 -0.53468961342E+02  0.41474768142E+02  0.67798150353E+02  0.41800000000E+01 0. -1.
         -5    1    3    3    0  502  0.14912673965E+03 -0.30266214675E+02  0.25756534459E+02  0.15438814623E+03  0.41800000000E+01 0. -1.
        -11    1    1    2    0    0 -0.34773397158E+02  0.94963733694E+00 -0.10220687924E+02  0.36256770714E+02  0.00000000000E+00 0. -1.
         11    1    1    2    0    0 -0.11417849430E+03  0.82785538680E+02  0.18013055375E+03  0.22877322914E+03  0.00000000000E+00 0.  1.
</event>
<event>
 7    1  0.2788485E-009  0.7887499E+02  0.7561462E-02  0.1332275E+00
          1   -1    0    0  501    0  0.00000000000E+00  0.00000000000E+00  0.51066660986E+03  0.51066660986E+03  0.00000000000E+00 0. -1.
         -1   -1    0    0    0  501 -0.00000000000E+00 -0.00000000000E+00 -0.32683214098E+02  0.32683214098E+02  0.00000000000E+00 0.  1.
         25    2    1    2    0    0 -0.14752907761E+01  0.20840064250E+02  0.40961372370E+03  0.42879649621E+03  0.12508616135E+03 0.  0.
          5    1    3    3  502    0 -0.52171511053E+02  0.28067535558E+02  0.32029488781E+03  0.32575441774E+03  0.41800000000E+01 0.  1.
         -5    1    3    3    0  502  0.50696220277E+02 -0.72274713078E+01  0.89318835884E+02  0.10304207847E+03  0.41800000000E+01 0.  1.
        -11    1    1    2    0    0 -0.19166590264E+02 -0.17723928114E+02  0.84328191535E+02  0.88276495726E+02  0.00000000000E+00 0. -1.
         11    1    1    2    0    0  0.20641881040E+02 -0.31161361357E+01 -0.15958519472E+02  0.26276832020E+02  0.00000000000E+00 0.  1.
</event>
<event>
 7    1  0.2788485E-009  0.1816455E+03  0.7561462E-02  0.1166220E+00
         -1   -1    0    0    0  501 -0.00000000000E+00  0.00000000000E+00  0.79155807704E+03  0.79155807704E+03  0.00000000000E+00 0.  1.
          1   -1    0    0  501    0  0.00000000000E+00 -0.00000000000E+00 -0.52868595848E+02  0.52868595848E+02  0.00000000000E+00 0. -1.
         25    2    1    2    0    0  0.36404014434E+02  0.15091420287E+03  0.22906907494E+03  0.30367917630E+03  0.12509217453E+03 0.  0.
          5    1    3    3  502    0 -0.22310279580E+02 -0.28680950775E+00 -0.32413860891E+00  0.22702605588E+02  0.41800000000E+01 0.  1.
         -5    1    3    3    0  502  0.58714294014E+02  0.15120101238E+03  0.22939321355E+03  0.28097657071E+03  0.41800000000E+01 0.  1.
        -11    1    1    2    0    0  0.21717883059E+02 -0.95824156707E+02  0.23565689915E+03  0.25531962238E+03  0.00000000000E+00 0. -1.
         11    1    1    2    0    0 -0.58121897493E+02 -0.55090046166E+02  0.27396350709E+03  0.28542787421E+03  0.00000000000E+00 0.  1.
</event>
<event>
 7    1  0.2788485E-009  0.1092501E+03  0.7561462E-02  0.1261965E+00
          2   -1    0    0  501    0  0.00000000000E+00  0.00000000000E+00  0.68418917547E+02  0.68418917547E+02  0.00000000000E+00 0. -1.
         -2   -1    0    0    0  501 -0.00000000000E+00 -0.00000000000E+00 -0.32825267830E+03  0.32825267830E+03  0.00000000000E+00 0.  1.
         25    2    1    2    0    0 -0.62253866255E+02  0.59760248829E+02 -0.20438396529E+03  0.25469027119E+03  0.12508995871E+03 0.  0.
          5    1    3    3  502    0 -0.68187794428E+02  0.59387237410E+02 -0.56666505937E+02  0.10679412236E+03  0.41800000000E+01 0. -1.
         -5    1    3    3    0  502  0.59339281733E+01  0.37301141857E+00 -0.14771745935E+03  0.14789614883E+03  0.41800000000E+01 0. -1.
        -11    1    1    2    0    0  0.11716803853E+02 -0.68439531638E+02 -0.43211613863E+01  0.69569572509E+02  0.00000000000E+00 0. -1.
         11    1    1    2    0    0  0.50537062402E+02  0.86792828090E+01 -0.51128634079E+02  0.72411752148E+02  0.00000000000E+00 0.  1.
</event>
<event>
 7    1  0.2788485E-009  0.9161251E+02  0.7561462E-02  0.1298993E+00
         -1   -1    0    0    0  501 -0.00000000000E+00  0.00000000000E+00  0.55287652589E+02  0.55287652589E+02  0.00000000000E+00 0.  1.
          1   -1    0    0  501    0  0.00000000000E+00 -0.00000000000E+00 -0.26940806582E+03  0.26940806582E+03  0.00000000000E+00 0. -1.
         25    2    1    2    0    0 -0.44768054544E+02  0.12603818453E+02 -0.18039957550E+03  0.22439667043E+03  0.12508726519E+03 0.  0.
          5    1    3    3  502    0 -0.69721399817E+02 -0.35629768109E+02 -0.11657007723E+03  0.14048704308E+03  0.41800000000E+01 0.  1.
         -5    1    3    3    0  502  0.24953345274E+02  0.48233586562E+02 -0.63829498268E+02  0.83909627351E+02  0.41800000000E+01 0.  1.
        -11    1    1    2    0    0  0.37560556522E+02 -0.21118363904E+01 -0.60160666220E+02  0.70954640576E+02  0.00000000000E+00 0. -1.
         11    1    1    2    0    0  0.72074980218E+01 -0.10491982062E+02  0.26439828488E+02  0.29344407402E+02  0.00000000000E+00 0.  1.
</event>
<event>
 7    1  0.2788485E-009  0.8666292E+02  0.7561462E-02  0.1311140E+00
         -1   -1    0    0    0  501 -0.00000000000E+00  0.00000000000E+00  0.13902506133E+03  0.13902506133E+03  0.00000000000E+00 0.  1.
          1   -1    0    0  501    0  0.00000000000E+00 -0.00000000000E+00 -0.13268824802E+03  0.13268824802E+03  0.00000000000E+00 0. -1.
         25    2    1    2    0    0  0.22030605166E+02  0.18040243097E+02 -0.73926041308E+02  0.14806544425E+03  0.12509004062E+03 0.  0.
          5    1    3    3  502    0 -0.32500099078E+02 -0.17043268579E+02 -0.74426337562E+02  0.83087192556E+02  0.41800000000E+01 0. -1.
         -5    1    3    3    0  502  0.54530704243E+02  0.35083511676E+02  0.50029625467E+00  0.64978251694E+02  0.41800000000E+01 0. -1.
        -11    1    1    2    0    0 -0.26020601439E+02  0.20215877307E+02  0.78509872699E+02  0.85144309884E+02  0.00000000000E+00 0.  1.
         11    1    1    2    0    0  0.39899962728E+01 -0.38256120404E+02  0.17529819171E+01  0.38503555216E+02  0.00000000000E+00 0. -1.
</event>
<event>
 7    1  0.2788485E-009  0.7610991E+02  0.7561462E-02  0.1340468E+00
         -1   -1    0    0    0  501 -0.00000000000E+00  0.00000000000E+00  0.66192426224E+02  0.66192426224E+02  0.00000000000E+00 0.  1.
          1   -1    0    0  501    0  0.00000000000E+00 -0.00000000000E+00 -0.21679997100E+03  0.21679997100E+03  0.00000000000E+00 0. -1.
         25    2    1    2    0    0 -0.37510186538E+02  0.18887727527E+02 -0.41936140723E+02  0.13845352382E+03  0.12508788116E+03 0.  0.
          5    1    3    3  502    0  0.17117683429E+02  0.25876095350E+02  0.32918673004E+02  0.45427952066E+02  0.41800000000E+01 0.  1.
         -5    1    3    3    0  502 -0.54627869967E+02 -0.69883678236E+01 -0.74854813727E+02  0.93025571753E+02  0.41800000000E+01 0.  1.
        -11    1    1    2    0    0  0.49400584138E+02 -0.89906697458E+01 -0.11674738294E+03  0.12708737655E+03  0.00000000000E+00 0. -1.
         11    1    1    2    0    0 -0.11890397600E+02 -0.98970577809E+01  0.80759788781E+01  0.17451496860E+02  0.00000000000E+00 0.  1.
</event>
<event>
 7    1  0.2788485E-009  0.1007439E+03  0.7561462E-02  0.1278739E+00
          2   -1    0    0  501    0  0.00000000000E+00  0.00000000000E+00  0.34792856613E+03  0.34792856613E+03  0.00000000000E+00 0.  1.
         -2   -1    0    0    0  501 -0.00000000000E+00 -0.00000000000E+00 -0.39657603606E+02  0.39657603606E+02  0.00000000000E+00 0. -1.
         25    2    1    2    0    0 -0.25319348149E+02  0.31066510507E+02  0.21330506482E+03  0.25050274093E+03  0.12508547105E+03 0.  0.
          5    1    3    3  502    0 -0.67845986759E+02  0.44100738057E+01  0.17322532104E+03  0.18613707561E+03  0.41800000000E+01 0.  1.
         -5    1    3    3    0  502  0.42526638610E+02  0.26656436702E+02  0.40079743787E+02  0.64365665313E+02  0.41800000000E+01 0.  1.
        -11    1    1    2    0    0  0.28161343745E+02 -0.53464841666E+02  0.28354679400E+02  0.66749819624E+02  0.00000000000E+00 0. -1.
         11    1    1    2    0    0 -0.28419955963E+01  0.22398331159E+02  0.66611218305E+02  0.70333609190E+02  0.00000000000E+00 0.  1.
</event>
<event>
 7    1  0.2788485E-009  0.2562801E+03  0.7561462E-02  0.1109399E+00
          2   -1    0    0  501    0  0.00000000000E+00  0.00000000000E+00  0.53629039639E+03  0.53629039639E+03  0.00000000000E+00 0. -1.
         -2   -1    0    0    0  501 -0.00000000000E+00 -0.00000000000E+00 -0.12462703288E+03  0.12462703288E+03  0.00000000000E+00 0.  1.
         25    2    1    2    0    0 -0.14574071506E+03  0.18363220031E+03  0.21997917147E+03  0.34496229283E+03  0.12508799536E+03 0.  0.
          5    1    3    3  502    0 -0.14202105824E+03  0.83559994863E+02  0.14845795118E+03  0.22183211985E+03  0.41800000000E+01 0. -1.
         -5    1    3    3    0  502 -0.37196568184E+01  0.10007220544E+03  0.71521220283E+02  0.12313017299E+03  0.41800000000E+01 0. -1.
        -11    1    1    2    0    0  0.33835530486E+02 -0.16652749549E+01  0.47042261248E+02  0.57970601232E+02  0.00000000000E+00 0.  1.
         11    1    1    2    0    0  0.11190518457E+03 -0.18196692535E+03  0.14464193080E+03  0.25798453520E+03  0.00000000000E+00 0. -1.
</event>
<event>
 7    1  0.2788485E-009  0.1450650E+03  0.7561462E-02  0.1206672E+00
          1   -1    0    0  501    0  0.00000000000E+00  0.00000000000E+00  0.85987877366E+02  0.85987877366E+02  0.00000000000E+00 0. -1.
         -1   -1    0    0    0  501 -0.00000000000E+00 -0.00000000000E+00 -0.61383831593E+03  0.61383831593E+03  0.00000000000E+00 0.  1.
         25    2    1    2    0    0  0.11374505183E+03  0.14999342226E+02 -0.20803439567E+02  0.17100509549E+03  0.12508813894E+03 0.  0.
          5    1    3    3  502    0 -0.87215547203E+01 -0.19391013712E+02  0.27380069565E+02  0.34917295698E+02  0.41800000000E+01 0.  1.
         -5    1    3    3    0  502  0.12246660655E+03  0.34390355938E+02 -0.48183509132E+02  0.13608779980E+03  0.41800000000E+01 0.  1.
        -11    1    1    2    0    0 -0.22988063348E+01 -0.28799610794E+02 -0.46204452137E+02  0.54493609623E+02  0.00000000000E+00 0. -1.
         11    1    1    2    0    0 -0.11144624549E+03  0.13800268568E+02 -0.46084254686E+03  0.47432748818E+03  0.00000000000E+00 0.  1.
</event>
<event>
 7    1  0.2788485E-009  0.8094950E+02  0.7561462E-02  0.1326378E+00
         -2   -1    0    0    0  501 -0.00000000000E+00  0.00000000000E+00  0.73639171318E+02  0.73639171318E+02  0.00000000000E+00 0.  1.
          2   -1    0    0  501    0  0.00000000000E+00 -0.00000000000E+00 -0.19496937520E+03  0.19496937520E+03  0.00000000000E+00 0. -1.
         25    2    1    2    0    0  0.13962659878E+01  0.39063708421E+02 -0.10678383956E+03  0.16905123653E+03  0.12509040454E+03 0.  0.
          5    1    3    3  502    0  0.37573044204E+02  0.61693806054E+02 -0.24720258959E+02  0.76461905281E+02  0.41800000000E+01 0. -1.
         -5    1    3    3    0  502 -0.36176778216E+02 -0.22630097633E+02 -0.82063580599E+02  0.92589331252E+02  0.41800000000E+01 0. -1.
        -11    1    1    2    0    0  0.12057985646E+02 -0.17552915950E+02  0.36667680203E+02  0.42403049981E+02  0.00000000000E+00 0.  1.
         11    1    1    2    0    0 -0.13454251634E+02 -0.21510792470E+02 -0.51214044526E+02  0.57154260003E+02  0.00000000000E+00 0. -1.
</event>
<event>
 7    1  0.2788485E-009  0.9413974E+02  0.7561462E-02  0.1293125E+00
          2   -1    0    0  501    0  0.00000000000E+00  0.00000000000E+00  0.97050257677E+03  0.97050257677E+03  0.00000000000E+00 0. -1.
         -2   -1    0    0    0  501 -0.00000000000E+00 -0.00000000000E+00 -0.21794983415E+02  0.21794983415E+02  0.00000000000E+00 0.  1.
         25    2    1    2    0    0 -0.83308615256E+02  0.96005668302E+01  0.68844033617E+03  0.70471950028E+03  0.12508789452E+03 0.  0.
          5    1    3    3  502    0 -0.82451984465E+01 -0.19742410091E+02  0.49016021337E+03  0.49064473219E+03  0.41800000000E+01 0.  1.
         -5    1    3    3    0  502 -0.75063416810E+02  0.29342976921E+02  0.19828012280E+03  0.21407476809E+03  0.41800000000E+01 0.  1.
        -11    1    1    2    0    0  0.46387465247E+02  0.36957672856E+01  0.33246981076E+02  0.57191060303E+02  0.00000000000E+00 0.  1.
         11    1    1    2    0    0  0.36921150009E+02 -0.13296334116E+02  0.22702027611E+03  0.23038699960E+03  0.00000000000E+00 0. -1.
</event>
<event>
 7    1  0.2788485E-009  0.2207569E+03  0.7561462E-02  0.1133320E+00
         -1   -1    0    0    0  501 -0.00000000000E+00  0.00000000000E+00  0.94749426562E+02  0.94749426562E+02  0.00000000000E+00 0.  1.
          1   -1    0    0  501    0  0.00000000000E+00 -0.00000000000E+00 -0.63758774542E+03  0.63758774542E+03  0.00000000000E+00 0. -1.
         25    2    1    2    0    0  0.20302282250E+03  0.67082526648E+02 -0.36022284808E+03  0.43718029390E+03  0.12509107585E+03 0.  0.
          5    1    3    3  502    0  0.18733153440E+03  0.65514183082E+02 -0.22121486853E+03  0.29721827405E+03  0.41800000000E+01 0.  1.
         -5    1    3    3    0  502  0.15691288099E+02  0.15683435659E+01 -0.13900797955E+03  0.13996201986E+03  0.41800000000E+01 0.  1.
        -11    1    1    2    0    0 -0.14111433634E+03 -0.81739823638E+02 -0.10156655547E+03  0.19212084707E+03  0.00000000000E+00 0.  1.
         11    1    1    2    0    0 -0.61908486164E+02  0.14657296991E+02 -0.81048915303E+02  0.10303603101E+03  0.00000000000E+00 0. -1.
</event>
<event>
 7    1  0.2835302E-009  0.8046275E+02  0.7561462E-02  0.1327743E+00
          2   -1    0    0  501    0  0.00000000000E+00  0.00000000000E+00  0.69219807662E+03  0.69219807662E+03  0.00000000000E+00 0. -1.
         -2   -1    0    0    0  501 -0.00000000000E+00 -0.00000000000E+00 -0.30037911649E+02  0.30037911649E+02  0.00000000000E+00 0.  1.
         25    2    1    2    0    0  0.76589696842E+02  0.19780065431E+02  0.49405759143E+03  0.51574905927E+03  0.12508779252E+03 0.  0.
          5    1    3    3  502    0  0.54637177501E+02  0.57145448821E+01  0.48456898920E+03  0.48769094198E+03  0.41800000000E+01 0.  1.
         -5    1    3    3    0  502  0.21952519341E+02  0.14065520549E+02  0.94886022247E+01  0.28058117291E+02  0.41800000000E+01 0.  1.
        -11    1    1    2    0    0 -0.38853282442E+02 -0.63344321115E+01  0.16107403245E+03  0.16581479583E+03  0.00000000000E+00 0. -1.
         11    1    1    2    0    0 -0.37736414400E+02 -0.13445633320E+02  0.70285410987E+01  0.40672133177E+02  0.00000000000E+00 0.  1.
</event>
<event>
 7    1  0.2788485E-009  0.1770452E+03  0.7561462E-02  0.1170694E+00
         -2   -1    0    0    0  501 -0.00000000000E+00  0.00000000000E+00  0.98156383768E+02  0.98156383768E+02  0.00000000000E+00 0. -1.
          2   -1    0    0  501    0  0.00000000000E+00 -0.00000000000E+00 -0.42436426349E+03  0.42436426349E+03  0.00000000000E+00 0.  1.
         25    2    1    2    0    0  0.17355592227E+03 -0.69229996729E+01 -0.15992042167E+03  0.26719281573E+03  0.12509146025E+03 0.  0.
          5    1    3    3  502    0  0.15862033484E+03  0.38052017003E+01 -0.66839011505E+02  0.17222025445E+03  0.41800000000E+01 0. -1.
         -5    1    3    3    0  502  0.14935587434E+02 -0.10728201373E+02 -0.93081410166E+02  0.94972561275E+02  0.41800000000E+01 0. -1.
        -11    1    1    2    0    0 -0.14213136706E+03  0.17834357058E+02 -0.16948309296E+03  0.22190968567E+03  0.00000000000E+00 0.  1.
         11    1    1    2    0    0 -0.31424555215E+02 -0.10911357385E+02  0.31956349107E+01  0.33418145863E+02  0.00000000000E+00 0. -1.
</event>
<event>
 7    1  0.2788485E-009  0.1348892E+03  0.7561462E-02  0.1220376E+00
         -2   -1    0    0    0  501 -0.00000000000E+00  0.00000000000E+00  0.11791181854E+02  0.11791181854E+02  0.00000000000E+00 0.  1.
          2   -1    0    0  501    0  0.00000000000E+00 -0.00000000000E+00 -0.20145931622E+04  0.20145931622E+04  0.00000000000E+00 0. -1.
         25    2    1    2    0    0 -0.92316370186E+02  0.23663235070E+02 -0.14234631670E+04  0.14321231901E+04  0.12508870039E+03 0.  0.
          5    1    3    3  502    0 -0.67935271945E+02 -0.33919301192E+02 -0.42907227120E+03  0.43575934469E+03  0.41800000000E+01 0.  1.
         -5    1    3    3    0  502 -0.24381098241E+02  0.57582536262E+02 -0.99439089575E+03  0.99636384538E+03  0.41800000000E+01 0.  1.
        -11    1    1    2    0    0  0.27630552910E+02  0.34410007959E+02 -0.15793836903E+03  0.16398787917E+03  0.00000000000E+00 0.  1.
         11    1    1    2    0    0  0.64685817277E+02 -0.58073243029E+02 -0.42140044435E+03  0.43027327481E+03  0.00000000000E+00 0. -1.
</event>
<event>
 7    1  0.2788485E-009  0.1169019E+03  0.7561462E-02  0.1248297E+00
          1   -1    0    0  501    0  0.00000000000E+00  0.00000000000E+00  0.88718203284E+02  0.88718203284E+02  0.00000000000E+00 0. -1.
         -1   -1    0    0    0  501 -0.00000000000E+00 -0.00000000000E+00 -0.15968781944E+03  0.15968781944E+03  0.00000000000E+00 0.  1.
         25    2    1    2    0    0 -0.41607486377E+01 -0.46160067196E+02 -0.22359987841E+02  0.13526090301E+03  0.12508988446E+03 0.  0.
          5    1    3    3  502    0  0.10345614079E+02  0.41357080264E+02 -0.17640209697E+02  0.46325902223E+02  0.41800000000E+01 0. -1.
         -5    1    3    3    0  502 -0.14506362717E+02 -0.87517147460E+02 -0.47197781441E+01  0.88935000784E+02  0.41800000000E+01 0. -1.
        -11    1    1    2    0    0 -0.37575923908E+02 -0.29703655541E+01 -0.17072887424E+02  0.41379422592E+02  0.00000000000E+00 0.  1.
         11    1    1    2    0    0  0.41736672546E+02  0.49130432750E+02 -0.31536740887E+02  0.71765697121E+02  0.00000000000E+00 0. -1.
</event>
<event>
 7    1  0.2788485E-009  0.9394744E+02  0.7561462E-02  0.1293564E+00
          1   -1    0    0  501    0  0.00000000000E+00  0.00000000000E+00  0.15137250881E+03  0.15137250881E+03  0.00000000000E+00 0. -1.
         -1   -1    0    0    0  501 -0.00000000000E+00 -0.00000000000E+00 -0.86518202016E+02  0.86518202016E+02  0.00000000000E+00 0.  1.
         25    2    1    2    0    0  0.21623590471E+02  0.19633399932E+02  0.24012668838E+02  0.13067937363E+03  0.12508972927E+03 0.  0.
          5    1    3    3  502    0 -0.42082429911E+02  0.34885069090E+02  0.33666839465E+02  0.64333719247E+02  0.41800000000E+01 0.  1.
         -5    1    3    3    0  502  0.63706020382E+02 -0.15251669158E+02 -0.96541706265E+01  0.66345654383E+02  0.41800000000E+01 0.  1.
        -11    1    1    2    0    0  0.18942443490E+02 -0.19048651016E+02 -0.20413125256E+02  0.33739634759E+02  0.00000000000E+00 0.  1.
         11    1    1    2    0    0 -0.40566033962E+02 -0.58474891660E+00  0.61254763209E+02  0.73471702433E+02  0.00000000000E+00 0. -1.
</event>
<event>
 7    1  0.2788485E-009  0.1299289E+03  0.7561462E-02  0.1227561E+00
         -1   -1    0    0    0  501 -0.00000000000E+00  0.00000000000E+00  0.31150491167E+03  0.31150491167E+03  0.00000000000E+00 0.  1.
          1   -1    0    0  501    0  0.00000000000E+00 -0.00000000000E+00 -0.66861763608E+02  0.66861763608E+02  0.00000000000E+00 0. -1.
         25    2    1    2    0    0  0.24037782253E+01  0.93593894817E+02  0.10198661001E+03  0.18657944080E+03  0.12508006960E+03 0.  0.
          5    1    3    3  502    0 -0.42000444447E+01 -0.18778678465E+02  0.65156862947E+02  0.68067380788E+02  0.41800000000E+01 0.  1.
         -5    1    3    3    0  502  0.66038226700E+01  0.11237257328E+03  0.36829747060E+02  0.11851206001E+03  0.41800000000E+01 0.  1.
        -11    1    1    2    0    0  0.41373906922E+02 -0.33853731738E+02  0.69535051217E+02  0.87709741046E+02  0.00000000000E+00 0.  1.
         11    1    1    2    0    0 -0.43777685148E+02 -0.59740163079E+02  0.73121486834E+02  0.10407749343E+03  0.00000000000E+00 0. -1.
</event>
<event>
 7    1  0.2788485E-009  0.1044809E+03  0.7561462E-02  0.1271146E+00
          2   -1    0    0  501    0  0.00000000000E+00  0.00000000000E+00  0.50574590280E+03  0.50574590280E+03  0.00000000000E+00 0. -1.
         -2   -1    0    0    0  501 -0.00000000000E+00 -0.00000000000E+00 -0.23830046936E+02  0.23830046936E+02  0.00000000000E+00 0.  1.
         25    2    1    2    0    0  0.16812273254E+02  0.49078857396E+01  0.27642692134E+03  0.30391848073E+03  0.12509140744E+03 0.  0.
          5    1    3    3  502    0 -0.49117376295E+02 -0.15558087293E+02  0.16369678696E+03  0.17166444360E+03  0.41800000000E+01 0.  1.
         -5    1    3    3    0  502  0.65929649549E+02  0.20465973033E+02  0.11273013438E+03  0.13225403714E+03  0.41800000000E+01 0.  1.
        -11    1    1    2    0    0 -0.58537884777E+01  0.40743614642E+02  0.13359073904E+03  0.13978839197E+03  0.00000000000E+00 0. -1.
         11    1    1    2    0    0 -0.10958484776E+02 -0.45651500382E+02  0.71898195488E+02  0.85869077031E+02  0.00000000000E+00 0.  1.
</event>
<event>
 7    1  0.2788485E-009  0.1124821E+03  0.7561462E-02  0.1256041E+00
         -4   -1    0    0    0  501 -0.00000000000E+00  0.00000000000E+00  0.86519267737E+02  0.86519267737E+02  0.00000000000E+00 0.  1.
          4   -1    0    0  501    0  0.00000000000E+00 -0.00000000000E+00 -0.23072049677E+03  0.23072049677E+03  0.00000000000E+00 0. -1.
         25    2    1    2    0    0 -0.75095815193E+02  0.57905902000E+02 -0.67437021603E+02  0.17084467924E+03  0.12509067749E+03 0.  0.
          5    1    3    3  502    0 -0.28402896475E+02  0.32293280329E+01  0.35150611374E+02  0.45499351289E+02  0.41800000000E+01 0.  1.
         -5    1    3    3    0  502 -0.46692918718E+02  0.54676573967E+02 -0.10258763298E+03  0.12534532795E+03  0.41800000000E+01 0.  1.
        -11    1    1    2    0    0  0.89014699018E+02 -0.63190641893E+02 -0.62566185757E+02  0.12582210245E+03  0.00000000000E+00 0.  1.
         11    1    1    2    0    0 -0.13918883825E+02  0.52847398932E+01 -0.14198021673E+02  0.20572982820E+02  0.00000000000E+00 0. -1.
</event>
<event>
 7    1  0.2788485E-009  0.1597795E+03  0.7561462E-02  0.1188946E+00
          2   -1    0    0  501    0  0.00000000000E+00  0.00000000000E+00  0.17083213075E+03  0.17083213075E+03  0.00000000000E+00 0. -1.
         -2   -1    0    0    0  501 -0.00000000000E+00 -0.00000000000E+00 -0.22342551667E+03  0.22342551667E+03  0.00000000000E+00 0.  1.
         25    2    1    2    0    0 -0.11085922565E+03  0.48250170725E+02 -0.13650801924E+03  0.22112875683E+03  0.12508253633E+03 0.  0.
          5    1    3    3  502    0  0.17376669452E+02 -0.20949783399E+02 -0.29046144132E+02  0.40024904181E+02  0.41800000000E+01 0.  1.
         -5    1    3    3    0  502 -0.12823589510E+03  0.69199954125E+02 -0.10746187511E+03  0.18110385265E+03  0.41800000000E+01 0.  1.
        -11    1    1    2    0    0  0.79785763343E+02 -0.71737646309E+02  0.40199431368E+02  0.11457771255E+03  0.00000000000E+00 0.  1.
         11    1    1    2    0    0  0.31073462307E+02  0.23487475583E+02  0.43715201948E+02  0.58551178045E+02  0.00000000000E+00 0. -1.
</event>
<event>
 7    1  0.2788485E-009  0.2196431E+03  0.7561462E-02  0.1134149E+00
         -1   -1    0    0    0  501 -0.00000000000E+00  0.00000000000E+00  0.44211599602E+02  0.44211599602E+02  0.00000000000E+00 0.  1.
          1   -1    0    0  501    0  0.00000000000E+00 -0.00000000000E+00 -0.11926038785E+04  0.11926038785E+04  0.00000000000E+00 0. -1.
         25    2    1    2    0    0  0.13750569503E+03 -0.14252697424E+03 -0.49516161602E+03  0.54777173000E+03  0.12508831940E+03 0.  0.
          5    1    3    3  502    0 -0.85335274079E+01 -0.41701824409E+02 -0.18983273985E+03  0.19459137897E+03  0.41800000000E+01 0. -1.
         -5    1    3    3    0  502  0.14603922244E+03 -0.10082514983E+03 -0.30532887617E+03  0.35318035103E+03  0.41800000000E+01 0. -1.
        -11    1    1    2    0    0 -0.50253188688E+02 -0.18743552084E+01 -0.13661314576E+03  0.14557488717E+03  0.00000000000E+00 0. -1.
         11    1    1    2    0    0 -0.87252506344E+02  0.14440132945E+03 -0.51661751710E+03  0.54346886091E+03  0.00000000000E+00 0.  1.
</event>
<event>
 7    1  0.2788485E-009  0.2330119E+03  0.7561462E-02  0.1124538E+00
          3   -1    0    0  501    0  0.00000000000E+00  0.00000000000E+00  0.37298832658E+03  0.37298832658E+03  0.00000000000E+00 0. -1.
         -3   -1    0    0    0  501 -0.00000000000E+00 -0.00000000000E+00 -0.16546740385E+03  0.16546740385E+03  0.00000000000E+00 0.  1.
         25    2    1    2    0    0  0.32997467054E+02 -0.20560874536E+03  0.21151564028E+02  0.24384149274E+03  0.12508995132E+03 0.  0.
          5    1    3    3  502    0 -0.33751328125E+02 -0.14634959953E+03  0.32628666735E+02  0.15375129178E+03  0.41800000000E+01 0.  1.
         -5    1    3    3    0  502  0.66748795178E+02 -0.59259145837E+02 -0.11477102707E+02  0.90090200963E+02  0.41800000000E+01 0.  1.
        -11    1    1    2    0    0 -0.61098707488E+02  0.17245062574E+03  0.13527405989E+03  0.22753316605E+03  0.00000000000E+00 0.  1.
         11    1    1    2    0    0  0.28101240435E+02  0.33158119622E+02  0.51095298809E+02  0.67081071631E+02  0.00000000000E+00 0. -1.
</event>
<event>
 7    1  0.2788485E-009  0.6703796E+02  0.7561462E-02  0.1370465E+00
          1   -1    0    0  501    0  0.00000000000E+00  0.00000000000E+00  0.57343016773E+03  0.57343016773E+03  0.00000000000E+00 0. -1.
         -1   -1    0    0    0  501 -0.00000000000E+00 -0.00000000000E+00 -0.24706549900E+02  0.24706549900E+02  0.00000000000E+00 0.  1.
         25    2    1    2    0    0 -0.95760801387E+01  0.15678419876E+02  0.41233620741E+03  0.43128450062E+03  0.12509060067E+03 0.  0.
          5    1    3    3  502    0  0.22988365751E+01  0.37789698177E+02  0.40203348415E+03  0.40383380333E+03  0.41800000000E+01 0. -1.
         -5    1    3    3    0  502 -0.11874916714E+02 -0.22111278301E+02  0.10302723259E+02  0.27450697288E+02  0.41800000000E+01 0. -1.
        -11    1    1    2    0    0 -0.29591275823E+02 -0.75767592259E+01  0.68824816840E+01  0.31311650217E+02  0.00000000000E+00 0.  1.
         11    1    1    2    0    0  0.39167355962E+02 -0.81016606500E+01  0.12950492874E+03  0.13554056679E+03  0.00000000000E+00 0. -1.
</event>
<event>
 7    1  0.2788485E-009  0.1537988E+03  0.7561462E-02  0.1195881E+00
         -2   -1    0    0    0  501 -0.00000000000E+00  0.00000000000E+00  0.30108265597E+02  0.30108265597E+02  0.00000000000E+00 0.  1.
          2   -1    0    0  501    0  0.00000000000E+00 -0.00000000000E+00 -0.88003429970E+03  0.88003429970E+03  0.00000000000E+00 0. -1.
         25    2    1    2    0    0 -0.31106658558E+01  0.12713534977E+03 -0.46380480837E+03  0.49692644173E+03  0.12509162571E+03 0.  0.
          5    1    3    3  502    0  0.51994479616E+02  0.16890872125E+02 -0.15475878660E+03  0.16418429249E+03  0.41800000000E+01 0.  1.
         -5    1    3    3    0  502 -0.55105145472E+02  0.11024447765E+03 -0.30904602177E+03  0.33274214924E+03  0.41800000000E+01 0.  1.
        -11    1    1    2    0    0  0.13564740799E+02 -0.82312593613E+02 -0.33127131785E+03  0.34161389212E+03  0.00000000000E+00 0. -1.
         11    1    1    2    0    0 -0.10454074943E+02 -0.44822756161E+02 -0.54849907891E+02  0.71602231449E+02  0.00000000000E+00 0.  1.
</event>
<event>
 7    1  0.2788485E-009  0.1375831E+03  0.7561462E-02  0.1216619E+00
         -3   -1    0    0    0  501 -0.00000000000E+00  0.00000000000E+00  0.15758857262E+03  0.15758857262E+03  0.00000000000E+00 0.  1.
          3   -1    0    0  501    0  0.00000000000E+00 -0.00000000000E+00 -0.19466739955E+03  0.19466739955E+03  0.00000000000E+00 0. -1.
         25    2    1    2    0    0  0.13335011631E+03  0.32400871528E+02 -0.96427734572E+01  0.18593774749E+03  0.12509113824E+03 0.  0.
          5    1    3    3  502    0  0.77380927706E+02  0.23432384213E+02 -0.67075610147E+02  0.10513560044E+03  0.41800000000E+01 0.  1.
         -5    1    3    3    0  502  0.55969188602E+02  0.89684873147E+01  0.57432836690E+02  0.80802147049E+02  0.41800000000E+01 0.  1.
        -11    1    1    2    0    0 -0.85071681959E+02 -0.23727923420E+02 -0.60597989132E+02  0.10710892450E+03  0.00000000000E+00 0.  1.
         11    1    1    2    0    0 -0.48278434349E+02 -0.86729481077E+01  0.33161935654E+02  0.59209300185E+02  0.00000000000E+00 0. -1.
</event>
<event>
 7    1  0.2788485E-009  0.1079278E+03  0.7561462E-02  0.1264456E+00
          2   -1    0    0  501    0  0.00000000000E+00  0.00000000000E+00  0.31189271148E+03  0.31189271148E+03  0.00000000000E+00 0. -1.
         -2   -1    0    0    0  501 -0.00000000000E+00 -0.00000000000E+00 -0.45547069581E+02  0.45547069581E+02  0.00000000000E+00 0.  1.
         25    2    1    2    0    0 -0.27916347883E+02 -0.33895491174E+02  0.10451503947E+03  0.16881644818E+03  0.12508945958E+03 0.  0.
          5    1    3    3  502    0 -0.72529155208E+02  0.18375324518E+01  0.41707353014E+02  0.83790396682E+02  0.41800000000E+01 0. -1.
         -5    1    3    3    0  502  0.44612807325E+02 -0.35733023625E+02  0.62807686461E+02  0.85026051498E+02  0.41800000000E+01 0. -1.
        -11    1    1    2    0    0 -0.17592507778E+02  0.36258410019E+02  0.33382777400E+02  0.52331428931E+02  0.00000000000E+00 0. -1.
         11    1    1    2    0    0  0.45508855661E+02 -0.23629188448E+01  0.12844782503E+03  0.13629190395E+03  0.00000000000E+00 0.  1.
</event>
<event>
 7    1  0.2788485E-009  0.1476734E+03  0.7561462E-02  0.1203361E+00
         -1   -1    0    0    0  501 -0.00000000000E+00  0.00000000000E+00  0.10131836121E+03  0.10131836121E+03  0.00000000000E+00 0.  1.
          1   -1    0    0  501    0  0.00000000000E+00 -0.00000000000E+00 -0.32011370261E+03  0.32011370261E+03  0.00000000000E+00 0. -1.
         25    2    1    2    0    0 -0.11944683861E+03  0.44907839447E+02 -0.19344912984E+03  0.26335164939E+03  0.12508902472E+03 0.  0.
          5    1    3    3  502    0 -0.95409948211E+01  0.36387465710E+02  0.30845360354E+01  0.37974531012E+02  0.41800000000E+01 0. -1.
         -5    1    3    3    0  502 -0.10990584379E+03  0.85203737368E+01 -0.19653366587E+03  0.22537711838E+03  0.41800000000E+01 0. -1.
        -11    1    1    2    0    0  0.82862115434E+02  0.75746070076E+01  0.11897332959E+02  0.84053859977E+02  0.00000000000E+00 0. -1.
         11    1    1    2    0    0  0.36584723175E+02 -0.52482446455E+02 -0.37243544526E+02  0.74026554456E+02  0.00000000000E+00 0.  1.
</event>
<event>
 7    1  0.2788485E-009  0.1567303E+03  0.7561462E-02  0.1192438E+00
         -3   -1    0    0    0  501 -0.00000000000E+00  0.00000000000E+00  0.53693101782E+03  0.53693101782E+03  0.00000000000E+00 0.  1.
          3   -1    0    0  501    0  0.00000000000E+00 -0.00000000000E+00 -0.55772543799E+02  0.55772543799E+02  0.00000000000E+00 0. -1.
         25    2    1    2    0    0  0.78889160744E+02  0.10079734686E+03  0.32855661153E+03  0.37413986927E+03  0.12509032729E+03 0.  0.
          5    1    3    3  502    0  0.92470288261E+02  0.10731103997E+03  0.32929006410E+03  0.35849104902E+03  0.41800000000E+01 0.  1.
         -5    1    3    3    0  502 -0.13581127517E+02 -0.65136931056E+01 -0.73345257768E+00  0.15648820249E+02  0.41800000000E+01 0.  1.
        -11    1    1    2    0    0 -0.39955201713E+02 -0.10920079617E+03  0.11994493907E+03  0.16705693770E+03  0.00000000000E+00 0.  1.
         11    1    1    2    0    0 -0.38933959031E+02  0.84034493076E+01  0.32656923428E+02  0.51506754643E+02  0.00000000000E+00 0. -1.
</event>
<event>
 7    1  0.2788485E-009  0.1455515E+03  0.7561462E-02  0.1206048E+00
          1   -1    0    0  501    0  0.00000000000E+00  0.00000000000E+00  0.38342696083E+03  0.38342696083E+03  0.00000000000E+00 0. -1.
         -1   -1    0    0    0  501 -0.00000000000E+00 -0.00000000000E+00 -0.67695670031E+02  0.67695670031E+02  0.00000000000E+00 0.  1.
         25    2    1    2    0    0 -0.10536513187E+03 -0.49703000410E+02  0.13768966433E+03  0.21949393367E+03  0.12508774517E+03 0.  0.
          5    1    3    3  502    0 -0.22952250555E+02 -0.56771470396E+02  0.12002757146E+03  0.13481059294E+03  0.41800000000E+01 0.  1.
         -5    1    3    3    0  502 -0.82412881310E+02  0.70684699859E+01  0.17662092869E+02  0.84683340737E+02  0.41800000000E+01 0.  1.
        -11    1    1    2    0    0  0.26248342757E+02 -0.26327211526E+02  0.32651650731E+02  0.49479570124E+02  0.00000000000E+00 0.  1.
         11    1    1    2    0    0  0.79116789109E+02  0.76030211936E+02  0.14538997574E+03  0.18214912707E+03  0.00000000000E+00 0. -1.
</event>
<event>
 7    1  0.2788485E-009  0.9733508E+02  0.7561462E-02  0.1286002E+00
         -2   -1    0    0    0  501 -0.00000000000E+00  0.00000000000E+00  0.35720462187E+02  0.35720462187E+02  0.00000000000E+00 0.  1.
          2   -1    0    0  501    0  0.00000000000E+00 -0.00000000000E+00 -0.35468394326E+03  0.35468394326E+03  0.00000000000E+00 0. -1.
         25    2    1    2    0    0 -0.28517836175E+02 -0.87084681947E+01 -0.16968949290E+03  0.21291022390E+03  0.12508850883E+03 0.  0.
          5    1    3    3  502    0  0.30811347983E+02  0.15379584887E+02 -0.36238054955E+01  0.34878003987E+02  0.41800000000E+01 0. -1.
         -5    1    3    3    0  502 -0.59329184158E+02 -0.24088053081E+02 -0.16606568741E+03  0.17803221992E+03  0.41800000000E+01 0. -1.
        -11    1    1    2    0    0  0.50778336807E+02  0.34766801215E+02 -0.90072154948E+02  0.10908786849E+03  0.00000000000E+00 0. -1.
         11    1    1    2    0    0 -0.22260500632E+02 -0.26058333020E+02 -0.59201833217E+02  0.68406313045E+02  0.00000000000E+00 0.  1.
</event>
<event>
 7    1  0.2788485E-009  0.1033362E+03  0.7561462E-02  0.1273433E+00
         -3   -1    0    0    0  501 -0.00000000000E+00  0.00000000000E+00  0.41855667773E+03  0.41855667773E+03  0.00000000000E+00 0.  1.
          3   -1    0    0  501    0  0.00000000000E+00 -0.00000000000E+00 -0.40321688208E+02  0.40321688208E+02  0.00000000000E+00 0. -1.
         25    2    1    2    0    0 -0.49793862854E+02 -0.36004938709E+02  0.28328207153E+03  0.31570910563E+03  0.12509085873E+03 0.  0.
          5    1    3    3  502    0 -0.22104623576E+02  0.34962138075E+02  0.19338052707E+03  0.19779905493E+03  0.41800000000E+01 0.  1.
         -5    1    3    3    0  502 -0.27689239278E+02 -0.70967076784E+02  0.89901544462E+02  0.11791005070E+03  0.41800000000E+01 0.  1.
        -11    1    1    2    0    0  0.25346628609E+02 -0.16941945060E+02 -0.14248058712E+01  0.30520667687E+02  0.00000000000E+00 0. -1.
         11    1    1    2    0    0  0.24447234245E+02  0.52946883769E+02  0.96377723864E+02  0.11264859262E+03  0.00000000000E+00 0.  1.
</event>
<event>
 7    1  0.4296785E-009  0.1466884E+03  0.7561462E-02  0.1204602E+00
          2   -1    0    0  501    0  0.00000000000E+00  0.00000000000E+00  0.37384131028E+03  0.37384131028E+03  0.00000000000E+00 0. -1.
         -2   -1    0    0    0  501 -0.00000000000E+00 -0.00000000000E+00 -0.59153964996E+02  0.59153964996E+02  0.00000000000E+00 0.  1.
         25    2    1    2    0    0  0.43211582370E+02  0.91781774911E+02  0.16516361680E+03  0.23069257363E+03  0.12509559608E+03 0.  0.
          5    1    3    3  502    0 -0.93373385777E+01  0.10456570373E+03  0.12445412049E+03  0.16287256613E+03  0.41800000000E+01 0. -1.
         -5    1    3    3    0  502  0.52548920948E+02 -0.12783928823E+02  0.40709496303E+02  0.67820007507E+02  0.41800000000E+01 0. -1.
        -11    1    1    2    0    0  0.16002513853E+01 -0.89166545812E+02  0.81553569586E+02  0.12084791437E+03  0.00000000000E+00 0.  1.
         11    1    1    2    0    0 -0.44811833755E+02 -0.26152290988E+01  0.67970158906E+02  0.81454787272E+02  0.00000000000E+00 0. -1.
</event>
<event>
 7    1  0.2788485E-009  0.1377945E+03  0.7561462E-02  0.1216328E+00
         -2   -1    0    0    0  501 -0.00000000000E+00  0.00000000000E+00  0.58522777262E+02  0.58522777262E+02  0.00000000000E+00 0.  1.
          2   -1    0    0  501    0  0.00000000000E+00 -0.00000000000E+00 -0.33426779072E+03  0.33426779072E+03  0.00000000000E+00 0. -1.
         25    2    1    2    0    0 -0.28515917626E+02  0.83902198206E+02 -0.14762264158E+03  0.21282173474E+03  0.12509160663E+03 0.  0.
          5    1    3    3  502    0 -0.65698896293E+02  0.93519690168E+01 -0.43715839495E+02  0.79576072543E+02  0.41800000000E+01 0. -1.
         -5    1    3    3    0  502  0.37182978668E+02  0.74550229189E+02 -0.10390680208E+03  0.13324566220E+03  0.41800000000E+01 0. -1.
        -11    1    1    2    0    0 -0.16528739740E+02 -0.78609491528E+02 -0.90798268181E+02  0.12123108884E+03  0.00000000000E+00 0.  1.
         11    1    1    2    0    0  0.45044657366E+02 -0.52927066782E+01 -0.37324103698E+02  0.58737744407E+02  0.00000000000E+00 0. -1.
</event>
<event>
 7    1  0.2788485E-009  0.8438454E+02  0.7561462E-02  0.1317050E+00
         -1   -1    0    0    0  501 -0.00000000000E+00  0.00000000000E+00  0.73871509726E+02  0.73871509726E+02  0.00000000000E+00 0.  1.
          1   -1    0    0  501    0  0.00000000000E+00 -0.00000000000E+00 -0.15476022173E+03  0.15476022173E+03  0.00000000000E+00 0. -1.
         25    2    1    2    0    0  0.80610559305E+01 -0.14603211324E+02 -0.44313541443E+02  0.13375211260E+03  0.12509078010E+03 0.  0.
          5    1    3    3  502    0  0.67074515737E+01 -0.69203749876E+02 -0.13656633009E+02  0.70979750131E+02  0.41800000000E+01 0.  1.
         -5    1    3    3    0  502  0.13536043568E+01  0.54600538552E+02 -0.30656908435E+02  0.62772362467E+02  0.41800000000E+01 0.  1.
        -11    1    1    2    0    0  0.16815247603E+02  0.39254612700E+01 -0.57898847980E+02  0.60418857947E+02  0.00000000000E+00 0. -1.
         11    1    1    2    0    0 -0.24876303534E+02  0.10677750054E+02  0.21323677421E+02  0.34460760910E+02  0.00000000000E+00 0.  1.
</event>
<event>
 7    1  0.2788485E-009  0.1905155E+03  0.7561462E-02  0.1157997E+00
         -2   -1    0    0    0  501 -0.00000000000E+00  0.00000000000E+00  0.40689541415E+02  0.40689541415E+02  0.00000000000E+00 0.  1.
          2   -1    0    0  501    0  0.00000000000E+00 -0.00000000000E+00 -0.10104838724E+04  0.10104838724E+04  0.00000000000E+00 0. -1.
         25    2    1    2    0    0  0.14399350078E+03 -0.74339703072E+02 -0.36080817678E+03  0.41483813556E+03  0.12509044155E+03 0.  0.
          5    1    3    3  502    0  0.98842526023E+02 -0.10644675642E+03 -0.22211772961E+03  0.26543269412E+03  0.41800000000E+01 0.  1.
         -5    1    3    3    0  502  0.45150974758E+02  0.32107053344E+02 -0.13869044717E+03  0.14940544144E+03  0.41800000000E+01 0.  1.
        -11    1    1    2    0    0 -0.89088313673E+02  0.17134597510E+01 -0.23231262802E+03  0.24881483218E+03  0.00000000000E+00 0.  1.
         11    1    1    2    0    0 -0.54905187108E+02  0.72626243321E+02 -0.37667352617E+03  0.38752044605E+03  0.00000000000E+00 0. -1.
</event>
<event>
 7    1  0.2788485E-009  0.8473519E+02  0.7561462E-02  0.1316126E+00
         -2   -1    0    0    0  501 -0.00000000000E+00  0.00000000000E+00  0.99764847246E+02  0.99764847246E+02  0.00000000000E+00 0.  1.
          2   -1    0    0  501    0  0.00000000000E+00 -0.00000000000E+00 -0.16045810416E+03  0.16045810416E+03  0.00000000000E+00 0. -1.
         25    2    1    2    0    0 -0.42987303231E+01  0.10168570915E+02  0.32665486365E+02  0.12975695743E+03  0.12509178664E+03 0.  0.
          5    1    3    3  502    0 -0.37466236321E+02 -0.45999815828E+02  0.85464538565E+01  0.60085074634E+02  0.41800000000E+01 0. -1.
         -5    1    3    3    0  502  0.33167505997E+02  0.56168386743E+02  0.24119032508E+02  0.69671882797E+02  0.41800000000E+01 0. -1.
        -11    1    1    2    0    0  0.37938915473E+01  0.17020672803E+02  0.12315561770E+02  0.21348769928E+02  0.00000000000E+00 0.  1.
         11    1    1    2    0    0  0.50483877577E+00 -0.27189243718E+02 -0.10567430505E+03  0.10911722405E+03  0.00000000000E+00 0. -1.
</event>
<event>
 7    1  0.2788485E-009  0.9671226E+02  0.7561462E-02  0.1287366E+00
          2   -1    0    0  501    0  0.00000000000E+00  0.00000000000E+00  0.25975027836E+03  0.25975027836E+03  0.00000000000E+00 0.  1.
         -2   -1    0    0    0  501 -0.00000000000E+00 -0.00000000000E+00 -0.50433806884E+02  0.50433806884E+02  0.00000000000E+00 0. -1.
         25    2    1    2    0    0  0.28846492511E+02 -0.43475706078E+01  0.88348370444E+02  0.15589703773E+03  0.12508968908E+03 0.  0.
          5    1    3    3  502    0  0.43507787580E+02  0.47986453163E+02  0.76112752432E+02  0.10003124887E+03  0.41800000000E+01 0.  1.
         -5    1    3    3    0  502 -0.14661295069E+02 -0.52334023771E+02  0.12235618012E+02  0.55865788863E+02  0.41800000000E+01 0.  1.
        -11    1    1    2    0    0  0.13497536353E+02  0.23836730239E+02  0.31384680675E+01  0.27572144964E+02  0.00000000000E+00 0. -1.
         11    1    1    2    0    0 -0.42344028864E+02 -0.19489159631E+02  0.11782963296E+03  0.12671490255E+03  0.00000000000E+00 0.  1.
</event>
<event>
 7    1  0.2788485E-009  0.8378728E+02  0.7561462E-02  0.1318635E+00
         -1   -1    0    0    0  501 -0.00000000000E+00  0.00000000000E+00  0.53908521362E+02  0.53908521362E+02  0.00000000000E+00 0.  1.
          1   -1    0    0  501    0  0.00000000000E+00 -0.00000000000E+00 -0.25637003116E+03  0.25637003116E+03  0.00000000000E+00 0. -1.
         25    2    1    2    0    0 -0.76052287106E+01  0.38954423081E+02 -0.72559935184E+02  0.14996067575E+03  0.12509186024E+03 0.  0.
          5    1    3    3  502    0 -0.36214458945E+02 -0.27890704317E+02 -0.60810240293E+02  0.76188819052E+02  0.41800000000E+01 0.  1.
         -5    1    3    3    0  502  0.28609230234E+02  0.66845127397E+02 -0.11749694890E+02  0.73771856703E+02  0.41800000000E+01 0.  1.
        -11    1    1    2    0    0  0.18132092604E+02 -0.18879867511E+02  0.22155655372E+01  0.26270342786E+02  0.00000000000E+00 0.  1.
         11    1    1    2    0    0 -0.10526863893E+02 -0.20074555570E+02 -0.13211714016E+03  0.13404753399E+03  0.00000000000E+00 0. -1.
</event>
<event>
 7    1  0.2788485E-009  0.8417640E+02  0.7561462E-02  0.1317600E+00
          1   -1    0    0  501    0  0.00000000000E+00  0.00000000000E+00  0.10545809130E+03  0.10545809130E+03  0.00000000000E+00 0. -1.
         -1   -1    0    0    0  501 -0.00000000000E+00 -0.00000000000E+00 -0.22233107844E+03  0.22233107844E+03  0.00000000000E+00 0.  1.
         25    2    1    2    0    0 -0.15826542833E+02 -0.78073146313E+02 -0.14130118215E+03  0.20484515765E+03  0.12509843686E+03 0.  0.
          5    1    3    3  502    0 -0.13220453364E+02 -0.14001710962E+02  0.21892848380E+02  0.29455008185E+02  0.41800000000E+01 0.  1.
         -5    1    3    3    0  502 -0.26060894690E+01 -0.64071435351E+02 -0.16319403053E+03  0.17539014947E+03  0.41800000000E+01 0.  1.
        -11    1    1    2    0    0  0.55090330329E+01  0.72406390819E+02 -0.21339928226E+02  0.75686375346E+02  0.00000000000E+00 0.  1.
         11    1    1    2    0    0  0.10317509800E+02  0.56667554946E+01  0.45768123227E+02  0.47257636738E+02  0.00000000000E+00 0. -1.
</event>
<event>
 7    1  0.2788485E-009  0.6313985E+02  0.7561462E-02  0.1385108E+00
         -1   -1    0    0    0  501 -0.00000000000E+00  0.00000000000E+00  0.19153566703E+02  0.19153566703E+02  0.00000000000E+00 0.  1.
          1   -1    0    0  501    0  0.00000000000E+00 -0.00000000000E+00 -0.66331568692E+03  0.66331568692E+03  0.00000000000E+00 0. -1.
         25    2    1    2    0    0  0.21105675656E+02  0.16863397734E+02 -0.31118009887E+03  0.33646747748E+03  0.12508991065E+03 0.  0.
          5    1    3    3  502    0 -0.22988563133E+01  0.86375796685E+01 -0.31115336975E+03  0.31130978852E+03  0.41800000000E+01 0. -1.
         -5    1    3    3    0  502  0.23404531969E+02  0.82258180653E+01 -0.26729117422E-01  0.25157688963E+02  0.41800000000E+01 0. -1.
        -11    1    1    2    0    0 -0.49909420392E+02  0.11079166958E+02 -0.14400506875E+03  0.15281085698E+03  0.00000000000E+00 0.  1.
         11    1    1    2    0    0  0.28803744736E+02 -0.27942564692E+02 -0.18897695260E+03  0.19319091916E+03  0.00000000000E+00 0. -1.
</event>
<event>
 7    1  0.2788485E-009  0.2000700E+03  0.7561462E-02  0.1149680E+00
          1   -1    0    0  501    0  0.00000000000E+00  0.00000000000E+00  0.47983876638E+02  0.47983876638E+02  0.00000000000E+00 0. -1.
         -1   -1    0    0    0  501 -0.00000000000E+00 -0.00000000000E+00 -0.11114945802E+04  0.11114945802E+04  0.00000000000E+00 0.  1.
         25    2    1    2    0    0 -0.16154491642E+03  0.71555249307E+02 -0.82213436023E+03  0.85015849090E+03  0.12509052586E+03 0.  0.
          5    1    3    3  502    0 -0.15114845310E+03  0.16290902651E+02 -0.68882119414E+03  0.70541006392E+03  0.41800000000E+01 0. -1.
         -5    1    3    3    0  502 -0.10396463315E+02  0.55264346656E+02 -0.13331316609E+03  0.14474842698E+03  0.41800000000E+01 0. -1.
        -11    1    1    2    0    0  0.51881739049E+02  0.12656703454E+02 -0.86943828665E+02  0.10203497602E+03  0.00000000000E+00 0.  1.
         11    1    1    2    0    0  0.10966317737E+03 -0.84211952761E+02 -0.15443251469E+03  0.20728498993E+03  0.00000000000E+00 0. -1.
</event>
<event>
 7    1  0.2788485E-009  0.7030963E+03  0.7561462E-02  0.9711952E-01
          1   -1    0    0  501    0  0.00000000000E+00  0.00000000000E+00  0.45701126708E+03  0.45701126708E+03  0.00000000000E+00 0. -1.
         -1   -1    0    0    0  501 -0.00000000000E+00 -0.00000000000E+00 -0.11326177498E+04  0.11326177498E+04  0.00000000000E+00 0.  1.
         25    2    1    2    0    0  0.63553136817E+03  0.28618165025E+03 -0.18306830936E+03  0.73140871141E+03  0.12507853683E+03 0.  0.
          5    1    3    3  502    0  0.49752877134E+03  0.26924213449E+03 -0.17457969513E+03  0.59204877134E+03  0.41800000000E+01 0.  1.
         -5    1    3    3    0  502  0.13800259683E+03  0.16939515758E+02 -0.84886142309E+01  0.13935994007E+03  0.41800000000E+01 0.  1.
        -11    1    1    2    0    0 -0.59528289248E+03 -0.24483594404E+03 -0.46636798775E+03  0.79486191352E+03  0.00000000000E+00 0. -1.
         11    1    1    2    0    0 -0.40248475691E+02 -0.41345706206E+02 -0.26170185623E+02  0.63358391967E+02  0.00000000000E+00 0.  1.
</event>
<event>
 7    1  0.2788485E-009  0.1701989E+03  0.7561462E-02  0.1177641E+00
          2   -1    0    0  501    0  0.00000000000E+00  0.00000000000E+00  0.51742193913E+03  0.51742193913E+03  0.00000000000E+00 0. -1.
         -2   -1    0    0    0  501 -0.00000000000E+00 -0.00000000000E+00 -0.69949000125E+02  0.69949000125E+02  0.00000000000E+00 0.  1.
         25    2    1    2    0    0 -0.59139889765E+02 -0.12500759427E+03  0.12435437983E+03  0.22413357017E+03  0.12508964908E+03 0.  0.
          5    1    3    3  502    0  0.21590983205E+02 -0.97878337312E+02  0.78033263716E+02  0.12709446139E+03  0.41800000000E+01 0. -1.
         -5    1    3    3    0  502 -0.80730872970E+02 -0.27129256957E+02  0.46321116115E+02  0.97039108774E+02  0.41800000000E+01 0. -1.
        -11    1    1    2    0    0  0.57771063638E+00  0.82364504540E+02  0.10529625990E+03  0.13368450810E+03  0.00000000000E+00 0.  1.
         11    1    1    2    0    0  0.58562179128E+02  0.42643089728E+02  0.21782229927E+03  0.22955286098E+03  0.00000000000E+00 0. -1.
</event>
<event>
 7    1  0.2788485E-009  0.8532451E+02  0.7561462E-02  0.1314586E+00
         -3   -1    0    0    0  501 -0.00000000000E+00  0.00000000000E+00  0.19729573326E+03  0.19729573326E+03  0.00000000000E+00 0.  1.
          3   -1    0    0  501    0  0.00000000000E+00 -0.00000000000E+00 -0.80923969981E+02  0.80923969981E+02  0.00000000000E+00 0. -1.
         25    2    1    2    0    0 -0.50158613656E+02 -0.13294355977E+02  0.10827006478E+03  0.17338365631E+03  0.12508740514E+03 0.  0.
          5    1    3    3  502    0 -0.76766841709E+02  0.43220673620E+00  0.19086219481E+02  0.79215471738E+02  0.41800000000E+01 0. -1.
         -5    1    3    3    0  502  0.26608228053E+02 -0.13726562713E+02  0.89183845295E+02  0.94168184572E+02  0.41800000000E+01 0. -1.
        -11    1    1    2    0    0  0.21294990846E+02  0.24601015885E+02 -0.37530024224E+02  0.49670809697E+02  0.00000000000E+00 0. -1.
         11    1    1    2    0    0  0.28863622810E+02 -0.11306659908E+02  0.45631722728E+02  0.55165237235E+02  0.00000000000E+00 0.  1.
</event>
<event>
 7    1  0.2788485E-009  0.8160161E+02  0.7561462E-02  0.1324567E+00
         -1   -1    0    0    0  501 -0.00000000000E+00  0.00000000000E+00  0.33149858003E+03  0.33149858003E+03  0.00000000000E+00 0.  1.
          1   -1    0    0  501    0  0.00000000000E+00 -0.00000000000E+00 -0.51327502901E+02  0.51327502901E+02  0.00000000000E+00 0. -1.
         25    2    1    2    0    0  0.41443727398E+02 -0.62468061482E+02  0.16892567215E+03  0.22316570334E+03  0.12508879722E+03 0.  0.
          5    1    3    3  502    0  0.50206991362E+02 -0.47424278650E+02  0.18421816010E+02  0.71600557904E+02  0.41800000000E+01 0. -1.
         -5    1    3    3    0  502 -0.87632639643E+01 -0.15043782833E+02  0.15050385614E+03  0.15156514544E+03  0.41800000000E+01 0. -1.
        -11    1    1    2    0    0 -0.29547711052E+02  0.32812756037E+02  0.11887400881E+03  0.12680999234E+03  0.00000000000E+00 0.  1.
         11    1    1    2    0    0 -0.11896016346E+02  0.29655305445E+02 -0.76286038331E+01  0.32850387249E+02  0.00000000000E+00 0. -1.
</event>
<event>
 7    1  0.2788485E-009  0.1114258E+03  0.7561462E-02  0.1257952E+00
          1   -1    0    0  501    0  0.00000000000E+00  0.00000000000E+00  0.74584252782E+02  0.74584252782E+02  0.00000000000E+00 0. -1.
         -1   -1    0    0    0  501 -0.00000000000E+00 -0.00000000000E+00 -0.22758181566E+03  0.22758181566E+03  0.00000000000E+00 0.  1.
         25    2    1    2    0    0 -0.32005249632E+02  0.14187722057E+02 -0.10153876208E+02  0.13029357167E+03  0.12509071171E+03 0.  0.
          5    1    3    3  502    0 -0.61747716438E+01 -0.54773940485E+02  0.30447138540E+01  0.55362939261E+02  0.41800000000E+01 0.  1.
         -5    1    3    3    0  502 -0.25830477988E+02  0.68961662542E+02 -0.13198590062E+02  0.74930632409E+02  0.41800000000E+01 0.  1.
        -11    1    1    2    0    0  0.16995899179E+02  0.36868090814E+02 -0.45857254831E+02  0.61245444971E+02  0.00000000000E+00 0. -1.
         11    1    1    2    0    0  0.15009350453E+02 -0.51055812870E+02 -0.96986431835E+02  0.11062705180E+03  0.00000000000E+00 0.  1.
</event>
<event>
 7    1  0.2788485E-009  0.1045061E+03  0.7561462E-02  0.1271096E+00
          1   -1    0    0  501    0  0.00000000000E+00  0.00000000000E+00  0.50931342070E+03  0.50931342070E+03  0.00000000000E+00 0. -1.
         -1   -1    0    0    0  501 -0.00000000000E+00 -0.00000000000E+00 -0.36911015313E+02  0.36911015313E+02  0.00000000000E+00 0.  1.
         25    2    1    2    0    0  0.11829851893E+02  0.41098916058E+02  0.39760801324E+03  0.41900998030E+03  0.12509262609E+03 0.  0.
          5    1    3    3  502    0  0.32607517998E+01  0.73887492820E+02  0.36266427148E+03  0.37015245549E+03  0.41800000000E+01 0. -1.
         -5    1    3    3    0  502  0.85691000937E+01 -0.32788576762E+02  0.34943741767E+02  0.48857524816E+02  0.41800000000E+01 0. -1.
        -11    1    1    2    0    0 -0.51873550198E+02 -0.20737130707E+02  0.28531336981E+02  0.62729028289E+02  0.00000000000E+00 0. -1.
         11    1    1    2    0    0  0.40043698305E+02 -0.20361785351E+02  0.46263055163E+02  0.64485427420E+02  0.00000000000E+00 0.  1.
</event>
<event>
 7    1  0.2788485E-009  0.1361688E+03  0.7561462E-02  0.1218579E+00
         -2   -1    0    0    0  501 -0.00000000000E+00  0.00000000000E+00  0.43505422216E+03  0.43505422216E+03  0.00000000000E+00 0.  1.
          2   -1    0    0  501    0  0.00000000000E+00 -0.00000000000E+00 -0.69859380734E+02  0.69859380734E+02  0.00000000000E+00 0. -1.
         25    2    1    2    0    0 -0.54534023984E+02  0.12306973757E+03  0.19596602594E+03  0.26864775956E+03  0.12509522500E+03 0.  0.
          5    1    3    3  502    0  0.14428246954E+01  0.13340322823E+02 -0.17323135796E+02  0.22307160060E+02  0.41800000000E+01 0.  1.
         -5    1    3    3    0  502 -0.55976848679E+02  0.10972941475E+03  0.21328916174E+03  0.24634059950E+03  0.41800000000E+01 0.  1.
        -11    1    1    2    0    0  0.22730287772E+02 -0.38928892775E+02  0.13098047804E+03  0.13852079375E+03  0.00000000000E+00 0.  1.
         11    1    1    2    0    0  0.31803736212E+02 -0.84140844797E+02  0.38248337451E+02  0.97745049583E+02  0.00000000000E+00 0. -1.
</event>
<event>
 7    1  0.3039397E-009  0.9371636E+02  0.7561462E-02  0.1294094E+00
          3   -1    0    0  501    0  0.00000000000E+00  0.00000000000E+00  0.13126245260E+03  0.13126245260E+03  0.00000000000E+00 0. -1.
         -3   -1    0    0    0  501 -0.00000000000E+00 -0.00000000000E+00 -0.14656752004E+03  0.14656752004E+03  0.00000000000E+00 0.  1.
         25    2    1    2    0    0 -0.73298979013E+02  0.43581024584E+02 -0.13429122169E+02  0.15198577959E+03  0.12508912762E+03 0.  0.
          5    1    3    3  502    0 -0.78270975548E+02  0.50034014578E+02  0.37480235945E+02  0.10025960659E+03  0.41800000000E+01 0. -1.
         -5    1    3    3    0  502  0.49719965348E+01 -0.64529899946E+01 -0.50909358115E+02  0.51726172998E+02  0.41800000000E+01 0. -1.
        -11    1    1    2    0    0  0.25942009151E+02 -0.14703639126E+02  0.44484320703E+02  0.53554081364E+02  0.00000000000E+00 0. -1.
         11    1    1    2    0    0  0.47356969862E+02 -0.28877385458E+02 -0.46360265981E+02  0.72290111684E+02  0.00000000000E+00 0.  1.
</event>
<event>
 7    1  0.3940314E-009  0.1239850E+03  0.7561462E-02  0.1236664E+00
          2   -1    0    0  501    0  0.00000000000E+00  0.00000000000E+00  0.52703634258E+03  0.52703634258E+03  0.00000000000E+00 0. -1.
         -2   -1    0    0    0  501 -0.00000000000E+00 -0.00000000000E+00 -0.40277389214E+02  0.40277389214E+02  0.00000000000E+00 0.  1.
         25    2    1    2    0    0 -0.32044606689E+02 -0.89746050260E+02  0.23312278388E+03  0.28120207465E+03  0.12508862486E+03 0.  0.
          5    1    3    3  502    0  0.11350553822E+01 -0.11059634835E+03  0.20437765234E+03  0.23242318687E+03  0.41800000000E+01 0.  1.
         -5    1    3    3    0  502 -0.33179662071E+02  0.20850298093E+02  0.28745131534E+02  0.48778887776E+02  0.41800000000E+01 0.  1.
        -11    1    1    2    0    0  0.26505788826E+02  0.41012480186E+02  0.30334837561E+02  0.57487239821E+02  0.00000000000E+00 0.  1.
         11    1    1    2    0    0  0.55388178628E+01  0.48733570074E+02  0.22330133193E+03  0.22862441733E+03  0.00000000000E+00 0. -1.
</event>
<event>
 7    1  0.2788485E-009  0.1649422E+03  0.7561462E-02  0.1183227E+00
          2   -1    0    0  501    0  0.00000000000E+00  0.00000000000E+00  0.26325305160E+02  0.26325305160E+02  0.00000000000E+00 0. -1.
         -2   -1    0    0    0  501 -0.00000000000E+00 -0.00000000000E+00 -0.11285584175E+04  0.11285584175E+04  0.00000000000E+00 0.  1.
         25    2    1    2    0    0  0.11979735271E+03 -0.59648714108E+02 -0.55408468621E+03  0.58358075531E+03  0.12508910287E+03 0.  0.
          5    1    3    3  502    0  0.29865158918E+02 -0.75354813698E+02 -0.16467402732E+03  0.18358998704E+03  0.41800000000E+01 0.  1.
         -5    1    3    3    0  502  0.89932193790E+02  0.15706099590E+02 -0.38941065889E+03  0.39999076827E+03  0.41800000000E+01 0.  1.
        -11    1    1    2    0    0 -0.59079466146E+02  0.74245096324E+02 -0.38741378724E+03  0.39886358594E+03  0.00000000000E+00 0. -1.
         11    1    1    2    0    0 -0.60717886562E+02 -0.14596382216E+02 -0.16073463884E+03  0.17243938136E+03  0.00000000000E+00 0.  1.
</event>
<event>
 7    1  0.2788485E-009  0.1892174E+03  0.7561462E-02  0.1159169E+00
         -2   -1    0    0    0  501 -0.00000000000E+00  0.00000000000E+00  0.54841273650E+02  0.54841273650E+02  0.00000000000E+00 0.  1.
          2   -1    0    0  501    0  0.00000000000E+00 -0.00000000000E+00 -0.86744939889E+03  0.86744939889E+03  0.00000000000E+00 0. -1.
         25    2    1    2    0    0 -0.15077737286E+03  0.94609924557E+02 -0.28602707191E+03  0.35936602437E+03  0.12509036577E+03 0.  0.
          5    1    3    3  502    0 -0.12822318402E+02  0.12206555897E+00  0.11711093805E+02  0.17861939069E+02  0.41800000000E+01 0.  1.
         -5    1    3    3    0  502 -0.13795505446E+03  0.94487858999E+02 -0.29773816572E+03  0.34150408530E+03  0.41800000000E+01 0.  1.
        -11    1    1    2    0    0  0.11714695930E+03 -0.11000298070E+03 -0.40070722955E+03  0.43172948666E+03  0.00000000000E+00 0. -1.
         11    1    1    2    0    0  0.33630413560E+02  0.15393056141E+02 -0.12587382378E+03  0.13119516152E+03  0.00000000000E+00 0.  1.
</event>
<event>
 7    1  0.2788485E-009  0.9749878E+02  0.7561462E-02  0.1285645E+00
         -2   -1    0    0    0  501 -0.00000000000E+00  0.00000000000E+00  0.18953725774E+02  0.18953725774E+02  0.00000000000E+00 0.  1.
          2   -1    0    0  501    0  0.00000000000E+00 -0.00000000000E+00 -0.82309141943E+03  0.82309141943E+03  0.00000000000E+00 0. -1.
         25    2    1    2    0    0  0.41887143501E+02  0.44453689982E+02 -0.44413293644E+03  0.46543880560E+03  0.12509417723E+03 0.  0.
          5    1    3    3  502    0  0.15933571666E+02 -0.23735342821E+02 -0.32066267436E+03  0.32196159450E+03  0.41800000000E+01 0. -1.
         -5    1    3    3    0  502  0.25953571834E+02  0.68189032803E+02 -0.12347026209E+03  0.14347721110E+03  0.41800000000E+01 0. -1.
        -11    1    1    2    0    0 -0.31259916941E+02  0.13539709375E+02 -0.46714608998E+02  0.57816613797E+02  0.00000000000E+00 0.  1.
         11    1    1    2    0    0 -0.10627226559E+02 -0.57993399357E+02 -0.31329014822E+03  0.31878972581E+03  0.00000000000E+00 0. -1.
</event>
<event>
 7    1  0.2788485E-009  0.1073079E+03  0.7561462E-02  0.1265638E+00
          2   -1    0    0  501    0  0.00000000000E+00  0.00000000000E+00  0.46463885305E+03  0.46463885305E+03  0.00000000000E+00 0. -1.
         -2   -1    0    0    0  501 -0.00000000000E+00 -0.00000000000E+00 -0.39432124150E+02  0.39432124150E+02  0.00000000000E+00 0.  1.
         25    2    1    2    0    0  0.78846352128E+02 -0.11598886457E+02  0.20646995715E+03  0.25421996264E+03  0.12508662913E+03 0.  0.
          5    1    3    3  502    0  0.51677578584E+02  0.21556750095E+02  0.15212918692E+02  0.58173627170E+02  0.41800000000E+01 0.  1.
         -5    1    3    3    0  502  0.27168773544E+02 -0.33155636553E+02  0.19125703846E+03  0.19604633547E+03  0.41800000000E+01 0.  1.
        -11    1    1    2    0    0 -0.31800586086E+02 -0.36299791094E+02  0.12934353800E+03  0.13805326122E+03  0.00000000000E+00 0. -1.
         11    1    1    2    0    0 -0.47045766041E+02  0.47898677551E+02  0.89393233745E+02  0.11179775335E+03  0.00000000000E+00 0.  1.
</event>
<event>
 7    1  0.2788485E-009  0.7358383E+02  0.7561462E-02  0.1348313E+00
          2   -1    0    0  501    0  0.00000000000E+00  0.00000000000E+00  0.26853643378E+03  0.26853643378E+03  0.00000000000E+00 0. -1.
         -2   -1    0    0    0  501 -0.00000000000E+00 -0.00000000000E+00 -0.12960664298E+03  0.12960664298E+03  0.00000000000E+00 0.  1.
         25    2    1    2    0    0 -0.52893596404E+01  0.35755703912E+02 -0.83446616132E+02  0.15465769378E+03  0.12509682975E+03 0.  0.
          5    1    3    3  502    0 -0.11613939501E+02 -0.13655693797E+02  0.27429440963E+02  0.33033440562E+02  0.41800000000E+01 0. -1.
         -5    1    3    3    0  502  0.63245798609E+01  0.49411397709E+02 -0.11087605709E+03  0.12162425322E+03  0.41800000000E+01 0. -1.
        -11    1    1    2    0    0  0.15628987214E+01 -0.57090976450E+02  0.21183325803E+03  0.21939724578E+03  0.00000000000E+00 0. -1.
         11    1    1    2    0    0  0.37264609191E+01  0.21335272538E+02  0.10543148902E+02  0.24088137205E+02  0.00000000000E+00 0.  1.
</event>
<event>
 7    1  0.2788485E-009  0.9649282E+02  0.7561462E-02  0.1287849E+00
         -2   -1    0    0    0  501 -0.00000000000E+00  0.00000000000E+00  0.98068255918E+02  0.98068255918E+02  0.00000000000E+00 0.  1.
          2   -1    0    0  501    0  0.00000000000E+00 -0.00000000000E+00 -0.15415581430E+03  0.15415581430E+03  0.00000000000E+00 0. -1.
         25    2    1    2    0    0 -0.16676489161E+02 -0.51133389221E+02 -0.55769942285E+02  0.14714128226E+03  0.12509013429E+03 0.  0.
          5    1    3    3  502    0 -0.60275093473E+02 -0.45805261598E+02 -0.67471793050E+02  0.10149445374E+03  0.41800000000E+01 0.  1.
         -5    1    3    3    0  502  0.43598604312E+02 -0.53281276228E+01  0.11701850766E+02  0.45646828513E+02  0.41800000000E+01 0.  1.
        -11    1    1    2    0    0 -0.99937802036E+01 -0.47932030593E+01 -0.33155097943E+02  0.34958703608E+02  0.00000000000E+00 0. -1.
         11    1    1    2    0    0  0.26670269365E+02  0.55926592280E+02  0.32837481848E+02  0.70124084352E+02  0.00000000000E+00 0.  1.
</event>
<event>
 7    1  0.2788485E-009  0.8646083E+02  0.7561462E-02  0.1311656E+00
         -1   -1    0    0    0  501 -0.00000000000E+00  0.00000000000E+00  0.17272398920E+04  0.17272398920E+04  0.00000000000E+00 0.  1.
          1   -1    0    0  501    0  0.00000000000E+00 -0.00000000000E+00 -0.93594411661E+01  0.93594411661E+01  0.00000000000E+00 0. -1.
         25    2    1    2    0    0 -0.13472503785E+02 -0.20508042439E+02  0.13874688578E+04  0.13933122826E+04  0.12508875737E+03 0.  0.
          5    1    3    3  502    0 -0.44835421221E-01 -0.48386774788E+02  0.21456812233E+03  0.21999598520E+03  0.41800000000E+01 0.  1.
         -5    1    3    3    0  502 -0.13427668364E+02  0.27878732349E+02  0.11729007355E+04  0.11733162974E+04  0.41800000000E+01 0.  1.
        -11    1    1    2    0    0  0.49542153017E+02 -0.37148569185E+01  0.17438690310E+03  0.18132572091E+03  0.00000000000E+00 0.  1.
         11    1    1    2    0    0 -0.36069649232E+02  0.24222899357E+02  0.15602468994E+03  0.16196132970E+03  0.00000000000E+00 0. -1.
</event>
<event>
 7    1  0.2788485E-009  0.1395997E+03  0.7561462E-02  0.1213869E+00
         -2   -1    0    0    0  501 -0.00000000000E+00  0.00000000000E+00  0.26709004254E+02  0.26709004254E+02  0.00000000000E+00 0.  1.
          2   -1    0    0  501    0  0.00000000000E+00 -0.00000000000E+00 -0.75193671504E+03  0.75193671504E+03  0.00000000000E+00 0. -1.
         25    2    1    2    0    0 -0.84329318191E+02 -0.30941892369E+02 -0.40009072484E+03  0.42870606764E+03  0.12508984657E+03 0.  0.
          5    1    3    3  502    0  0.25485513932E+02 -0.34796371495E+02 -0.95411450735E+02  0.10479082126E+03  0.41800000000E+01 0. -1.
         -5    1    3    3    0  502 -0.10981483212E+03  0.38544791254E+01 -0.30467927411E+03  0.32391524638E+03  0.41800000000E+01 0. -1.
        -11    1    1    2    0    0  0.38352995701E+02 -0.30614370967E+02 -0.16807728206E+03  0.17509473074E+03  0.00000000000E+00 0. -1.
         11    1    1    2    0    0  0.45976322490E+02  0.61556263336E+02 -0.15705970388E+03  0.17484492092E+03  0.00000000000E+00 0.  1.
</event>
<event>
 7    1  0.2788485E-009  0.1324490E+03  0.7561462E-02  0.1223866E+00
          2   -1    0    0  501    0  0.00000000000E+00  0.00000000000E+00  0.15828027592E+02  0.15828027592E+02  0.00000000000E+00 0. -1.
         -2   -1    0    0    0  501 -0.00000000000E+00 -0.00000000000E+00 -0.13087692988E+04  0.13087692988E+04  0.00000000000E+00 0.  1.
         25    2    1    2    0    0 -0.83499170383E+02  0.48154438725E+01 -0.91194658136E+03  0.92427786482E+03  0.12509078383E+03 0.  0.
          5    1    3    3  502    0 -0.26299115419E+02 -0.57128715425E+02 -0.48377094553E+03  0.48785974802E+03  0.41800000000E+01 0.  1.
         -5    1    3    3    0  502 -0.57200054964E+02  0.61944159297E+02 -0.42817563582E+03  0.43641811680E+03  0.41800000000E+01 0.  1.
        -11    1    1    2    0    0  0.74073865338E+02  0.31085636241E+02 -0.19946398987E+03  0.21503287553E+03  0.00000000000E+00 0.  1.
         11    1    1    2    0    0  0.94253050450E+01 -0.35901080113E+02 -0.18153070003E+03  0.18528658608E+03  0.00000000000E+00 0. -1.
</event>
<event>
 7    1  0.2788485E-009  0.1141579E+03  0.7561462E-02  0.1253058E+00
         -2   -1    0    0    0  501 -0.00000000000E+00  0.00000000000E+00  0.52294062453E+02  0.52294062453E+02  0.00000000000E+00 0.  1.
          2   -1    0    0  501    0  0.00000000000E+00 -0.00000000000E+00 -0.41936117377E+03  0.41936117377E+03  0.00000000000E+00 0. -1.
         25    2    1    2    0    0  0.44525502636E+02 -0.81496678750E+02 -0.13673891932E+03  0.20728882624E+03  0.12508755492E+03 0.  0.
          5    1    3    3  502    0  0.29768496272E+02 -0.74182975413E+01  0.17450444976E+02  0.35541313123E+02  0.41800000000E+01 0.  1.
         -5    1    3    3    0  502  0.14757006364E+02 -0.74078381209E+02 -0.15418936430E+03  0.17174751312E+03  0.41800000000E+01 0.  1.
        -11    1    1    2    0    0 -0.66753977676E+02  0.51203389358E+02 -0.19672139188E+03  0.21395603904E+03  0.00000000000E+00 0.  1.
         11    1    1    2    0    0  0.22228475040E+02  0.30293289392E+02 -0.33606800114E+02  0.50410370944E+02  0.00000000000E+00 0. -1.
</event>
<event>
 7    1  0.2788485E-009  0.1103236E+03  0.7561462E-02  0.1259972E+00
          1   -1    0    0  501    0  0.00000000000E+00  0.00000000000E+00  0.91264471942E+03  0.91264471942E+03  0.00000000000E+00 0. -1.
         -1   -1    0    0    0  501 -0.00000000000E+00 -0.00000000000E+00 -0.22436491233E+02  0.22436491233E+02  0.00000000000E+00 0.  1.
         25    2    1    2    0    0  0.34599574912E+02  0.81428739196E+02  0.57633602670E+03  0.59635276237E+03  0.12508249821E+03 0.  0.
          5    1    3    3  502    0  0.18550144064E+02  0.10848920151E+02  0.78426910876E+01  0.23254829966E+02  0.41800000000E+01 0. -1.
         -5    1    3    3    0  502  0.16049430848E+02  0.70579819045E+02  0.56849333561E+03  0.57309793240E+03  0.41800000000E+01 0. -1.
        -11    1    1    2    0    0 -0.54221372354E+02 -0.13961672082E+02  0.11733255423E+03  0.13000697593E+03  0.00000000000E+00 0.  1.
         11    1    1    2    0    0  0.19621797442E+02 -0.67467067114E+02  0.19653964725E+03  0.20872147236E+03  0.00000000000E+00 0. -1.
</event>
<event>
 7    1  0.2788485E-009  0.1562596E+03  0.7561462E-02  0.1192986E+00
          1   -1    0    0  501    0  0.00000000000E+00  0.00000000000E+00  0.87509412392E+02  0.87509412392E+02  0.00000000000E+00 0. -1.
         -1   -1    0    0    0  501 -0.00000000000E+00 -0.00000000000E+00 -0.34048641330E+03  0.34048641330E+03  0.00000000000E+00 0.  1.
         25    2    1    2    0    0  0.63319409476E+02 -0.11417043845E+03 -0.92005371096E+02  0.20287050077E+03  0.12508882899E+03 0.  0.
          5    1    3    3  502    0  0.66940090554E+02 -0.15254521181E+02 -0.16785555373E+01  0.68803823212E+02  0.41800000000E+01 0.  1.
         -5    1    3    3    0  502 -0.36206810789E+01 -0.98915917273E+02 -0.90326815559E+02  0.13406667755E+03  0.41800000000E+01 0.  1.
        -11    1    1    2    0    0 -0.75974706096E+02  0.94156009638E+02 -0.16106738707E+03  0.20144531092E+03  0.00000000000E+00 0.  1.
         11    1    1    2    0    0  0.12655296620E+02  0.20014428817E+02  0.95757258519E-01  0.23680013996E+02  0.00000000000E+00 0. -1.
</event>
<event>
 7    1  0.2788485E-009  0.9849016E+02  0.7561462E-02  0.1283503E+00
         -2   -1    0    0    0  501 -0.00000000000E+00  0.00000000000E+00  0.19282103247E+03  0.19282103247E+03  0.00000000000E+00 0.  1.
          2   -1    0    0  501    0  0.00000000000E+00 -0.00000000000E+00 -0.72225042241E+02  0.72225042241E+02  0.00000000000E+00 0. -1.
         25    2    1    2    0    0 -0.12631698195E+02 -0.39341446805E+02  0.30109483732E+02  0.13513163807E+03  0.12508664741E+03 0.  0.
          5    1    3    3  502    0  0.27957504667E+02 -0.71802884308E+02  0.30534938246E+02  0.82988740898E+02  0.41800000000E+01 0. -1.
         -5    1    3    3    0  502 -0.40589202863E+02  0.32461437502E+02 -0.42545451365E+00  0.52142897170E+02  0.41800000000E+01 0. -1.
        -11    1    1    2    0    0  0.33212180364E+02  0.17050007862E+02  0.92256253910E+02  0.99523706111E+02  0.00000000000E+00 0.  1.
         11    1    1    2    0    0 -0.20580482168E+02  0.22291438943E+02 -0.17697474109E+01  0.30390730533E+02  0.00000000000E+00 0. -1.
</event>
<event>
 7    1  0.2788485E-009  0.2336915E+03  0.7561462E-02  0.1124068E+00
          2   -1    0    0  501    0  0.00000000000E+00  0.00000000000E+00  0.51758740097E+03  0.51758740097E+03  0.00000000000E+00 0. -1.
         -2   -1    0    0    0  501 -0.00000000000E+00 -0.00000000000E+00 -0.12314334786E+03  0.12314334786E+03  0.00000000000E+00 0.  1.
         25    2    1    2    0    0  0.56915560088E+02 -0.22046555907E+03  0.18540622779E+03  0.31916641576E+03  0.12508911994E+03 0.  0.
          5    1    3    3  502    0  0.51150346848E+02 -0.21200507459E+03  0.11250835247E+03  0.24543453590E+03  0.41800000000E+01 0. -1.
         -5    1    3    3    0  502  0.57652132398E+01 -0.84604844765E+01  0.72897875321E+02  0.73731879860E+02  0.41800000000E+01 0. -1.
        -11    1    1    2    0    0 -0.73547650679E+02  0.17977645636E+03  0.13890980523E+03  0.23879858704E+03  0.00000000000E+00 0.  1.
         11    1    1    2    0    0  0.16632090591E+02  0.40689102704E+02  0.70128020088E+02  0.82765746041E+02  0.00000000000E+00 0. -1.
</event>
<event>
 7    1  0.2788485E-009  0.8759145E+02  0.7561462E-02  0.1308791E+00
          2   -1    0    0  501    0  0.00000000000E+00  0.00000000000E+00  0.33010279083E+03  0.33010279083E+03  0.00000000000E+00 0. -1.
         -2   -1    0    0    0  501 -0.00000000000E+00 -0.00000000000E+00 -0.55287912660E+02  0.55287912660E+02  0.00000000000E+00 0.  1.
         25    2    1    2    0    0  0.40299341341E+01  0.40330046977E+02  0.58262646491E+02  0.14382235634E+03  0.12509029198E+03 0.  0.
          5    1    3    3  502    0  0.27022468837E+02 -0.10538136594E+02  0.78895140812E+02  0.84161640839E+02  0.41800000000E+01 0. -1.
         -5    1    3    3    0  502 -0.22992534703E+02  0.50868183570E+02 -0.20632494322E+02  0.59660715498E+02  0.41800000000E+01 0. -1.
        -11    1    1    2    0    0  0.36799490560E+02 -0.30762206316E+02  0.17887257785E+03  0.18519156285E+03  0.00000000000E+00 0. -1.
         11    1    1    2    0    0 -0.40829424694E+02 -0.95678406607E+01  0.37679653822E+02  0.56376784299E+02  0.00000000000E+00 0.  1.
</event>
<event>
 7    1  0.2788485E-009  0.2535686E+03  0.7561462E-02  0.1111070E+00
         -2   -1    0    0    0  501 -0.00000000000E+00  0.00000000000E+00  0.51914470384E+02  0.51914470384E+02  0.00000000000E+00 0.  1.
          2   -1    0    0  501    0  0.00000000000E+00 -0.00000000000E+00 -0.12651253818E+04  0.12651253818E+04  0.00000000000E+00 0. -1.
         25    2    1    2    0    0  0.19259013532E+03  0.12769174304E+03 -0.70950525976E+03  0.75659659773E+03  0.12507820198E+03 0.  0.
          5    1    3    3  502    0  0.81669147817E+02 -0.13491170719E+02 -0.20803507749E+03  0.22393732887E+03  0.41800000000E+01 0. -1.
         -5    1    3    3    0  502  0.11092098750E+03  0.14118291376E+03 -0.50147018226E+03  0.53265926886E+03  0.41800000000E+01 0. -1.
        -11    1    1    2    0    0 -0.11159006373E+03 -0.25864097582E+02 -0.21008188523E+03  0.23928161729E+03  0.00000000000E+00 0. -1.
         11    1    1    2    0    0 -0.81000071587E+02 -0.10182764546E+03 -0.29362376640E+03  0.32116163714E+03  0.00000000000E+00 0.  1.
</event>
<event>
 7    1  0.2788485E-009  0.1356457E+03  0.7561462E-02  0.1219311E+00
          1   -1    0    0  501    0  0.00000000000E+00  0.00000000000E+00  0.34148338819E+03  0.34148338819E+03  0.00000000000E+00 0. -1.
         -1   -1    0    0    0  501 -0.00000000000E+00 -0.00000000000E+00 -0.57139711021E+02  0.57139711021E+02  0.00000000000E+00 0.  1.
         25    2    1    2    0    0  0.53835141615E+02  0.63736916829E+02  0.12334360693E+03  0.19448315525E+03  0.12509770288E+03 0.  0.
          5    1    3    3  502    0  0.86424274867E+02  0.15574554868E+02  0.95722210985E+02  0.12996898138E+03  0.41800000000E+01 0.  1.
         -5    1    3    3    0  502 -0.32589133253E+02  0.48162361962E+02  0.27621395947E+02  0.64514173869E+02  0.41800000000E+01 0.  1.
        -11    1    1    2    0    0 -0.73998480378E+02 -0.19602071005E+02  0.10668167648E+03  0.13130497471E+03  0.00000000000E+00 0. -1.
         11    1    1    2    0    0  0.20163338764E+02 -0.44134845824E+02  0.54318393753E+02  0.72834969252E+02  0.00000000000E+00 0.  1.
</event>
<event>
 7    1  0.2788485E-009  0.1107708E+03  0.7561462E-02  0.1259149E+00
         -1   -1    0    0    0  501 -0.00000000000E+00  0.00000000000E+00  0.32468503247E+03  0.32468503247E+03  0.00000000000E+00 0.  1.
          1   -1    0    0  501    0  0.00000000000E+00 -0.00000000000E+00 -0.65887312929E+02  0.65887312929E+02  0.00000000000E+00 0. -1.
         25    2    1    2    0    0 -0.11083783781E+02  0.70927365648E+02  0.43382137762E+02  0.15061030780E+03  0.12509162034E+03 0.  0.
          5    1    3    3  502    0  0.48360103164E+02 -0.29513542352E+01  0.21683785850E+02  0.53245366358E+02  0.41800000000E+01 0. -1.
         -5    1    3    3    0  502 -0.59443886945E+02  0.73878719883E+02  0.21698351912E+02  0.97364941444E+02  0.41800000000E+01 0. -1.
        -11    1    1    2    0    0  0.20734818908E+02 -0.33966697435E+02  0.18989840823E+03  0.19402338699E+03  0.00000000000E+00 0.  1.
         11    1    1    2    0    0 -0.96510351268E+01 -0.36960668213E+02  0.25517173548E+02  0.45938650608E+02  0.00000000000E+00 0. -1.
</event>
<event>
 7    1  0.2788485E-009  0.9799422E+02  0.7561462E-02  0.1284571E+00
         -1   -1    0    0    0  501 -0.00000000000E+00  0.00000000000E+00  0.11414766993E+03  0.11414766993E+03  0.00000000000E+00 0.  1.
          1   -1    0    0  501    0  0.00000000000E+00 -0.00000000000E+00 -0.29793422853E+03  0.29793422853E+03  0.00000000000E+00 0. -1.
         25    2    1    2    0    0 -0.23970440358E+01 -0.53231591304E+02 -0.25063333505E+03  0.28513680868E+03  0.12508630180E+03 0.  0.
          5    1    3    3  502    0 -0.46160528197E+02 -0.22898862467E+02 -0.33668477543E+02  0.61694335605E+02  0.41800000000E+01 0. -1.
         -5    1    3    3    0  502  0.43763484161E+02 -0.30332728837E+02 -0.21696485750E+03  0.22344247308E+03  0.41800000000E+01 0. -1.
        -11    1    1    2    0    0  0.23663128992E+02  0.63132565236E+02  0.76151641809E+02  0.10170908031E+03  0.00000000000E+00 0. -1.
         11    1    1    2    0    0 -0.21266084957E+02 -0.99009739320E+01 -0.93048653733E+01  0.25236009467E+02  0.00000000000E+00 0.  1.
</event>
<event>
 7    1  0.2788485E-009  0.2209554E+03  0.7561462E-02  0.1133173E+00
         -2   -1    0    0    0  501 -0.00000000000E+00  0.00000000000E+00  0.32895294211E+02  0.32895294211E+02  0.00000000000E+00 0.  1.
          2   -1    0    0  501    0  0.00000000000E+00 -0.00000000000E+00 -0.18542388752E+04  0.18542388752E+04  0.00000000000E+00 0. -1.
         25    2    1    2    0    0 -0.18838185606E+03 -0.43621123884E+02 -0.13521561410E+04  0.13716284392E+04  0.12509124386E+03 0.  0.
          5    1    3    3  502    0 -0.19182439675E+03 -0.60725069727E+01 -0.11574118811E+04  0.11732234270E+04  0.41800000000E+01 0.  1.
         -5    1    3    3    0  502  0.34425406864E+01 -0.37548616912E+02 -0.19474425987E+03  0.19840501221E+03  0.41800000000E+01 0.  1.
        -11    1    1    2    0    0  0.12239079444E+03 -0.15548425520E+02 -0.24183796937E+03  0.27149007998E+03  0.00000000000E+00 0. -1.
         11    1    1    2    0    0  0.65991061626E+02  0.59169549404E+02 -0.22734947059E+03  0.24401565026E+03  0.00000000000E+00 0.  1.
</event>
<event>
 7    1  0.2788485E-009  0.1574806E+03  0.7561462E-02  0.1191571E+00
          1   -1    0    0  501    0  0.00000000000E+00  0.00000000000E+00  0.24157898676E+03  0.24157898676E+03  0.00000000000E+00 0. -1.
         -1   -1    0    0    0  501 -0.00000000000E+00 -0.00000000000E+00 -0.14892635812E+03  0.14892635812E+03  0.00000000000E+00 0.  1.
         25    2    1    2    0    0  0.90189401946E+01  0.12198757566E+03 -0.49021016893E+02  0.18169445270E+03  0.12508998421E+03 0.  0.
          5    1    3    3  502    0  0.62647403064E+02  0.41118860795E+02 -0.54687616539E+01  0.75251827737E+02  0.41800000000E+01 0.  1.
         -5    1    3    3    0  502 -0.53628462869E+02  0.80868714863E+02 -0.43552255239E+02  0.10644262497E+03  0.41800000000E+01 0.  1.
        -11    1    1    2    0    0  0.32275442467E+02 -0.44403092977E+02  0.19387124870E+02  0.58216831441E+02  0.00000000000E+00 0.  1.
         11    1    1    2    0    0 -0.41294382661E+02 -0.77584482681E+02  0.12228652066E+03  0.15059406073E+03  0.00000000000E+00 0. -1.
</event>
<event>
 7    1  0.2788485E-009  0.1284987E+03  0.7561462E-02  0.1229701E+00
          2   -1    0    0  501    0  0.00000000000E+00  0.00000000000E+00  0.12440327112E+03  0.12440327112E+03  0.00000000000E+00 0. -1.
         -2   -1    0    0    0  501 -0.00000000000E+00 -0.00000000000E+00 -0.30151831179E+03  0.30151831179E+03  0.00000000000E+00 0.  1.
         25    2    1    2    0    0 -0.76010294635E+02 -0.83536856260E+02  0.34648445165E+02  0.17205806907E+03  0.12508994018E+03 0.  0.
          5    1    3    3  502    0  0.90622340848E+01 -0.29330052883E+02 -0.36999209353E+02  0.48257538079E+02  0.41800000000E+01 0. -1.
         -5    1    3    3    0  502 -0.85072528720E+02 -0.54206803377E+02  0.71647654519E+02  0.12380053099E+03  0.41800000000E+01 0. -1.
        -11    1    1    2    0    0  0.30974225637E+02  0.72273913733E+02 -0.18318729978E+03  0.19935021460E+03  0.00000000000E+00 0.  1.
         11    1    1    2    0    0  0.45036068998E+02  0.11262942527E+02 -0.28576186046E+02  0.54513299240E+02  0.00000000000E+00 0. -1.
</event>
<event>
 7    1  0.2788485E-009  0.9130439E+02  0.7561462E-02  0.1299723E+00
         -2   -1    0    0    0  501 -0.00000000000E+00  0.00000000000E+00  0.21855660754E+03  0.21855660754E+03  0.00000000000E+00 0.  1.
          2   -1    0    0  501    0  0.00000000000E+00 -0.00000000000E+00 -0.55523111624E+02  0.55523111624E+02  0.00000000000E+00 0. -1.
         25    2    1    2    0    0 -0.29913773331E+01  0.16688049175E+02  0.70775805763E+02  0.14471854890E+03  0.12508718716E+03 0.  0.
          5    1    3    3  502    0  0.12183768683E+02  0.55249011731E+02 -0.63301441283E+01  0.57082752573E+02  0.41800000000E+01 0.  1.
         -5    1    3    3    0  502 -0.15175146016E+02 -0.38560962556E+02  0.77105949891E+02  0.87635796330E+02  0.41800000000E+01 0.  1.
        -11    1    1    2    0    0  0.37258723752E+02  0.12412331306E+02  0.19529271621E+02  0.43859672982E+02  0.00000000000E+00 0.  1.
         11    1    1    2    0    0 -0.34267346419E+02 -0.29100380481E+02  0.72728418536E+02  0.85501497282E+02  0.00000000000E+00 0. -1.
</event>
<event>
 7    1  0.2788485E-009  0.8230936E+02  0.7561462E-02  0.1322623E+00
          2   -1    0    0  501    0  0.00000000000E+00  0.00000000000E+00  0.26979741590E+03  0.26979741590E+03  0.00000000000E+00 0. -1.
         -2   -1    0    0    0  501 -0.00000000000E+00 -0.00000000000E+00 -0.57999626363E+02  0.57999626363E+02  0.00000000000E+00 0.  1.
         25    2    1    2    0    0 -0.24816453962E+02  0.50199771770E+02  0.15306341008E+03  0.20545610854E+03  0.12509169259E+03 0.  0.
          5    1    3    3  502    0 -0.80274026551E+01  0.26703574520E+02  0.16959270164E+03  0.17192055414E+03  0.41800000000E+01 0. -1.
         -5    1    3    3    0  502 -0.16789051307E+02  0.23496197250E+02 -0.16529291562E+02  0.33535554394E+02  0.41800000000E+01 0. -1.
        -11    1    1    2    0    0 -0.34929935459E+02 -0.16238231485E+02  0.23314923899E+02  0.45026283761E+02  0.00000000000E+00 0. -1.
         11    1    1    2    0    0  0.59746389421E+02 -0.33961540285E+02  0.35419455553E+02  0.77314649964E+02  0.00000000000E+00 0.  1.
</event>
<event>
 7    1  0.2788485E-009  0.8500960E+02  0.7561462E-02  0.1315407E+00
         -3   -1    0    0    0  501 -0.00000000000E+00  0.00000000000E+00  0.56831478158E+03  0.56831478158E+03  0.00000000000E+00 0.  1.
          3   -1    0    0  501    0  0.00000000000E+00 -0.00000000000E+00 -0.45369347046E+02  0.45369347046E+02  0.00000000000E+00 0. -1.
         25    2    1    2    0    0 -0.40970736429E+02  0.43438579171E+02  0.85678962835E+02  0.16295314927E+03  0.12508929922E+03 0.  0.
          5    1    3    3  502    0 -0.35420466907E+02  0.35634646970E+02  0.11835555882E+03  0.12864660215E+03  0.41800000000E+01 0. -1.
         -5    1    3    3    0  502 -0.55502695222E+01  0.78039322012E+01 -0.32676595989E+02  0.34306547116E+02  0.41800000000E+01 0. -1.
        -11    1    1    2    0    0  0.44255933477E+02  0.17890982214E+02  0.20458949536E+03  0.21008459369E+03  0.00000000000E+00 0. -1.
         11    1    1    2    0    0 -0.32851970478E+01 -0.61329561385E+02  0.23267697633E+03  0.24064638567E+03  0.00000000000E+00 0.  1.
</event>
<event>
 7    1  0.2788485E-009  0.1401239E+03  0.7561462E-02  0.1213162E+00
         -2   -1    0    0    0  501 -0.00000000000E+00  0.00000000000E+00  0.55179117654E+03  0.55179117654E+03  0.00000000000E+00 0.  1.
          2   -1    0    0  501    0  0.00000000000E+00 -0.00000000000E+00 -0.39442517988E+02  0.39442517988E+02  0.00000000000E+00 0. -1.
         25    2    1    2    0    0 -0.28548311818E+02 -0.91439299489E+02  0.32149605705E+03  0.35802939259E+03  0.12509668126E+03 0.  0.
          5    1    3    3  502    0 -0.76275631307E+01  0.25753836077E+02  0.12762205958E+03  0.13048487377E+03  0.41800000000E+01 0.  1.
         -5    1    3    3    0  502 -0.20920748687E+02 -0.11719313557E+03  0.19387399747E+03  0.22754451882E+03  0.41800000000E+01 0.  1.
        -11    1    1    2    0    0 -0.37151265281E+01  0.10039392433E+03  0.14630082265E+03  0.17747302025E+03  0.00000000000E+00 0.  1.
         11    1    1    2    0    0  0.32263438346E+02 -0.89546248398E+01  0.44551778847E+02  0.55731281686E+02  0.00000000000E+00 0. -1.
</event>
<event>
 7    1  0.2788485E-009  0.6477696E+02  0.7561462E-02  0.1378812E+00
         -1   -1    0    0    0  501 -0.00000000000E+00  0.00000000000E+00  0.10847839617E+02  0.10847839617E+02  0.00000000000E+00 0.  1.
          1   -1    0    0  501    0  0.00000000000E+00 -0.00000000000E+00 -0.11029038514E+04  0.11029038514E+04  0.00000000000E+00 0. -1.
         25    2    1    2    0    0  0.83376967268E+01 -0.34126243994E+02 -0.66621858282E+03  0.67877011321E+03  0.12509016257E+03 0.  0.
          5    1    3    3  502    0 -0.60319647700E+01 -0.13847130952E+02 -0.64670702370E+03  0.64689688092E+03  0.41800000000E+01 0.  1.
         -5    1    3    3    0  502  0.14369661497E+02 -0.20279113042E+02 -0.19511559116E+02  0.31873232288E+02  0.41800000000E+01 0.  1.
        -11    1    1    2    0    0 -0.36818939749E+02 -0.81440648396E+01 -0.18773707874E+03  0.19148673805E+03  0.00000000000E+00 0. -1.
         11    1    1    2    0    0  0.28481243022E+02  0.42270308834E+02 -0.23810035025E+03  0.24349483978E+03  0.00000000000E+00 0.  1.
</event>
<event>
 7    1  0.2788485E-009  0.7964051E+02  0.7561462E-02  0.1330075E+00
         -1   -1    0    0    0  501 -0.00000000000E+00  0.00000000000E+00  0.20544470498E+03  0.20544470498E+03  0.00000000000E+00 0.  1.
          1   -1    0    0  501    0  0.00000000000E+00 -0.00000000000E+00 -0.86090174199E+02  0.86090174199E+02  0.00000000000E+00 0. -1.
         25    2    1    2    0    0  0.49146598345E+02 -0.21542539358E+02  0.49383393324E+01  0.13620290869E+03  0.12508947202E+03 0.  0.
          5    1    3    3  502    0  0.37695955128E+02 -0.41770405508E+02 -0.50641120120E+02  0.75813898833E+02  0.41800000000E+01 0. -1.
         -5    1    3    3    0  502  0.11450643217E+02  0.20227866150E+02  0.55579459452E+02  0.60389009861E+02  0.41800000000E+01 0. -1.
        -11    1    1    2    0    0 -0.47787155864E+02 -0.90371687479E+01  0.14377235929E+02  0.50714767056E+02  0.00000000000E+00 0. -1.
         11    1    1    2    0    0 -0.13594424808E+01  0.30579708106E+02  0.10003895552E+03  0.10461720343E+03  0.00000000000E+00 0.  1.
</event>
<event>
 7    1  0.2788485E-009  0.1695767E+03  0.7561462E-02  0.1178290E+00
         -2   -1    0    0    0  501 -0.00000000000E+00  0.00000000000E+00  0.75872625441E+02  0.75872625441E+02  0.00000000000E+00 0.  1.
          2   -1    0    0  501    0  0.00000000000E+00 -0.00000000000E+00 -0.41925658199E+03  0.41925658199E+03  0.00000000000E+00 0. -1.
         25    2    1    2    0    0 -0.68776080158E+02 -0.12296800915E+03 -0.17082673660E+03  0.25432472983E+03  0.12509202130E+03 0.  0.
          5    1    3    3  502    0  0.26486678576E+02 -0.91779089882E+01 -0.45647166238E+00  0.28345350973E+02  0.41800000000E+01 0. -1.
         -5    1    3    3    0  502 -0.95262758734E+02 -0.11379010016E+03 -0.17037026493E+03  0.22597937886E+03  0.41800000000E+01 0. -1.
        -11    1    1    2    0    0  0.32074576078E+02 -0.19686119372E+01 -0.62629127406E+02  0.70392197460E+02  0.00000000000E+00 0. -1.
         11    1    1    2    0    0  0.36701504080E+02  0.12493662109E+03 -0.10992809255E+03  0.17041228014E+03  0.00000000000E+00 0.  1.
</event>
<event>
 7    1  0.2788485E-009  0.1850637E+03  0.7561462E-02  0.1162990E+00
          2   -1    0    0  501    0  0.00000000000E+00  0.00000000000E+00  0.22891107934E+04  0.22891107934E+04  0.00000000000E+00 0.  1.
         -2   -1    0    0    0  501 -0.00000000000E+00 -0.00000000000E+00 -0.16345868391E+02  0.16345868391E+02  0.00000000000E+00 0. -1.
         25    2    1    2    0    0  0.91106832750E+02  0.12396380357E+03  0.14486935717E+04  0.14622007098E+04  0.12510144453E+03 0.  0.
          5    1    3    3  502    0 -0.24458959985E+02  0.53532014657E+02  0.58357999479E+03  0.58655519778E+03  0.41800000000E+01 0.  1.
         -5    1    3    3    0  502  0.11556579274E+03  0.70431788908E+02  0.86511357689E+03  0.87564551199E+03  0.41800000000E+01 0.  1.
        -11    1    1    2    0    0 -0.10137545329E+03 -0.76075188717E+02  0.65875009003E+03  0.67083239187E+03  0.00000000000E+00 0.  1.
         11    1    1    2    0    0  0.10268620537E+02 -0.47888614849E+02  0.16532126329E+03  0.17242356016E+03  0.00000000000E+00 0. -1.
</event>
<event>
 7    1  0.2788485E-009  0.1240446E+03  0.7561462E-02  0.1236570E+00
         -1   -1    0    0    0  501 -0.00000000000E+00  0.00000000000E+00  0.54115210033E+02  0.54115210033E+02  0.00000000000E+00 0.  1.
          1   -1    0    0  501    0  0.00000000000E+00 -0.00000000000E+00 -0.37046193438E+03  0.37046193438E+03  0.00000000000E+00 0. -1.
         25    2    1    2    0    0  0.67851220377E+02 -0.64628722839E+02 -0.15911567851E+03  0.22303813271E+03  0.12509016577E+03 0.  0.
          5    1    3    3  502    0  0.57716764639E+01 -0.84921968716E+02 -0.11868193306E+03  0.14610929695E+03  0.41800000000E+01 0. -1.
         -5    1    3    3    0  502  0.62079543913E+02  0.20293245877E+02 -0.40433745449E+02  0.76928835762E+02  0.41800000000E+01 0. -1.
        -11    1    1    2    0    0 -0.56974673588E+02  0.37535073910E+02 -0.36598430465E+02  0.77423771004E+02  0.00000000000E+00 0.  1.
         11    1    1    2    0    0 -0.10876546788E+02  0.27093648928E+02 -0.12063261537E+03  0.12411524069E+03  0.00000000000E+00 0. -1.
</event>
<event>
 7    1  0.2788485E-009  0.1037101E+03  0.7561462E-02  0.1272682E+00
         -3   -1    0    0    0  501 -0.00000000000E+00  0.00000000000E+00  0.66162642434E+03  0.66162642434E+03  0.00000000000E+00 0.  1.
          3   -1    0    0  501    0  0.00000000000E+00 -0.00000000000E+00 -0.29865506643E+02  0.29865506643E+02  0.00000000000E+00 0. -1.
         25    2    1    2    0    0  0.67966387690E+02  0.53536664919E+02  0.39366536947E+03  0.42202608595E+03  0.12509192522E+03 0.  0.
          5    1    3    3  502    0  0.17539118950E+02  0.57254180386E+02  0.61244483419E+02  0.85755588824E+02  0.41800000000E+01 0.  1.
         -5    1    3    3    0  502  0.50427268740E+02 -0.37175154675E+01  0.33242088605E+03  0.33627049712E+03  0.41800000000E+01 0.  1.
        -11    1    1    2    0    0 -0.58469628335E+02 -0.19989705828E+02  0.22312338817E+03  0.23152177463E+03  0.00000000000E+00 0.  1.
         11    1    1    2    0    0 -0.94967593548E+01 -0.33546959091E+02  0.14972160055E+02  0.37944070409E+02  0.00000000000E+00 0. -1.
</event>
<event>
 7    1  0.2788485E-009  0.8666296E+02  0.7561462E-02  0.1311140E+00
          2   -1    0    0  501    0  0.00000000000E+00  0.00000000000E+00  0.52033126045E+02  0.52033126045E+02  0.00000000000E+00 0.  1.
         -2   -1    0    0    0  501 -0.00000000000E+00 -0.00000000000E+00 -0.29635070960E+03  0.29635070960E+03  0.00000000000E+00 0. -1.
         25    2    1    2    0    0 -0.32171855007E+02 -0.21919137980E+02 -0.70593787236E+02  0.14881720302E+03  0.12509036835E+03 0.  0.
          5    1    3    3  502    0 -0.34459777115E+02 -0.44187809807E+02 -0.98132806916E+02  0.11308208951E+03  0.41800000000E+01 0.  1.
         -5    1    3    3    0  502  0.22879221077E+01  0.22268671827E+02  0.27539019680E+02  0.35735113508E+02  0.41800000000E+01 0.  1.
        -11    1    1    2    0    0  0.10133912072E+02 -0.33352579110E+02 -0.92725378031E+02  0.99061023809E+02  0.00000000000E+00 0.  1.
         11    1    1    2    0    0  0.22037942935E+02  0.55271717090E+02 -0.80998418286E+02  0.10050560882E+03  0.00000000000E+00 0. -1.
</event>
<event>
 7    1  0.2788485E-009  0.1463798E+03  0.7561462E-02  0.1204993E+00
         -2   -1    0    0    0  501 -0.00000000000E+00  0.00000000000E+00  0.36608989519E+03  0.36608989519E+03  0.00000000000E+00 0.  1.
          2   -1    0    0  501    0  0.00000000000E+00 -0.00000000000E+00 -0.71827826425E+02  0.71827826425E+02  0.00000000000E+00 0. -1.
         25    2    1    2    0    0  0.23571768626E+02  0.10559738083E+03  0.94033521406E+02  0.19025174716E+03  0.12508792522E+03 0.  0.
          5    1    3    3  502    0 -0.39193358957E+02  0.42132014659E+02  0.81742661179E+02  0.10005279158E+03  0.41800000000E+01 0. -1.
         -5    1    3    3    0  502  0.62765127583E+02  0.63465366174E+02  0.12290860227E+02  0.90198955588E+02  0.41800000000E+01 0. -1.
        -11    1    1    2    0    0  0.36754106734E+02 -0.22756666009E+02  0.56291457966E+02  0.70975055122E+02  0.00000000000E+00 0.  1.
         11    1    1    2    0    0 -0.60325875360E+02 -0.82840714824E+02  0.14393708939E+03  0.17669091933E+03  0.00000000000E+00 0. -1.
</event>
<event>
 7    1  0.2788485E-009  0.1148365E+03  0.7561462E-02  0.1251867E+00
          1   -1    0    0  501    0  0.00000000000E+00  0.00000000000E+00  0.56986007360E+03  0.56986007360E+03  0.00000000000E+00 0. -1.
         -1   -1    0    0    0  501 -0.00000000000E+00 -0.00000000000E+00 -0.30026104116E+02  0.30026104116E+02  0.00000000000E+00 0.  1.
         25    2    1    2    0    0  0.43637449907E+02 -0.33174678126E+02  0.39933759562E+03  0.42204624393E+03  0.12509088872E+03 0.  0.
          5    1    3    3  502    0 -0.10021593853E+02  0.33794140487E+02  0.22394881503E+03  0.22674439448E+03  0.41800000000E+01 0. -1.
         -5    1    3    3    0  502  0.53659043760E+02 -0.66968818613E+02  0.17538878058E+03  0.19530184945E+03  0.41800000000E+01 0. -1.
        -11    1    1    2    0    0  0.29680119582E+02  0.11170961751E+02  0.31947574764E+02  0.45014968823E+02  0.00000000000E+00 0.  1.
         11    1    1    2    0    0 -0.73317569489E+02  0.22003716375E+02  0.10854879910E+03  0.13282496496E+03  0.00000000000E+00 0. -1.
</event>
<event>
 7    1  0.2788485E-009  0.1284311E+03  0.7561462E-02  0.1229802E+00
          2   -1    0    0  501    0  0.00000000000E+00  0.00000000000E+00  0.39963202923E+02  0.39963202923E+02  0.00000000000E+00 0.  1.
         -2   -1    0    0    0  501 -0.00000000000E+00 -0.00000000000E+00 -0.43050358705E+03  0.43050358705E+03  0.00000000000E+00 0. -1.
         25    2    1    2    0    0  0.24924779666E+02  0.64396479864E+02 -0.17070899971E+03  0.22261323002E+03  0.12508771458E+03 0.  0.
          5    1    3    3  502    0  0.56705670180E+02 -0.13254287795E+02 -0.79167739233E+02  0.98367741210E+02  0.41800000000E+01 0. -1.
         -5    1    3    3    0  502 -0.31780890514E+02  0.77650767659E+02 -0.91541260478E+02  0.12424548881E+03  0.41800000000E+01 0. -1.
        -11    1    1    2    0    0 -0.56955440401E+02 -0.21371943277E+02 -0.11537236399E+03  0.13042800513E+03  0.00000000000E+00 0.  1.
         11    1    1    2    0    0  0.32030660735E+02 -0.43024536588E+02 -0.10445902043E+03  0.11742555482E+03  0.00000000000E+00 0. -1.
</event>
<event>
 7    1  0.2788485E-009  0.1421592E+03  0.7561462E-02  0.1210453E+00
          3   -1    0    0  501    0  0.00000000000E+00  0.00000000000E+00  0.59966564763E+02  0.59966564763E+02  0.00000000000E+00 0. -1.
         -3   -1    0    0    0  501 -0.00000000000E+00 -0.00000000000E+00 -0.50624027426E+03  0.50624027426E+03  0.00000000000E+00 0.  1.
         25    2    1    2    0    0  0.82554969217E+02  0.95600932093E+02 -0.15374571701E+03  0.23503235567E+03  0.12509037354E+03 0.  0.
          5    1    3    3  502    0  0.10354815357E+03  0.84509012934E+02 -0.76381304068E+02  0.15399860190E+03  0.41800000000E+01 0.  1.
         -5    1    3    3    0  502 -0.20993184355E+02  0.11091919159E+02 -0.77364412944E+02  0.81033753770E+02  0.41800000000E+01 0.  1.
        -11    1    1    2    0    0 -0.57536887623E+02 -0.61824833891E+02 -0.27118864826E+03  0.28403536129E+03  0.00000000000E+00 0.  1.
         11    1    1    2    0    0 -0.25018081594E+02 -0.33776098202E+02 -0.21339344228E+02  0.47139122059E+02  0.00000000000E+00 0. -1.
</event>
<event>
 7    1  0.2788485E-009  0.1696388E+03  0.7561462E-02  0.1178225E+00
         -2   -1    0    0    0  501 -0.00000000000E+00  0.00000000000E+00  0.25154247927E+02  0.25154247927E+02  0.00000000000E+00 0.  1.
          2   -1    0    0  501    0  0.00000000000E+00 -0.00000000000E+00 -0.16359632185E+04  0.16359632185E+04  0.00000000000E+00 0. -1.
         25    2    1    2    0    0 -0.15681110179E+03 -0.10017974119E+02 -0.56577639248E+03  0.60036629497E+03  0.12508669152E+03 0.  0.
          5    1    3    3  502    0 -0.12625024641E+03 -0.13256961251E+02 -0.55200904877E+03  0.56643299168E+03  0.41800000000E+01 0. -1.
         -5    1    3    3    0  502 -0.30560855380E+02  0.32389871319E+01 -0.13767343712E+02  0.33933303289E+02  0.41800000000E+01 0. -1.
        -11    1    1    2    0    0  0.16258864887E+03 -0.75420258118E+01 -0.96332335391E+03  0.97697688564E+03  0.00000000000E+00 0. -1.
         11    1    1    2    0    0 -0.57775470800E+01  0.17559999931E+02 -0.81709224215E+02  0.83774285850E+02  0.00000000000E+00 0.  1.
</event>
<event>
 7    1  0.2788485E-009  0.1212629E+03  0.7561462E-02  0.1241028E+00
          1   -1    0    0  501    0  0.00000000000E+00  0.00000000000E+00  0.21231251554E+03  0.21231251554E+03  0.00000000000E+00 0. -1.
         -1   -1    0    0    0  501 -0.00000000000E+00 -0.00000000000E+00 -0.95306962552E+02  0.95306962552E+02  0.00000000000E+00 0.  1.
         25    2    1    2    0    0  0.83110600075E+02  0.34023089520E+02  0.84369788140E+02  0.17558994716E+03  0.12509446801E+03 0.  0.
          5    1    3    3  502    0  0.10372720422E+03  0.15737129389E+02  0.22003034420E+02  0.10727812480E+03  0.41800000000E+01 0. -1.
         -5    1    3    3    0  502 -0.20616604143E+02  0.18285960131E+02  0.62366753720E+02  0.68311822358E+02  0.41800000000E+01 0. -1.
        -11    1    1    2    0    0 -0.70461413898E+02 -0.52072654020E+02  0.52683989460E+02  0.10223490055E+03  0.00000000000E+00 0.  1.
         11    1    1    2    0    0 -0.12649186177E+02  0.18049564500E+02 -0.20048224614E+02  0.29794630385E+02  0.00000000000E+00 0. -1.
</event>
<event>
 7    1  0.2788485E-009  0.1185581E+03  0.7561462E-02  0.1245495E+00
          2   -1    0    0  501    0  0.00000000000E+00  0.00000000000E+00  0.78323938641E+02  0.78323938641E+02  0.00000000000E+00 0.  1.
         -2   -1    0    0    0  501 -0.00000000000E+00 -0.00000000000E+00 -0.27037682808E+03  0.27037682808E+03  0.00000000000E+00 0. -1.
         25    2    1    2    0    0 -0.36537119162E+02 -0.66457718288E+02 -0.17262480530E+03  0.22627135604E+03  0.12509122177E+03 0.  0.
          5    1    3    3  502    0 -0.37755689940E+02  0.26927903175E+02 -0.28853125569E+02  0.54777544189E+02  0.41800000000E+01 0. -1.
         -5    1    3    3    0  502  0.12185707785E+01 -0.93385621463E+02 -0.14377167973E+03  0.17149381185E+03  0.41800000000E+01 0. -1.
        -11    1    1    2    0    0  0.23919327047E+02  0.76996606426E+02 -0.44769701303E+02  0.92222219461E+02  0.00000000000E+00 0. -1.
         11    1    1    2    0    0  0.12617792115E+02 -0.10538888138E+02  0.25341617162E+02  0.30207191221E+02  0.00000000000E+00 0.  1.
</event>
<event>
 7    1  0.2916037E-009  0.1449749E+03  0.7561462E-02  0.1206787E+00
          2   -1    0    0  501    0  0.00000000000E+00  0.00000000000E+00  0.10155713196E+04  0.10155713196E+04  0.00000000000E+00 0. -1.
         -2   -1    0    0    0  501 -0.00000000000E+00 -0.00000000000E+00 -0.24606308384E+02  0.24606308384E+02  0.00000000000E+00 0.  1.
         25    2    1    2    0    0  0.10365147292E+03 -0.46422093762E+02  0.48778430123E+03  0.51621652899E+03  0.12508933467E+03 0.  0.
          5    1    3    3  502    0  0.12410673280E+03 -0.38563478486E+02  0.29808865861E+03  0.32521368943E+03  0.41800000000E+01 0. -1.
         -5    1    3    3    0  502 -0.20455259887E+02 -0.78586152761E+01  0.18969564262E+03  0.19100283956E+03  0.41800000000E+01 0. -1.
        -11    1    1    2    0    0 -0.53215501133E+02  0.64875224213E+02  0.38665178180E+03  0.39565172140E+03  0.00000000000E+00 0.  1.
         11    1    1    2    0    0 -0.50435971784E+02 -0.18453130451E+02  0.11652892814E+03  0.12830937754E+03  0.00000000000E+00 0. -1.
</event>
<event>
 7    1  0.2788485E-009  0.1914306E+03  0.7561462E-02  0.1157177E+00
          2   -1    0    0  501    0  0.00000000000E+00  0.00000000000E+00  0.92386361732E+02  0.92386361732E+02  0.00000000000E+00 0. -1.
         -2   -1    0    0    0  501 -0.00000000000E+00 -0.00000000000E+00 -0.41726905677E+03  0.41726905677E+03  0.00000000000E+00 0.  1.
         25    2    1    2    0    0  0.12494448983E+03 -0.10415078384E+03 -0.17897235661E+03  0.27228326948E+03  0.12509421687E+03 0.  0.
          5    1    3    3  502    0 -0.10639031857E+01  0.21197797523E+02 -0.44126711850E+02  0.49143846090E+02  0.41800000000E+01 0. -1.
         -5    1    3    3    0  502  0.12600839301E+03 -0.12534858137E+03 -0.13484564476E+03  0.22313942339E+03  0.41800000000E+01 0. -1.
        -11    1    1    2    0    0 -0.48623707044E+01  0.52498595105E+02 -0.21582860462E+02  0.56969860476E+02  0.00000000000E+00 0.  1.
         11    1    1    2    0    0 -0.12008211912E+03  0.51652188739E+02 -0.12432747797E+03  0.18040228854E+03  0.00000000000E+00 0. -1.
</event>
<event>
 7    1  0.2788485E-009  0.1129156E+03  0.7561462E-02  0.1255264E+00
         -1   -1    0    0    0  501 -0.00000000000E+00  0.00000000000E+00  0.21596245573E+03  0.21596245573E+03  0.00000000000E+00 0.  1.
          1   -1    0    0  501    0  0.00000000000E+00 -0.00000000000E+00 -0.65730992835E+02  0.65730992835E+02  0.00000000000E+00 0. -1.
         25    2    1    2    0    0 -0.34713073061E+02 -0.35724051143E+02  0.89754423362E+02  0.16180195558E+03  0.12507122389E+03 0.  0.
          5    1    3    3  502    0  0.67295449492E+01 -0.75255160202E+02  0.62936869914E+02  0.98423309774E+02  0.41800000000E+01 0. -1.
         -5    1    3    3    0  502 -0.41442618011E+02  0.39531109060E+02  0.26817553448E+02  0.63378645804E+02  0.41800000000E+01 0. -1.
        -11    1    1    2    0    0  0.36027687012E+02  0.59157411676E+02  0.18328114859E+02  0.71648540683E+02  0.00000000000E+00 0. -1.
         11    1    1    2    0    0 -0.13146139509E+01 -0.23433360533E+02  0.42148924670E+02  0.48242952299E+02  0.00000000000E+00 0.  1.
</event>
<event>
 7    1  0.2788485E-009  0.1052631E+03  0.7561462E-02  0.1269602E+00
         -2   -1    0    0    0  501 -0.00000000000E+00  0.00000000000E+00  0.98333886012E+02  0.98333886012E+02  0.00000000000E+00 0.  1.
          2   -1    0    0  501    0  0.00000000000E+00 -0.00000000000E+00 -0.13068938297E+03  0.13068938297E+03  0.00000000000E+00 0. -1.
         25    2    1    2    0    0 -0.21557578774E+01 -0.28420036097E+02 -0.36655515999E+02  0.13342893449E+03  0.12508920003E+03 0.  0.
          5    1    3    3  502    0  0.34728065916E+02  0.34077425048E+02 -0.36113754355E+02  0.60737016010E+02  0.41800000000E+01 0.  1.
         -5    1    3    3    0  502 -0.36883823793E+02 -0.62497461145E+02 -0.54176164330E+00  0.72691918483E+02  0.41800000000E+01 0.  1.
        -11    1    1    2    0    0  0.38088211143E+02  0.35853653584E+02 -0.14615873094E+02  0.54312245854E+02  0.00000000000E+00 0. -1.
         11    1    1    2    0    0 -0.35932453265E+02 -0.74336174877E+01  0.18915892136E+02  0.41282088633E+02  0.00000000000E+00 0.  1.
</event>
<event>
 7    1  0.2788485E-009  0.9593188E+02  0.7561462E-02  0.1289091E+00
         -2   -1    0    0    0  501 -0.00000000000E+00  0.00000000000E+00  0.25851287458E+02  0.25851287458E+02  0.00000000000E+00 0.  1.
          2   -1    0    0  501    0  0.00000000000E+00 -0.00000000000E+00 -0.52764970185E+03  0.52764970185E+03  0.00000000000E+00 0. -1.
         25    2    1    2    0    0 -0.14546136628E+02  0.16002045211E+01 -0.36929911391E+03  0.39018477776E+03  0.12509266371E+03 0.  0.
          5    1    3    3  502    0  0.47215947679E+02  0.23950106151E+02 -0.23097060720E+03  0.23699756769E+03  0.41800000000E+01 0. -1.
         -5    1    3    3    0  502 -0.61762084307E+02 -0.22349901630E+02 -0.13832850671E+03  0.15318721007E+03  0.41800000000E+01 0. -1.
        -11    1    1    2    0    0  0.20005127996E+01 -0.36139285413E+02 -0.11864703140E+03  0.12404502434E+03  0.00000000000E+00 0. -1.
         11    1    1    2    0    0  0.12545623829E+02  0.34539080892E+02 -0.13852269070E+02  0.39271187205E+02  0.00000000000E+00 0.  1.
</event>
<event>
 7    1  0.2788485E-009  0.1131130E+03  0.7561462E-02  0.1254911E+00
          1   -1    0    0  501    0  0.00000000000E+00  0.00000000000E+00  0.18198225459E+03  0.18198225459E+03  0.00000000000E+00 0. -1.
         -1   -1    0    0    0  501 -0.00000000000E+00 -0.00000000000E+00 -0.93034369604E+02  0.93034369604E+02  0.00000000000E+00 0.  1.
         25    2    1    2    0    0 -0.14024221412E+01  0.65969827780E+02  0.48237589440E+02  0.14942584752E+03  0.12508890401E+03 0.  0.
          5    1    3    3  502    0  0.47920397567E+02  0.71179175741E+02  0.50407903102E+02  0.99605565392E+02  0.41800000000E+01 0. -1.
         -5    1    3    3    0  502 -0.49322819708E+02 -0.52093479604E+01 -0.21703136614E+01  0.49820282130E+02  0.41800000000E+01 0. -1.
        -11    1    1    2    0    0 -0.28336210536E+02 -0.48167925044E+02 -0.16877291680E+02  0.58377502559E+02  0.00000000000E+00 0.  1.
         11    1    1    2    0    0  0.29738632677E+02 -0.17801902736E+02  0.57587587226E+02  0.67213274114E+02  0.00000000000E+00 0. -1.
</event>
<event>
 7    1  0.2788485E-009  0.1957574E+03  0.7561462E-02  0.1153369E+00
         -2   -1    0    0    0  501 -0.00000000000E+00  0.00000000000E+00  0.10645356109E+03  0.10645356109E+03  0.00000000000E+00 0.  1.
          2   -1    0    0  501    0  0.00000000000E+00 -0.00000000000E+00 -0.58157605492E+03  0.58157605492E+03  0.00000000000E+00 0. -1.
         25    2    1    2    0    0 -0.15370078447E+03 -0.11010960998E+03 -0.86989668780E+02  0.24282161432E+03  0.12508827503E+03 0.  0.
          5    1    3    3  502    0 -0.14080756356E+03 -0.11710837294E+03 -0.32263849063E+02  0.18600959471E+03  0.41800000000E+01 0. -1.
         -5    1    3    3    0  502 -0.12893220909E+02  0.69987629570E+01 -0.54725819717E+02  0.56812019609E+02  0.41800000000E+01 0. -1.
        -11    1    1    2    0    0  0.61741166201E+02  0.21529256787E+02 -0.24420186089E+03  0.25280433019E+03  0.00000000000E+00 0. -1.
         11    1    1    2    0    0  0.91959618272E+02  0.88580353192E+02 -0.14393096415E+03  0.19240367150E+03  0.00000000000E+00 0.  1.
</event>
<event>
 7    1  0.2788485E-009  0.1321638E+03  0.7561462E-02  0.1224280E+00
          2   -1    0    0  501    0  0.00000000000E+00  0.00000000000E+00  0.39609791937E+03  0.39609791937E+03  0.00000000000E+00 0. -1.
         -2   -1    0    0    0  501 -0.00000000000E+00 -0.00000000000E+00 -0.46845544061E+02  0.46845544061E+02  0.00000000000E+00 0.  1.
         25    2    1    2    0    0 -0.75310935427E+02 -0.32317513198E+02  0.19936977331E+03  0.24922416460E+03  0.12509284175E+03 0.  0.
          5    1    3    3  502    0  0.34306243014E+02 -0.16777545038E+02  0.58877849121E+02  0.70302758441E+02  0.41800000000E+01 0.  1.
         -5    1    3    3    0  502 -0.10961717844E+03 -0.15539968160E+02  0.14049192419E+03  0.17892140616E+03  0.41800000000E+01 0.  1.
        -11    1    1    2    0    0 -0.15041869066E+02 -0.69885797177E+01  0.30094959829E+01  0.16856901778E+02  0.00000000000E+00 0.  1.
         11    1    1    2    0    0  0.90352804494E+02  0.39306092916E+02  0.14687310602E+03  0.17686239705E+03  0.00000000000E+00 0. -1.
</event>
<event>
 7    1  0.2788485E-009  0.2794268E+03  0.7561462E-02  0.1096002E+00
          2   -1    0    0  501    0  0.00000000000E+00  0.00000000000E+00  0.13374112752E+04  0.13374112752E+04  0.00000000000E+00 0.  1.
         -2   -1    0    0    0  501 -0.00000000000E+00 -0.00000000000E+00 -0.63541764426E+02  0.63541764426E+02  0.00000000000E+00 0. -1.
         25    2    1    2    0    0 -0.26036988161E+03 -0.50525585628E+02  0.75002434138E+03  0.80531368050E+03  0.12509317043E+03 0.  0.
          5    1    3    3  502    0 -0.26665104800E+03 -0.27110750339E+02  0.67152195639E+03  0.72304701403E+03  0.41800000000E+01 0. -1.
         -5    1    3    3    0  502  0.62811663956E+01 -0.23414835289E+02  0.78502384985E+02  0.82266666464E+02  0.41800000000E+01 0. -1.
        -11    1    1    2    0    0  0.20267926702E+03  0.29614657174E+02  0.29800845325E+03  0.36161436836E+03  0.00000000000E+00 0.  1.
         11    1    1    2    0    0  0.57690614589E+02  0.20910928455E+02  0.22583671612E+03  0.23402499074E+03  0.00000000000E+00 0. -1.
</event>
<event>
 7    1  0.2788485E-009  0.1416204E+03  0.7561462E-02  0.1211165E+00
          1   -1    0    0  501    0  0.00000000000E+00  0.00000000000E+00  0.65833917118E+02  0.65833917118E+02  0.00000000000E+00 0. -1.
         -1   -1    0    0    0  501 -0.00000000000E+00 -0.00000000000E+00 -0.47809872379E+03  0.47809872379E+03  0.00000000000E+00 0.  1.
         25    2    1    2    0    0  0.62978428683E+02 -0.10971746247E+03 -0.12528724998E+03  0.21760184405E+03  0.12509781563E+03 0.  0.
          5    1    3    3  502    0  0.22323567573E+02 -0.10867227991E+03 -0.13578406583E+03  0.17539324680E+03  0.41800000000E+01 0.  1.
         -5    1    3    3    0  502  0.40654861110E+02 -0.10451825587E+01  0.10496815852E+02  0.42208597247E+02  0.41800000000E+01 0.  1.
        -11    1    1    2    0    0 -0.29253732735E+01  0.36615909990E+02 -0.17918053324E+03  0.18290693307E+03  0.00000000000E+00 0.  1.
         11    1    1    2    0    0 -0.60053055410E+02  0.73101552479E+02 -0.10779702346E+03  0.14342386379E+03  0.00000000000E+00 0. -1.
</event>
<event>
 7    1  0.3082819E-009  0.8721537E+02  0.7561462E-02  0.1309739E+00
         -3   -1    0    0    0  501 -0.00000000000E+00  0.00000000000E+00  0.30846099324E+02  0.30846099324E+02  0.00000000000E+00 0.  1.
          3   -1    0    0  501    0  0.00000000000E+00 -0.00000000000E+00 -0.78691111290E+03  0.78691111290E+03  0.00000000000E+00 0. -1.
         25    2    1    2    0    0 -0.95084754487E+01  0.25400583083E+02 -0.69116996424E+03  0.70292146147E+03  0.12508821209E+03 0.  0.
          5    1    3    3  502    0  0.42568774706E+02  0.32703294027E+02 -0.15349147864E+03  0.16266134278E+03  0.41800000000E+01 0. -1.
         -5    1    3    3    0  502 -0.52077250154E+02 -0.73027109432E+01 -0.53767848560E+03  0.54026011869E+03  0.41800000000E+01 0. -1.
        -11    1    1    2    0    0 -0.13102928195E+02  0.15988796725E+02  0.12533043313E+02  0.24174480815E+02  0.00000000000E+00 0.  1.
         11    1    1    2    0    0  0.22611403644E+02 -0.41389379808E+02 -0.77428092650E+02  0.90661269940E+02  0.00000000000E+00 0. -1.
</event>
<event>
 7    1  0.2788485E-009  0.1206700E+03  0.7561462E-02  0.1241996E+00
         -1   -1    0    0    0  501 -0.00000000000E+00  0.00000000000E+00  0.26560235023E+02  0.26560235023E+02  0.00000000000E+00 0.  1.
          1   -1    0    0  501    0  0.00000000000E+00 -0.00000000000E+00 -0.78089427024E+03  0.78089427024E+03  0.00000000000E+00 0. -1.
         25    2    1    2    0    0 -0.51938198104E+02 -0.64553962841E+02 -0.56351434109E+03  0.58314689635E+03  0.12508836702E+03 0.  0.
          5    1    3    3  502    0 -0.59486943798E+02 -0.96624997279E+02 -0.37808369903E+03  0.39476555378E+03  0.41800000000E+01 0. -1.
         -5    1    3    3    0  502  0.75487456940E+01  0.32071034438E+02 -0.18543064206E+03  0.18838134257E+03  0.41800000000E+01 0. -1.
        -11    1    1    2    0    0 -0.61121032785E+01  0.21383687985E+02 -0.22696520980E+01  0.22355563938E+02  0.00000000000E+00 0.  1.
         11    1    1    2    0    0  0.58050301382E+02  0.43170274856E+02 -0.18855004203E+03  0.20195204498E+03  0.00000000000E+00 0. -1.
</event>
<event>
 7    1  0.2950692E-009  0.1252010E+03  0.7561462E-02  0.1234755E+00
          1   -1    0    0  501    0  0.00000000000E+00  0.00000000000E+00  0.42168503173E+03  0.42168503173E+03  0.00000000000E+00 0. -1.
         -1   -1    0    0    0  501 -0.00000000000E+00 -0.00000000000E+00 -0.44807048678E+02  0.44807048678E+02  0.00000000000E+00 0.  1.
         25    2    1    2    0    0 -0.80348069488E+02  0.38940145704E+01  0.16359824714E+03  0.22109554336E+03  0.12509147536E+03 0.  0.
          5    1    3    3  502    0 -0.41450828602E+02 -0.48398539111E+02  0.26312676620E+02  0.69068220845E+02  0.41800000000E+01 0. -1.
         -5    1    3    3    0  502 -0.38897240886E+02  0.52292553681E+02  0.13728557052E+03  0.15202732252E+03  0.41800000000E+01 0. -1.
        -11    1    1    2    0    0  0.66477845288E+02  0.38368080010E+02  0.12935365190E+03  0.15041203654E+03  0.00000000000E+00 0.  1.
         11    1    1    2    0    0  0.13870224200E+02 -0.42262094580E+02  0.83926084016E+02  0.94984500503E+02  0.00000000000E+00 0. -1.
</event>
<event>
 7    1  0.2788485E-009  0.1030672E+03  0.7561462E-02  0.1273975E+00
         -1   -1    0    0    0  501 -0.00000000000E+00  0.00000000000E+00  0.95285618672E+02  0.95285618672E+02  0.00000000000E+00 0.  1.
          1   -1    0    0  501    0  0.00000000000E+00 -0.00000000000E+00 -0.15383923820E+03  0.15383923820E+03  0.00000000000E+00 0. -1.
         25    2    1    2    0    0 -0.55275240404E+02  0.21981515367E+02 -0.27765780358E+02  0.14127040813E+03  0.12509136835E+03 0.  0.
          5    1    3    3  502    0 -0.44880202181E+00 -0.28950137992E+02  0.33494008477E+02  0.44470584849E+02  0.41800000000E+01 0. -1.
         -5    1    3    3    0  502 -0.54826438383E+02  0.50931653358E+02 -0.61259788835E+02  0.96799823283E+02  0.41800000000E+01 0. -1.
        -11    1    1    2    0    0  0.73851027449E+02 -0.93181402944E+00 -0.30148202288E+02  0.79773157352E+02  0.00000000000E+00 0. -1.
         11    1    1    2    0    0 -0.18575787045E+02 -0.21049701337E+02 -0.63963688264E+00  0.28081291389E+02  0.00000000000E+00 0.  1.
</event>
<event>
 7    1  0.2788485E-009  0.1045910E+03  0.7561462E-02  0.1270927E+00
         -2   -1    0    0    0  501 -0.00000000000E+00  0.00000000000E+00  0.26110352930E+02  0.26110352930E+02  0.00000000000E+00 0.  1.
          2   -1    0    0  501    0  0.00000000000E+00 -0.00000000000E+00 -0.53837714388E+03  0.53837714388E+03  0.00000000000E+00 0. -1.
         25    2    1    2    0    0  0.26575310086E+02  0.57715422805E+01 -0.38439131859E+03  0.40514601130E+03  0.12508815635E+03 0.  0.
          5    1    3    3  502    0  0.51839266880E+01 -0.58627408985E+02 -0.15337743992E+03  0.16433550334E+03  0.41800000000E+01 0. -1.
         -5    1    3    3    0  502  0.21391383398E+02  0.64398951266E+02 -0.23101387867E+03  0.24081050797E+03  0.41800000000E+01 0. -1.
        -11    1    1    2    0    0 -0.44384705519E+02 -0.28926355389E+02 -0.38991815085E+02  0.65780679259E+02  0.00000000000E+00 0.  1.
         11    1    1    2    0    0  0.17809395433E+02  0.23154813109E+02 -0.88883657269E+02  0.93560806245E+02  0.00000000000E+00 0. -1.
</event>
<event>
 7    1  0.3537423E-009  0.1928870E+03  0.7561462E-02  0.1155883E+00
         -1   -1    0    0    0  501 -0.00000000000E+00  0.00000000000E+00  0.52660190378E+02  0.52660190378E+02  0.00000000000E+00 0.  1.
          1   -1    0    0  501    0  0.00000000000E+00 -0.00000000000E+00 -0.71727738974E+03  0.71727738974E+03  0.00000000000E+00 0. -1.
         25    2    1    2    0    0  0.10982315159E+02 -0.15972899203E+03 -0.37704881604E+03  0.42830924876E+03  0.12509612607E+03 0.  0.
          5    1    3    3  502    0  0.12256443965E+02  0.18774113034E+02 -0.26945152141E+02  0.35301577342E+02  0.41800000000E+01 0. -1.
         -5    1    3    3    0  502 -0.12741288066E+01 -0.17850310507E+03 -0.35010366390E+03  0.39300767142E+03  0.41800000000E+01 0. -1.
        -11    1    1    2    0    0 -0.51556650738E+02  0.91749449984E+02 -0.16165500102E+03  0.19289476189E+03  0.00000000000E+00 0.  1.
         11    1    1    2    0    0  0.40574335579E+02  0.67979542047E+02 -0.12591338231E+03  0.14873356947E+03  0.00000000000E+00 0. -1.
</event>
<event>
 7    1  0.2788485E-009  0.1558412E+03  0.7561462E-02  0.1193474E+00
          1   -1    0    0  501    0  0.00000000000E+00  0.00000000000E+00  0.35943181138E+03  0.35943181138E+03  0.00000000000E+00 0. -1.
         -1   -1    0    0    0  501 -0.00000000000E+00 -0.00000000000E+00 -0.89578616464E+02  0.89578616464E+02  0.00000000000E+00 0.  1.
         25    2    1    2    0    0 -0.13447649174E+03 -0.41031495403E+02  0.11690261105E+03  0.22154202750E+03  0.12508852477E+03 0.  0.
          5    1    3    3  502    0 -0.14003302740E+03 -0.49642912166E+02  0.13469769714E+03  0.20058566626E+03  0.41800000000E+01 0. -1.
         -5    1    3    3    0  502  0.55565356610E+01  0.86114167633E+01 -0.17795086095E+02  0.20956361238E+02  0.41800000000E+01 0. -1.
        -11    1    1    2    0    0  0.39037163925E+02 -0.14407130219E+02  0.92955366841E+02  0.10184383041E+03  0.00000000000E+00 0. -1.
         11    1    1    2    0    0  0.95439327818E+02  0.55438625621E+02  0.59995217022E+02  0.12562456993E+03  0.00000000000E+00 0.  1.
</event>
<event>
 7    1  0.2788485E-009  0.1088475E+03  0.7561462E-02  0.1262719E+00
          1   -1    0    0  501    0  0.00000000000E+00  0.00000000000E+00  0.16753803217E+03  0.16753803217E+03  0.00000000000E+00 0. -1.
         -1   -1    0    0    0  501 -0.00000000000E+00 -0.00000000000E+00 -0.18899180220E+03  0.18899180220E+03  0.00000000000E+00 0.  1.
         25    2    1    2    0    0 -0.51539932615E+02  0.88168317468E+01  0.11451537203E+03  0.17746732969E+03  0.12508709566E+03 0.  0.
          5    1    3    3  502    0  0.10440020492E+02  0.32825820153E+02  0.10451168542E+03  0.11012126628E+03  0.41800000000E+01 0.  1.
         -5    1    3    3    0  502 -0.61979953107E+02 -0.24008988407E+02  0.10003686602E+02  0.67346063412E+02  0.41800000000E+01 0.  1.
        -11    1    1    2    0    0  0.82048085402E+02  0.64142621802E+01 -0.92415131965E+02  0.12374808158E+03  0.00000000000E+00 0. -1.
         11    1    1    2    0    0 -0.30508152787E+02 -0.15231093927E+02 -0.43554010087E+02  0.55314423104E+02  0.00000000000E+00 0.  1.
</event>
<event>
 7    1  0.2788485E-009  0.7927768E+02  0.7561462E-02  0.1331114E+00
          2   -1    0    0  501    0  0.00000000000E+00  0.00000000000E+00  0.45324499278E+02  0.45324499278E+02  0.00000000000E+00 0. -1.
         -2   -1    0    0    0  501 -0.00000000000E+00 -0.00000000000E+00 -0.34508009718E+03  0.34508009718E+03  0.00000000000E+00 0.  1.
         25    2    1    2    0    0 -0.41730714032E+02 -0.36923306791E+02 -0.12311026335E+03  0.18414595734E+03  0.12509521807E+03 0.  0.
          5    1    3    3  502    0 -0.15787230981E+02  0.24486413432E+02  0.13270445419E+02  0.32286192505E+02  0.41800000000E+01 0. -1.
         -5    1    3    3    0  502 -0.25943483051E+02 -0.61409720224E+02 -0.13638070877E+03  0.15185976483E+03  0.41800000000E+01 0. -1.
        -11    1    1    2    0    0  0.10620618371E+02  0.28023490304E+02 -0.35653403135E+01  0.30179880632E+02  0.00000000000E+00 0. -1.
         11    1    1    2    0    0  0.31110095661E+02  0.88998164875E+01 -0.17307999423E+03  0.17607875848E+03  0.00000000000E+00 0.  1.
</event>
<event>
 7    1  0.2788485E-009  0.1415488E+03  0.7561462E-02  0.1211260E+00
          2   -1    0    0  501    0  0.00000000000E+00  0.00000000000E+00  0.68022542822E+03  0.68022542822E+03  0.00000000000E+00 0. -1.
         -2   -1    0    0    0  501 -0.00000000000E+00 -0.00000000000E+00 -0.32039280289E+02  0.32039280289E+02  0.00000000000E+00 0.  1.
         25    2    1    2    0    0  0.85666728783E+02 -0.46612058565E+02  0.41544712665E+03  0.44469793154E+03  0.12509381619E+03 0.  0.
          5    1    3    3  502    0 -0.25801381933E+02  0.15945311298E+02  0.73870298040E+02  0.79964101912E+02  0.41800000000E+01 0. -1.
         -5    1    3    3    0  502  0.11146811072E+03 -0.62557369863E+02  0.34157682861E+03  0.36473382963E+03  0.41800000000E+01 0. -1.
        -11    1    1    2    0    0  0.12600623259E+02  0.18493161646E+02  0.85143901893E+02  0.88035542616E+02  0.00000000000E+00 0. -1.
         11    1    1    2    0    0 -0.98267352042E+02  0.28118896919E+02  0.14759511938E+03  0.17953123435E+03  0.00000000000E+00 0.  1.
</event>
<event>
 7    1  0.2788485E-009  0.8699207E+02  0.7561462E-02  0.1310304E+00
         -2   -1    0    0    0  501 -0.00000000000E+00  0.00000000000E+00  0.11870712468E+02  0.11870712468E+02  0.00000000000E+00 0.  1.
          2   -1    0    0  501    0  0.00000000000E+00 -0.00000000000E+00 -0.13137069027E+04  0.13137069027E+04  0.00000000000E+00 0. -1.
         25    2    1    2    0    0  0.31445444016E+02  0.47821686374E+02 -0.85844024885E+03  0.86939203827E+03  0.12508847158E+03 0.  0.
          5    1    3    3  502    0  0.33744742104E+02  0.67661866643E+01 -0.77963644693E+03  0.78040691353E+03  0.41800000000E+01 0. -1.
         -5    1    3    3    0  502 -0.22992980878E+01  0.41055499710E+02 -0.78803801923E+02  0.88985124743E+02  0.41800000000E+01 0. -1.
        -11    1    1    2    0    0 -0.51183683714E+02 -0.56660977267E+02 -0.40484416673E+03  0.41198183839E+03  0.00000000000E+00 0. -1.
         11    1    1    2    0    0  0.19738239698E+02  0.88392908933E+01 -0.38551774657E+02  0.44203738519E+02  0.00000000000E+00 0.  1.
</event>
<event>
 7    1  0.2788485E-009  0.1304415E+03  0.7561462E-02  0.1226802E+00
          1   -1    0    0  501    0  0.00000000000E+00  0.00000000000E+00  0.20205094828E+03  0.20205094828E+03  0.00000000000E+00 0. -1.
         -1   -1    0    0    0  501 -0.00000000000E+00 -0.00000000000E+00 -0.12520010529E+03  0.12520010529E+03  0.00000000000E+00 0.  1.
         25    2    1    2    0    0 -0.88805571805E+02  0.72750255416E+02  0.18671056150E+02  0.17080764129E+03  0.12509041825E+03 0.  0.
          5    1    3    3  502    0 -0.69755830261E+02  0.13354180092E+02 -0.42886384996E+02  0.83071802673E+02  0.41800000000E+01 0.  1.
         -5    1    3    3    0  502 -0.19049741544E+02  0.59396075324E+02  0.61557441146E+02  0.87735838614E+02  0.41800000000E+01 0.  1.
        -11    1    1    2    0    0  0.81266303550E+01  0.91633138351E+01 -0.15599673927E+02  0.19833261658E+02  0.00000000000E+00 0.  1.
         11    1    1    2    0    0  0.80678941450E+02 -0.81913569251E+02  0.73779460766E+02  0.13661015062E+03  0.00000000000E+00 0. -1.
</event>
<event>
 7    1  0.2788485E-009  0.9666934E+02  0.7561462E-02  0.1287460E+00
          1   -1    0    0  501    0  0.00000000000E+00  0.00000000000E+00  0.28155931886E+03  0.28155931886E+03  0.00000000000E+00 0. -1.
         -1   -1    0    0    0  501 -0.00000000000E+00 -0.00000000000E+00 -0.59044480137E+02  0.59044480137E+02  0.00000000000E+00 0.  1.
         25    2    1    2    0    0 -0.57992527294E+02 -0.15787652537E+02  0.70329959426E+02  0.15558692802E+03  0.12509438750E+03 0.  0.
          5    1    3    3  502    0 -0.68634944045E+02  0.21764665805E+01  0.98578787361E+02  0.12021124019E+03  0.41800000000E+01 0. -1.
         -5    1    3    3    0  502  0.10642416750E+02 -0.17964119117E+02 -0.28248827935E+02  0.35375687833E+02  0.41800000000E+01 0. -1.
        -11    1    1    2    0    0  0.76325757523E+02 -0.37985433351E+01  0.12700271993E+03  0.14822193178E+03  0.00000000000E+00 0.  1.
         11    1    1    2    0    0 -0.18333230228E+02  0.19586195872E+02  0.25182159372E+02  0.36794939190E+02  0.00000000000E+00 0. -1.
</event>
<event>
 7    1  0.2788485E-009  0.1005046E+03  0.7561462E-02  0.1279238E+00
          2   -1    0    0  501    0  0.00000000000E+00  0.00000000000E+00  0.42721063068E+03  0.42721063068E+03  0.00000000000E+00 0. -1.
         -2   -1    0    0    0  501 -0.00000000000E+00 -0.00000000000E+00 -0.36607874844E+02  0.36607874844E+02  0.00000000000E+00 0.  1.
         25    2    1    2    0    0 -0.25386745633E+02  0.41537655167E+02  0.14789383801E+03  0.19972348480E+03  0.12508804663E+03 0.  0.
          5    1    3    3  502    0  0.32091332170E+02  0.12471563091E+02  0.12734975700E+03  0.13198797859E+03  0.41800000000E+01 0. -1.
         -5    1    3    3    0  502 -0.57478077803E+02  0.29066092076E+02  0.20544081012E+02  0.67735506207E+02  0.41800000000E+01 0. -1.
        -11    1    1    2    0    0  0.53332566633E+02 -0.49457844472E+02  0.19633972200E+03  0.20937938647E+03  0.00000000000E+00 0. -1.
         11    1    1    2    0    0 -0.27945821000E+02  0.79201893045E+01  0.46369195829E+02  0.54715634254E+02  0.00000000000E+00 0.  1.
</event>
<event>
 7    1  0.2788485E-009  0.9691178E+02  0.7561462E-02  0.1286927E+00
         -1   -1    0    0    0  501 -0.00000000000E+00  0.00000000000E+00  0.20794252073E+03  0.20794252073E+03  0.00000000000E+00 0.  1.
          1   -1    0    0  501    0  0.00000000000E+00 -0.00000000000E+00 -0.93098521919E+02  0.93098521919E+02  0.00000000000E+00 0. -1.
         25    2    1    2    0    0 -0.27300888292E+02  0.53029245096E+02 -0.54289562459E+01  0.13867517684E+03  0.12507554425E+03 0.  0.
          5    1    3    3  502    0 -0.52268961730E+02 -0.34474088796E+01  0.36444355745E+02  0.63949921454E+02  0.41800000000E+01 0. -1.
         -5    1    3    3    0  502  0.24968073438E+02  0.56476653976E+02 -0.41873311991E+02  0.74725255387E+02  0.41800000000E+01 0. -1.
        -11    1    1    2    0    0 -0.85281380830E+01  0.59329853256E+01 -0.10335157255E+02  0.14654177886E+02  0.00000000000E+00 0. -1.
         11    1    1    2    0    0  0.35829026375E+02 -0.58962230422E+02  0.13060811231E+03  0.14771168792E+03  0.00000000000E+00 0.  1.
</event>
<event>
 7    1  0.2788485E-009  0.9977168E+02  0.7561462E-02  0.1280777E+00
          2   -1    0    0  501    0  0.00000000000E+00  0.00000000000E+00  0.31759655707E+03  0.31759655707E+03  0.00000000000E+00 0. -1.
         -2   -1    0    0    0  501 -0.00000000000E+00 -0.00000000000E+00 -0.15702809829E+03  0.15702809829E+03  0.00000000000E+00 0.  1.
         25    2    1    2    0    0 -0.37218691772E+02  0.15348956858E+02 -0.11919804258E+03  0.17741494481E+03  0.12508824003E+03 0.  0.
          5    1    3    3  502    0 -0.56484871662E+02 -0.20370214241E+02 -0.10222856726E+02  0.61052973347E+02  0.41800000000E+01 0. -1.
         -5    1    3    3    0  502  0.19266179890E+02  0.35719171099E+02 -0.10897518585E+03  0.11636197146E+03  0.41800000000E+01 0. -1.
        -11    1    1    2    0    0 -0.21629777407E+02  0.20371549123E+02  0.11185620423E+03  0.11573529155E+03  0.00000000000E+00 0. -1.
         11    1    1    2    0    0  0.58848469179E+02 -0.35720505981E+02  0.16791029712E+03  0.18147441900E+03  0.00000000000E+00 0.  1.
</event>
<event>
 7    1  0.2788485E-009  0.1448866E+03  0.7561462E-02  0.1206901E+00
         -1   -1    0    0    0  501 -0.00000000000E+00  0.00000000000E+00  0.13043445465E+03  0.13043445465E+03  0.00000000000E+00 0.  1.
          1   -1    0    0  501    0  0.00000000000E+00 -0.00000000000E+00 -0.27206964774E+03  0.27206964774E+03  0.00000000000E+00 0. -1.
         25    2    1    2    0    0  0.73836696058E+02 -0.11262443322E+03 -0.15988104764E+03  0.24361113847E+03  0.12509323223E+03 0.  0.
          5    1    3    3  502    0 -0.31697716064E+01 -0.21748232128E+02 -0.11355203008E+03  0.11573490825E+03  0.41800000000E+01 0. -1.
         -5    1    3    3    0  502  0.77006467665E+02 -0.90876201095E+02 -0.46329017562E+02  0.12787623022E+03  0.41800000000E+01 0. -1.
        -11    1    1    2    0    0 -0.83652098325E+02  0.86626821761E+02 -0.79733279527E+01  0.12068742172E+03  0.00000000000E+00 0. -1.
         11    1    1    2    0    0  0.98154022662E+01  0.25997611461E+02  0.26219182503E+02  0.38205542196E+02  0.00000000000E+00 0.  1.
</event>
<event>
 7    1  0.2788485E-009  0.9525932E+02  0.7561462E-02  0.1290593E+00
         -1   -1    0    0    0  501 -0.00000000000E+00  0.00000000000E+00  0.16317765065E+02  0.16317765065E+02  0.00000000000E+00 0.  1.
          1   -1    0    0  501    0  0.00000000000E+00 -0.00000000000E+00 -0.12089753156E+04  0.12089753156E+04  0.00000000000E+00 0. -1.
         25    2    1    2    0    0  0.26921095041E+02 -0.11074374590E+02 -0.10152466816E+04  0.10233382566E+04  0.12509186969E+03 0.  0.
          5    1    3    3  502    0  0.63674688956E+02 -0.31623579260E+02 -0.37552051850E+03  0.38221414023E+03  0.41800000000E+01 0. -1.
         -5    1    3    3    0  502 -0.36753593916E+02  0.20549204670E+02 -0.63972616309E+03  0.64112411639E+03  0.41800000000E+01 0. -1.
        -11    1    1    2    0    0  0.11484030625E+01  0.38042810134E+02 -0.14894633248E+03  0.15373218333E+03  0.00000000000E+00 0.  1.
         11    1    1    2    0    0 -0.28069498103E+02 -0.26968435544E+02 -0.28464536432E+02  0.48222640676E+02  0.00000000000E+00 0. -1.
</event>
<event>
 7    1  0.2788485E-009  0.1258005E+03  0.7561462E-02  0.1233823E+00
          2   -1    0    0  501    0  0.00000000000E+00  0.00000000000E+00  0.39783992464E+03  0.39783992464E+03  0.00000000000E+00 0. -1.
         -2   -1    0    0    0  501 -0.00000000000E+00 -0.00000000000E+00 -0.55266781510E+02  0.55266781510E+02  0.00000000000E+00 0.  1.
         25    2    1    2    0    0  0.84034664666E+02 -0.44668670337E+02  0.23824053147E+03  0.28541671989E+03  0.12508812168E+03 0.  0.
          5    1    3    3  502    0  0.34597302269E+02 -0.59348869784E+02  0.38037145916E+02  0.78635606046E+02  0.41800000000E+01 0.  1.
         -5    1    3    3    0  502  0.49437362398E+02  0.14680199447E+02  0.20020338555E+03  0.20678111385E+03  0.41800000000E+01 0.  1.
        -11    1    1    2    0    0 -0.59161475129E+02  0.72589035288E+02  0.69863378981E+02  0.11683381320E+03  0.00000000000E+00 0.  1.
         11    1    1    2    0    0 -0.24873189538E+02 -0.27920364952E+02  0.34469232678E+02  0.50856173059E+02  0.00000000000E+00 0. -1.
</event>
<event>
 7    1  0.2788485E-009  0.1151408E+03  0.7561462E-02  0.1251335E+00
         -2   -1    0    0    0  501 -0.00000000000E+00  0.00000000000E+00  0.94586487472E+03  0.94586487472E+03  0.00000000000E+00 0. -1.
          2   -1    0    0  501    0  0.00000000000E+00 -0.00000000000E+00 -0.19225176654E+02  0.19225176654E+02  0.00000000000E+00 0.  1.
         25    2    1    2    0    0  0.28504748323E+02  0.39862669963E+02  0.73660211481E+03  0.74875380414E+03  0.12509208822E+03 0.  0.
          5    1    3    3  502    0  0.43678681943E+02 -0.31915255481E+02  0.43296119966E+03  0.43634766368E+03  0.41800000000E+01 0. -1.
         -5    1    3    3    0  502 -0.15173933619E+02  0.71777925444E+02  0.30364091515E+03  0.31240614046E+03  0.41800000000E+01 0. -1.
        -11    1    1    2    0    0 -0.49398137674E+02 -0.57065838044E+02  0.15129686444E+03  0.16907816851E+03  0.00000000000E+00 0. -1.
         11    1    1    2    0    0  0.20893389351E+02  0.17203168082E+02  0.38740718821E+02  0.47258078731E+02  0.00000000000E+00 0.  1.
</event>
<event>
 7    1  0.2788485E-009  0.1180690E+03  0.7561462E-02  0.1246317E+00
          3   -1    0    0  501    0  0.00000000000E+00  0.00000000000E+00  0.21830194183E+02  0.21830194183E+02  0.00000000000E+00 0. -1.
         -3   -1    0    0    0  501 -0.00000000000E+00 -0.00000000000E+00 -0.70658587548E+03  0.70658587548E+03  0.00000000000E+00 0.  1.
         25    2    1    2    0    0  0.53110917740E+02 -0.29173762798E+02 -0.39985337689E+03  0.42332303586E+03  0.12509113340E+03 0.  0.
          5    1    3    3  502    0 -0.36634757467E+02 -0.30664281433E+02 -0.16644741320E+03  0.17321840944E+03  0.41800000000E+01 0. -1.
         -5    1    3    3    0  502  0.89745675207E+02  0.14905186351E+01 -0.23340596370E+03  0.25010462642E+03  0.41800000000E+01 0. -1.
        -11    1    1    2    0    0 -0.57651124863E+02  0.50426726064E+02 -0.26419930108E+03  0.27507776644E+03  0.00000000000E+00 0.  1.
         11    1    1    2    0    0  0.45402071235E+01 -0.21252963266E+02 -0.20703003322E+02  0.30015267363E+02  0.00000000000E+00 0. -1.
</event>
<event>
 7    1  0.2788485E-009  0.1722438E+03  0.7561462E-02  0.1175528E+00
          2   -1    0    0  501    0  0.00000000000E+00  0.00000000000E+00  0.31361281106E+03  0.31361281106E+03  0.00000000000E+00 0. -1.
         -2   -1    0    0    0  501 -0.00000000000E+00 -0.00000000000E+00 -0.10682190969E+03  0.10682190969E+03  0.00000000000E+00 0.  1.
         25    2    1    2    0    0  0.10377906886E+03 -0.95344826989E+02  0.57955266429E+02  0.19715176925E+03  0.12509706650E+03 0.  0.
          5    1    3    3  502    0  0.31218283622E+01  0.22821904330E+02  0.32102028186E+02  0.39731571115E+02  0.41800000000E+01 0. -1.
         -5    1    3    3    0  502  0.10065724049E+03 -0.11816673132E+03  0.25853238243E+02  0.15742019814E+03  0.41800000000E+01 0. -1.
        -11    1    1    2    0    0  0.49080138687E+01  0.46290520779E+02  0.50899680189E+02  0.68975925927E+02  0.00000000000E+00 0. -1.
         11    1    1    2    0    0 -0.10868708272E+03  0.49054306210E+02  0.97935954753E+02  0.15430702558E+03  0.00000000000E+00 0.  1.
</event>
<event>
 7    1  0.2788485E-009  0.9472446E+02  0.7561462E-02  0.1291798E+00
          2   -1    0    0  501    0  0.00000000000E+00  0.00000000000E+00  0.31180797198E+03  0.31180797198E+03  0.00000000000E+00 0. -1.
         -2   -1    0    0    0  501 -0.00000000000E+00 -0.00000000000E+00 -0.51642472916E+02  0.51642472916E+02  0.00000000000E+00 0.  1.
         25    2    1    2    0    0 -0.92103601604E-01  0.57480167847E+02  0.17592960546E+03  0.22338812365E+03  0.12508816703E+03 0.  0.
          5    1    3    3  502    0 -0.17723140198E+02 -0.12648981909E+02  0.14143371414E+03  0.14316100844E+03  0.41800000000E+01 0. -1.
         -5    1    3    3    0  502  0.17631036596E+02  0.70129149756E+02  0.34495891321E+02  0.80227115211E+02  0.41800000000E+01 0. -1.
        -11    1    1    2    0    0  0.19315140283E+02 -0.69526411933E+02  0.24567611417E+02  0.76227056425E+02  0.00000000000E+00 0.  1.
         11    1    1    2    0    0 -0.19223036682E+02  0.12046244086E+02  0.59668282188E+02  0.63835264823E+02  0.00000000000E+00 0. -1.
</event>
<event>
 7    1  0.2788485E-009  0.6208742E+02  0.7561462E-02  0.1389275E+00
         -1   -1    0    0    0  501 -0.00000000000E+00  0.00000000000E+00  0.28395500486E+03  0.28395500486E+03  0.00000000000E+00 0.  1.
          1   -1    0    0  501    0  0.00000000000E+00 -0.00000000000E+00 -0.54355076791E+02  0.54355076791E+02  0.00000000000E+00 0. -1.
         25    2    1    2    0    0  0.18022642153E+02  0.35175454038E+02  0.63944253144E+02  0.14594265740E+03  0.12509301955E+03 0.  0.
          5    1    3    3  502    0  0.11638480127E+02  0.64893577938E+01  0.99015645095E+02  0.99995681696E+02  0.41800000000E+01 0. -1.
         -5    1    3    3    0  502  0.63841620259E+01  0.28686096245E+02 -0.35071391952E+02  0.45946975700E+02  0.41800000000E+01 0. -1.
        -11    1    1    2    0    0 -0.11240928646E+02  0.21065555223E+02  0.85516971464E+01  0.25362326742E+02  0.00000000000E+00 0. -1.
         11    1    1    2    0    0 -0.67817135063E+01 -0.56241009262E+02  0.15710397778E+03  0.16700509751E+03  0.00000000000E+00 0.  1.
</event>
<event>
 7    1  0.2788485E-009  0.1093216E+03  0.7561462E-02  0.1261831E+00
         -1   -1    0    0    0  501 -0.00000000000E+00  0.00000000000E+00  0.49197622702E+03  0.49197622702E+03  0.00000000000E+00 0.  1.
          1   -1    0    0  501    0  0.00000000000E+00 -0.00000000000E+00 -0.43802725051E+02  0.43802725051E+02  0.00000000000E+00 0. -1.
         25    2    1    2    0    0  0.85941313352E+02  0.17095451765E+02  0.31804046438E+03  0.35281190887E+03  0.12509333413E+03 0.  0.
          5    1    3    3  502    0 -0.36684410840E+01 -0.14959368660E+02 -0.44313880633E+01  0.16563507203E+02  0.41800000000E+01 0. -1.
         -5    1    3    3    0  502  0.89609754436E+02  0.32054820425E+02  0.32247185245E+03  0.33624840167E+03  0.41800000000E+01 0. -1.
        -11    1    1    2    0    0  0.59456055049E+01  0.99900712655E+01  0.67543769029E+02  0.68536942472E+02  0.00000000000E+00 0.  1.
         11    1    1    2    0    0 -0.91886918856E+02 -0.27085523030E+02  0.62589268557E+02  0.11443010073E+03  0.00000000000E+00 0. -1.
</event>
<event>
 7    1  0.2788485E-009  0.1807954E+03  0.7561462E-02  0.1167035E+00
         -2   -1    0    0    0  501 -0.00000000000E+00  0.00000000000E+00  0.72082584526E+02  0.72082584526E+02  0.00000000000E+00 0.  1.
          2   -1    0    0  501    0  0.00000000000E+00 -0.00000000000E+00 -0.61580386274E+03  0.61580386274E+03  0.00000000000E+00 0. -1.
         25    2    1    2    0    0 -0.17450142275E+03 -0.57965754849E+01 -0.22574191027E+03  0.31159445068E+03  0.12508934733E+03 0.  0.
          5    1    3    3  502    0 -0.25006180097E+02 -0.46441680488E+01 -0.13330891994E+03  0.13577782542E+03  0.41800000000E+01 0. -1.
         -5    1    3    3    0  502 -0.14949524265E+03 -0.11524074360E+01 -0.92432990333E+02  0.17581662527E+03  0.41800000000E+01 0. -1.
        -11    1    1    2    0    0  0.12303742101E+03 -0.26012123324E+02 -0.13939955677E+03  0.18774204099E+03  0.00000000000E+00 0.  1.
         11    1    1    2    0    0  0.51464001740E+02  0.31808698809E+02 -0.17857981117E+03  0.18854995559E+03  0.00000000000E+00 0. -1.
</event>
<event>
 7    1  0.2788485E-009  0.1196117E+03  0.7561462E-02  0.1243739E+00
         -2   -1    0    0    0  501 -0.00000000000E+00  0.00000000000E+00  0.15745028741E+02  0.15745028741E+02  0.00000000000E+00 0.  1.
          2   -1    0    0  501    0  0.00000000000E+00 -0.00000000000E+00 -0.10204645694E+04  0.10204645694E+04  0.00000000000E+00 0. -1.
         25    2    1    2    0    0  0.63784834240E+02 -0.24528935985E+02 -0.64237489241E+03  0.65799884827E+03  0.12508720216E+03 0.  0.
          5    1    3    3  502    0 -0.23991986767E+02  0.21085223252E+02 -0.69135170865E+02  0.76271530201E+02  0.41800000000E+01 0.  1.
         -5    1    3    3    0  502  0.87776821007E+02 -0.45614159237E+02 -0.57323972155E+03  0.58172731807E+03  0.41800000000E+01 0.  1.
        -11    1    1    2    0    0 -0.79256157674E+02  0.37622658804E+02 -0.28089233091E+03  0.29427453942E+03  0.00000000000E+00 0.  1.
         11    1    1    2    0    0  0.15471323434E+02 -0.13093722819E+02 -0.81452317332E+02  0.83936210450E+02  0.00000000000E+00 0. -1.
</event>
<event>
 7    1  0.2788485E-009  0.8611694E+02  0.7561462E-02  0.1312537E+00
         -2   -1    0    0    0  501 -0.00000000000E+00  0.00000000000E+00  0.11324475627E+03  0.11324475627E+03  0.00000000000E+00 0.  1.
          2   -1    0    0  501    0  0.00000000000E+00 -0.00000000000E+00 -0.12261699144E+03  0.12261699144E+03  0.00000000000E+00 0. -1.
         25    2    1    2    0    0 -0.22733151316E+02  0.87233656138E+01 -0.45090001273E+02  0.13517908737E+03  0.12508950464E+03 0.  0.
          5    1    3    3  502    0 -0.77679134189E+01  0.41662854389E+02  0.29749300873E+02  0.51948312938E+02  0.41800000000E+01 0.  1.
         -5    1    3    3    0  502 -0.14965237897E+02 -0.32939488775E+02 -0.74839302146E+02  0.83230774428E+02  0.41800000000E+01 0.  1.
        -11    1    1    2    0    0  0.56363946707E+02  0.56644494543E+01  0.14818164250E+02  0.58553893703E+02  0.00000000000E+00 0. -1.
         11    1    1    2    0    0 -0.33630795391E+02 -0.14387815068E+02  0.20899601852E+02  0.42128766640E+02  0.00000000000E+00 0.  1.
</event>
<event>
 7    1  0.2788485E-009  0.7729669E+02  0.7561462E-02  0.1336903E+00
          1   -1    0    0  501    0  0.00000000000E+00  0.00000000000E+00  0.53849995087E+02  0.53849995087E+02  0.00000000000E+00 0. -1.
         -1   -1    0    0    0  501 -0.00000000000E+00 -0.00000000000E+00 -0.23697897951E+03  0.23697897951E+03  0.00000000000E+00 0.  1.
         25    2    1    2    0    0 -0.14466611662E+02  0.28045004306E+02 -0.11995096582E+03  0.17616212641E+03  0.12509618484E+03 0.  0.
          5    1    3    3  502    0 -0.32170135735E+02  0.24008941764E+02  0.12621881356E+02  0.42286300462E+02  0.41800000000E+01 0.  1.
         -5    1    3    3    0  502  0.17703524073E+02  0.40360625420E+01 -0.13257284718E+03  0.13387582595E+03  0.41800000000E+01 0.  1.
        -11    1    1    2    0    0 -0.38231376247E+02 -0.16577738508E+02 -0.25076250705E+02  0.48634122725E+02  0.00000000000E+00 0. -1.
         11    1    1    2    0    0  0.52697987909E+02 -0.11467265797E+02 -0.38101767894E+02  0.66032725456E+02  0.00000000000E+00 0.  1.
</event>
<event>
 7    1  0.2788485E-009  0.7843577E+02  0.7561462E-02  0.1333550E+00
          2   -1    0    0  501    0  0.00000000000E+00  0.00000000000E+00  0.78894536499E+03  0.78894536499E+03  0.00000000000E+00 0. -1.
         -2   -1    0    0    0  501 -0.00000000000E+00 -0.00000000000E+00 -0.17407883502E+02  0.17407883502E+02  0.00000000000E+00 0.  1.
         25    2    1    2    0    0  0.21453875079E+02 -0.92478939361E+01  0.48467406421E+03  0.50110074719E+03  0.12508884052E+03 0.  0.
          5    1    3    3  502    0  0.34664615729E+02  0.86899889570E+01  0.47515714967E+03  0.47651751361E+03  0.41800000000E+01 0. -1.
         -5    1    3    3    0  502 -0.13210740650E+02 -0.17937882893E+02  0.95169145382E+01  0.24583233586E+02  0.41800000000E+01 0. -1.
        -11    1    1    2    0    0 -0.31695209270E+02  0.48344774528E+02  0.21673019102E+03  0.22430733206E+03  0.00000000000E+00 0. -1.
         11    1    1    2    0    0  0.10241334192E+02 -0.39096880592E+02  0.70133226259E+02  0.80945169242E+02  0.00000000000E+00 0.  1.
</event>
<event>
 7    1  0.2788485E-009  0.2444523E+03  0.7561462E-02  0.1116862E+00
         -1   -1    0    0    0  501 -0.00000000000E+00  0.00000000000E+00  0.12624276814E+03  0.12624276814E+03  0.00000000000E+00 0.  1.
          1   -1    0    0  501    0  0.00000000000E+00 -0.00000000000E+00 -0.68735199938E+03  0.68735199938E+03  0.00000000000E+00 0. -1.
         25    2    1    2    0    0  0.19562220115E+03  0.12930362863E+03 -0.48508692737E+03  0.55312292629E+03  0.12509264775E+03 0.  0.
          5    1    3    3  502    0  0.10866374692E+03  0.11026956868E+03 -0.19137350688E+03  0.24618789411E+03  0.41800000000E+01 0.  1.
         -5    1    3    3    0  502  0.86958454229E+02  0.19034059943E+02 -0.29371342049E+03  0.30693503218E+03  0.41800000000E+01 0.  1.
        -11    1    1    2    0    0 -0.28217319037E+02 -0.54895334936E+02  0.10280363438E+01  0.61731448631E+02  0.00000000000E+00 0. -1.
         11    1    1    2    0    0 -0.16740488211E+03 -0.74408293690E+02 -0.77050340213E+02  0.19874039260E+03  0.00000000000E+00 0.  1.
</event>
<event>
 7    1  0.2788485E-009  0.9264101E+02  0.7561462E-02  0.1296579E+00
          1   -1    0    0  501    0  0.00000000000E+00  0.00000000000E+00  0.14343083037E+03  0.14343083037E+03  0.00000000000E+00 0. -1.
         -1   -1    0    0    0  501 -0.00000000000E+00 -0.00000000000E+00 -0.93498526996E+02  0.93498526996E+02  0.00000000000E+00 0.  1.
         25    2    1    2    0    0 -0.33359317583E+02  0.23227507677E+02  0.27734758383E+02  0.13442254711E+03  0.12509133929E+03 0.  0.
          5    1    3    3  502    0  0.44367932817E+02  0.18107275886E+02 -0.77504618565E+01  0.48722981861E+02  0.41800000000E+01 0.  1.
         -5    1    3    3    0  502 -0.77727250400E+02  0.51202317907E+01  0.35485220239E+02  0.85699565248E+02  0.41800000000E+01 0.  1.
        -11    1    1    2    0    0  0.41263515170E+01 -0.29069289935E+02 -0.30264644051E+02  0.42166326300E+02  0.00000000000E+00 0.  1.
         11    1    1    2    0    0  0.29232966066E+02  0.58417822578E+01  0.52462189039E+02  0.60340483953E+02  0.00000000000E+00 0. -1.
</event>
<event>
 7    1  0.2788485E-009  0.1532928E+03  0.7561462E-02  0.1196484E+00
         -3   -1    0    0    0  501 -0.00000000000E+00  0.00000000000E+00  0.22878145235E+03  0.22878145235E+03  0.00000000000E+00 0.  1.
          3   -1    0    0  501    0  0.00000000000E+00 -0.00000000000E+00 -0.13692715868E+03  0.13692715868E+03  0.00000000000E+00 0. -1.
         25    2    1    2    0    0  0.12500715574E+03  0.23265538630E+00 -0.15897856424E+02  0.17755342325E+03  0.12508250538E+03 0.  0.
          5    1    3    3  502    0  0.34064636265E+02  0.53121710867E+02 -0.32270825715E+02  0.71001367604E+02  0.41800000000E+01 0.  1.
         -5    1    3    3    0  502  0.90942519477E+02 -0.52889055480E+02  0.16372969291E+02  0.10655205564E+03  0.41800000000E+01 0.  1.
        -11    1    1    2    0    0 -0.30562142308E+02  0.25900910820E+02 -0.31218323877E+01  0.40182677378E+02  0.00000000000E+00 0. -1.
         11    1    1    2    0    0 -0.94445013433E+02 -0.26133566207E+02  0.11087398248E+03  0.14797251041E+03  0.00000000000E+00 0.  1.
</event>
<event>
 7    1  0.2788485E-009  0.1193028E+03  0.7561462E-02  0.1244252E+00
         -2   -1    0    0    0  501 -0.00000000000E+00  0.00000000000E+00  0.10948455890E+03  0.10948455890E+03  0.00000000000E+00 0. -1.
          2   -1    0    0  501    0  0.00000000000E+00 -0.00000000000E+00 -0.16779140988E+03  0.16779140988E+03  0.00000000000E+00 0.  1.
         25    2    1    2    0    0 -0.49669854351E+02  0.40672724937E+02 -0.81800596204E+02  0.16267202384E+03  0.12509790093E+03 0.  0.
          5    1    3    3  502    0 -0.79973271146E+02  0.20096817273E+01 -0.80185604971E+02  0.11334445978E+03  0.41800000000E+01 0. -1.
         -5    1    3    3    0  502  0.30303416795E+02  0.38663043209E+02 -0.16149912327E+01  0.49327564062E+02  0.41800000000E+01 0. -1.
        -11    1    1    2    0    0  0.33766663980E+02 -0.68938719716E+02  0.28305100950E+02  0.81816339518E+02  0.00000000000E+00 0. -1.
         11    1    1    2    0    0  0.15903190371E+02  0.28265994779E+02 -0.48113557314E+01  0.32787605415E+02  0.00000000000E+00 0.  1.
</event>
<event>
 7    1  0.2788485E-009  0.1083672E+03  0.7561462E-02  0.1263624E+00
         -1   -1    0    0    0  501 -0.00000000000E+00  0.00000000000E+00  0.54100223065E+02  0.54100223065E+02  0.00000000000E+00 0.  1.
          1   -1    0    0  501    0  0.00000000000E+00 -0.00000000000E+00 -0.35628218119E+03  0.35628218119E+03  0.00000000000E+00 0. -1.
         25    2    1    2    0    0 -0.13612747914E+02  0.47940177350E+02 -0.27081363105E+03  0.30244108068E+03  0.12508803703E+03 0.  0.
          5    1    3    3  502    0  0.32313176970E+02  0.57759564479E+02 -0.23224111899E+03  0.24152374303E+03  0.41800000000E+01 0. -1.
         -5    1    3    3    0  502 -0.45925924884E+02 -0.98193871288E+01 -0.38572512059E+02  0.60917337652E+02  0.41800000000E+01 0. -1.
        -11    1    1    2    0    0 -0.11053706530E+02 -0.69581878033E+02 -0.22224184418E+02  0.73876495259E+02  0.00000000000E+00 0.  1.
         11    1    1    2    0    0  0.24666454444E+02  0.21641700683E+02 -0.91441426523E+01  0.34064828315E+02  0.00000000000E+00 0. -1.
</event>
<event>
 7    1  0.2788485E-009  0.9007001E+02  0.7561462E-02  0.1302682E+00
         -2   -1    0    0    0  501 -0.00000000000E+00  0.00000000000E+00  0.10549442415E+02  0.10549442415E+02  0.00000000000E+00 0.  1.
          2   -1    0    0  501    0  0.00000000000E+00 -0.00000000000E+00 -0.13321845237E+04  0.13321845237E+04  0.00000000000E+00 0. -1.
         25    2    1    2    0    0 -0.45488098224E+02 -0.79019798813E+00 -0.82574806542E+03  0.83640823729E+03  0.12509628436E+03 0.  0.
          5    1    3    3  502    0 -0.46812504154E+02  0.23973873114E+02 -0.79471343031E+03  0.79646284650E+03  0.41800000000E+01 0. -1.
         -5    1    3    3    0  502  0.13244059301E+01 -0.24764071102E+02 -0.31034635107E+02  0.39945390783E+02  0.41800000000E+01 0. -1.
        -11    1    1    2    0    0 -0.22837196093E+02  0.20952395993E+02 -0.14298876104E+03  0.14630900932E+03  0.00000000000E+00 0.  1.
         11    1    1    2    0    0  0.68325294317E+02 -0.20162198005E+02 -0.35289825480E+03  0.36001671949E+03  0.00000000000E+00 0. -1.
</event>
<event>
 7    1  0.2788485E-009  0.1206984E+03  0.7561462E-02  0.1241949E+00
          1   -1    0    0  501    0  0.00000000000E+00  0.00000000000E+00  0.53101734757E+03  0.53101734757E+03  0.00000000000E+00 0. -1.
         -1   -1    0    0    0  501 -0.00000000000E+00 -0.00000000000E+00 -0.50406639230E+02  0.50406639230E+02  0.00000000000E+00 0.  1.
         25    2    1    2    0    0  0.73403808365E+02  0.65197050227E+02  0.38295794337E+03  0.41466050176E+03  0.12509105040E+03 0.  0.
          5    1    3    3  502    0 -0.10772733146E+02 -0.16905359895E+01  0.21420996212E+03  0.21452806334E+03  0.41800000000E+01 0. -1.
         -5    1    3    3    0  502  0.84176541511E+02  0.66887586216E+02  0.16874798125E+03  0.20013243842E+03  0.41800000000E+01 0. -1.
        -11    1    1    2    0    0 -0.34418655944E+02 -0.74478458731E+02  0.96510216034E+02  0.12667243777E+03  0.00000000000E+00 0. -1.
         11    1    1    2    0    0 -0.38985152421E+02  0.92814085043E+01  0.11425489393E+01  0.40091047270E+02  0.00000000000E+00 0.  1.
</event>
<event>
 7    1  0.2788485E-009  0.8561375E+02  0.7561462E-02  0.1313835E+00
         -2   -1    0    0    0  501 -0.00000000000E+00  0.00000000000E+00  0.17112042371E+02  0.17112042371E+02  0.00000000000E+00 0.  1.
          2   -1    0    0  501    0  0.00000000000E+00 -0.00000000000E+00 -0.85122595148E+03  0.85122595148E+03  0.00000000000E+00 0. -1.
         25    2    1    2    0    0 -0.18885112696E+02  0.44888966850E+02 -0.53670731552E+03  0.55323905905E+03  0.12508815732E+03 0.  0.
          5    1    3    3  502    0 -0.51449951528E+02  0.51455363670E+02 -0.16946879392E+03  0.18447736034E+03  0.41800000000E+01 0.  1.
         -5    1    3    3    0  502  0.32564838832E+02 -0.65663968203E+01 -0.36723852160E+03  0.36876169871E+03  0.41800000000E+01 0.  1.
        -11    1    1    2    0    0 -0.13141059715E+02 -0.59015680068E+01 -0.10123718462E+01  0.14440943603E+02  0.00000000000E+00 0.  1.
         11    1    1    2    0    0  0.32026172412E+02 -0.38987398843E+02 -0.29639422175E+03  0.30065799120E+03  0.00000000000E+00 0. -1.
</event>
<event>
 7    1  0.2788485E-009  0.1803193E+03  0.7561462E-02  0.1167494E+00
          2   -1    0    0  501    0  0.00000000000E+00  0.00000000000E+00  0.81289782435E+03  0.81289782435E+03  0.00000000000E+00 0. -1.
         -2   -1    0    0    0  501 -0.00000000000E+00 -0.00000000000E+00 -0.58329485907E+02  0.58329485907E+02  0.00000000000E+00 0.  1.
         25    2    1    2    0    0 -0.10718008545E+03  0.92573346045E+02  0.63364789096E+03  0.66122188867E+03  0.12508933295E+03 0.  0.
          5    1    3    3  502    0 -0.20210738166E+02  0.99480485908E+02  0.34486480539E+03  0.35951918921E+03  0.41800000000E+01 0. -1.
         -5    1    3    3    0  502 -0.86969347280E+02 -0.69071398623E+01  0.28878308557E+03  0.30170269946E+03  0.41800000000E+01 0. -1.
        -11    1    1    2    0    0  0.36095912133E+02 -0.93901174467E+02  0.70298943570E+02  0.12272850894E+03  0.00000000000E+00 0.  1.
         11    1    1    2    0    0  0.71084173313E+02  0.13278284220E+01  0.50621503910E+02  0.87276912652E+02  0.00000000000E+00 0. -1.
</event>
<event>
 7    1  0.2788485E-009  0.1086157E+03  0.7561462E-02  0.1263155E+00
         -2   -1    0    0    0  501 -0.00000000000E+00  0.00000000000E+00  0.31373392901E+02  0.31373392901E+02  0.00000000000E+00 0.  1.
          2   -1    0    0  501    0  0.00000000000E+00 -0.00000000000E+00 -0.42738198328E+03  0.42738198328E+03  0.00000000000E+00 0. -1.
         25    2    1    2    0    0  0.37705317879E+02  0.15198672614E+02 -0.21468410501E+03  0.25177265289E+03  0.12509002019E+03 0.  0.
          5    1    3    3  502    0  0.81242860905E+02  0.18325830585E+02 -0.16897801510E+03  0.18843375627E+03  0.41800000000E+01 0.  1.
         -5    1    3    3    0  502 -0.43537543026E+02 -0.31271579703E+01 -0.45706089912E+02  0.63338896618E+02  0.41800000000E+01 0.  1.
        -11    1    1    2    0    0  0.19604431573E+02 -0.25084914463E+02 -0.25923621097E+02  0.41056312568E+02  0.00000000000E+00 0.  1.
         11    1    1    2    0    0 -0.57309749452E+02  0.98862418490E+01 -0.15540086427E+03  0.16592641073E+03  0.00000000000E+00 0. -1.
</event>
<event>
 7    1  0.2788485E-009  0.1106122E+03  0.7561462E-02  0.1259440E+00
         -1   -1    0    0    0  501 -0.00000000000E+00  0.00000000000E+00  0.15461693151E+02  0.15461693151E+02  0.00000000000E+00 0.  1.
          1   -1    0    0  501    0  0.00000000000E+00 -0.00000000000E+00 -0.18357980053E+04  0.18357980053E+04  0.00000000000E+00 0. -1.
         25    2    1    2    0    0 -0.57681659699E+02 -0.58258363924E+02 -0.15097440172E+04  0.15171340267E+04  0.12508975394E+03 0.  0.
          5    1    3    3  502    0 -0.67255552303E+02 -0.26787432249E+02 -0.14131043930E+04  0.14149637358E+04  0.41800000000E+01 0.  1.
         -5    1    3    3    0  502  0.95738926045E+01 -0.31470931675E+02 -0.96639624278E+02  0.10217029089E+03  0.41800000000E+01 0.  1.
        -11    1    1    2    0    0 -0.90403975512E+01 -0.14337922033E+02 -0.15399246702E+02  0.22900689839E+02  0.00000000000E+00 0.  1.
         11    1    1    2    0    0  0.66722057250E+02  0.72596285957E+02 -0.29519304822E+03  0.31122498192E+03  0.00000000000E+00 0. -1.
</event>
<event>
 7    1  0.2788485E-009  0.1699564E+03  0.7561462E-02  0.1177893E+00
          1   -1    0    0  501    0  0.00000000000E+00  0.00000000000E+00  0.24096174961E+03  0.24096174961E+03  0.00000000000E+00 0. -1.
         -1   -1    0    0    0  501 -0.00000000000E+00 -0.00000000000E+00 -0.16194865645E+03  0.16194865645E+03  0.00000000000E+00 0.  1.
         25    2    1    2    0    0 -0.67501520014E+01 -0.14415710430E+03  0.12200689706E+03  0.22662819783E+03  0.12509125408E+03 0.  0.
          5    1    3    3  502    0 -0.12998390188E+02 -0.15557115575E+03  0.66975568651E+02  0.16992510658E+03  0.41800000000E+01 0. -1.
         -5    1    3    3    0  502  0.62482381862E+01  0.11414051447E+02  0.55031328413E+02  0.56703091254E+02  0.41800000000E+01 0. -1.
        -11    1    1    2    0    0  0.47571178660E+02  0.60250884987E+02 -0.28330391649E+02  0.81827851443E+02  0.00000000000E+00 0.  1.
         11    1    1    2    0    0 -0.40821026659E+02  0.83906219315E+02 -0.14663412249E+02  0.94454356787E+02  0.00000000000E+00 0. -1.
</event>
<event>
 7    1  0.2788485E-009  0.1100989E+03  0.7561462E-02  0.1260387E+00
          1   -1    0    0  501    0  0.00000000000E+00  0.00000000000E+00  0.12442991733E+02  0.12442991733E+02  0.00000000000E+00 0. -1.
         -1   -1    0    0    0  501 -0.00000000000E+00 -0.00000000000E+00 -0.11062831356E+04  0.11062831356E+04  0.00000000000E+00 0.  1.
         25    2    1    2    0    0 -0.96289621148E+01 -0.11743539438E+01 -0.65638386631E+03  0.66826899986E+03  0.12509828216E+03 0.  0.
          5    1    3    3  502    0 -0.59765416488E+02 -0.24202981882E+02 -0.25359199656E+03  0.26169459769E+03  0.41800000000E+01 0. -1.
         -5    1    3    3    0  502  0.50136454373E+02  0.23028627938E+02 -0.40279186975E+03  0.40657440217E+03  0.41800000000E+01 0. -1.
        -11    1    1    2    0    0  0.52865093202E+02  0.14838396329E+02 -0.31757850237E+03  0.32229024380E+03  0.00000000000E+00 0.  1.
         11    1    1    2    0    0 -0.43236131087E+02 -0.13664042385E+02 -0.11987777516E+03  0.12816688364E+03  0.00000000000E+00 0. -1.
</event>
<event>
 7    1  0.2788485E-009  0.1243155E+03  0.7561462E-02  0.1236143E+00
         -2   -1    0    0    0  501 -0.00000000000E+00  0.00000000000E+00  0.22829511190E+02  0.22829511190E+02  0.00000000000E+00 0.  1.
          2   -1    0    0  501    0  0.00000000000E+00 -0.00000000000E+00 -0.11938141320E+04  0.11938141320E+04  0.00000000000E+00 0. -1.
         25    2    1    2    0    0  0.37965056467E+02 -0.75606215070E+02 -0.95936017268E+03  0.97117274177E+03  0.12508760189E+03 0.  0.
          5    1    3    3  502    0 -0.73912574922E+01 -0.98339636637E+02 -0.69267206532E+03  0.69966947718E+03  0.41800000000E+01 0. -1.
         -5    1    3    3    0  502  0.45356313959E+02  0.22733421567E+02 -0.26668810736E+03  0.27150326459E+03  0.41800000000E+01 0. -1.
        -11    1    1    2    0    0  0.30092525389E+01  0.51278379752E+02 -0.18257262878E+03  0.18966099391E+03  0.00000000000E+00 0. -1.
         11    1    1    2    0    0 -0.40974309006E+02  0.24327835319E+02 -0.29051819349E+02  0.55809907519E+02  0.00000000000E+00 0.  1.
</event>
<event>
 7    1  0.2788485E-009  0.1474914E+03  0.7561462E-02  0.1203590E+00
          1   -1    0    0  501    0  0.00000000000E+00  0.00000000000E+00  0.22144323636E+03  0.22144323636E+03  0.00000000000E+00 0. -1.
         -1   -1    0    0    0  501 -0.00000000000E+00 -0.00000000000E+00 -0.16489274676E+03  0.16489274676E+03  0.00000000000E+00 0.  1.
         25    2    1    2    0    0 -0.12118103507E+03  0.19076112279E+02 -0.67668422657E+02  0.18781682413E+03  0.12508957863E+03 0.  0.
          5    1    3    3  502    0  0.92460382685E+01 -0.28367449127E+02  0.58702438121E+01  0.30694194175E+02  0.41800000000E+01 0. -1.
         -5    1    3    3    0  502 -0.13042707334E+03  0.47443561406E+02 -0.73538666469E+02  0.15712262996E+03  0.41800000000E+01 0. -1.
        -11    1    1    2    0    0  0.81748541311E+02 -0.26382930661E+02  0.21938800323E+02  0.88657735118E+02  0.00000000000E+00 0.  1.
         11    1    1    2    0    0  0.39432493760E+02  0.73068183816E+01  0.10228011193E+03  0.10986142387E+03  0.00000000000E+00 0. -1.
</event>
<event>
 7    1  0.2788485E-009  0.1105509E+03  0.7561462E-02  0.1259553E+00
         -2   -1    0    0    0  501 -0.00000000000E+00  0.00000000000E+00  0.15383368546E+03  0.15383368546E+03  0.00000000000E+00 0.  1.
          2   -1    0    0  501    0  0.00000000000E+00 -0.00000000000E+00 -0.87494348965E+02  0.87494348965E+02  0.00000000000E+00 0. -1.
         25    2    1    2    0    0  0.41487565501E+02 -0.16152296404E+02  0.28819853485E+02  0.13587385030E+03  0.12509598103E+03 0.  0.
          5    1    3    3  502    0  0.17513079157E+01  0.51109206788E+02 -0.30437247869E+01  0.51399949012E+02  0.41800000000E+01 0. -1.
         -5    1    3    3    0  502  0.39736257585E+02 -0.67261503192E+02  0.31863578272E+02  0.84473901288E+02  0.41800000000E+01 0. -1.
        -11    1    1    2    0    0 -0.63557318415E+02  0.24283045207E+02  0.44039468880E+02  0.81047355465E+02  0.00000000000E+00 0.  1.
         11    1    1    2    0    0  0.22069752914E+02 -0.81307488027E+01 -0.65199858658E+01  0.24406828664E+02  0.00000000000E+00 0. -1.
</event>
<event>
 7    1  0.2788485E-009  0.1052754E+03  0.7561462E-02  0.1269578E+00
         -4   -1    0    0    0  501 -0.00000000000E+00  0.00000000000E+00  0.31909224319E+03  0.31909224319E+03  0.00000000000E+00 0.  1.
          4   -1    0    0  501    0  0.00000000000E+00 -0.00000000000E+00 -0.38521790391E+02  0.38521790391E+02  0.00000000000E+00 0. -1.
         25    2    1    2    0    0  0.19734975366E+02 -0.11945832385E+02  0.16618943662E+03  0.20927891501E+03  0.12508622330E+03 0.  0.
          5    1    3    3  502    0  0.29421324031E+02  0.48520015037E+02  0.11884166416E+03  0.13175970441E+03  0.41800000000E+01 0.  1.
         -5    1    3    3    0  502 -0.96863486650E+01 -0.60465847422E+02  0.47347772463E+02  0.77519210600E+02  0.41800000000E+01 0.  1.
        -11    1    1    2    0    0  0.67166269360E+01 -0.36481039001E+02  0.62015985188E+02  0.72263142077E+02  0.00000000000E+00 0. -1.
         11    1    1    2    0    0 -0.26451602302E+02  0.48426871386E+02  0.52365030985E+02  0.76071976487E+02  0.00000000000E+00 0.  1.
</event>
<event>
 7    1  0.3374500E-009  0.2819793E+03  0.7561462E-02  0.1094613E+00
         -2   -1    0    0    0  501 -0.00000000000E+00  0.00000000000E+00  0.72295783483E+02  0.72295783483E+02  0.00000000000E+00 0.  1.
          2   -1    0    0  501    0  0.00000000000E+00 -0.00000000000E+00 -0.11708341202E+04  0.11708341202E+04  0.00000000000E+00 0. -1.
         25    2    1    2    0    0  0.20415091505E+03 -0.17241226626E+03 -0.48390444900E+03  0.56675798251E+03  0.12509000483E+03 0.  0.
          5    1    3    3  502    0  0.16479365353E+03 -0.18510897695E+03 -0.44723001983E+03  0.51132616267E+03  0.41800000000E+01 0.  1.
         -5    1    3    3    0  502  0.39357261520E+02  0.12696710688E+02 -0.36674429168E+02  0.55431819846E+02  0.41800000000E+01 0.  1.
        -11    1    1    2    0    0 -0.87337553272E+02  0.11488159814E+03 -0.24341113368E+03  0.28297457448E+03  0.00000000000E+00 0.  1.
         11    1    1    2    0    0 -0.11681336178E+03  0.57530668119E+02 -0.37122275404E+03  0.39339734669E+03  0.00000000000E+00 0. -1.
</event>
<event>
 7    1  0.2788485E-009  0.9470152E+02  0.7561462E-02  0.1291850E+00
          1   -1    0    0  501    0  0.00000000000E+00  0.00000000000E+00  0.74875483426E+02  0.74875483426E+02  0.00000000000E+00 0. -1.
         -1   -1    0    0    0  501 -0.00000000000E+00 -0.00000000000E+00 -0.21728322516E+03  0.21728322516E+03  0.00000000000E+00 0.  1.
         25    2    1    2    0    0  0.41946694806E+02 -0.42467715999E+02 -0.10707194336E+03  0.17514390482E+03  0.12509178323E+03 0.  0.
          5    1    3    3  502    0 -0.18902729175E+02 -0.35306513924E+02  0.11272717984E+02  0.41813988885E+02  0.41800000000E+01 0.  1.
         -5    1    3    3    0  502  0.60849423981E+02 -0.71612020752E+01 -0.11834466134E+03  0.13332991593E+03  0.41800000000E+01 0.  1.
        -11    1    1    2    0    0  0.60539383101E+01  0.39144532213E+02  0.19426712060E+02  0.44117362939E+02  0.00000000000E+00 0. -1.
         11    1    1    2    0    0 -0.48000633116E+02  0.33231837861E+01 -0.54762510434E+02  0.72897440827E+02  0.00000000000E+00 0.  1.
</event>
<event>
 7    1  0.2788485E-009  0.1171717E+03  0.7561462E-02  0.1247837E+00
         -1   -1    0    0    0  501 -0.00000000000E+00  0.00000000000E+00  0.47806288682E+02  0.47806288682E+02  0.00000000000E+00 0.  1.
          1   -1    0    0  501    0  0.00000000000E+00 -0.00000000000E+00 -0.35788475333E+03  0.35788475333E+03  0.00000000000E+00 0. -1.
         25    2    1    2    0    0  0.81651040591E+02  0.17900668385E+01 -0.15635243695E+03  0.21624850375E+03  0.12508890465E+03 0.  0.
          5    1    3    3  502    0 -0.27514217521E+02 -0.97803783687E+01 -0.71793005471E+02  0.77616982687E+02  0.41800000000E+01 0. -1.
         -5    1    3    3    0  502  0.10916525811E+03  0.11570445207E+02 -0.84559431482E+02  0.13863152107E+03  0.41800000000E+01 0. -1.
        -11    1    1    2    0    0 -0.77425974336E+02  0.13966356033E+02 -0.73809679850E+02  0.10787821579E+03  0.00000000000E+00 0.  1.
         11    1    1    2    0    0 -0.42250662548E+01 -0.15756422872E+02 -0.79916347848E+02  0.81564322470E+02  0.00000000000E+00 0. -1.
</event>
<event>
 7    1  0.2788485E-009  0.1010133E+03  0.7561462E-02  0.1278179E+00
         -1   -1    0    0    0  501 -0.00000000000E+00  0.00000000000E+00  0.21988312324E+03  0.21988312324E+03  0.00000000000E+00 0.  1.
          1   -1    0    0  501    0  0.00000000000E+00 -0.00000000000E+00 -0.92317021731E+02  0.92317021731E+02  0.00000000000E+00 0. -1.
         25    2    1    2    0    0 -0.30919559929E+02 -0.62316314519E+02  0.28937317026E+01  0.14316386508E+03  0.12509267101E+03 0.  0.
          5    1    3    3  502    0 -0.29914375232E+02 -0.75407359089E+02 -0.45320661150E+02  0.93019215098E+02  0.41800000000E+01 0. -1.
         -5    1    3    3    0  502 -0.10051846970E+01  0.13091044570E+02  0.48214392853E+02  0.50144649987E+02  0.41800000000E+01 0. -1.
        -11    1    1    2    0    0 -0.26780168257E+02  0.32357036522E+02  0.21749183269E+02  0.47298860422E+02  0.00000000000E+00 0. -1.
         11    1    1    2    0    0  0.57699728186E+02  0.29959277998E+02  0.10292318654E+03  0.12173741946E+03  0.00000000000E+00 0.  1.
</event>
<event>
 7    1  0.3543400E-009  0.2206862E+03  0.7561462E-02  0.1133372E+00
         -2   -1    0    0    0  501 -0.00000000000E+00  0.00000000000E+00  0.43545940138E+02  0.43545940138E+02  0.00000000000E+00 0.  1.
          2   -1    0    0  501    0  0.00000000000E+00 -0.00000000000E+00 -0.12008960658E+04  0.12008960658E+04  0.00000000000E+00 0. -1.
         25    2    1    2    0    0 -0.14119540825E+03 -0.14284373945E+03 -0.60078636431E+03  0.64570334944E+03  0.12509229684E+03 0.  0.
          5    1    3    3  502    0 -0.38339646144E+02  0.20029142254E+02 -0.95317143835E+02  0.10475650488E+03  0.41800000000E+01 0. -1.
         -5    1    3    3    0  502 -0.10285576211E+03 -0.16287288171E+03 -0.50546922047E+03  0.54094684456E+03  0.41800000000E+01 0. -1.
        -11    1    1    2    0    0  0.95410737742E+02  0.12214387088E+03 -0.30406014989E+03  0.34128420535E+03  0.00000000000E+00 0.  1.
         11    1    1    2    0    0  0.45784670512E+02  0.20699868576E+02 -0.25250361143E+03  0.25745445111E+03  0.00000000000E+00 0. -1.
</event>
<event>
 7    1  0.2866109E-009  0.2365168E+03  0.7561462E-02  0.1122135E+00
          2   -1    0    0  501    0  0.00000000000E+00  0.00000000000E+00  0.47870273998E+03  0.47870273998E+03  0.00000000000E+00 0. -1.
         -2   -1    0    0    0  501 -0.00000000000E+00 -0.00000000000E+00 -0.14145620829E+03  0.14145620829E+03  0.00000000000E+00 0.  1.
         25    2    1    2    0    0  0.12332250663E+02  0.23110861374E+03  0.23005358681E+03  0.34947777207E+03  0.12508710811E+03 0.  0.
          5    1    3    3  502    0  0.12366567655E+02  0.71893358258E+02  0.15918185871E+03  0.17515114473E+03  0.41800000000E+01 0.  1.
         -5    1    3    3    0  502 -0.34316992278E-01  0.15921525548E+03  0.70871728100E+02  0.17432662734E+03  0.41800000000E+01 0.  1.
        -11    1    1    2    0    0  0.27109671549E+02 -0.77567601894E+02  0.55237616222E+01  0.82353986531E+02  0.00000000000E+00 0.  1.
         11    1    1    2    0    0 -0.39441922212E+02 -0.15354101185E+03  0.10166918325E+03  0.18832718967E+03  0.00000000000E+00 0. -1.
</event>
<event>
 7    1  0.2788485E-009  0.1056542E+03  0.7561462E-02  0.1268836E+00
          1   -1    0    0  501    0  0.00000000000E+00  0.00000000000E+00  0.90801371629E+03  0.90801371629E+03  0.00000000000E+00 0. -1.
         -1   -1    0    0    0  501 -0.00000000000E+00 -0.00000000000E+00 -0.20424698544E+02  0.20424698544E+02  0.00000000000E+00 0.  1.
         25    2    1    2    0    0  0.26552564732E+02 -0.65275622995E+02  0.35318455761E+03  0.38125398322E+03  0.12509725152E+03 0.  0.
          5    1    3    3  502    0  0.42093897887E+02 -0.65617307994E+02  0.96776026176E+02  0.12434065703E+03  0.41800000000E+01 0. -1.
         -5    1    3    3    0  502 -0.15541333154E+02  0.34168499837E+00  0.25640853143E+03  0.25691332619E+03  0.41800000000E+01 0. -1.
        -11    1    1    2    0    0 -0.31688574995E+02 -0.16140678596E+02  0.14150840960E+03  0.14590859221E+03  0.00000000000E+00 0.  1.
         11    1    1    2    0    0  0.51360102630E+01  0.81416301591E+02  0.39289605054E+03  0.40127583941E+03  0.00000000000E+00 0. -1.
</event>
<event>
 7    1  0.2788485E-009  0.1217651E+03  0.7561462E-02  0.1240213E+00
          2   -1    0    0  501    0  0.00000000000E+00  0.00000000000E+00  0.12653953488E+03  0.12653953488E+03  0.00000000000E+00 0. -1.
         -2   -1    0    0    0  501 -0.00000000000E+00 -0.00000000000E+00 -0.15802606647E+03  0.15802606647E+03  0.00000000000E+00 0.  1.
         25    2    1    2    0    0 -0.70599629401E+02 -0.40743414430E+02  0.29276232042E+02  0.15214885360E+03  0.12509133623E+03 0.  0.
          5    1    3    3  502    0  0.80999091853E+01 -0.63863477469E+02 -0.12632369038E+01  0.64523022641E+02  0.41800000000E+01 0. -1.
         -5    1    3    3    0  502 -0.78699538586E+02  0.23120063039E+02  0.30539468946E+02  0.87625830964E+02  0.41800000000E+01 0. -1.
        -11    1    1    2    0    0  0.15889028152E+02 -0.12749216309E+02 -0.51449649092E+02  0.55335974951E+02  0.00000000000E+00 0.  1.
         11    1    1    2    0    0  0.54710601249E+02  0.53492630739E+02 -0.93131145380E+01  0.77080772796E+02  0.00000000000E+00 0. -1.
</event>
<event>
 7    1  0.2788485E-009  0.2056701E+03  0.7561462E-02  0.1145041E+00
          2   -1    0    0  501    0  0.00000000000E+00  0.00000000000E+00  0.10571126315E+03  0.10571126315E+03  0.00000000000E+00 0. -1.
         -2   -1    0    0    0  501 -0.00000000000E+00 -0.00000000000E+00 -0.40207118787E+03  0.40207118787E+03  0.00000000000E+00 0.  1.
         25    2    1    2    0    0 -0.86528079114E+02 -0.15148733518E+03 -0.13769040921E+03  0.25503454071E+03  0.12509375272E+03 0.  0.
          5    1    3    3  502    0 -0.11395804143E+03 -0.14778299335E+03 -0.11873893467E+03  0.22122986990E+03  0.41800000000E+01 0.  1.
         -5    1    3    3    0  502  0.27429962315E+02 -0.37043418334E+01 -0.18951474540E+02  0.33804670805E+02  0.41800000000E+01 0.  1.
        -11    1    1    2    0    0  0.92740164141E+02  0.73197100312E+02 -0.98216283072E+02  0.15363916102E+03  0.00000000000E+00 0.  1.
         11    1    1    2    0    0 -0.62120850275E+01  0.78290234869E+02 -0.60453232434E+02  0.99108749300E+02  0.00000000000E+00 0. -1.
</event>
<event>
 7    1  0.2788485E-009  0.1155103E+03  0.7561462E-02  0.1250693E+00
          2   -1    0    0  501    0  0.00000000000E+00  0.00000000000E+00  0.12299628118E+03  0.12299628118E+03  0.00000000000E+00 0. -1.
         -2   -1    0    0    0  501 -0.00000000000E+00 -0.00000000000E+00 -0.17596599453E+03  0.17596599453E+03  0.00000000000E+00 0.  1.
         25    2    1    2    0    0 -0.62530989302E+02  0.54076484230E+02  0.26404845113E+02  0.15225052549E+03  0.12509442792E+03 0.  0.
          5    1    3    3  502    0 -0.28864057238E+02  0.65818180684E+02  0.66799912763E+02  0.98208286076E+02  0.41800000000E+01 0. -1.
         -5    1    3    3    0  502 -0.33666932065E+02 -0.11741696454E+02 -0.40395067651E+02  0.54042239413E+02  0.41800000000E+01 0. -1.
        -11    1    1    2    0    0  0.46607756381E+02 -0.80070018177E+02 -0.55565251118E+02  0.10803234653E+03  0.00000000000E+00 0. -1.
         11    1    1    2    0    0  0.15923232921E+02  0.25993533947E+02 -0.23809307337E+02  0.38679403687E+02  0.00000000000E+00 0.  1.
</event>
<event>
 7    1  0.2788485E-009  0.8884305E+02  0.7561462E-02  0.1305678E+00
          2   -1    0    0  501    0  0.00000000000E+00  0.00000000000E+00  0.94474474595E+02  0.94474474595E+02  0.00000000000E+00 0. -1.
         -2   -1    0    0    0  501 -0.00000000000E+00 -0.00000000000E+00 -0.13372432201E+03  0.13372432201E+03  0.00000000000E+00 0.  1.
         25    2    1    2    0    0 -0.30550462780E+02  0.85466144048E+01 -0.41285530550E+02  0.13549929428E+03  0.12509671588E+03 0.  0.
          5    1    3    3  502    0  0.17061333025E+02 -0.26226913896E+02  0.29552716689E+02  0.43240901481E+02  0.41800000000E+01 0. -1.
         -5    1    3    3    0  502 -0.47611795805E+02  0.34773528301E+02 -0.70838247239E+02  0.92258392801E+02  0.41800000000E+01 0. -1.
        -11    1    1    2    0    0  0.57309509918E+02 -0.15495123649E+02 -0.13645613726E+02  0.60915363890E+02  0.00000000000E+00 0.  1.
         11    1    1    2    0    0 -0.26759047138E+02  0.69485092441E+01  0.15681296864E+02  0.31784138430E+02  0.00000000000E+00 0. -1.
</event>
<event>
 7    1  0.2788485E-009  0.1004880E+03  0.7561462E-02  0.1279273E+00
         -1   -1    0    0    0  501 -0.00000000000E+00  0.00000000000E+00  0.51133870102E+02  0.51133870102E+02  0.00000000000E+00 0.  1.
          1   -1    0    0  501    0  0.00000000000E+00 -0.00000000000E+00 -0.63871785576E+03  0.63871785576E+03  0.00000000000E+00 0. -1.
         25    2    1    2    0    0 -0.98140976402E+01  0.37909004452E+01 -0.59285994937E+03  0.60600459233E+03  0.12509180197E+03 0.  0.
          5    1    3    3  502    0 -0.79088450970E+00 -0.60224605681E+02 -0.26264731763E+03  0.26949715116E+03  0.41800000000E+01 0.  1.
         -5    1    3    3    0  502 -0.90232131305E+01  0.64015506126E+02 -0.33021263174E+03  0.33650744117E+03  0.41800000000E+01 0.  1.
        -11    1    1    2    0    0 -0.65068409124E+01 -0.37661947006E+02 -0.15085766325E+02  0.41089433880E+02  0.00000000000E+00 0. -1.
         11    1    1    2    0    0  0.16320938553E+02  0.33871046561E+02  0.20361730029E+02  0.42757699659E+02  0.00000000000E+00 0.  1.
</event>
<event>
 7    1  0.2788485E-009  0.1127818E+03  0.7561462E-02  0.1255503E+00
          1   -1    0    0  501    0  0.00000000000E+00  0.00000000000E+00  0.59789753819E+02  0.59789753819E+02  0.00000000000E+00 0. -1.
         -1   -1    0    0    0  501 -0.00000000000E+00 -0.00000000000E+00 -0.28501669203E+03  0.28501669203E+03  0.00000000000E+00 0.  1.
         25    2    1    2    0    0  0.55515511284E+02 -0.38786815280E+02 -0.15802564168E+03  0.21261682294E+03  0.12508965160E+03 0.  0.
          5    1    3    3  502    0 -0.22350584407E+02 -0.23363921875E+02  0.33026158056E+01  0.32768905076E+02  0.41800000000E+01 0. -1.
         -5    1    3    3    0  502  0.77866095691E+02 -0.15422893405E+02 -0.16132825748E+03  0.17984791787E+03  0.41800000000E+01 0. -1.
        -11    1    1    2    0    0  0.23530409646E+00  0.55321225541E+02 -0.38024980662E+02  0.67129669429E+02  0.00000000000E+00 0. -1.
         11    1    1    2    0    0 -0.55750815381E+02 -0.16534410261E+02 -0.29176315871E+02  0.65059953475E+02  0.00000000000E+00 0.  1.
</event>
<event>
 7    1  0.2788485E-009  0.1077813E+03  0.7561462E-02  0.1264735E+00
         -2   -1    0    0    0  501 -0.00000000000E+00  0.00000000000E+00  0.26945827016E+02  0.26945827016E+02  0.00000000000E+00 0.  1.
          2   -1    0    0  501    0  0.00000000000E+00 -0.00000000000E+00 -0.48333711768E+03  0.48333711768E+03  0.00000000000E+00 0. -1.
         25    2    1    2    0    0 -0.81492503831E+01  0.40180100067E+02 -0.30406150806E+03  0.33132993317E+03  0.12508106654E+03 0.  0.
          5    1    3    3  502    0  0.35709064874E+02  0.68306559187E+02 -0.15093553788E+03  0.16952855906E+03  0.41800000000E+01 0. -1.
         -5    1    3    3    0  502 -0.43858315257E+02 -0.28126459120E+02 -0.15312597017E+03  0.16180137410E+03  0.41800000000E+01 0. -1.
        -11    1    1    2    0    0 -0.30418386531E+02 -0.15164659663E-01 -0.91789555755E+02  0.96698505753E+02  0.00000000000E+00 0. -1.
         11    1    1    2    0    0  0.38567636914E+02 -0.40164935408E+02 -0.60540226853E+02  0.82254505779E+02  0.00000000000E+00 0.  1.
</event>
<event>
 7    1  0.2788485E-009  0.1065053E+03  0.7561462E-02  0.1267182E+00
         -2   -1    0    0    0  501 -0.00000000000E+00  0.00000000000E+00  0.50418539453E+03  0.50418539453E+03  0.00000000000E+00 0. -1.
          2   -1    0    0  501    0  0.00000000000E+00 -0.00000000000E+00 -0.26562349927E+02  0.26562349927E+02  0.00000000000E+00 0.  1.
         25    2    1    2    0    0 -0.42237099811E+02  0.76465908037E+01  0.26109232366E+03  0.29267506887E+03  0.12508817496E+03 0.  0.
          5    1    3    3  502    0  0.37698451633E+02  0.29573404610E+02  0.11503838848E+03  0.12468786124E+03  0.41800000000E+01 0. -1.
         -5    1    3    3    0  502 -0.79935551444E+02 -0.21926813807E+02  0.14605393517E+03  0.16798720763E+03  0.41800000000E+01 0. -1.
        -11    1    1    2    0    0  0.34250534052E+02 -0.37635051985E+02  0.19166690754E+03  0.19830708425E+03  0.00000000000E+00 0. -1.
         11    1    1    2    0    0  0.79865657586E+01  0.29988461182E+02  0.24863813411E+02  0.39765591332E+02  0.00000000000E+00 0.  1.
</event>
<event>
 7    1  0.2788485E-009  0.1032190E+03  0.7561462E-02  0.1273669E+00
          1   -1    0    0  501    0  0.00000000000E+00  0.00000000000E+00  0.40142343485E+02  0.40142343485E+02  0.00000000000E+00 0. -1.
         -1   -1    0    0    0  501 -0.00000000000E+00 -0.00000000000E+00 -0.44038559405E+03  0.44038559405E+03  0.00000000000E+00 0.  1.
         25    2    1    2    0    0 -0.24520285500E+02  0.20893139287E+02 -0.97038813590E+02  0.16156284325E+03  0.12509297864E+03 0.  0.
          5    1    3    3  502    0  0.44297202835E+02  0.25056080855E+02 -0.71629071394E+02  0.87967298671E+02  0.41800000000E+01 0. -1.
         -5    1    3    3    0  502 -0.68817488335E+02 -0.41629415684E+01 -0.25409742196E+02  0.73595544578E+02  0.41800000000E+01 0. -1.
        -11    1    1    2    0    0 -0.17146120036E+01  0.29468805984E+02 -0.40046314236E+02  0.49749951802E+02  0.00000000000E+00 0. -1.
         11    1    1    2    0    0  0.26234897504E+02 -0.50361945270E+02 -0.26315812274E+03  0.26921514249E+03  0.00000000000E+00 0.  1.
</event>
<event>
 7    1  0.2788485E-009  0.8386916E+02  0.7561462E-02  0.1318417E+00
          2   -1    0    0  501    0  0.00000000000E+00  0.00000000000E+00  0.61491094715E+03  0.61491094715E+03  0.00000000000E+00 0. -1.
         -2   -1    0    0    0  501 -0.00000000000E+00 -0.00000000000E+00 -0.25258347594E+02  0.25258347594E+02  0.00000000000E+00 0.  1.
         25    2    1    2    0    0  0.61657966266E+01  0.54737601665E+02  0.25862773883E+03  0.29252363276E+03  0.12509015287E+03 0.  0.
          5    1    3    3  502    0 -0.21998424742E+02  0.37719572314E+02  0.25546346385E+03  0.25920214233E+03  0.41800000000E+01 0. -1.
         -5    1    3    3    0  502  0.28164221369E+02  0.17018029352E+02  0.31642749856E+01  0.33321490430E+02  0.41800000000E+01 0. -1.
        -11    1    1    2    0    0 -0.39187740179E+02 -0.27166731766E+02  0.26206664004E+03  0.26636935656E+03  0.00000000000E+00 0.  1.
         11    1    1    2    0    0  0.33021943552E+02 -0.27570869899E+02  0.68958220688E+02  0.81276305424E+02  0.00000000000E+00 0. -1.
</event>
<event>
 7    1  0.2788485E-009  0.1283068E+03  0.7561462E-02  0.1229990E+00
          1   -1    0    0  501    0  0.00000000000E+00  0.00000000000E+00  0.42765275380E+02  0.42765275380E+02  0.00000000000E+00 0. -1.
         -1   -1    0    0    0  501 -0.00000000000E+00 -0.00000000000E+00 -0.42579091487E+03  0.42579091487E+03  0.00000000000E+00 0.  1.
         25    2    1    2    0    0  0.54218402484E+02  0.50008921969E+02 -0.16707571241E+03  0.22137222634E+03  0.12510332318E+03 0.  0.
          5    1    3    3  502    0  0.37505617186E+02 -0.38757635154E+02 -0.52155724561E+02  0.75143313793E+02  0.41800000000E+01 0.  1.
         -5    1    3    3    0  502  0.16712785298E+02  0.88766557123E+02 -0.11491998785E+03  0.14622891254E+03  0.41800000000E+01 0.  1.
        -11    1    1    2    0    0 -0.45930806949E+02 -0.73786930038E+02 -0.19807111130E+03  0.21630144521E+03  0.00000000000E+00 0.  1.
         11    1    1    2    0    0 -0.82875955347E+01  0.23778008069E+02 -0.17878815777E+02  0.30882518696E+02  0.00000000000E+00 0. -1.
</event>
<event>
 7    1  0.2788485E-009  0.1004157E+03  0.7561462E-02  0.1279424E+00
         -1   -1    0    0    0  501 -0.00000000000E+00  0.00000000000E+00  0.47835069245E+03  0.47835069245E+03  0.00000000000E+00 0.  1.
          1   -1    0    0  501    0  0.00000000000E+00 -0.00000000000E+00 -0.31464858359E+02  0.31464858359E+02  0.00000000000E+00 0. -1.
         25    2    1    2    0    0 -0.37902401290E+02 -0.33675902198E+02  0.19408845195E+03  0.23640711917E+03  0.12508932967E+03 0.  0.
          5    1    3    3  502    0 -0.56802068105E+02  0.23461051340E+01  0.24652672376E+02  0.62106407122E+02  0.41800000000E+01 0. -1.
         -5    1    3    3    0  502  0.18899666815E+02 -0.36022007332E+02  0.16943577958E+03  0.17430071204E+03  0.41800000000E+01 0. -1.
        -11    1    1    2    0    0 -0.12780336269E+02  0.48477835513E+02  0.10244372968E+03  0.11405330018E+03  0.00000000000E+00 0. -1.
         11    1    1    2    0    0  0.50682737559E+02 -0.14801933315E+02  0.15035365246E+03  0.15935513146E+03  0.00000000000E+00 0.  1.
</event>
<event>
 7    1  0.2788485E-009  0.3246021E+03  0.7561462E-02  0.1073551E+00
          2   -1    0    0  501    0  0.00000000000E+00  0.00000000000E+00  0.42297763787E+03  0.42297763787E+03  0.00000000000E+00 0. -1.
         -2   -1    0    0    0  501 -0.00000000000E+00 -0.00000000000E+00 -0.30469755908E+03  0.30469755908E+03  0.00000000000E+00 0.  1.
         25    2    1    2    0    0 -0.27936606011E+03 -0.14889123377E+03 -0.71095954472E+02  0.34773119541E+03  0.12509338306E+03 0.  0.
          5    1    3    3  502    0 -0.10609426905E+03 -0.10434877559E+03  0.14092605106E+02  0.14953506215E+03  0.41800000000E+01 0.  1.
         -5    1    3    3    0  502 -0.17327179106E+03 -0.44542458178E+02 -0.85188559579E+02  0.19819613327E+03  0.41800000000E+01 0.  1.
        -11    1    1    2    0    0  0.90143112489E+02  0.78357735146E+02  0.11184547790E+03  0.16363106769E+03  0.00000000000E+00 0. -1.
         11    1    1    2    0    0  0.18922294762E+03  0.70533498625E+02  0.77530555363E+02  0.21631293385E+03  0.00000000000E+00 0.  1.
</event>
<event>
 7    1  0.2788485E-009  0.1093292E+03  0.7561462E-02  0.1261817E+00
         -4   -1    0    0    0  501 -0.00000000000E+00  0.00000000000E+00  0.79522785349E+03  0.79522785349E+03  0.00000000000E+00 0.  1.
          4   -1    0    0  501    0  0.00000000000E+00 -0.00000000000E+00 -0.15704926869E+02  0.15704926869E+02  0.00000000000E+00 0. -1.
         25    2    1    2    0    0 -0.21069264391E+02 -0.12053263847E+02  0.52401005195E+03  0.53928032454E+03  0.12509012276E+03 0.  0.
          5    1    3    3  502    0  0.53453977489E+01  0.54467187677E+02  0.19703239282E+03  0.20453479907E+03  0.41800000000E+01 0. -1.
         -5    1    3    3    0  502 -0.26414662139E+02 -0.66520451524E+02  0.32697765913E+03  0.33474552547E+03  0.41800000000E+01 0. -1.
        -11    1    1    2    0    0  0.85287869690E+01  0.50716714940E+02  0.15072550597E+03  0.15925797792E+03  0.00000000000E+00 0. -1.
         11    1    1    2    0    0  0.12540477422E+02 -0.38663451093E+02  0.10478736870E+03  0.11239447790E+03  0.00000000000E+00 0.  1.
</event>
<event>
 7    1  0.2788485E-009  0.2146683E+03  0.7561462E-02  0.1137922E+00
          1   -1    0    0  501    0  0.00000000000E+00  0.00000000000E+00  0.10204272240E+04  0.10204272240E+04  0.00000000000E+00 0. -1.
         -1   -1    0    0    0  501 -0.00000000000E+00 -0.00000000000E+00 -0.52423885780E+02  0.52423885780E+02  0.00000000000E+00 0.  1.
         25    2    1    2    0    0  0.77967146753E+02 -0.17723912737E+03  0.65197445143E+03  0.69152810770E+03  0.12509138336E+03 0.  0.
          5    1    3    3  502    0 -0.20036387968E+02 -0.59980126655E+02  0.96895237602E+02  0.11578096522E+03  0.41800000000E+01 0.  1.
         -5    1    3    3    0  502  0.98003534721E+02 -0.11725900071E+03  0.55507921382E+03  0.57574714249E+03  0.41800000000E+01 0.  1.
        -11    1    1    2    0    0  0.19985438517E+02  0.24283087191E+02  0.54170689977E+02  0.62638244938E+02  0.00000000000E+00 0. -1.
         11    1    1    2    0    0 -0.97952585270E+02  0.15295604018E+03  0.26185819679E+03  0.31868475710E+03  0.00000000000E+00 0.  1.
</event>
<event>
 7    1  0.2788485E-009  0.1264067E+03  0.7561462E-02  0.1232887E+00
         -1   -1    0    0    0  501 -0.00000000000E+00  0.00000000000E+00  0.39135493944E+02  0.39135493944E+02  0.00000000000E+00 0.  1.
          1   -1    0    0  501    0  0.00000000000E+00 -0.00000000000E+00 -0.53500901334E+03  0.53500901334E+03  0.00000000000E+00 0. -1.
         25    2    1    2    0    0 -0.28061374553E+02  0.76871624353E+02 -0.17437957843E+03  0.22968165485E+03  0.12509491528E+03 0.  0.
          5    1    3    3  502    0 -0.70820989660E+02  0.79069014620E+02 -0.11818820302E+03  0.15891332664E+03  0.41800000000E+01 0.  1.
         -5    1    3    3    0  502  0.42759615107E+02 -0.21973902670E+01 -0.56191375405E+02  0.70768328213E+02  0.41800000000E+01 0.  1.
        -11    1    1    2    0    0 -0.19755412222E+02 -0.34093906630E+02 -0.22605117261E+03  0.22945980785E+03  0.00000000000E+00 0. -1.
         11    1    1    2    0    0  0.47816786775E+02 -0.42777717722E+02 -0.95442768362E+02  0.11500304458E+03  0.00000000000E+00 0.  1.
</event>
<event>
 7    1  0.2788485E-009  0.1616040E+03  0.7561462E-02  0.1186898E+00
          2   -1    0    0  501    0  0.00000000000E+00  0.00000000000E+00  0.16509827530E+03  0.16509827530E+03  0.00000000000E+00 0.  1.
         -2   -1    0    0    0  501 -0.00000000000E+00 -0.00000000000E+00 -0.21661009397E+03  0.21661009397E+03  0.00000000000E+00 0. -1.
         25    2    1    2    0    0  0.15345351637E+03  0.12541766048E+02 -0.12501235742E+02  0.19876834642E+03  0.12508915645E+03 0.  0.
          5    1    3    3  502    0  0.11471454703E+03 -0.12840590795E+02  0.45745708396E+02  0.12423546317E+03  0.41800000000E+01 0. -1.
         -5    1    3    3    0  502  0.38738969337E+02  0.25382356843E+02 -0.58246944138E+02  0.74532883250E+02  0.41800000000E+01 0. -1.
        -11    1    1    2    0    0 -0.45883294400E+02 -0.26084997514E+02  0.23517327053E+02  0.57782077429E+02  0.00000000000E+00 0.  1.
         11    1    1    2    0    0 -0.10757022197E+03  0.13543231466E+02 -0.62527909979E+02  0.12515794541E+03  0.00000000000E+00 0. -1.
</event>
<event>
 7    1  0.2788485E-009  0.1080588E+03  0.7561462E-02  0.1264207E+00
          2   -1    0    0  501    0  0.00000000000E+00  0.00000000000E+00  0.55386231213E+02  0.55386231213E+02  0.00000000000E+00 0. -1.
         -2   -1    0    0    0  501 -0.00000000000E+00 -0.00000000000E+00 -0.24475909560E+03  0.24475909560E+03  0.00000000000E+00 0.  1.
         25    2    1    2    0    0  0.34565089339E+02 -0.21665495961E+01 -0.73764249266E+02  0.14928835638E+03  0.12508560885E+03 0.  0.
          5    1    3    3  502    0  0.22303201346E+02 -0.61909565814E+02 -0.23019701436E+02  0.69839860994E+02  0.41800000000E+01 0.  1.
         -5    1    3    3    0  502  0.12261887993E+02  0.59743016217E+02 -0.50744547830E+02  0.79448495382E+02  0.41800000000E+01 0.  1.
        -11    1    1    2    0    0 -0.31024886220E+02 -0.37813749871E+02 -0.32969557708E+02  0.58986566096E+02  0.00000000000E+00 0. -1.
         11    1    1    2    0    0 -0.35402031189E+01  0.39980299467E+02 -0.82639057417E+02  0.91870404344E+02  0.00000000000E+00 0.  1.
</event>
<event>
 7    1  0.2788485E-009  0.1280322E+03  0.7561462E-02  0.1230405E+00
         -2   -1    0    0    0  501 -0.00000000000E+00  0.00000000000E+00  0.31778333616E+02  0.31778333616E+02  0.00000000000E+00 0.  1.
          2   -1    0    0  501    0  0.00000000000E+00 -0.00000000000E+00 -0.67501237080E+03  0.67501237080E+03  0.00000000000E+00 0. -1.
         25    2    1    2    0    0  0.24251510033E+01 -0.69098201327E+02 -0.18040241361E+03  0.23015916525E+03  0.12509103777E+03 0.  0.
          5    1    3    3  502    0 -0.59646371102E+02 -0.47474446855E+02 -0.85307372433E+02  0.11448289340E+03  0.41800000000E+01 0.  1.
         -5    1    3    3    0  502  0.62071522105E+02 -0.21623754472E+02 -0.95095041173E+02  0.11567627185E+03  0.41800000000E+01 0.  1.
        -11    1    1    2    0    0 -0.31435943997E+02 -0.71795055789E+01 -0.13366468297E+03  0.13749913218E+03  0.00000000000E+00 0. -1.
         11    1    1    2    0    0  0.29010792993E+02  0.76277706906E+02 -0.32916694060E+03  0.33913240698E+03  0.00000000000E+00 0.  1.
</event>
<event>
 7    1  0.2788485E-009  0.1080921E+03  0.7561462E-02  0.1264144E+00
         -1   -1    0    0    0  501 -0.00000000000E+00  0.00000000000E+00  0.39442205792E+03  0.39442205792E+03  0.00000000000E+00 0.  1.
          1   -1    0    0  501    0  0.00000000000E+00 -0.00000000000E+00 -0.43356785262E+02  0.43356785262E+02  0.00000000000E+00 0. -1.
         25    2    1    2    0    0 -0.26843348210E+02 -0.16978140499E+02  0.30309072876E+03  0.32943039810E+03  0.12510625376E+03 0.  0.
          5    1    3    3  502    0 -0.64424832346E+02  0.23871740293E+02  0.20970999770E+03  0.22071740879E+03  0.41800000000E+01 0.  1.
         -5    1    3    3    0  502  0.37581484136E+02 -0.40849880792E+02  0.93380731067E+02  0.10871298931E+03  0.41800000000E+01 0.  1.
        -11    1    1    2    0    0 -0.30853780646E+02  0.14087320062E+02  0.35788880639E+02  0.49307731078E+02  0.00000000000E+00 0.  1.
         11    1    1    2    0    0  0.57697128856E+02  0.28908204369E+01  0.12185663253E+02  0.59040714003E+02  0.00000000000E+00 0. -1.
</event>
<event>
 7    1  0.3058558E-009  0.6309016E+02  0.7561462E-02  0.1385303E+00
         -2   -1    0    0    0  501 -0.00000000000E+00  0.00000000000E+00  0.16318112355E+03  0.16318112355E+03  0.00000000000E+00 0.  1.
          2   -1    0    0  501    0  0.00000000000E+00 -0.00000000000E+00 -0.85114850174E+02  0.85114850174E+02  0.00000000000E+00 0. -1.
         25    2    1    2    0    0 -0.62239100241E+01  0.45148723934E+02  0.45537364700E+02  0.14070851457E+03  0.12509232654E+03 0.  0.
          5    1    3    3  502    0 -0.35717842454E+02  0.31205383300E+02 -0.31400589634E+02  0.57035161487E+02  0.41800000000E+01 0. -1.
         -5    1    3    3    0  502  0.29493932430E+02  0.13943340634E+02  0.76937954334E+02  0.83673353078E+02  0.41800000000E+01 0. -1.
        -11    1    1    2    0    0  0.38204266751E+00 -0.12737814527E+02 -0.32382356220E+02  0.34799638933E+02  0.00000000000E+00 0. -1.
         11    1    1    2    0    0  0.58418673566E+01 -0.32410909407E+02  0.64911264897E+02  0.72787820227E+02  0.00000000000E+00 0.  1.
</event>
<event>
 7    1  0.2788485E-009  0.1677125E+03  0.7561462E-02  0.1180255E+00
          2   -1    0    0  501    0  0.00000000000E+00  0.00000000000E+00  0.90081431226E+02  0.90081431226E+02  0.00000000000E+00 0. -1.
         -2   -1    0    0    0  501 -0.00000000000E+00 -0.00000000000E+00 -0.43032790023E+03  0.43032790023E+03  0.00000000000E+00 0.  1.
         25    2    1    2    0    0 -0.14403381149E+03 -0.15403620440E+02 -0.28077424174E+03  0.33980122068E+03  0.12509070458E+03 0.  0.
          5    1    3    3  502    0 -0.86364749269E+02 -0.66545865854E+02 -0.20155282827E+03  0.22919039500E+03  0.41800000000E+01 0. -1.
         -5    1    3    3    0  502 -0.57669062222E+02  0.51142245414E+02 -0.79221413475E+02  0.11061082567E+03  0.41800000000E+01 0. -1.
        -11    1    1    2    0    0  0.87060455249E+02  0.26655956964E+02 -0.77746228923E+02  0.11972693524E+03  0.00000000000E+00 0.  1.
         11    1    1    2    0    0  0.56973356242E+02 -0.11252336524E+02  0.18274001661E+02  0.60881175542E+02  0.00000000000E+00 0. -1.
</event>
<event>
 7    1  0.2788485E-009  0.1342034E+03  0.7561462E-02  0.1221349E+00
          1   -1    0    0  501    0  0.00000000000E+00  0.00000000000E+00  0.14224057670E+04  0.14224057670E+04  0.00000000000E+00 0. -1.
         -1   -1    0    0    0  501 -0.00000000000E+00 -0.00000000000E+00 -0.16052879673E+02  0.16052879673E+02  0.00000000000E+00 0.  1.
         25    2    1    2    0    0  0.88778470931E+02  0.51672617596E+02  0.88828262368E+03  0.90290866998E+03  0.12508545270E+03 0.  0.
          5    1    3    3  502    0  0.89453903861E+02  0.70659618935E+02  0.45129919071E+03  0.46549244312E+03  0.41800000000E+01 0.  1.
         -5    1    3    3    0  502 -0.67543293043E+00 -0.18987001339E+02  0.43698343297E+03  0.43741622686E+03  0.41800000000E+01 0.  1.
        -11    1    1    2    0    0  0.16433136460E+02  0.23687866889E+01  0.85693457677E+02  0.87287042641E+02  0.00000000000E+00 0.  1.
         11    1    1    2    0    0 -0.10521160739E+03 -0.54041404285E+02  0.43237680593E+03  0.44826293402E+03  0.00000000000E+00 0. -1.
</event>
<event>
 7    1  0.2788485E-009  0.1109777E+03  0.7561462E-02  0.1258770E+00
          2   -1    0    0  501    0  0.00000000000E+00  0.00000000000E+00  0.61706219451E+03  0.61706219451E+03  0.00000000000E+00 0. -1.
         -2   -1    0    0    0  501 -0.00000000000E+00 -0.00000000000E+00 -0.26994900974E+02  0.26994900974E+02  0.00000000000E+00 0.  1.
         25    2    1    2    0    0  0.53070587775E+02 -0.44568871869E+02  0.35786323472E+03  0.38537959255E+03  0.12509382066E+03 0.  0.
          5    1    3    3  502    0  0.15236124693E+02 -0.76134031763E+02  0.12413020223E+03  0.14647289781E+03  0.41800000000E+01 0. -1.
         -5    1    3    3    0  502  0.37834463081E+02  0.31565159894E+02  0.23373303248E+03  0.23890669474E+03  0.41800000000E+01 0. -1.
        -11    1    1    2    0    0 -0.93960054328E+01  0.49876327663E+02  0.19361310381E+03  0.20015485742E+03  0.00000000000E+00 0. -1.
         11    1    1    2    0    0 -0.43674582342E+02 -0.53074557933E+01  0.38590955005E+02  0.58522645514E+02  0.00000000000E+00 0.  1.
</event>
<event>
 7    1  0.2788485E-009  0.9504490E+02  0.7561462E-02  0.1291075E+00
          1   -1    0    0  501    0  0.00000000000E+00  0.00000000000E+00  0.53967839215E+02  0.53967839215E+02  0.00000000000E+00 0. -1.
         -1   -1    0    0    0  501 -0.00000000000E+00 -0.00000000000E+00 -0.23597248175E+03  0.23597248175E+03  0.00000000000E+00 0.  1.
         25    2    1    2    0    0  0.17027528219E+02 -0.18768391869E+02 -0.12730272879E+03  0.18026846028E+03  0.12509413961E+03 0.  0.
          5    1    3    3  502    0  0.62343838931E+02 -0.38344927604E+02 -0.51045566255E+02  0.89332020910E+02  0.41800000000E+01 0. -1.
         -5    1    3    3    0  502 -0.45316310712E+02  0.19576535735E+02 -0.76257162537E+02  0.90936439374E+02  0.41800000000E+01 0. -1.
        -11    1    1    2    0    0 -0.40769780069E+02  0.10542102435E+02 -0.68945479879E+02  0.80788551704E+02  0.00000000000E+00 0.  1.
         11    1    1    2    0    0  0.23742251850E+02  0.82262894338E+01  0.14243566141E+02  0.28883308972E+02  0.00000000000E+00 0. -1.
</event>
<event>
 7    1  0.2788485E-009  0.1525310E+03  0.7561462E-02  0.1197397E+00
          3   -1    0    0  501    0  0.00000000000E+00  0.00000000000E+00  0.54091829400E+02  0.54091829400E+02  0.00000000000E+00 0. -1.
         -3   -1    0    0    0  501 -0.00000000000E+00 -0.00000000000E+00 -0.71984444833E+03  0.71984444833E+03  0.00000000000E+00 0.  1.
         25    2    1    2    0    0  0.62830612813E+01 -0.12658920188E+03 -0.55431753692E+03  0.58221841542E+03  0.12508416619E+03 0.  0.
          5    1    3    3  502    0 -0.18955589085E+02  0.20776310394E+02 -0.94733099267E+02  0.98908047841E+02  0.41800000000E+01 0.  1.
         -5    1    3    3    0  502  0.25238650366E+02 -0.14736551227E+03 -0.45958443765E+03  0.48331036758E+03  0.41800000000E+01 0.  1.
        -11    1    1    2    0    0  0.21392364753E+01  0.41281979153E+02  0.10515082965E+02  0.42653781840E+02  0.00000000000E+00 0. -1.
         11    1    1    2    0    0 -0.84222977566E+01  0.85307222725E+02 -0.12195016498E+03  0.14906408048E+03  0.00000000000E+00 0.  1.
</event>
<event>
 7    1  0.2788485E-009  0.1147520E+03  0.7561462E-02  0.1252015E+00
         -2   -1    0    0    0  501 -0.00000000000E+00  0.00000000000E+00  0.61550254848E+02  0.61550254848E+02  0.00000000000E+00 0.  1.
          2   -1    0    0  501    0  0.00000000000E+00 -0.00000000000E+00 -0.24930182855E+03  0.24930182855E+03  0.00000000000E+00 0. -1.
         25    2    1    2    0    0  0.71137884645E+02 -0.73314572428E+01 -0.12678267182E+03  0.19192656695E+03  0.12509041662E+03 0.  0.
          5    1    3    3  502    0  0.74114282620E+02 -0.48583619046E+02 -0.12087555141E+03  0.14993887507E+03  0.41800000000E+01 0. -1.
         -5    1    3    3    0  502 -0.29763979749E+01  0.41252161803E+02 -0.59071204116E+01  0.41987691886E+02  0.41800000000E+01 0. -1.
        -11    1    1    2    0    0 -0.63145953455E+02  0.33761440026E+02 -0.55926216069E+02  0.90856964038E+02  0.00000000000E+00 0. -1.
         11    1    1    2    0    0 -0.79919311905E+01 -0.26429982783E+02 -0.50426858128E+01  0.28068552408E+02  0.00000000000E+00 0.  1.
</event>
<event>
 7    1  0.2788485E-009  0.6874501E+02  0.7561462E-02  0.1364413E+00
          2   -1    0    0  501    0  0.00000000000E+00  0.00000000000E+00  0.78985882442E+02  0.78985882442E+02  0.00000000000E+00 0.  1.
         -2   -1    0    0    0  501 -0.00000000000E+00 -0.00000000000E+00 -0.18436983523E+03  0.18436983523E+03  0.00000000000E+00 0. -1.
         25    2    1    2    0    0 -0.52828054895E+02 -0.25184943613E+00 -0.51813344875E+02  0.14533129456E+03  0.12508275525E+03 0.  0.
          5    1    3    3  502    0  0.18091850148E+00  0.19376984997E+02 -0.79723729125E+02  0.82151358264E+02  0.41800000000E+01 0.  1.
         -5    1    3    3    0  502 -0.53008973397E+02 -0.19628834433E+02  0.27910384250E+02  0.63179936299E+02  0.41800000000E+01 0.  1.
        -11    1    1    2    0    0  0.26922772452E+02  0.15360450074E+02  0.21140364668E+02  0.37519250010E+02  0.00000000000E+00 0.  1.
         11    1    1    2    0    0  0.25905282443E+02 -0.15108600637E+02 -0.74710972585E+02  0.80505173103E+02  0.00000000000E+00 0. -1.
</event>
<event>
 7    1  0.2788485E-009  0.1191218E+03  0.7561462E-02  0.1244553E+00
         -2   -1    0    0    0  501 -0.00000000000E+00  0.00000000000E+00  0.45213209420E+02  0.45213209420E+02  0.00000000000E+00 0.  1.
          2   -1    0    0  501    0  0.00000000000E+00 -0.00000000000E+00 -0.74424991859E+03  0.74424991859E+03  0.00000000000E+00 0. -1.
         25    2    1    2    0    0 -0.11377814685E+03  0.21090517139E+02 -0.56428806143E+03  0.58945676509E+03  0.12509190631E+03 0.  0.
          5    1    3    3  502    0 -0.43637604303E+02  0.65774581332E+01 -0.38253527809E+02  0.58551757059E+02  0.41800000000E+01 0.  1.
         -5    1    3    3    0  502 -0.70140542549E+02  0.14513059005E+02 -0.52603453362E+03  0.53090500803E+03  0.41800000000E+01 0.  1.
        -11    1    1    2    0    0  0.67660776107E+02  0.72340521205E+01 -0.12865691268E+03  0.14554351004E+03  0.00000000000E+00 0.  1.
         11    1    1    2    0    0  0.46117370746E+02 -0.28324569259E+02 -0.60917350605E+01  0.54462852884E+02  0.00000000000E+00 0. -1.
</event>
<event>
 7    1  0.2788485E-009  0.1526015E+03  0.7561462E-02  0.1197312E+00
         -4   -1    0    0    0  501 -0.00000000000E+00  0.00000000000E+00  0.15668269602E+03  0.15668269602E+03  0.00000000000E+00 0.  1.
          4   -1    0    0  501    0  0.00000000000E+00 -0.00000000000E+00 -0.17179272945E+03  0.17179272945E+03  0.00000000000E+00 0. -1.
         25    2    1    2    0    0  0.12006101763E+03 -0.18890410339E+02 -0.63419606706E+01  0.17451837839E+03  0.12507976805E+03 0.  0.
          5    1    3    3  502    0  0.14293946498E+03 -0.31442566386E+02  0.31133483007E+01  0.14644961921E+03  0.41800000000E+01 0. -1.
         -5    1    3    3    0  502 -0.22878447346E+02  0.12552156047E+02 -0.94553089713E+01  0.28068759184E+02  0.41800000000E+01 0. -1.
        -11    1    1    2    0    0 -0.53785244552E+02  0.34977242768E+02 -0.43408982136E+02  0.77463538347E+02  0.00000000000E+00 0. -1.
         11    1    1    2    0    0 -0.66275773080E+02 -0.16086832429E+02  0.34640909380E+02  0.76493508729E+02  0.00000000000E+00 0.  1.
</event>
<event>
 7    1  0.2788485E-009  0.9814872E+02  0.7561462E-02  0.1284238E+00
          2   -1    0    0  501    0  0.00000000000E+00  0.00000000000E+00  0.65917685914E+02  0.65917685914E+02  0.00000000000E+00 0. -1.
         -2   -1    0    0    0  501 -0.00000000000E+00 -0.00000000000E+00 -0.25409563169E+03  0.25409563169E+03  0.00000000000E+00 0.  1.
         25    2    1    2    0    0  0.53457487435E+02 -0.63398422006E+01 -0.16080134275E+03  0.21072218144E+03  0.12509544101E+03 0.  0.
          5    1    3    3  502    0  0.58653988287E+02  0.30852750413E+02 -0.26994247330E+02  0.71682245632E+02  0.41800000000E+01 0. -1.
         -5    1    3    3    0  502 -0.51965008514E+01 -0.37192592614E+02 -0.13380709542E+03  0.13903993581E+03  0.41800000000E+01 0. -1.
        -11    1    1    2    0    0 -0.48689843681E+02 -0.28849883094E+02  0.10291225933E+02  0.57523264540E+02  0.00000000000E+00 0. -1.
         11    1    1    2    0    0 -0.47676437545E+01  0.35189725294E+02 -0.37667828957E+02  0.51767871616E+02  0.00000000000E+00 0.  1.
</event>
<event>
 7    1  0.2788485E-009  0.1444767E+03  0.7561462E-02  0.1207429E+00
         -3   -1    0    0    0  501 -0.00000000000E+00  0.00000000000E+00  0.12888726944E+03  0.12888726944E+03  0.00000000000E+00 0.  1.
          3   -1    0    0  501    0  0.00000000000E+00 -0.00000000000E+00 -0.24864894636E+03  0.24864894636E+03  0.00000000000E+00 0. -1.
         25    2    1    2    0    0  0.93214376755E+02 -0.76616734277E+02  0.15401320154E+02  0.17448334931E+03  0.12509274367E+03 0.  0.
          5    1    3    3  502    0  0.57817811948E+02 -0.10536451490E+03  0.34134007884E+02  0.12500873279E+03  0.41800000000E+01 0. -1.
         -5    1    3    3    0  502  0.35396564807E+02  0.28747780622E+02 -0.18732687730E+02  0.49474616526E+02  0.41800000000E+01 0. -1.
        -11    1    1    2    0    0 -0.67484610978E+02  0.40991046714E+02 -0.22468422942E+02  0.82093048786E+02  0.00000000000E+00 0.  1.
         11    1    1    2    0    0 -0.25729765777E+02  0.35625687562E+02 -0.11269457412E+03  0.12095981770E+03  0.00000000000E+00 0. -1.
</event>
<event>
 7    1  0.2788485E-009  0.1137923E+03  0.7561462E-02  0.1253704E+00
         -3   -1    0    0    0  501 -0.00000000000E+00  0.00000000000E+00  0.84468968437E+02  0.84468968437E+02  0.00000000000E+00 0.  1.
          3   -1    0    0  501    0  0.00000000000E+00 -0.00000000000E+00 -0.19148894314E+03  0.19148894314E+03  0.00000000000E+00 0. -1.
         25    2    1    2    0    0  0.26363856684E+02 -0.60030690609E+02 -0.46634561294E+02  0.14873252888E+03  0.12509135096E+03 0.  0.
          5    1    3    3  502    0 -0.55517653730E+01  0.37456083213E+02 -0.18105864515E+02  0.42179082473E+02  0.41800000000E+01 0. -1.
         -5    1    3    3    0  502  0.31915622057E+02 -0.97486773822E+02 -0.28528696779E+02  0.10655344641E+03  0.41800000000E+01 0. -1.
        -11    1    1    2    0    0 -0.89132090653E+01  0.67324819955E+02 -0.76558953215E+02  0.10233938633E+03  0.00000000000E+00 0. -1.
         11    1    1    2    0    0 -0.17450647619E+02 -0.72941293461E+01  0.16173539805E+02  0.24885996364E+02  0.00000000000E+00 0.  1.
</event>
<event>
 7    1  0.2788485E-009  0.9185630E+02  0.7561462E-02  0.1298418E+00
          1   -1    0    0  501    0  0.00000000000E+00  0.00000000000E+00  0.91587637186E+02  0.91587637186E+02  0.00000000000E+00 0. -1.
         -1   -1    0    0    0  501 -0.00000000000E+00 -0.00000000000E+00 -0.13352445656E+03  0.13352445656E+03  0.00000000000E+00 0.  1.
         25    2    1    2    0    0 -0.79955462514E+00 -0.10573174715E+02 -0.57053591166E+01  0.12566879105E+03  0.12509061759E+03 0.  0.
          5    1    3    3  502    0  0.50821466034E+02 -0.35870597054E+02  0.15516950661E+02  0.64247718252E+02  0.41800000000E+01 0. -1.
         -5    1    3    3    0  502 -0.51621020659E+02  0.25297422339E+02 -0.21222309778E+02  0.61421072794E+02  0.41800000000E+01 0. -1.
        -11    1    1    2    0    0  0.15415221886E+02  0.33307346933E+02  0.16460779332E+02  0.40223944134E+02  0.00000000000E+00 0. -1.
         11    1    1    2    0    0 -0.14615667261E+02 -0.22734172218E+02 -0.52692239590E+02  0.59219358565E+02  0.00000000000E+00 0.  1.
</event>
<event>
 7    1  0.2788485E-009  0.1056103E+03  0.7561462E-02  0.1268922E+00
         -1   -1    0    0    0  501 -0.00000000000E+00  0.00000000000E+00  0.21943001679E+03  0.21943001679E+03  0.00000000000E+00 0.  1.
          1   -1    0    0  501    0  0.00000000000E+00 -0.00000000000E+00 -0.10023630549E+03  0.10023630549E+03  0.00000000000E+00 0. -1.
         25    2    1    2    0    0 -0.82052295791E+02  0.59561865734E+02  0.70690095832E+02  0.17584755562E+03  0.12508028651E+03 0.  0.
          5    1    3    3  502    0 -0.39871406788E+02  0.47338487282E+02 -0.27763126242E+02  0.67962673845E+02  0.41800000000E+01 0. -1.
         -5    1    3    3    0  502 -0.42180889003E+02  0.12223378452E+02  0.98453222074E+02  0.10788488177E+03  0.41800000000E+01 0. -1.
        -11    1    1    2    0    0  0.57587746133E+02 -0.56042306530E+02  0.73330507047E+02  0.10878626701E+03  0.00000000000E+00 0.  1.
         11    1    1    2    0    0  0.24464549658E+02 -0.35195592037E+01 -0.24826891575E+02  0.35032499657E+02  0.00000000000E+00 0. -1.
</event>
<event>
 7    1  0.2999156E-009  0.1196572E+03  0.7561462E-02  0.1243664E+00
         -2   -1    0    0    0  501 -0.00000000000E+00  0.00000000000E+00  0.24122284682E+03  0.24122284682E+03  0.00000000000E+00 0.  1.
          2   -1    0    0  501    0  0.00000000000E+00 -0.00000000000E+00 -0.73267845082E+02  0.73267845082E+02  0.00000000000E+00 0. -1.
         25    2    1    2    0    0  0.65339109378E+02 -0.34954434333E+02  0.11634370573E+03  0.18621249239E+03  0.12509285658E+03 0.  0.
          5    1    3    3  502    0  0.31612829720E+02  0.43828759340E+02  0.70516771804E+02  0.88940534369E+02  0.41800000000E+01 0.  1.
         -5    1    3    3    0  502  0.33726279657E+02 -0.78783193673E+02  0.45826933922E+02  0.97271958022E+02  0.41800000000E+01 0.  1.
        -11    1    1    2    0    0 -0.68427021489E+02  0.43635590089E+01  0.65242125660E+02  0.94645828634E+02  0.00000000000E+00 0.  1.
         11    1    1    2    0    0  0.30879121115E+01  0.30590875324E+02 -0.13630829644E+02  0.33632370881E+02  0.00000000000E+00 0. -1.
</event>
<event>
 7    1  0.2788485E-009  0.8985026E+02  0.7561462E-02  0.1303215E+00
          1   -1    0    0  501    0  0.00000000000E+00  0.00000000000E+00  0.50777363625E+02  0.50777363625E+02  0.00000000000E+00 0. -1.
         -1   -1    0    0    0  501 -0.00000000000E+00 -0.00000000000E+00 -0.25346217710E+03  0.25346217710E+03  0.00000000000E+00 0.  1.
         25    2    1    2    0    0  0.31975161357E+02 -0.23831881215E+02 -0.12115427887E+03  0.17865083707E+03  0.12508953910E+03 0.  0.
          5    1    3    3  502    0  0.29998925174E+02 -0.51025823624E+02 -0.53187743555E+01  0.59576270014E+02  0.41800000000E+01 0.  1.
         -5    1    3    3    0  502  0.19762361825E+01  0.27193942409E+02 -0.11583550452E+03  0.11907456706E+03  0.41800000000E+01 0.  1.
        -11    1    1    2    0    0 -0.50403479064E+02  0.42952318606E+02 -0.70810119544E+02  0.96950943292E+02  0.00000000000E+00 0.  1.
         11    1    1    2    0    0  0.18428317708E+02 -0.19120437391E+02 -0.10720415059E+02  0.28637760363E+02  0.00000000000E+00 0. -1.
</event>
<event>
 7    1  0.2788485E-009  0.1346689E+03  0.7561462E-02  0.1220688E+00
          1   -1    0    0  501    0  0.00000000000E+00  0.00000000000E+00  0.64214933511E+02  0.64214933511E+02  0.00000000000E+00 0. -1.
         -1   -1    0    0    0  501 -0.00000000000E+00 -0.00000000000E+00 -0.34792320905E+03  0.34792320905E+03  0.00000000000E+00 0.  1.
         25    2    1    2    0    0 -0.41186928670E+02 -0.68826256840E+02 -0.23634426409E+03  0.27917348563E+03  0.12508320106E+03 0.  0.
          5    1    3    3  502    0  0.42824999750E+02 -0.10575203122E+02 -0.51817660311E+02  0.68178866556E+02  0.41800000000E+01 0. -1.
         -5    1    3    3    0  502 -0.84011928420E+02 -0.58251053719E+02 -0.18452660378E+03  0.21099461908E+03  0.41800000000E+01 0. -1.
        -11    1    1    2    0    0 -0.16084023698E+02  0.63143983057E+02 -0.14731461600E+02  0.66804748150E+02  0.00000000000E+00 0. -1.
         11    1    1    2    0    0  0.57270952367E+02  0.56822737838E+01 -0.32632549853E+02  0.66159908784E+02  0.00000000000E+00 0.  1.
</event>
<event>
 7    1  0.2788485E-009  0.1163465E+03  0.7561462E-02  0.1249249E+00
         -1   -1    0    0    0  501 -0.00000000000E+00  0.00000000000E+00  0.70961480229E+02  0.70961480229E+02  0.00000000000E+00 0.  1.
          1   -1    0    0  501    0  0.00000000000E+00 -0.00000000000E+00 -0.27461706345E+03  0.27461706345E+03  0.00000000000E+00 0. -1.
         25    2    1    2    0    0 -0.43645670589E+02  0.74795913471E+02 -0.11808554841E+03  0.19258971386E+03  0.12508888004E+03 0.  0.
          5    1    3    3  502    0 -0.22169588713E+02  0.10127036138E+03 -0.47535790796E+02  0.11412405778E+03  0.41800000000E+01 0.  1.
         -5    1    3    3    0  502 -0.21476081876E+02 -0.26474447909E+02 -0.70549757609E+02  0.78465656077E+02  0.41800000000E+01 0.  1.
        -11    1    1    2    0    0  0.46567447895E+02 -0.45338516041E+02 -0.27653181407E+01  0.65051942513E+02  0.00000000000E+00 0.  1.
         11    1    1    2    0    0 -0.29217773060E+01 -0.29457397430E+02 -0.82804716670E+02  0.87936887305E+02  0.00000000000E+00 0. -1.
</event>
<event>
 7    1  0.2788485E-009  0.1522937E+03  0.7561462E-02  0.1197682E+00
          1   -1    0    0  501    0  0.00000000000E+00  0.00000000000E+00  0.74290549791E+02  0.74290549791E+02  0.00000000000E+00 0. -1.
         -1   -1    0    0    0  501 -0.00000000000E+00 -0.00000000000E+00 -0.41949934661E+03  0.41949934661E+03  0.00000000000E+00 0.  1.
         25    2    1    2    0    0 -0.91195254709E+02 -0.63306412552E+02 -0.30069022140E+03  0.34407095305E+03  0.12508371251E+03 0.  0.
          5    1    3    3  502    0 -0.82213034278E+02  0.18007508107E+02 -0.13309065003E+03  0.15752411523E+03  0.41800000000E+01 0.  1.
         -5    1    3    3    0  502 -0.89822204307E+01 -0.81313920659E+02 -0.16759957137E+03  0.18654683782E+03  0.41800000000E+01 0.  1.
        -11    1    1    2    0    0  0.26823273954E+02  0.68757226321E+02 -0.49676684083E+01  0.73971088449E+02  0.00000000000E+00 0. -1.
         11    1    1    2    0    0  0.64371980755E+02 -0.54508137687E+01 -0.39550907009E+02  0.75747854903E+02  0.00000000000E+00 0.  1.
</event>
<event>
 7    1  0.2788485E-009  0.7733586E+02  0.7561462E-02  0.1336787E+00
         -2   -1    0    0    0  501 -0.00000000000E+00  0.00000000000E+00  0.12602268234E+02  0.12602268234E+02  0.00000000000E+00 0.  1.
          2   -1    0    0  501    0  0.00000000000E+00 -0.00000000000E+00 -0.12210384898E+04  0.12210384898E+04  0.00000000000E+00 0. -1.
         25    2    1    2    0    0  0.33185508454E+02 -0.87565983732E+01 -0.91187133002E+03  0.92105025994E+03  0.12508518231E+03 0.  0.
          5    1    3    3  502    0  0.38417631961E+02  0.82440022829E+01 -0.89593216454E+03  0.89680309649E+03  0.41800000000E+01 0. -1.
         -5    1    3    3    0  502 -0.52321235069E+01 -0.17000600656E+02 -0.15939165482E+02  0.24247163449E+02  0.41800000000E+01 0. -1.
        -11    1    1    2    0    0  0.27669876955E+02 -0.15099195913E+02 -0.12726683882E+03  0.13111237955E+03  0.00000000000E+00 0.  1.
         11    1    1    2    0    0 -0.60855385409E+02  0.23855794287E+02 -0.16929805273E+03  0.18147811855E+03  0.00000000000E+00 0. -1.
</event>
<event>
 7    1  0.2788485E-009  0.2952553E+03  0.7561462E-02  0.1087637E+00
         -1   -1    0    0    0  501 -0.00000000000E+00  0.00000000000E+00  0.18139901501E+03  0.18139901501E+03  0.00000000000E+00 0.  1.
          1   -1    0    0  501    0  0.00000000000E+00 -0.00000000000E+00 -0.51442394303E+03  0.51442394303E+03  0.00000000000E+00 0. -1.
         25    2    1    2    0    0  0.26533115475E+03 -0.10427322894E+03 -0.17709463226E+03  0.35816382970E+03  0.12508114234E+03 0.  0.
          5    1    3    3  502    0  0.25482143308E+03 -0.11086010171E+03 -0.19240202663E+03  0.33802357486E+03  0.41800000000E+01 0. -1.
         -5    1    3    3    0  502  0.10509721674E+02  0.65868727706E+01  0.15307394369E+02  0.20140254838E+02  0.41800000000E+01 0. -1.
        -11    1    1    2    0    0 -0.17098745375E+02  0.39368284550E+02 -0.22347736463E+02  0.48390600811E+02  0.00000000000E+00 0. -1.
         11    1    1    2    0    0 -0.24823240938E+03  0.64904944387E+02 -0.13358255930E+03  0.28926852753E+03  0.00000000000E+00 0.  1.
</event>
<event>
 7    1  0.3067960E-009  0.1015721E+03  0.7561462E-02  0.1277024E+00
         -2   -1    0    0    0  501 -0.00000000000E+00  0.00000000000E+00  0.25782414449E+02  0.25782414449E+02  0.00000000000E+00 0.  1.
          2   -1    0    0  501    0  0.00000000000E+00 -0.00000000000E+00 -0.56688166973E+03  0.56688166973E+03  0.00000000000E+00 0. -1.
         25    2    1    2    0    0  0.75370465412E+01 -0.20450786866E+01 -0.17405210550E+03  0.21448122893E+03  0.12508825971E+03 0.  0.
          5    1    3    3  502    0  0.56827184743E+02  0.16349664207E+02 -0.13903305714E+03  0.15114332213E+03  0.41800000000E+01 0.  1.
         -5    1    3    3    0  502 -0.49290138202E+02 -0.18394742893E+02 -0.35019048360E+02  0.63337906802E+02  0.41800000000E+01 0.  1.
        -11    1    1    2    0    0  0.55451867144E+01 -0.43422739107E+02 -0.17908004778E+03  0.18435277834E+03  0.00000000000E+00 0.  1.
         11    1    1    2    0    0 -0.13082233256E+02  0.45467817793E+02 -0.18796710200E+03  0.19383007692E+03  0.00000000000E+00 0. -1.
</event>
<event>
 7    1  0.2788485E-009  0.1862579E+03  0.7561462E-02  0.1161880E+00
          1   -1    0    0  501    0  0.00000000000E+00  0.00000000000E+00  0.23886800637E+03  0.23886800637E+03  0.00000000000E+00 0. -1.
         -1   -1    0    0    0  501 -0.00000000000E+00 -0.00000000000E+00 -0.18001152718E+03  0.18001152718E+03  0.00000000000E+00 0.  1.
         25    2    1    2    0    0 -0.45526607889E+02 -0.16746077550E+03  0.58010797582E+02  0.22164674305E+03  0.12508494199E+03 0.  0.
          5    1    3    3  502    0 -0.43988358728E+02 -0.16941402529E+03  0.12121767649E+02  0.17550070461E+03  0.41800000000E+01 0. -1.
         -5    1    3    3    0  502 -0.15382491604E+01  0.19532497958E+01  0.45889029933E+02  0.46146038437E+02  0.41800000000E+01 0. -1.
        -11    1    1    2    0    0  0.33722005803E+02  0.10718242689E+02 -0.16593463175E+02  0.39081932166E+02  0.00000000000E+00 0.  1.
         11    1    1    2    0    0  0.11804602086E+02  0.15674253281E+03  0.17439144780E+02  0.15815085833E+03  0.00000000000E+00 0. -1.
</event>
<event>
 7    1  0.2788485E-009  0.1345697E+03  0.7561462E-02  0.1220828E+00
         -1   -1    0    0    0  501 -0.00000000000E+00  0.00000000000E+00  0.37417533948E+02  0.37417533948E+02  0.00000000000E+00 0.  1.
          1   -1    0    0  501    0  0.00000000000E+00 -0.00000000000E+00 -0.49533428396E+03  0.49533428396E+03  0.00000000000E+00 0. -1.
         25    2    1    2    0    0 -0.69588198301E+02 -0.20037284318E+02 -0.20651417026E+03  0.25207015831E+03  0.12508897668E+03 0.  0.
          5    1    3    3  502    0  0.36456648906E+02 -0.24900100220E+01 -0.58387653872E+02  0.69006361475E+02  0.41800000000E+01 0.  1.
         -5    1    3    3    0  502 -0.10604484721E+03 -0.17547274296E+02 -0.14812651638E+03  0.18306379683E+03  0.41800000000E+01 0.  1.
        -11    1    1    2    0    0  0.42311389805E+02  0.61808092210E+02 -0.15359970909E+03  0.17088991955E+03  0.00000000000E+00 0. -1.
         11    1    1    2    0    0  0.27276808496E+02 -0.41770807892E+02 -0.97802870666E+02  0.10979174005E+03  0.00000000000E+00 0.  1.
</event>
<event>
 7    1  0.2788485E-009  0.7506099E+02  0.7561462E-02  0.1343682E+00
         -3   -1    0    0    0  501 -0.00000000000E+00  0.00000000000E+00  0.31714577554E+03  0.31714577554E+03  0.00000000000E+00 0.  1.
          3   -1    0    0  501    0  0.00000000000E+00 -0.00000000000E+00 -0.43387431433E+02  0.43387431433E+02  0.00000000000E+00 0. -1.
         25    2    1    2    0    0 -0.25412829086E+02  0.24954186318E+02  0.10869973349E+03  0.16950406838E+03  0.12508986306E+03 0.  0.
          5    1    3    3  502    0 -0.12571683663E+02 -0.18729003097E+02 -0.21541869407E+02  0.31469784313E+02  0.41800000000E+01 0.  1.
         -5    1    3    3    0  502 -0.12841145423E+02  0.43683189415E+02  0.13024160290E+03  0.13803428407E+03  0.41800000000E+01 0.  1.
        -11    1    1    2    0    0  0.35508989984E+02  0.16238617419E+02  0.13081687370E+03  0.13651972571E+03  0.00000000000E+00 0.  1.
         11    1    1    2    0    0 -0.10096160898E+02 -0.41192803737E+02  0.34241736914E+02  0.54509412870E+02  0.00000000000E+00 0. -1.
</event>
<event>
 7    1  0.2788485E-009  0.1603774E+03  0.7561462E-02  0.1188271E+00
          1   -1    0    0  501    0  0.00000000000E+00  0.00000000000E+00  0.39286903831E+03  0.39286903831E+03  0.00000000000E+00 0. -1.
         -1   -1    0    0    0  501 -0.00000000000E+00 -0.00000000000E+00 -0.81847494330E+02  0.81847494330E+02  0.00000000000E+00 0.  1.
         25    2    1    2    0    0 -0.58996761660E+02  0.12964074003E+03  0.15579496946E+03  0.24536812009E+03  0.12508438147E+03 0.  0.
          5    1    3    3  502    0 -0.54314088934E+02  0.13392909210E+03  0.17365009660E+03  0.22596205526E+03  0.41800000000E+01 0. -1.
         -5    1    3    3    0  502 -0.46826727261E+01 -0.42883520695E+01 -0.17855127138E+02  0.19406064837E+02  0.41800000000E+01 0. -1.
        -11    1    1    2    0    0  0.67549759219E+01 -0.11376893443E+03  0.98832784531E+02  0.15085396727E+03  0.00000000000E+00 0.  1.
         11    1    1    2    0    0  0.52241785738E+02 -0.15871805598E+02  0.56393789987E+02  0.78494445276E+02  0.00000000000E+00 0. -1.
</event>
<event>
 7    1  0.2788485E-009  0.9601100E+02  0.7561462E-02  0.1288915E+00
          2   -1    0    0  501    0  0.00000000000E+00  0.00000000000E+00  0.16620008106E+03  0.16620008106E+03  0.00000000000E+00 0.  1.
         -2   -1    0    0    0  501 -0.00000000000E+00 -0.00000000000E+00 -0.69931876889E+02  0.69931876889E+02  0.00000000000E+00 0. -1.
         25    2    1    2    0    0 -0.60090690355E+01 -0.77589565217E+01  0.84725958742E+02  0.15140351119E+03  0.12509286470E+03 0.  0.
          5    1    3    3  502    0 -0.62815840116E+02 -0.15403392773E+02  0.61721936748E+02  0.89499520414E+02  0.41800000000E+01 0. -1.
         -5    1    3    3    0  502  0.56806771081E+02  0.76444362508E+01  0.23004021994E+02  0.61903990777E+02  0.41800000000E+01 0. -1.
        -11    1    1    2    0    0 -0.29898397295E+02  0.14460440653E+02  0.29139744479E+02  0.44183064776E+02  0.00000000000E+00 0.  1.
         11    1    1    2    0    0  0.35907466330E+02 -0.67014841312E+01 -0.17597499045E+02  0.40545381987E+02  0.00000000000E+00 0. -1.
</event>
<event>
 7    1  0.2788485E-009  0.1291678E+03  0.7561462E-02  0.1228696E+00
          2   -1    0    0  501    0  0.00000000000E+00  0.00000000000E+00  0.18862098337E+03  0.18862098337E+03  0.00000000000E+00 0. -1.
         -2   -1    0    0    0  501 -0.00000000000E+00 -0.00000000000E+00 -0.15478471831E+03  0.15478471831E+03  0.00000000000E+00 0.  1.
         25    2    1    2    0    0 -0.11479003434E+03 -0.50574705384E+02 -0.23203174405E+02  0.17866178832E+03  0.12508834675E+03 0.  0.
          5    1    3    3  502    0 -0.73004034466E+01 -0.33341358419E+01  0.42907692924E+02  0.43851509260E+02  0.41800000000E+01 0. -1.
         -5    1    3    3    0  502 -0.10748963090E+03 -0.47240569542E+02 -0.66110867329E+02  0.13481027906E+03  0.41800000000E+01 0. -1.
        -11    1    1    2    0    0  0.83795734866E+02  0.55369582428E+02  0.77875122553E+02  0.12709071781E+03  0.00000000000E+00 0. -1.
         11    1    1    2    0    0  0.30994299477E+02 -0.47948770440E+01 -0.20835683091E+02  0.37653195559E+02  0.00000000000E+00 0.  1.
</event>
<event>
 7    1  0.2788485E-009  0.1619369E+03  0.7561462E-02  0.1186527E+00
          2   -1    0    0  501    0  0.00000000000E+00  0.00000000000E+00  0.12610723650E+03  0.12610723650E+03  0.00000000000E+00 0.  1.
         -2   -1    0    0    0  501 -0.00000000000E+00 -0.00000000000E+00 -0.29843584527E+03  0.29843584527E+03  0.00000000000E+00 0. -1.
         25    2    1    2    0    0 -0.59377610651E+02  0.13150635806E+03 -0.16581029118E+03  0.25290061834E+03  0.12508416063E+03 0.  0.
          5    1    3    3  502    0  0.12505378720E+02 -0.87025716997E+00  0.13355787627E+02  0.18788062902E+02  0.41800000000E+01 0.  1.
         -5    1    3    3    0  502 -0.71882989371E+02  0.13237661523E+03 -0.17916607881E+03  0.23411255544E+03  0.41800000000E+01 0.  1.
        -11    1    1    2    0    0  0.74795268907E+02 -0.99861005832E+02 -0.31251991096E+02  0.12862052591E+03  0.00000000000E+00 0. -1.
         11    1    1    2    0    0 -0.15417658257E+02 -0.31645352228E+02  0.24733673501E+02  0.43021937527E+02  0.00000000000E+00 0.  1.
</event>
<event>
 7    1  0.2788485E-009  0.1146853E+03  0.7561462E-02  0.1252131E+00
         -2   -1    0    0    0  501 -0.00000000000E+00  0.00000000000E+00  0.35010304854E+02  0.35010304854E+02  0.00000000000E+00 0.  1.
          2   -1    0    0  501    0  0.00000000000E+00 -0.00000000000E+00 -0.53986217660E+03  0.53986217660E+03  0.00000000000E+00 0. -1.
         25    2    1    2    0    0  0.50619133027E+02 -0.51581548812E+02 -0.36701256531E+03  0.39442129399E+03  0.12508789410E+03 0.  0.
          5    1    3    3  502    0  0.14047174450E+02  0.33267130580E+02 -0.37718488605E+02  0.52384939341E+02  0.41800000000E+01 0. -1.
         -5    1    3    3    0  502  0.36571958577E+02 -0.84848679392E+02 -0.32929407670E+03  0.34203635465E+03  0.41800000000E+01 0. -1.
        -11    1    1    2    0    0 -0.31533845734E+01  0.52949560826E+02 -0.26259864399E+02  0.59187670204E+02  0.00000000000E+00 0.  1.
         11    1    1    2    0    0 -0.47465748454E+02 -0.13680120137E+01 -0.11157944204E+03  0.12126351727E+03  0.00000000000E+00 0. -1.
</event>
<event>
 7    1  0.2788485E-009  0.1283652E+03  0.7561462E-02  0.1229902E+00
         -1   -1    0    0    0  501 -0.00000000000E+00  0.00000000000E+00  0.14552993182E+03  0.14552993182E+03  0.00000000000E+00 0.  1.
          1   -1    0    0  501    0  0.00000000000E+00 -0.00000000000E+00 -0.23230393548E+03  0.23230393548E+03  0.00000000000E+00 0. -1.
         25    2    1    2    0    0 -0.46434404046E+02 -0.10223461311E+03 -0.14548195909E+03  0.22230528899E+03  0.12508625462E+03 0.  0.
          5    1    3    3  502    0 -0.16254073124E+02  0.14950039686E+02 -0.83126386384E+02  0.86111364482E+02  0.41800000000E+01 0. -1.
         -5    1    3    3    0  502 -0.30180330923E+02 -0.11718465279E+03 -0.62355572709E+02  0.13619392451E+03  0.41800000000E+01 0. -1.
        -11    1    1    2    0    0  0.40404816029E+02  0.74099083348E+02 -0.61006043610E+01  0.84619387170E+02  0.00000000000E+00 0.  1.
         11    1    1    2    0    0  0.60295880169E+01  0.28135529760E+02  0.64808559786E+02  0.70909191140E+02  0.00000000000E+00 0. -1.
</event>
<event>
 7    1  0.2795592E-009  0.2335901E+03  0.7561462E-02  0.1124138E+00
         -1   -1    0    0    0  501 -0.00000000000E+00  0.00000000000E+00  0.87512536926E+02  0.87512536926E+02  0.00000000000E+00 0.  1.
          1   -1    0    0  501    0  0.00000000000E+00 -0.00000000000E+00 -0.66675793142E+03  0.66675793142E+03  0.00000000000E+00 0. -1.
         25    2    1    2    0    0 -0.17200046179E+03 -0.12787518467E+03 -0.26524854369E+03  0.36323525015E+03  0.12508731077E+03 0.  0.
          5    1    3    3  502    0 -0.18191066976E+03 -0.13841486144E+03 -0.22720326394E+03  0.32231810558E+03  0.41800000000E+01 0. -1.
         -5    1    3    3    0  502  0.99102079767E+01  0.10539676771E+02 -0.38045279753E+02  0.40917144574E+02  0.41800000000E+01 0. -1.
        -11    1    1    2    0    0  0.18189090301E+02  0.45539832067E+02 -0.12267048969E+03  0.13210892609E+03  0.00000000000E+00 0.  1.
         11    1    1    2    0    0  0.15381137149E+03  0.82335352600E+02 -0.19132636111E+03  0.25892629210E+03  0.00000000000E+00 0. -1.
</event>
<event>
 7    1  0.2788485E-009  0.1015521E+03  0.7561462E-02  0.1277066E+00
         -1   -1    0    0    0  501 -0.00000000000E+00  0.00000000000E+00  0.62291061458E+02  0.62291061458E+02  0.00000000000E+00 0.  1.
          1   -1    0    0  501    0  0.00000000000E+00 -0.00000000000E+00 -0.21551394950E+03  0.21551394950E+03  0.00000000000E+00 0. -1.
         25    2    1    2    0    0  0.53679357350E+00 -0.40404732678E+02 -0.90590170819E+02  0.15964236139E+03  0.12508506678E+03 0.  0.
          5    1    3    3  502    0 -0.29522132275E+02  0.29744585413E+02 -0.13407422296E+01  0.42137473170E+02  0.41800000000E+01 0.  1.
         -5    1    3    3    0  502  0.30058925848E+02 -0.70149318091E+02 -0.89249428589E+02  0.11750488822E+03  0.41800000000E+01 0.  1.
        -11    1    1    2    0    0 -0.25640970278E+02  0.51174381390E+02 -0.69460263835E+02  0.90005582713E+02  0.00000000000E+00 0. -1.
         11    1    1    2    0    0  0.25104176705E+02 -0.10769648712E+02  0.68275466101E+01  0.28157066859E+02  0.00000000000E+00 0.  1.
</event>
<event>
 7    1  0.3265155E-009  0.1025802E+03  0.7561462E-02  0.1274962E+00
         -2   -1    0    0    0  501 -0.00000000000E+00  0.00000000000E+00  0.14305405352E+02  0.14305405352E+02  0.00000000000E+00 0.  1.
          2   -1    0    0  501    0  0.00000000000E+00 -0.00000000000E+00 -0.13113822447E+04  0.13113822447E+04  0.00000000000E+00 0. -1.
         25    2    1    2    0    0 -0.86731839906E+01  0.96587563457E+01 -0.11062642964E+04  0.11133901904E+04  0.12509399188E+03 0.  0.
          5    1    3    3  502    0 -0.64104129300E+02 -0.13334188485E+02 -0.57823894133E+03  0.58194921226E+03  0.41800000000E+01 0. -1.
         -5    1    3    3    0  502  0.55430945309E+02  0.22992944831E+02 -0.52802535510E+03  0.53144097813E+03  0.41800000000E+01 0. -1.
        -11    1    1    2    0    0 -0.24905434552E+02  0.22010767384E+02 -0.13894861584E+03  0.14286872434E+03  0.00000000000E+00 0. -1.
         11    1    1    2    0    0  0.33578618542E+02 -0.31669523730E+02 -0.51863927084E+02  0.69428735327E+02  0.00000000000E+00 0.  1.
</event>
<event>
 7    1  0.2788485E-009  0.1348362E+03  0.7561462E-02  0.1220451E+00
          2   -1    0    0  501    0  0.00000000000E+00  0.00000000000E+00  0.31748474115E+03  0.31748474115E+03  0.00000000000E+00 0. -1.
         -2   -1    0    0    0  501 -0.00000000000E+00 -0.00000000000E+00 -0.67225375999E+02  0.67225375999E+02  0.00000000000E+00 0.  1.
         25    2    1    2    0    0  0.75732579803E+02  0.60001499570E+02  0.14033934323E+03  0.21137183154E+03  0.12508923341E+03 0.  0.
          5    1    3    3  502    0  0.20939847267E+01  0.65436099753E+02  0.17349561209E+02  0.67858290555E+02  0.41800000000E+01 0. -1.
         -5    1    3    3    0  502  0.73638595076E+02 -0.54346001825E+01  0.12298978202E+03  0.14351354098E+03  0.41800000000E+01 0. -1.
        -11    1    1    2    0    0 -0.30490602812E+02 -0.76187512687E+02  0.48381895862E+02  0.95262908818E+02  0.00000000000E+00 0.  1.
         11    1    1    2    0    0 -0.45241976991E+02  0.16186013117E+02  0.61538126060E+02  0.78075376795E+02  0.00000000000E+00 0. -1.
</event>
<event>
 7    1  0.2788485E-009  0.1031165E+03  0.7561462E-02  0.1273876E+00
         -1   -1    0    0    0  501 -0.00000000000E+00  0.00000000000E+00  0.21039142287E+02  0.21039142287E+02  0.00000000000E+00 0.  1.
          1   -1    0    0  501    0  0.00000000000E+00 -0.00000000000E+00 -0.66397625814E+03  0.66397625814E+03  0.00000000000E+00 0. -1.
         25    2    1    2    0    0 -0.12440989050E+02  0.34111143846E+02 -0.28275702119E+03  0.31131460188E+03  0.12508756920E+03 0.  0.
          5    1    3    3  502    0 -0.60559840905E+02  0.31995833505E+02 -0.93488880968E+02  0.11596926729E+03  0.41800000000E+01 0. -1.
         -5    1    3    3    0  502  0.48118851854E+02  0.21153103410E+01 -0.18926814022E+03  0.19534533459E+03  0.41800000000E+01 0. -1.
        -11    1    1    2    0    0  0.25580798261E+02 -0.57223084012E+02 -0.31585177551E+03  0.32201118408E+03  0.00000000000E+00 0. -1.
         11    1    1    2    0    0 -0.13139809211E+02  0.23111940166E+02 -0.44328319158E+02  0.51689614467E+02  0.00000000000E+00 0.  1.
</event>
<event>
 7    1  0.2788485E-009  0.1176107E+03  0.7561462E-02  0.1247092E+00
         -3   -1    0    0    0  501 -0.00000000000E+00  0.00000000000E+00  0.40748018645E+03  0.40748018645E+03  0.00000000000E+00 0.  1.
          3   -1    0    0  501    0  0.00000000000E+00 -0.00000000000E+00 -0.42481873182E+02  0.42481873182E+02  0.00000000000E+00 0. -1.
         25    2    1    2    0    0  0.55875452497E+01  0.51765843437E+02  0.11120059191E+03  0.17528045380E+03  0.12508694030E+03 0.  0.
          5    1    3    3  502    0  0.36661548782E+02  0.79964337897E+02  0.96445352760E+02  0.13060452888E+03  0.41800000000E+01 0. -1.
         -5    1    3    3    0  502 -0.31074003532E+02 -0.28198494460E+02  0.14755239154E+02  0.44675924924E+02  0.41800000000E+01 0. -1.
        -11    1    1    2    0    0 -0.48410922276E+02 -0.24997910036E+02  0.13673435513E+03  0.14718966260E+03  0.00000000000E+00 0.  1.
         11    1    1    2    0    0  0.42823377026E+02 -0.26767933401E+02  0.11706336622E+03  0.12749194323E+03  0.00000000000E+00 0. -1.
</event>
<event>
 7    1  0.2788485E-009  0.1438973E+03  0.7561462E-02  0.1208179E+00
         -1   -1    0    0    0  501 -0.00000000000E+00  0.00000000000E+00  0.13028732724E+03  0.13028732724E+03  0.00000000000E+00 0.  1.
          1   -1    0    0  501    0  0.00000000000E+00 -0.00000000000E+00 -0.17037560887E+03  0.17037560887E+03  0.00000000000E+00 0. -1.
         25    2    1    2    0    0 -0.67430903064E+02 -0.70929501886E+02 -0.47958919867E-01  0.15882494043E+03  0.12508972171E+03 0.  0.
          5    1    3    3  502    0 -0.98189047262E+02 -0.24103499324E+02  0.10251204110E+02  0.10170854078E+03  0.41800000000E+01 0. -1.
         -5    1    3    3    0  502  0.30758144197E+02 -0.46826002561E+02 -0.10299163030E+02  0.57116399654E+02  0.41800000000E+01 0. -1.
        -11    1    1    2    0    0  0.32064835791E+02 -0.16536863087E+02 -0.30071196802E+02  0.46966992795E+02  0.00000000000E+00 0. -1.
         11    1    1    2    0    0  0.35366067273E+02  0.87466364973E+02 -0.99691259113E+01  0.94871002879E+02  0.00000000000E+00 0.  1.
</event>
<event>
 7    1  0.2788485E-009  0.1235009E+03  0.7561462E-02  0.1237431E+00
          2   -1    0    0  501    0  0.00000000000E+00  0.00000000000E+00  0.74661943619E+02  0.74661943619E+02  0.00000000000E+00 0. -1.
         -2   -1    0    0    0  501 -0.00000000000E+00 -0.00000000000E+00 -0.22846620385E+03  0.22846620385E+03  0.00000000000E+00 0.  1.
         25    2    1    2    0    0  0.70273455770E+02 -0.22454293590E+02 -0.84476844435E+02  0.16800829421E+03  0.12509154964E+03 0.  0.
          5    1    3    3  502    0 -0.13469931500E+02 -0.52376661173E+02 -0.18915578277E+02  0.57445845731E+02  0.41800000000E+01 0. -1.
         -5    1    3    3    0  502  0.83743387270E+02  0.29922367583E+02 -0.65561266158E+02  0.11056244848E+03  0.41800000000E+01 0. -1.
        -11    1    1    2    0    0 -0.72572858288E+02 -0.81617413229E+01 -0.74110666524E+02  0.10404722329E+03  0.00000000000E+00 0.  1.
         11    1    1    2    0    0  0.22994025182E+01  0.30616034913E+02  0.47832507292E+01  0.31072629970E+02  0.00000000000E+00 0. -1.
</event>
<event>
 7    1  0.3001835E-009  0.1129499E+03  0.7561462E-02  0.1255203E+00
          2   -1    0    0  501    0  0.00000000000E+00  0.00000000000E+00  0.59349965691E+03  0.59349965691E+03  0.00000000000E+00 0. -1.
         -2   -1    0    0    0  501 -0.00000000000E+00 -0.00000000000E+00 -0.36054297005E+02  0.36054297005E+02  0.00000000000E+00 0.  1.
         25    2    1    2    0    0  0.11208784697E+02 -0.92940147972E+02  0.23998907482E+03  0.28636690114E+03  0.12509091924E+03 0.  0.
          5    1    3    3  502    0  0.41340461589E+02 -0.92297861898E+02  0.23454859921E+03  0.25545732886E+03  0.41800000000E+01 0.  1.
         -5    1    3    3    0  502 -0.30131676892E+02 -0.64228607341E+00  0.54404756046E+01  0.30909572280E+02  0.41800000000E+01 0.  1.
        -11    1    1    2    0    0 -0.54755687279E+01  0.12978233555E+02 -0.16339011661E+01  0.14180480673E+02  0.00000000000E+00 0.  1.
         11    1    1    2    0    0 -0.57332159687E+01  0.79961914416E+02  0.31909018626E+03  0.32900657211E+03  0.00000000000E+00 0. -1.
</event>
<event>
 7    1  0.2788485E-009  0.9627455E+02  0.7561462E-02  0.1288331E+00
          2   -1    0    0  501    0  0.00000000000E+00  0.00000000000E+00  0.13001637285E+03  0.13001637285E+03  0.00000000000E+00 0.  1.
         -2   -1    0    0    0  501 -0.00000000000E+00 -0.00000000000E+00 -0.11218587786E+03  0.11218587786E+03  0.00000000000E+00 0. -1.
         25    2    1    2    0    0  0.30270962817E+02 -0.24601131250E+02  0.46325580360E+02  0.13897785584E+03  0.12508892105E+03 0.  0.
          5    1    3    3  502    0  0.43641497777E+02  0.21107981152E+02  0.70299207060E+02  0.85496070727E+02  0.41800000000E+01 0.  1.
         -5    1    3    3    0  502 -0.13370534959E+02 -0.45709112402E+02 -0.23973626700E+02  0.53481785113E+02  0.41800000000E+01 0.  1.
        -11    1    1    2    0    0  0.60485588190E+01  0.50889961812E+02 -0.27974125667E+02  0.58385999896E+02  0.00000000000E+00 0. -1.
         11    1    1    2    0    0 -0.36319521636E+02 -0.26288830562E+02 -0.52095970084E+00  0.44838394967E+02  0.00000000000E+00 0.  1.
</event>
<event>
 7    1  0.2788485E-009  0.1588968E+03  0.7561462E-02  0.1189948E+00
          1   -1    0    0  501    0  0.00000000000E+00  0.00000000000E+00  0.11281996900E+04  0.11281996900E+04  0.00000000000E+00 0. -1.
         -1   -1    0    0    0  501 -0.00000000000E+00 -0.00000000000E+00 -0.32114561578E+02  0.32114561578E+02  0.00000000000E+00 0.  1.
         25    2    1    2    0    0 -0.13096365725E+03 -0.54940229797E+02  0.75954059373E+03  0.78276496788E+03  0.12509665479E+03 0.  0.
          5    1    3    3  502    0  0.14954851684E+02 -0.19279605108E+02  0.25829859567E+03  0.25948215292E+03  0.41800000000E+01 0. -1.
         -5    1    3    3    0  502 -0.14591850894E+03 -0.35660624689E+02  0.50124199807E+03  0.52328281496E+03  0.41800000000E+01 0. -1.
        -11    1    1    2    0    0  0.60278794954E+02  0.33188225942E+02  0.26807112992E+03  0.27676185098E+03  0.00000000000E+00 0. -1.
         11    1    1    2    0    0  0.70684862301E+02  0.21752003855E+02  0.68473404726E+02  0.10078743267E+03  0.00000000000E+00 0.  1.
</event>
<event>
 7    1  0.2788485E-009  0.1074588E+03  0.7561462E-02  0.1265349E+00
         -2   -1    0    0    0  501 -0.00000000000E+00  0.00000000000E+00  0.37622567944E+03  0.37622567944E+03  0.00000000000E+00 0.  1.
          2   -1    0    0  501    0  0.00000000000E+00 -0.00000000000E+00 -0.37502600859E+02  0.37502600859E+02  0.00000000000E+00 0. -1.
         25    2    1    2    0    0 -0.30020972311E+02  0.22018178756E+02  0.24454066723E+03  0.27718928483E+03  0.12509077791E+03 0.  0.
          5    1    3    3  502    0  0.23123917209E+02 -0.41073485007E+02  0.76642774268E+02  0.90074047123E+02  0.41800000000E+01 0.  1.
         -5    1    3    3    0  502 -0.53144889520E+02  0.63091663762E+02  0.16789789297E+03  0.18711523770E+03  0.41800000000E+01 0.  1.
        -11    1    1    2    0    0  0.55991443586E+02 -0.12751116602E+02  0.26087409884E+02  0.63072860122E+02  0.00000000000E+00 0. -1.
         11    1    1    2    0    0 -0.25970471275E+02 -0.92670621544E+01  0.68095001460E+02  0.73466135348E+02  0.00000000000E+00 0.  1.
</event>
<event>
 7    1  0.2788485E-009  0.1220014E+03  0.7561462E-02  0.1239831E+00
          2   -1    0    0  501    0  0.00000000000E+00  0.00000000000E+00  0.21737529175E+03  0.21737529175E+03  0.00000000000E+00 0. -1.
         -2   -1    0    0    0  501 -0.00000000000E+00 -0.00000000000E+00 -0.97170600481E+02  0.97170600481E+02  0.00000000000E+00 0.  1.
         25    2    1    2    0    0  0.57061242163E+02 -0.71241503534E+02  0.99899745003E+02  0.18427793125E+03  0.12508820772E+03 0.  0.
          5    1    3    3  502    0  0.10249631470E+02  0.14221095455E+02  0.83442501508E+02  0.85366374874E+02  0.41800000000E+01 0. -1.
         -5    1    3    3    0  502  0.46811610693E+02 -0.85462598989E+02  0.16457243495E+02  0.98911556377E+02  0.41800000000E+01 0. -1.
        -11    1    1    2    0    0 -0.11455628325E+02  0.81003831092E+02  0.16643580216E+02  0.83485692393E+02  0.00000000000E+00 0.  1.
         11    1    1    2    0    0 -0.45605613837E+02 -0.97623275582E+01  0.36613660502E+01  0.46782268587E+02  0.00000000000E+00 0. -1.
</event>
<event>
 7    1  0.2788485E-009  0.9183841E+02  0.7561462E-02  0.1298460E+00
         -2   -1    0    0    0  501 -0.00000000000E+00  0.00000000000E+00  0.45230869495E+03  0.45230869495E+03  0.00000000000E+00 0.  1.
          2   -1    0    0  501    0  0.00000000000E+00 -0.00000000000E+00 -0.55001986386E+02  0.55001986386E+02  0.00000000000E+00 0. -1.
         25    2    1    2    0    0 -0.19237134237E+02 -0.32002652157E+01  0.39218867987E+03  0.41211607182E+03  0.12508951596E+03 0.  0.
          5    1    3    3  502    0  0.44820456282E+02  0.29918858035E+02  0.18239890429E+03  0.19023891309E+03  0.41800000000E+01 0.  1.
         -5    1    3    3    0  502 -0.64057590519E+02 -0.33119123251E+02  0.20978977558E+03  0.22187715873E+03  0.41800000000E+01 0.  1.
        -11    1    1    2    0    0 -0.37154963270E+01 -0.22574978836E+02 -0.35287503630E+02  0.42055231480E+02  0.00000000000E+00 0. -1.
         11    1    1    2    0    0  0.22952630564E+02  0.25775244052E+02  0.40405532323E+02  0.53139378036E+02  0.00000000000E+00 0.  1.
</event>
<event>
 7    1  0.2788485E-009  0.8074405E+02  0.7561462E-02  0.1326953E+00
          3   -1    0    0  501    0  0.00000000000E+00  0.00000000000E+00  0.21510051655E+03  0.21510051655E+03  0.00000000000E+00 0. -1.
         -3   -1    0    0    0  501 -0.00000000000E+00 -0.00000000000E+00 -0.53909381475E+02  0.53909381475E+02  0.00000000000E+00 0.  1.
         25    2    1    2    0    0 -0.28161594629E+01 -0.13229401914E+01  0.90880789418E+02  0.15465062282E+03  0.12509123202E+03 0.  0.
          5    1    3    3  502    0 -0.17508278648E+02 -0.38473378295E+02 -0.12056278208E+02  0.44153900200E+02  0.41800000000E+01 0.  1.
         -5    1    3    3    0  502  0.14692119185E+02  0.37150438103E+02  0.10293706763E+03  0.11049672262E+03  0.41800000000E+01 0.  1.
        -11    1    1    2    0    0 -0.15843528129E+02  0.36074042161E+02  0.62906409354E+02  0.74226479367E+02  0.00000000000E+00 0. -1.
         11    1    1    2    0    0  0.18659687592E+02 -0.34751101970E+02  0.74039363016E+01  0.40132795840E+02  0.00000000000E+00 0.  1.
</event>
<event>
 7    1  0.2788485E-009  0.1321505E+03  0.7561462E-02  0.1224299E+00
          1   -1    0    0  501    0  0.00000000000E+00  0.00000000000E+00  0.17146051887E+04  0.17146051887E+04  0.00000000000E+00 0. -1.
         -1   -1    0    0    0  501 -0.00000000000E+00 -0.00000000000E+00 -0.14732446014E+02  0.14732446014E+02  0.00000000000E+00 0.  1.
         25    2    1    2    0    0  0.84475369157E+02 -0.52056525937E+02  0.12575036836E+04  0.12676001837E+04  0.12509492933E+03 0.  0.
          5    1    3    3  502    0 -0.25552643942E+02  0.15791586541E+02  0.23341105525E+03  0.23537311854E+03  0.41800000000E+01 0.  1.
         -5    1    3    3    0  502  0.11002801310E+03 -0.67848112478E+02  0.10240926284E+04  0.10322270651E+04  0.41800000000E+01 0.  1.
        -11    1    1    2    0    0 -0.56696846587E+02  0.51895137329E+02  0.41729926312E+03  0.42431864523E+03  0.00000000000E+00 0. -1.
         11    1    1    2    0    0 -0.27778522570E+02  0.16138860822E+00  0.25069795952E+02  0.37418805854E+02  0.00000000000E+00 0.  1.
</event>
<event>
 7    1  0.2788485E-009  0.1036909E+03  0.7561462E-02  0.1272721E+00
          1   -1    0    0  501    0  0.00000000000E+00  0.00000000000E+00  0.22499406254E+03  0.22499406254E+03  0.00000000000E+00 0. -1.
         -1   -1    0    0    0  501 -0.00000000000E+00 -0.00000000000E+00 -0.10036626792E+03  0.10036626792E+03  0.00000000000E+00 0.  1.
         25    2    1    2    0    0 -0.68036553043E+02  0.56398681794E+02  0.79718438332E+01  0.15336344757E+03  0.12508802061E+03 0.  0.
          5    1    3    3  502    0 -0.73500199362E+02  0.44494291263E+02 -0.46083601919E+02  0.97586843514E+02  0.41800000000E+01 0.  1.
         -5    1    3    3    0  502  0.54636463194E+01  0.11904390531E+02  0.54055445752E+02  0.55776604060E+02  0.41800000000E+01 0.  1.
        -11    1    1    2    0    0  0.53603321117E+02 -0.45543700603E+01  0.13217435681E+02  0.55396380093E+02  0.00000000000E+00 0.  1.
         11    1    1    2    0    0  0.14433231925E+02 -0.51844311734E+02  0.10343851511E+03  0.11660050279E+03  0.00000000000E+00 0. -1.
</event>
<event>
 7    1  0.2788485E-009  0.1050982E+03  0.7561462E-02  0.1269926E+00
         -1   -1    0    0    0  501 -0.00000000000E+00  0.00000000000E+00  0.12561963898E+02  0.12561963898E+02  0.00000000000E+00 0.  1.
          1   -1    0    0  501    0  0.00000000000E+00 -0.00000000000E+00 -0.98532496203E+03  0.98532496203E+03  0.00000000000E+00 0. -1.
         25    2    1    2    0    0 -0.98372595969E+01 -0.14366511355E+02 -0.47544249006E+03  0.49193238182E+03  0.12509491836E+03 0.  0.
          5    1    3    3  502    0  0.11392619348E+02 -0.62874762507E+02 -0.34835833142E+03  0.35419489975E+03  0.41800000000E+01 0. -1.
         -5    1    3    3    0  502 -0.21229878945E+02  0.48508251152E+02 -0.12708415864E+03  0.13773748207E+03  0.41800000000E+01 0. -1.
        -11    1    1    2    0    0 -0.32959237505E+02  0.32754108492E+02 -0.24243362755E+03  0.24684652464E+03  0.00000000000E+00 0. -1.
         11    1    1    2    0    0  0.42796497102E+02 -0.18387597137E+02 -0.25488688052E+03  0.25910801947E+03  0.00000000000E+00 0.  1.
</event>
<event>
 7    1  0.2788485E-009  0.7909259E+02  0.7561462E-02  0.1331646E+00
          2   -1    0    0  501    0  0.00000000000E+00  0.00000000000E+00  0.57007979949E+02  0.57007979949E+02  0.00000000000E+00 0. -1.
         -2   -1    0    0    0  501 -0.00000000000E+00 -0.00000000000E+00 -0.24643888915E+03  0.24643888915E+03  0.00000000000E+00 0.  1.
         25    2    1    2    0    0  0.38057338349E+02 -0.28788384262E+02 -0.10198873850E+03  0.16830301757E+03  0.12508825234E+03 0.  0.
          5    1    3    3  502    0  0.17955825036E+02 -0.35337952720E+02  0.19881960714E+02  0.44541523515E+02  0.41800000000E+01 0. -1.
         -5    1    3    3    0  502  0.20101513313E+02  0.65495684580E+01 -0.12187069922E+03  0.12376149406E+03  0.41800000000E+01 0. -1.
        -11    1    1    2    0    0  0.21348351725E+02 -0.12213097255E+02 -0.45339277027E+02  0.51580635003E+02  0.00000000000E+00 0. -1.
         11    1    1    2    0    0 -0.59405690074E+02  0.41001481517E+02 -0.42102893671E+02  0.83563216521E+02  0.00000000000E+00 0.  1.
</event>
<event>
 7    1  0.2788485E-009  0.9137299E+02  0.7561462E-02  0.1299560E+00
          2   -1    0    0  501    0  0.00000000000E+00  0.00000000000E+00  0.22462373766E+03  0.22462373766E+03  0.00000000000E+00 0. -1.
         -2   -1    0    0    0  501 -0.00000000000E+00 -0.00000000000E+00 -0.69514655661E+02  0.69514655661E+02  0.00000000000E+00 0.  1.
         25    2    1    2    0    0 -0.52904367422E+02  0.34373938678E+00  0.12426726654E+03  0.18408895568E+03  0.12508956719E+03 0.  0.
          5    1    3    3  502    0  0.27321965216E+02 -0.21104150301E+02  0.85589228141E+02  0.92384323979E+02  0.41800000000E+01 0. -1.
         -5    1    3    3    0  502 -0.80226332638E+02  0.21447889688E+02  0.38678038401E+02  0.91704631699E+02  0.41800000000E+01 0. -1.
        -11    1    1    2    0    0  0.14512600909E+02 -0.17530494623E+02 -0.29024670715E+02  0.36883130792E+02  0.00000000000E+00 0.  1.
         11    1    1    2    0    0  0.38391766514E+02  0.17186755236E+02  0.59866486172E+02  0.73166306850E+02  0.00000000000E+00 0. -1.
</event>
<event>
 7    1  0.2788485E-009  0.1259423E+03  0.7561462E-02  0.1233604E+00
         -2   -1    0    0    0  501 -0.00000000000E+00  0.00000000000E+00  0.34235993742E+02  0.34235993742E+02  0.00000000000E+00 0. -1.
          2   -1    0    0  501    0  0.00000000000E+00 -0.00000000000E+00 -0.10972979404E+04  0.10972979404E+04  0.00000000000E+00 0.  1.
         25    2    1    2    0    0  0.80483654645E+02  0.72954918267E+02 -0.90030835423E+03  0.91542447388E+03  0.12508715330E+03 0.  0.
          5    1    3    3  502    0  0.65881615239E+01  0.61068349553E+02 -0.67858505387E+03  0.68137206791E+03  0.41800000000E+01 0.  1.
         -5    1    3    3    0  502  0.73895493121E+02  0.11886568714E+02 -0.22172330036E+03  0.23405240597E+03  0.41800000000E+01 0.  1.
        -11    1    1    2    0    0 -0.16219419467E+02 -0.39943177106E+02 -0.60239329527E+01  0.43529469712E+02  0.00000000000E+00 0. -1.
         11    1    1    2    0    0 -0.64264235178E+02 -0.33011741161E+02 -0.15672965945E+03  0.17257999052E+03  0.00000000000E+00 0.  1.
</event>
<event>
 7    1  0.2788485E-009  0.8605324E+02  0.7561462E-02  0.1312701E+00
          2   -1    0    0  501    0  0.00000000000E+00  0.00000000000E+00  0.13671843697E+04  0.13671843697E+04  0.00000000000E+00 0. -1.
         -2   -1    0    0    0  501 -0.00000000000E+00 -0.00000000000E+00 -0.12811778572E+02  0.12811778572E+02  0.00000000000E+00 0.  1.
         25    2    1    2    0    0 -0.49443367668E+02  0.40089979057E+02  0.98395649815E+03  0.99391623646E+03  0.12508893570E+03 0.  0.
          5    1    3    3  502    0 -0.21372852043E+02  0.21318141324E+02  0.92748599207E+03  0.92798652999E+03  0.41800000000E+01 0.  1.
         -5    1    3    3    0  502 -0.28070515625E+02  0.18771837733E+02  0.56470506077E+02  0.65929706476E+02  0.41800000000E+01 0.  1.
        -11    1    1    2    0    0  0.30443937867E+02 -0.67618748368E+02  0.28073858604E+03  0.29036749504E+03  0.00000000000E+00 0. -1.
         11    1    1    2    0    0  0.18999429802E+02  0.27528769310E+02  0.89677506949E+02  0.95712416776E+02  0.00000000000E+00 0.  1.
</event>
<event>
 7    1  0.2788485E-009  0.9900009E+02  0.7561462E-02  0.1282413E+00
         -1   -1    0    0    0  501 -0.00000000000E+00  0.00000000000E+00  0.57572855672E+02  0.57572855672E+02  0.00000000000E+00 0.  1.
          1   -1    0    0  501    0  0.00000000000E+00 -0.00000000000E+00 -0.27936115155E+03  0.27936115155E+03  0.00000000000E+00 0. -1.
         25    2    1    2    0    0  0.43431512944E+02 -0.44510472004E+02 -0.10493060429E+03  0.17471641646E+03  0.12509163053E+03 0.  0.
          5    1    3    3  502    0 -0.11579520551E+02 -0.56680981710E+02 -0.10297452390E+03  0.11818647958E+03  0.41800000000E+01 0.  1.
         -5    1    3    3    0  502  0.55011033495E+02  0.12170509707E+02 -0.19560803944E+01  0.56529936876E+02  0.41800000000E+01 0.  1.
        -11    1    1    2    0    0  0.51422665038E+00  0.39237235861E+02 -0.11080065512E+03  0.11754407804E+03  0.00000000000E+00 0. -1.
         11    1    1    2    0    0 -0.43945739594E+02  0.52732361422E+01 -0.60570364586E+01  0.44673512718E+02  0.00000000000E+00 0.  1.
</event>
<event>
 7    1  0.2788485E-009  0.2221520E+03  0.7561462E-02  0.1132289E+00
         -2   -1    0    0    0  501 -0.00000000000E+00  0.00000000000E+00  0.87595648023E+03  0.87595648023E+03  0.00000000000E+00 0.  1.
          2   -1    0    0  501    0  0.00000000000E+00 -0.00000000000E+00 -0.65103840595E+02  0.65103840595E+02  0.00000000000E+00 0. -1.
         25    2    1    2    0    0 -0.11706234488E+03  0.17563290912E+03  0.46437461152E+03  0.52520669646E+03  0.12509109814E+03 0.  0.
          5    1    3    3  502    0 -0.11561549869E+03  0.91635954161E+02  0.37235279048E+03  0.40053484819E+03  0.41800000000E+01 0. -1.
         -5    1    3    3    0  502 -0.14468461932E+01  0.83996954956E+02  0.92021821033E+02  0.12467184827E+03  0.41800000000E+01 0. -1.
        -11    1    1    2    0    0  0.98712800302E+02 -0.12858889948E+03  0.18166214206E+03  0.24347578087E+03  0.00000000000E+00 0. -1.
         11    1    1    2    0    0  0.18349544578E+02 -0.47044009635E+02  0.16481588606E+03  0.17237784349E+03  0.00000000000E+00 0.  1.
</event>
<event>
 7    1  0.2788485E-009  0.1237964E+03  0.7561462E-02  0.1236962E+00
          1   -1    0    0  501    0  0.00000000000E+00  0.00000000000E+00  0.61426111582E+02  0.61426111582E+02  0.00000000000E+00 0. -1.
         -1   -1    0    0    0  501 -0.00000000000E+00 -0.00000000000E+00 -0.26416444602E+03  0.26416444602E+03  0.00000000000E+00 0.  1.
         25    2    1    2    0    0  0.48605990302E+02  0.51067431969E+02 -0.11330725813E+03  0.18291127839E+03  0.12509027186E+03 0.  0.
          5    1    3    3  502    0 -0.14159442418E+02  0.72513742928E+02 -0.78524761248E+02  0.10789969070E+03  0.41800000000E+01 0. -1.
         -5    1    3    3    0  502  0.62765432720E+02 -0.21446310960E+02 -0.34782496885E+02  0.75011587691E+02  0.41800000000E+01 0. -1.
        -11    1    1    2    0    0 -0.64042298609E+02 -0.61267826950E+02 -0.86686648737E+02  0.12397474622E+03  0.00000000000E+00 0.  1.
         11    1    1    2    0    0  0.15436308307E+02  0.10200394981E+02 -0.27444275645E+01  0.18704532995E+02  0.00000000000E+00 0. -1.
</event>
<event>
 7    1  0.2788485E-009  0.1215852E+03  0.7561462E-02  0.1240505E+00
          1   -1    0    0  501    0  0.00000000000E+00  0.00000000000E+00  0.50588863631E+02  0.50588863631E+02  0.00000000000E+00 0. -1.
         -1   -1    0    0    0  501 -0.00000000000E+00 -0.00000000000E+00 -0.30931908175E+03  0.30931908175E+03  0.00000000000E+00 0.  1.
         25    2    1    2    0    0 -0.71410947006E+01 -0.59312727086E+02 -0.11081865454E+03  0.17747142589E+03  0.12508532281E+03 0.  0.
          5    1    3    3  502    0 -0.63467419554E+02 -0.47664652487E+02 -0.51321711611E+02  0.94611959731E+02  0.41800000000E+01 0. -1.
         -5    1    3    3    0  502  0.56326324853E+02 -0.11648074599E+02 -0.59496942931E+02  0.82859466155E+02  0.41800000000E+01 0. -1.
        -11    1    1    2    0    0 -0.20956151595E+02 -0.15524446879E+02 -0.46418307186E+02  0.53243102676E+02  0.00000000000E+00 0.  1.
         11    1    1    2    0    0  0.28097246296E+02  0.74837173965E+02 -0.10149325639E+03  0.12919341682E+03  0.00000000000E+00 0. -1.
</event>
<event>
 7    1  0.2788485E-009  0.1202430E+03  0.7561462E-02  0.1242697E+00
          1   -1    0    0  501    0  0.00000000000E+00  0.00000000000E+00  0.52192246530E+02  0.52192246530E+02  0.00000000000E+00 0. -1.
         -1   -1    0    0    0  501 -0.00000000000E+00 -0.00000000000E+00 -0.34183031617E+03  0.34183031617E+03  0.00000000000E+00 0.  1.
         25    2    1    2    0    0  0.65903102048E+02  0.13510440147E+02 -0.98283728809E+02  0.17271896485E+03  0.12508556518E+03 0.  0.
          5    1    3    3  502    0  0.10042521470E+03 -0.21140281194E+01 -0.87024984078E+02  0.13296809060E+03  0.41800000000E+01 0.  1.
         -5    1    3    3    0  502 -0.34522112654E+02  0.15624468267E+02 -0.11258744731E+02  0.39750874250E+02  0.41800000000E+01 0.  1.
        -11    1    1    2    0    0 -0.74427946414E+02  0.11585324298E+02 -0.94274169016E+02  0.12067045160E+03  0.00000000000E+00 0.  1.
         11    1    1    2    0    0  0.85248443656E+01 -0.25095764445E+02 -0.97080171813E+02  0.10063314625E+03  0.00000000000E+00 0. -1.
</event>
<event>
 7    1  0.2788485E-009  0.1103324E+03  0.7561462E-02  0.1259956E+00
         -1   -1    0    0    0  501 -0.00000000000E+00  0.00000000000E+00  0.18182296186E+02  0.18182296186E+02  0.00000000000E+00 0.  1.
          1   -1    0    0  501    0  0.00000000000E+00 -0.00000000000E+00 -0.71845846007E+03  0.71845846007E+03  0.00000000000E+00 0. -1.
         25    2    1    2    0    0 -0.30770908558E+02  0.16658664792E+02 -0.36072349644E+03  0.38339863421E+03  0.12509481168E+03 0.  0.
          5    1    3    3  502    0 -0.68455754790E+02  0.39451780110E+02 -0.28419448816E+03  0.29500273358E+03  0.41800000000E+01 0. -1.
         -5    1    3    3    0  502  0.37684846233E+02 -0.22793115318E+02 -0.76529008275E+02  0.88395900635E+02  0.41800000000E+01 0. -1.
        -11    1    1    2    0    0  0.50642575586E+02 -0.41512839858E+02 -0.22163340792E+03  0.23110463830E+03  0.00000000000E+00 0. -1.
         11    1    1    2    0    0 -0.19871667028E+02  0.24854175066E+02 -0.11791925952E+03  0.12213748374E+03  0.00000000000E+00 0.  1.
</event>
<event>
 7    1  0.2788485E-009  0.1136058E+03  0.7561462E-02  0.1254035E+00
         -2   -1    0    0    0  501 -0.00000000000E+00  0.00000000000E+00  0.40304255242E+02  0.40304255242E+02  0.00000000000E+00 0.  1.
          2   -1    0    0  501    0  0.00000000000E+00 -0.00000000000E+00 -0.66080620024E+03  0.66080620024E+03  0.00000000000E+00 0. -1.
         25    2    1    2    0    0 -0.16798540092E+02  0.77451389074E+02 -0.48609583765E+03  0.50815116419E+03  0.12509010218E+03 0.  0.
          5    1    3    3  502    0  0.50702493982E+02  0.58855334399E+02 -0.26688349641E+03  0.27799094651E+03  0.41800000000E+01 0.  1.
         -5    1    3    3    0  502 -0.67501034075E+02  0.18596054675E+02 -0.21921234124E+03  0.23016021768E+03  0.41800000000E+01 0.  1.
        -11    1    1    2    0    0  0.98779617348E+01 -0.49894837336E+02  0.46078448868E+01  0.51071529793E+02  0.00000000000E+00 0.  1.
         11    1    1    2    0    0  0.69205783574E+01 -0.27556551738E+02 -0.13901395223E+03  0.14188776150E+03  0.00000000000E+00 0. -1.
</event>
<event>
 7    1  0.2788485E-009  0.1287386E+03  0.7561462E-02  0.1229339E+00
          1   -1    0    0  501    0  0.00000000000E+00  0.00000000000E+00  0.48128619377E+03  0.48128619377E+03  0.00000000000E+00 0. -1.
         -1   -1    0    0    0  501 -0.00000000000E+00 -0.00000000000E+00 -0.50778433035E+02  0.50778433035E+02  0.00000000000E+00 0.  1.
         25    2    1    2    0    0  0.80979653784E+02  0.49056294732E+02  0.12754338922E+03  0.20218000650E+03  0.12508083192E+03 0.  0.
          5    1    3    3  502    0  0.11233529492E+03  0.35155596312E+02  0.11709118295E+03  0.16608116076E+03  0.41800000000E+01 0. -1.
         -5    1    3    3    0  502 -0.31355641132E+02  0.13900698420E+02  0.10452206272E+02  0.36098845734E+02  0.41800000000E+01 0. -1.
        -11    1    1    2    0    0 -0.43916806965E+02 -0.51880276512E+02  0.85305132698E+02  0.10907435395E+03  0.00000000000E+00 0.  1.
         11    1    1    2    0    0 -0.37062846819E+02  0.28239817803E+01  0.21765923881E+03  0.22081026635E+03  0.00000000000E+00 0. -1.
</event>
<event>
 7    1  0.2788485E-009  0.1287062E+03  0.7561462E-02  0.1229388E+00
         -1   -1    0    0    0  501 -0.00000000000E+00  0.00000000000E+00  0.18614232271E+02  0.18614232271E+02  0.00000000000E+00 0.  1.
          1   -1    0    0  501    0  0.00000000000E+00 -0.00000000000E+00 -0.11054807457E+04  0.11054807457E+04  0.00000000000E+00 0. -1.
         25    2    1    2    0    0 -0.56085785591E+02 -0.45147597024E+02 -0.83039346783E+03  0.84284313511E+03  0.12508924063E+03 0.  0.
          5    1    3    3  502    0  0.14165312337E+01  0.40268290160E+02 -0.19710277233E+03  0.20122255592E+03  0.41800000000E+01 0. -1.
         -5    1    3    3    0  502 -0.57502316825E+02 -0.85415887184E+02 -0.63329069551E+03  0.64162057919E+03  0.41800000000E+01 0. -1.
        -11    1    1    2    0    0  0.57718184074E+02  0.68991111902E+02 -0.21962877359E+03  0.23733512273E+03  0.00000000000E+00 0.  1.
         11    1    1    2    0    0 -0.16323984834E+01 -0.23843514878E+02 -0.36844271976E+02  0.43916720096E+02  0.00000000000E+00 0. -1.
</event>
<event>
 7    1  0.2788485E-009  0.7785738E+02  0.7561462E-02  0.1335244E+00
          2   -1    0    0  501    0  0.00000000000E+00  0.00000000000E+00  0.97641283678E+02  0.97641283678E+02  0.00000000000E+00 0. -1.
         -2   -1    0    0    0  501 -0.00000000000E+00 -0.00000000000E+00 -0.12810944478E+03  0.12810944478E+03  0.00000000000E+00 0.  1.
         25    2    1    2    0    0  0.13265793619E+02  0.10437728153E+02 -0.94601819858E+00  0.12622415124E+03  0.12508682567E+03 0.  0.
          5    1    3    3  502    0 -0.26275990424E+02 -0.40434187822E+02 -0.28336244967E+02  0.56087132182E+02  0.41800000000E+01 0.  1.
         -5    1    3    3    0  502  0.39541784043E+02  0.50871915975E+02  0.27390226768E+02  0.70137019060E+02  0.41800000000E+01 0.  1.
        -11    1    1    2    0    0 -0.14628463993E+02 -0.24543875036E+02 -0.59700851275E+02  0.66185990992E+02  0.00000000000E+00 0.  1.
         11    1    1    2    0    0  0.13626703745E+01  0.14106146883E+02  0.30178708375E+02  0.33340586222E+02  0.00000000000E+00 0. -1.
</event>
<event>
 7    1  0.2788485E-009  0.1844978E+03  0.7561462E-02  0.1163520E+00
         -1   -1    0    0    0  501 -0.00000000000E+00  0.00000000000E+00  0.17711931107E+02  0.17711931107E+02  0.00000000000E+00 0.  1.
          1   -1    0    0  501    0  0.00000000000E+00 -0.00000000000E+00 -0.30380689149E+04  0.30380689149E+04  0.00000000000E+00 0. -1.
         25    2    1    2    0    0  0.10766088275E+03  0.13720356312E+03 -0.22603842797E+04  0.22705507326E+04  0.12509138357E+03 0.  0.
          5    1    3    3  502    0 -0.79716327737E-01 -0.34633383027E+01 -0.29676248808E+01  0.61871046803E+01  0.41800000000E+01 0.  1.
         -5    1    3    3    0  502  0.10774059907E+03  0.14066690142E+03 -0.22574166548E+04  0.22643636280E+04  0.41800000000E+01 0.  1.
        -11    1    1    2    0    0  0.88947884678E+01 -0.54989374686E+01 -0.85727319786E+01  0.13522104450E+02  0.00000000000E+00 0.  1.
         11    1    1    2    0    0 -0.11655567121E+03 -0.13170462565E+03 -0.75139997215E+03  0.77170800894E+03  0.00000000000E+00 0. -1.
</event>
<event>
 7    1  0.2788485E-009  0.8526070E+02  0.7561462E-02  0.1314752E+00
          1   -1    0    0  501    0  0.00000000000E+00  0.00000000000E+00  0.16358425779E+03  0.16358425779E+03  0.00000000000E+00 0. -1.
         -1   -1    0    0    0  501 -0.00000000000E+00 -0.00000000000E+00 -0.10042904704E+03  0.10042904704E+03  0.00000000000E+00 0.  1.
         25    2    1    2    0    0 -0.44015629685E+02  0.31569241737E+02  0.56593993550E+02  0.14759210278E+03  0.12508619435E+03 0.  0.
          5    1    3    3  502    0  0.10242517028E+02  0.47594588692E+01 -0.35402264523E+02  0.37394576307E+02  0.41800000000E+01 0. -1.
         -5    1    3    3    0  502 -0.54258146713E+02  0.26809782868E+02  0.91996258074E+02  0.11019752648E+03  0.41800000000E+01 0. -1.
        -11    1    1    2    0    0  0.63958141079E+02 -0.43974644393E+01 -0.26350167860E+02  0.69313150628E+02  0.00000000000E+00 0.  1.
         11    1    1    2    0    0 -0.19942511394E+02 -0.27171777298E+02  0.32911385059E+02  0.47108051421E+02  0.00000000000E+00 0. -1.
</event>
<event>
 7    1  0.2788485E-009  0.1496523E+03  0.7561462E-02  0.1200901E+00
          2   -1    0    0  501    0  0.00000000000E+00  0.00000000000E+00  0.13025495910E+03  0.13025495910E+03  0.00000000000E+00 0. -1.
         -2   -1    0    0    0  501 -0.00000000000E+00 -0.00000000000E+00 -0.18740443007E+03  0.18740443007E+03  0.00000000000E+00 0.  1.
         25    2    1    2    0    0  0.11053235833E+03 -0.14528401303E+02  0.91809418699E+01  0.16780240259E+03  0.12507949448E+03 0.  0.
          5    1    3    3  502    0  0.11719887343E+03  0.29003045379E+02  0.19519832900E+02  0.12237339928E+03  0.41800000000E+01 0.  1.
         -5    1    3    3    0  502 -0.66665151071E+01 -0.43531446682E+02 -0.10338891030E+02  0.45429003309E+02  0.41800000000E+01 0.  1.
        -11    1    1    2    0    0 -0.46823915216E+02 -0.30823942850E+02 -0.30783433218E+02  0.63954782852E+02  0.00000000000E+00 0.  1.
         11    1    1    2    0    0 -0.63708443110E+02  0.45352344153E+02 -0.35546979621E+02  0.85902203719E+02  0.00000000000E+00 0. -1.
</event>
<event>
 7    1  0.2788485E-009  0.1174969E+03  0.7561462E-02  0.1247284E+00
         -1   -1    0    0    0  501 -0.00000000000E+00  0.00000000000E+00  0.14218314935E+02  0.14218314935E+02  0.00000000000E+00 0.  1.
          1   -1    0    0  501    0  0.00000000000E+00 -0.00000000000E+00 -0.12763144943E+04  0.12763144943E+04  0.00000000000E+00 0. -1.
         25    2    1    2    0    0 -0.37747094075E+01 -0.82016307287E+02 -0.72528948861E+03  0.74056260265E+03  0.12508878070E+03 0.  0.
          5    1    3    3  502    0 -0.95832165493E+01  0.15494583935E+02 -0.16114292508E+02  0.24679201644E+02  0.41800000000E+01 0.  1.
         -5    1    3    3    0  502  0.58085071419E+01 -0.97510891222E+02 -0.70917519610E+03  0.71588340100E+03  0.41800000000E+01 0.  1.
        -11    1    1    2    0    0 -0.33088159509E+02  0.54276388769E+01 -0.12069239138E+03  0.12526347792E+03  0.00000000000E+00 0.  1.
         11    1    1    2    0    0  0.36862868916E+02  0.76588668410E+02 -0.41611429942E+03  0.42470672871E+03  0.00000000000E+00 0. -1.
</event>
<event>
 7    1  0.2788485E-009  0.1775567E+03  0.7561462E-02  0.1170189E+00
          2   -1    0    0  501    0  0.00000000000E+00  0.00000000000E+00  0.75901289527E+03  0.75901289527E+03  0.00000000000E+00 0. -1.
         -2   -1    0    0    0  501 -0.00000000000E+00 -0.00000000000E+00 -0.49950176737E+02  0.49950176737E+02  0.00000000000E+00 0.  1.
         25    2    1    2    0    0 -0.14314861602E+03 -0.71174420676E+02  0.41392662499E+03  0.46101885304E+03  0.12508320254E+03 0.  0.
          5    1    3    3  502    0 -0.21721148201E+02  0.15333595745E+02  0.19044401224E+03  0.19233648025E+03  0.41800000000E+01 0.  1.
         -5    1    3    3    0  502 -0.12142746781E+03 -0.86508016421E+02  0.22348261274E+03  0.26868237278E+03  0.41800000000E+01 0.  1.
        -11    1    1    2    0    0 -0.10349791216E+02  0.14291907063E+01  0.33897161900E+01  0.10984122184E+02  0.00000000000E+00 0.  1.
         11    1    1    2    0    0  0.15349840723E+03  0.69745229970E+02  0.29174637736E+03  0.33696009679E+03  0.00000000000E+00 0. -1.
</event>
<event>
 7    1  0.2788485E-009  0.2963423E+03  0.7561462E-02  0.1087083E+00
          1   -1    0    0  501    0  0.00000000000E+00  0.00000000000E+00  0.84808199631E+03  0.84808199631E+03  0.00000000000E+00 0. -1.
         -1   -1    0    0    0  501 -0.00000000000E+00 -0.00000000000E+00 -0.11211379989E+03  0.11211379989E+03  0.00000000000E+00 0.  1.
         25    2    1    2    0    0  0.19450742268E+03 -0.20671237527E+03  0.34233819393E+03  0.46195930929E+03  0.12509125006E+03 0.  0.
          5    1    3    3  502    0  0.10605962024E+03 -0.68400523522E+02  0.71198831651E+02  0.14496213537E+03  0.41800000000E+01 0. -1.
         -5    1    3    3    0  502  0.88447802445E+02 -0.13831185175E+03  0.27113936228E+03  0.31699717391E+03  0.41800000000E+01 0. -1.
        -11    1    1    2    0    0 -0.85123701874E-01  0.56485048390E+02  0.47707445825E+02  0.73936245001E+02  0.00000000000E+00 0.  1.
         11    1    1    2    0    0 -0.19442229898E+03  0.15022732688E+03  0.34592255667E+03  0.42430024192E+03  0.00000000000E+00 0. -1.
</event>
<event>
 7    1  0.2788485E-009  0.1165717E+03  0.7561462E-02  0.1248862E+00
         -1   -1    0    0    0  501 -0.00000000000E+00  0.00000000000E+00  0.57954427927E+02  0.57954427927E+02  0.00000000000E+00 0.  1.
          1   -1    0    0  501    0  0.00000000000E+00 -0.00000000000E+00 -0.28434446943E+03  0.28434446943E+03  0.00000000000E+00 0. -1.
         25    2    1    2    0    0  0.44282531643E+02 -0.29916225314E+02 -0.64389227275E+02  0.15049716131E+03  0.12508996693E+03 0.  0.
          5    1    3    3  502    0 -0.41482240287E+02 -0.58401318710E+01 -0.29480553753E+01  0.42202450522E+02  0.41800000000E+01 0.  1.
         -5    1    3    3    0  502  0.85764771931E+02 -0.24076093444E+02 -0.61441171899E+02  0.10829471079E+03  0.41800000000E+01 0.  1.
        -11    1    1    2    0    0 -0.61256469841E+02  0.47433138729E+02 -0.13287186198E+03  0.15380893814E+03  0.00000000000E+00 0.  1.
         11    1    1    2    0    0  0.16973938198E+02 -0.17516913414E+02 -0.29128952250E+02  0.37992797905E+02  0.00000000000E+00 0. -1.
</event>
<event>
 7    1  0.2788485E-009  0.2442544E+03  0.7561462E-02  0.1116991E+00
         -2   -1    0    0    0  501 -0.00000000000E+00  0.00000000000E+00  0.24859000538E+02  0.24859000538E+02  0.00000000000E+00 0. -1.
          2   -1    0    0  501    0  0.00000000000E+00 -0.00000000000E+00 -0.29214940888E+04  0.29214940888E+04  0.00000000000E+00 0.  1.
         25    2    1    2    0    0  0.10630842617E+03 -0.21124919701E+03 -0.18619714690E+04  0.18810930477E+04  0.12508236469E+03 0.  0.
          5    1    3    3  502    0  0.85023293085E+02 -0.76286323623E+02 -0.11822347484E+04  0.11877478842E+04  0.41800000000E+01 0. -1.
         -5    1    3    3    0  502  0.21285133084E+02 -0.13496287339E+03 -0.67973672057E+03  0.69334516352E+03  0.41800000000E+01 0. -1.
        -11    1    1    2    0    0 -0.46193761161E+02  0.11617549345E+03 -0.35547256637E+03  0.37681740179E+03  0.00000000000E+00 0. -1.
         11    1    1    2    0    0 -0.60114665007E+02  0.95073703563E+02 -0.67919105285E+03  0.68844263982E+03  0.00000000000E+00 0.  1.
</event>
<event>
 7    1  0.2788485E-009  0.1249705E+03  0.7561462E-02  0.1235115E+00
          2   -1    0    0  501    0  0.00000000000E+00  0.00000000000E+00  0.76510989026E+03  0.76510989026E+03  0.00000000000E+00 0. -1.
         -2   -1    0    0    0  501 -0.00000000000E+00 -0.00000000000E+00 -0.25247092150E+02  0.25247092150E+02  0.00000000000E+00 0.  1.
         25    2    1    2    0    0 -0.77861914024E+02  0.39577571132E+01  0.43953144407E+03  0.46358841454E+03  0.12509271070E+03 0.  0.
          5    1    3    3  502    0 -0.87551240869E+02 -0.43603738702E+02  0.27021344550E+03  0.28740091220E+03  0.41800000000E+01 0. -1.
         -5    1    3    3    0  502  0.96893268449E+01  0.47561495815E+02  0.16931799858E+03  0.17618750234E+03  0.41800000000E+01 0. -1.
        -11    1    1    2    0    0  0.63063287434E+02  0.27317331449E+02  0.27610708572E+03  0.28453178663E+03  0.00000000000E+00 0.  1.
         11    1    1    2    0    0  0.14798626590E+02 -0.31275088563E+02  0.24224268310E+02  0.42236781231E+02  0.00000000000E+00 0. -1.
</event>
<event>
 7    1  0.2788485E-009  0.1740305E+03  0.7561462E-02  0.1173709E+00
         -2   -1    0    0    0  501 -0.00000000000E+00  0.00000000000E+00  0.36014950122E+02  0.36014950122E+02  0.00000000000E+00 0.  1.
          2   -1    0    0  501    0  0.00000000000E+00 -0.00000000000E+00 -0.91191312267E+03  0.91191312267E+03  0.00000000000E+00 0. -1.
         25    2    1    2    0    0 -0.14028100633E+03  0.17497699933E+02 -0.53881234165E+03  0.57092127463E+03  0.12508969610E+03 0.  0.
          5    1    3    3  502    0 -0.49923995298E+02  0.68544413376E+02 -0.24308826151E+03  0.25748809136E+03  0.41800000000E+01 0. -1.
         -5    1    3    3    0  502 -0.90357011035E+02 -0.51046713443E+02 -0.29572408015E+03  0.31343318327E+03  0.41800000000E+01 0. -1.
        -11    1    1    2    0    0  0.10093147469E+03 -0.45788691946E+02 -0.16921900080E+03  0.20228405059E+03  0.00000000000E+00 0.  1.
         11    1    1    2    0    0  0.39349531639E+02  0.28290992013E+02 -0.16786683010E+03  0.17472274757E+03  0.00000000000E+00 0. -1.
</event>
<event>
 7    1  0.2788485E-009  0.1014715E+03  0.7561462E-02  0.1277232E+00
          2   -1    0    0  501    0  0.00000000000E+00  0.00000000000E+00  0.28953913548E+02  0.28953913548E+02  0.00000000000E+00 0. -1.
         -2   -1    0    0    0  501 -0.00000000000E+00 -0.00000000000E+00 -0.47480163713E+03  0.47480163713E+03  0.00000000000E+00 0.  1.
         25    2    1    2    0    0 -0.21686912617E+02  0.38922095588E+02 -0.27319373110E+03  0.30375467181E+03  0.12508730643E+03 0.  0.
          5    1    3    3  502    0 -0.52885499063E+02 -0.20545355239E+02 -0.72958689169E+02  0.92517189528E+02  0.41800000000E+01 0. -1.
         -5    1    3    3    0  502  0.31198586445E+02  0.59467450827E+02 -0.20023504193E+03  0.21123748228E+03  0.41800000000E+01 0. -1.
        -11    1    1    2    0    0  0.45083061077E+02 -0.25408831266E+02 -0.16346764238E+03  0.17146358566E+03  0.00000000000E+00 0.  1.
         11    1    1    2    0    0 -0.23396148460E+02 -0.13513264322E+02 -0.91863501041E+01  0.28537293208E+02  0.00000000000E+00 0. -1.
</event>
<event>
 7    1  0.2788485E-009  0.2232415E+03  0.7561462E-02  0.1131489E+00
          1   -1    0    0  501    0  0.00000000000E+00  0.00000000000E+00  0.13254375167E+04  0.13254375167E+04  0.00000000000E+00 0. -1.
         -1   -1    0    0    0  501 -0.00000000000E+00 -0.00000000000E+00 -0.97464825784E+02  0.97464825784E+02  0.00000000000E+00 0.  1.
         25    2    1    2    0    0  0.57824207830E+02 -0.20518786070E+03  0.92796286729E+02  0.26402004985E+03  0.12509891568E+03 0.  0.
          5    1    3    3  502    0  0.15400298918E+02 -0.51763299529E+02 -0.30920692997E+02  0.62371227664E+02  0.41800000000E+01 0. -1.
         -5    1    3    3    0  502  0.42423908911E+02 -0.15342456117E+03  0.12371697973E+03  0.20164882219E+03  0.41800000000E+01 0. -1.
        -11    1    1    2    0    0 -0.82539168618E+02  0.13053285521E+03  0.76969414889E+03  0.78503542817E+03  0.00000000000E+00 0. -1.
         11    1    1    2    0    0  0.24714960788E+02  0.74655005491E+02  0.36548225534E+03  0.37384686450E+03  0.00000000000E+00 0.  1.
</event>
<event>
 7    1  0.2788485E-009  0.2035001E+03  0.7561462E-02  0.1146819E+00
          1   -1    0    0  501    0  0.00000000000E+00  0.00000000000E+00  0.23575013254E+03  0.23575013254E+03  0.00000000000E+00 0. -1.
         -1   -1    0    0    0  501 -0.00000000000E+00 -0.00000000000E+00 -0.20635941969E+03  0.20635941969E+03  0.00000000000E+00 0.  1.
         25    2    1    2    0    0 -0.57931550579E+01 -0.18230805308E+03  0.73220686616E+02  0.23297763138E+03  0.12509005122E+03 0.  0.
          5    1    3    3  502    0 -0.89409695989E+00  0.15291139677E+02 -0.96806530063E+01  0.18595854501E+02  0.41800000000E+01 0. -1.
         -5    1    3    3    0  502 -0.48990580980E+01 -0.19759919275E+03  0.82901339622E+02  0.21438177688E+03  0.41800000000E+01 0. -1.
        -11    1    1    2    0    0 -0.26816476253E+02  0.45831477786E+02 -0.43768205275E+02  0.68813541891E+02  0.00000000000E+00 0.  1.
         11    1    1    2    0    0  0.32609631311E+02  0.13647657529E+03 -0.61768499291E-01  0.14031837896E+03  0.00000000000E+00 0. -1.
</event>
<event>
 7    1  0.2788485E-009  0.1132660E+03  0.7561462E-02  0.1254639E+00
         -2   -1    0    0    0  501 -0.00000000000E+00  0.00000000000E+00  0.37857487793E+02  0.37857487793E+02  0.00000000000E+00 0. -1.
          2   -1    0    0  501    0  0.00000000000E+00 -0.00000000000E+00 -0.52040774153E+03  0.52040774153E+03  0.00000000000E+00 0.  1.
         25    2    1    2    0    0 -0.53331292747E+02 -0.72037810261E+02 -0.27486428203E+03  0.31501075316E+03  0.12509087968E+03 0.  0.
          5    1    3    3  502    0 -0.41852134472E+02 -0.57065000777E+01 -0.12693389727E+02  0.44303045559E+02  0.41800000000E+01 0.  1.
         -5    1    3    3    0  502 -0.11479158275E+02 -0.66331310184E+02 -0.26217089230E+03  0.27070770760E+03  0.41800000000E+01 0.  1.
        -11    1    1    2    0    0 -0.98341074010E+01 -0.93812831422E+01 -0.69831168352E+02  0.71141480271E+02  0.00000000000E+00 0.  1.
         11    1    1    2    0    0  0.63165400148E+02  0.81419093403E+02 -0.13785480336E+03  0.17211299589E+03  0.00000000000E+00 0. -1.
</event>
<event>
 7    1  0.3451377E-009  0.1475276E+03  0.7561462E-02  0.1203544E+00
         -1   -1    0    0    0  501 -0.00000000000E+00  0.00000000000E+00  0.66716709593E+02  0.66716709593E+02  0.00000000000E+00 0.  1.
          1   -1    0    0  501    0  0.00000000000E+00 -0.00000000000E+00 -0.42899007519E+03  0.42899007519E+03  0.00000000000E+00 0. -1.
         25    2    1    2    0    0  0.76351760157E+02  0.10199914028E+03 -0.22440154848E+03  0.28677003203E+03  0.12509028905E+03 0.  0.
          5    1    3    3  502    0  0.91071558724E+02  0.35277233366E+02 -0.18101659554E+03  0.20572552652E+03  0.41800000000E+01 0. -1.
         -5    1    3    3    0  502 -0.14719798567E+02  0.66721906912E+02 -0.43384952943E+02  0.81044505512E+02  0.41800000000E+01 0. -1.
        -11    1    1    2    0    0 -0.75001349823E+01 -0.22289681453E+02  0.11487738170E+02  0.26173460839E+02  0.00000000000E+00 0.  1.
         11    1    1    2    0    0 -0.68851625175E+02 -0.79709458825E+02 -0.14935955529E+03  0.18276329191E+03  0.00000000000E+00 0. -1.
</event>
<event>
 7    1  0.2788485E-009  0.8842184E+02  0.7561462E-02  0.1306719E+00
          2   -1    0    0  501    0  0.00000000000E+00  0.00000000000E+00  0.14333697121E+04  0.14333697121E+04  0.00000000000E+00 0. -1.
         -2   -1    0    0    0  501 -0.00000000000E+00 -0.00000000000E+00 -0.99953869840E+01  0.99953869840E+01  0.00000000000E+00 0.  1.
         25    2    1    2    0    0 -0.29120335032E+02  0.35199447034E+01  0.10839871835E+04  0.10915749026E+04  0.12508864891E+03 0.  0.
          5    1    3    3  502    0 -0.49878225411E+02  0.33229962485E+02  0.26289643235E+03  0.26967401491E+03  0.41800000000E+01 0. -1.
         -5    1    3    3    0  502  0.20757890378E+02 -0.29710017781E+02  0.82109075111E+03  0.82190088765E+03  0.41800000000E+01 0. -1.
        -11    1    1    2    0    0 -0.74576044148E+01 -0.32668611624E+02  0.61891374300E+02  0.70380368440E+02  0.00000000000E+00 0.  1.
         11    1    1    2    0    0  0.36577939447E+02  0.29148666920E+02  0.27749576736E+03  0.28140982808E+03  0.00000000000E+00 0. -1.
</event>
<event>
 7    1  0.2788485E-009  0.1067066E+03  0.7561462E-02  0.1266793E+00
          2   -1    0    0  501    0  0.00000000000E+00  0.00000000000E+00  0.30932331044E+03  0.30932331044E+03  0.00000000000E+00 0. -1.
         -2   -1    0    0    0  501 -0.00000000000E+00 -0.00000000000E+00 -0.69544838152E+02  0.69544838152E+02  0.00000000000E+00 0.  1.
         25    2    1    2    0    0 -0.86873747502E+02 -0.31233878875E+02  0.17526592548E+03  0.23428395696E+03  0.12509286415E+03 0.  0.
          5    1    3    3  502    0 -0.28960215790E+01  0.14364625687E+02 -0.14966199957E+02  0.21358580320E+02  0.41800000000E+01 0. -1.
         -5    1    3    3    0  502 -0.83977725923E+02 -0.45598504562E+02  0.19023212543E+03  0.21292537664E+03  0.41800000000E+01 0. -1.
        -11    1    1    2    0    0  0.58274428558E+02 -0.24644728275E+01 -0.87925232312E+01  0.58985516145E+02  0.00000000000E+00 0.  1.
         11    1    1    2    0    0  0.28599318944E+02  0.33698351702E+02  0.73305070036E+02  0.85598675483E+02  0.00000000000E+00 0. -1.
</event>
<event>
 7    1  0.2788485E-009  0.1242844E+03  0.7561462E-02  0.1236192E+00
         -2   -1    0    0    0  501 -0.00000000000E+00  0.00000000000E+00  0.75698979290E+02  0.75698979290E+02  0.00000000000E+00 0.  1.
          2   -1    0    0  501    0  0.00000000000E+00 -0.00000000000E+00 -0.27453654644E+03  0.27453654644E+03  0.00000000000E+00 0. -1.
         25    2    1    2    0    0 -0.31037564600E+02  0.87615731401E+02 -0.79207851080E+02  0.17481624018E+03  0.12508791849E+03 0.  0.
          5    1    3    3  502    0 -0.69177441076E+02  0.11662614757E+02 -0.42604268669E+02  0.82183520524E+02  0.41800000000E+01 0. -1.
         -5    1    3    3    0  502  0.38139876476E+02  0.75953116644E+02 -0.36603582411E+02  0.92632719656E+02  0.41800000000E+01 0. -1.
        -11    1    1    2    0    0  0.11236444174E+02 -0.22710833767E+02 -0.10228881644E+03  0.10538046127E+03  0.00000000000E+00 0. -1.
         11    1    1    2    0    0  0.19801120426E+02 -0.64904897634E+02 -0.17340899629E+02  0.70038824283E+02  0.00000000000E+00 0.  1.
</event>
<event>
 7    1  0.2788485E-009  0.1393771E+03  0.7561462E-02  0.1214170E+00
          2   -1    0    0  501    0  0.00000000000E+00  0.00000000000E+00  0.52141185953E+03  0.52141185953E+03  0.00000000000E+00 0. -1.
         -2   -1    0    0    0  501 -0.00000000000E+00 -0.00000000000E+00 -0.41731881842E+02  0.41731881842E+02  0.00000000000E+00 0.  1.
         25    2    1    2    0    0  0.92666891274E+02 -0.28500404709E+02  0.21521435592E+03  0.26714690106E+03  0.12510324515E+03 0.  0.
          5    1    3    3  502    0  0.72722903395E+02  0.38505065191E+02  0.79848862572E+02  0.11473697738E+03  0.41800000000E+01 0. -1.
         -5    1    3    3    0  502  0.19943987880E+02 -0.67005469900E+02  0.13536549335E+03  0.15240992369E+03  0.41800000000E+01 0. -1.
        -11    1    1    2    0    0 -0.96542267046E+02 -0.10236227480E+01  0.23520302260E+03  0.25424775116E+03  0.00000000000E+00 0. -1.
         11    1    1    2    0    0  0.38753757721E+01  0.29524027457E+02  0.29262599170E+02  0.41749089150E+02  0.00000000000E+00 0.  1.
</event>
<event>
 7    1  0.2788485E-009  0.6901153E+02  0.7561462E-02  0.1363487E+00
         -1   -1    0    0    0  501 -0.00000000000E+00  0.00000000000E+00  0.33854986188E+02  0.33854986188E+02  0.00000000000E+00 0.  1.
          1   -1    0    0  501    0  0.00000000000E+00 -0.00000000000E+00 -0.43313919085E+03  0.43313919085E+03  0.00000000000E+00 0. -1.
         25    2    1    2    0    0  0.82385474267E+00 -0.47744475120E+02 -0.29831660962E+03  0.32698653289E+03  0.12508868645E+03 0.  0.
          5    1    3    3  502    0 -0.29716482231E+02 -0.41731247159E+02 -0.28996967066E+03  0.29449015028E+03  0.41800000000E+01 0. -1.
         -5    1    3    3    0  502  0.30540336973E+02 -0.60132279607E+01 -0.83469389527E+01  0.32496382611E+02  0.41800000000E+01 0. -1.
        -11    1    1    2    0    0 -0.13795823919E+02  0.31784636856E+02  0.22868078240E+01  0.34724881392E+02  0.00000000000E+00 0.  1.
         11    1    1    2    0    0  0.12971969176E+02  0.15959838264E+02 -0.10325440287E+03  0.10528276276E+03  0.00000000000E+00 0. -1.
</event>
<event>
 7    1  0.2788485E-009  0.1191790E+03  0.7561462E-02  0.1244458E+00
         -1   -1    0    0    0  501 -0.00000000000E+00  0.00000000000E+00  0.35652600359E+02  0.35652600359E+02  0.00000000000E+00 0. -1.
          1   -1    0    0  501    0  0.00000000000E+00 -0.00000000000E+00 -0.45924837655E+03  0.45924837655E+03  0.00000000000E+00 0.  1.
         25    2    1    2    0    0  0.79731317552E+01  0.58814970763E+02 -0.17332774095E+03  0.22184846844E+03  0.12510581742E+03 0.  0.
          5    1    3    3  502    0  0.55191639033E+02 -0.68350492614E+01 -0.53919347736E+02  0.77573213017E+02  0.41800000000E+01 0. -1.
         -5    1    3    3    0  502 -0.47218507278E+02  0.65650020024E+02 -0.11940839321E+03  0.14427525542E+03  0.41800000000E+01 0. -1.
        -11    1    1    2    0    0  0.20129160031E+02 -0.68880958879E+02 -0.21598694451E+03  0.22759641864E+03  0.00000000000E+00 0.  1.
         11    1    1    2    0    0 -0.28102291786E+02  0.10065988116E+02 -0.34281090739E+02  0.45456089830E+02  0.00000000000E+00 0. -1.
</event>
<event>
 7    1  0.3052870E-009  0.1760878E+03  0.7561462E-02  0.1171644E+00
          1   -1    0    0  501    0  0.00000000000E+00  0.00000000000E+00  0.50774410053E+03  0.50774410053E+03  0.00000000000E+00 0. -1.
         -1   -1    0    0    0  501 -0.00000000000E+00 -0.00000000000E+00 -0.78726452104E+02  0.78726452104E+02  0.00000000000E+00 0.  1.
         25    2    1    2    0    0  0.55897776342E+02 -0.15266677966E+03  0.28329628972E+03  0.34976493369E+03  0.12508802524E+03 0.  0.
          5    1    3    3  502    0 -0.34319442697E+01 -0.14977831058E+02  0.14461789645E+03  0.14549199991E+03  0.41800000000E+01 0.  1.
         -5    1    3    3    0  502  0.59329720612E+02 -0.13768894861E+03  0.13867839327E+03  0.20427293379E+03  0.41800000000E+01 0.  1.
        -11    1    1    2    0    0 -0.65742688270E+02  0.48655162703E+02  0.57712802453E+02  0.10010091651E+03  0.00000000000E+00 0.  1.
         11    1    1    2    0    0  0.98449119274E+01  0.10401161696E+03  0.88008556252E+02  0.13660470243E+03  0.00000000000E+00 0. -1.
</event>
<event>
 7    1  0.2788485E-009  0.1861149E+03  0.7561462E-02  0.1162013E+00
          2   -1    0    0  501    0  0.00000000000E+00  0.00000000000E+00  0.91836859387E+03  0.91836859387E+03  0.00000000000E+00 0. -1.
         -2   -1    0    0    0  501 -0.00000000000E+00 -0.00000000000E+00 -0.40049090648E+02  0.40049090648E+02  0.00000000000E+00 0.  1.
         25    2    1    2    0    0 -0.14793946908E+03  0.43038707859E+02  0.52740032408E+03  0.56350352644E+03  0.12508679220E+03 0.  0.
          5    1    3    3  502    0 -0.27623124777E+01 -0.29554012407E+02  0.14489238026E+03  0.14796061732E+03  0.41800000000E+01 0. -1.
         -5    1    3    3    0  502 -0.14517715660E+03  0.72592720265E+02  0.38250794382E+03  0.41554290912E+03  0.41800000000E+01 0. -1.
        -11    1    1    2    0    0  0.55299453738E+02 -0.64328712409E+02  0.14243146058E+03  0.16577977497E+03  0.00000000000E+00 0. -1.
         11    1    1    2    0    0  0.92640015339E+02  0.21290004550E+02  0.20848771856E+03  0.22913438312E+03  0.00000000000E+00 0.  1.
</event>
<event>
 7    1  0.2788485E-009  0.1217261E+03  0.7561462E-02  0.1240276E+00
          2   -1    0    0  501    0  0.00000000000E+00  0.00000000000E+00  0.20526798270E+03  0.20526798270E+03  0.00000000000E+00 0. -1.
         -2   -1    0    0    0  501 -0.00000000000E+00 -0.00000000000E+00 -0.11120030040E+03  0.11120030040E+03  0.00000000000E+00 0.  1.
         25    2    1    2    0    0 -0.26505147209E+02 -0.62024584465E+02  0.13359529354E+03  0.19505025185E+03  0.12508927367E+03 0.  0.
          5    1    3    3  502    0  0.42887027816E+02 -0.38210047713E+02  0.22456731467E+02  0.61814901839E+02  0.41800000000E+01 0. -1.
         -5    1    3    3    0  502 -0.69392175024E+02 -0.23814536752E+02  0.11113856207E+03  0.13323535002E+03  0.41800000000E+01 0. -1.
        -11    1    1    2    0    0  0.15858843132E+02 -0.22310351085E+02  0.68697014542E+00  0.27381135824E+02  0.00000000000E+00 0. -1.
         11    1    1    2    0    0  0.10646304076E+02  0.84334935551E+02 -0.40214581378E+02  0.94036895420E+02  0.00000000000E+00 0.  1.
</event>
<event>
 7    1  0.2788485E-009  0.2289243E+03  0.7561462E-02  0.1127399E+00
         -2   -1    0    0    0  501 -0.00000000000E+00  0.00000000000E+00  0.19036187245E+03  0.19036187245E+03  0.00000000000E+00 0.  1.
          2   -1    0    0  501    0  0.00000000000E+00 -0.00000000000E+00 -0.31832061100E+03  0.31832061100E+03  0.00000000000E+00 0. -1.
         25    2    1    2    0    0  0.17841789906E+03 -0.10605683819E+03 -0.14262680288E+03  0.28119439759E+03  0.12508750819E+03 0.  0.
          5    1    3    3  502    0 -0.94749703873E+00  0.21368997114E+02 -0.18187070051E+02  0.28386153409E+02  0.41800000000E+01 0. -1.
         -5    1    3    3    0  502  0.17936539610E+03 -0.12742583531E+03 -0.12443973283E+03  0.25280824418E+03  0.41800000000E+01 0. -1.
        -11    1    1    2    0    0 -0.14008317118E+03  0.51362893477E+02 -0.22754969472E+02  0.15092789771E+03  0.00000000000E+00 0. -1.
         11    1    1    2    0    0 -0.38334727882E+02  0.54693944715E+02  0.37423033798E+02  0.76560188146E+02  0.00000000000E+00 0.  1.
</event>
<event>
 7    1  0.2788485E-009  0.1311116E+03  0.7561462E-02  0.1225816E+00
         -1   -1    0    0    0  501 -0.00000000000E+00  0.00000000000E+00  0.43232883693E+02  0.43232883693E+02  0.00000000000E+00 0.  1.
          1   -1    0    0  501    0  0.00000000000E+00 -0.00000000000E+00 -0.56635836264E+03  0.56635836264E+03  0.00000000000E+00 0. -1.
         25    2    1    2    0    0  0.10992855048E+03 -0.24447261871E+02 -0.29569724680E+03  0.34024498761E+03  0.12509130667E+03 0.  0.
          5    1    3    3  502    0 -0.18477296373E+02 -0.55288555578E+01 -0.29051153791E+01  0.19947200816E+02  0.41800000000E+01 0. -1.
         -5    1    3    3    0  502  0.12840584685E+03 -0.18918406314E+02 -0.29279213142E+03  0.32029778679E+03  0.41800000000E+01 0. -1.
        -11    1    1    2    0    0 -0.99185421775E+02  0.21493823759E+02 -0.23493047127E+03  0.25591416273E+03  0.00000000000E+00 0. -1.
         11    1    1    2    0    0 -0.10743128704E+02  0.29534381120E+01  0.75022391223E+01  0.13432095997E+02  0.00000000000E+00 0.  1.
</event>
<event>
 7    1  0.2788485E-009  0.1125594E+03  0.7561462E-02  0.1255902E+00
         -3   -1    0    0    0  501 -0.00000000000E+00  0.00000000000E+00  0.22712567166E+03  0.22712567166E+03  0.00000000000E+00 0.  1.
          3   -1    0    0  501    0  0.00000000000E+00 -0.00000000000E+00 -0.15425349444E+03  0.15425349444E+03  0.00000000000E+00 0. -1.
         25    2    1    2    0    0  0.31976688697E+02 -0.84592892821E+02  0.16262895665E+03  0.22422081516E+03  0.12509328629E+03 0.  0.
          5    1    3    3  502    0  0.64546229042E+02 -0.75279908210E+02  0.16211607007E+03  0.19008517259E+03  0.41800000000E+01 0. -1.
         -5    1    3    3    0  502 -0.32569540345E+02 -0.93129846104E+01  0.51288657249E+00  0.34135642564E+02  0.41800000000E+01 0. -1.
        -11    1    1    2    0    0 -0.53372460677E+01  0.35337942540E+02 -0.94429553061E+02  0.10096631552E+03  0.00000000000E+00 0. -1.
         11    1    1    2    0    0 -0.26639442629E+02  0.49254950281E+02  0.46727736350E+01  0.56192035416E+02  0.00000000000E+00 0.  1.
</event>
<event>
 7    1  0.2788485E-009  0.1099983E+03  0.7561462E-02  0.1260573E+00
          1   -1    0    0  501    0  0.00000000000E+00  0.00000000000E+00  0.40786095342E+02  0.40786095342E+02  0.00000000000E+00 0. -1.
         -1   -1    0    0    0  501 -0.00000000000E+00 -0.00000000000E+00 -0.46096304043E+03  0.46096304043E+03  0.00000000000E+00 0.  1.
         25    2    1    2    0    0 -0.51666275848E+02  0.57322149439E+02 -0.29159975450E+03  0.32655047518E+03  0.12509821399E+03 0.  0.
          5    1    3    3  502    0 -0.99150043689E+01  0.61425206656E+02 -0.46339346801E+02  0.77692797519E+02  0.41800000000E+01 0. -1.
         -5    1    3    3    0  502 -0.41751271479E+02 -0.41030572172E+01 -0.24526040770E+03  0.24885767766E+03  0.41800000000E+01 0. -1.
        -11    1    1    2    0    0  0.57617309296E+02  0.22910000386E+00 -0.85340984329E+02  0.10297033759E+03  0.00000000000E+00 0.  1.
         11    1    1    2    0    0 -0.59510334477E+01 -0.57551249443E+02 -0.43236206264E+02  0.72228323002E+02  0.00000000000E+00 0. -1.
</event>
<event>
 7    1  0.2788485E-009  0.1561148E+03  0.7561462E-02  0.1193154E+00
         -2   -1    0    0    0  501 -0.00000000000E+00  0.00000000000E+00  0.34324769112E+03  0.34324769112E+03  0.00000000000E+00 0.  1.
          2   -1    0    0  501    0  0.00000000000E+00 -0.00000000000E+00 -0.17695326117E+03  0.17695326117E+03  0.00000000000E+00 0. -1.
         25    2    1    2    0    0  0.57748354125E+02 -0.12838984166E+03  0.25385306257E+03  0.31608343494E+03  0.12509411105E+03 0.  0.
          5    1    3    3  502    0  0.66196551307E+01  0.13660241058E+02 -0.48906837257E+01  0.16486758539E+02  0.41800000000E+01 0.  1.
         -5    1    3    3    0  502  0.51128698994E+02 -0.14205008272E+03  0.25874374630E+03  0.29959667640E+03  0.41800000000E+01 0.  1.
        -11    1    1    2    0    0 -0.11696435139E+02  0.32924347079E+01 -0.68367006663E+02  0.69438421074E+02  0.00000000000E+00 0. -1.
         11    1    1    2    0    0 -0.46051918986E+02  0.12509740695E+03 -0.19191625963E+02  0.13467909628E+03  0.00000000000E+00 0.  1.
</event>
<event>
 7    1  0.2788485E-009  0.5521718E+02  0.7561462E-02  0.1419075E+00
          2   -1    0    0  501    0  0.00000000000E+00  0.00000000000E+00  0.17378029648E+04  0.17378029648E+04  0.00000000000E+00 0. -1.
         -2   -1    0    0    0  501 -0.00000000000E+00 -0.00000000000E+00 -0.82720787211E+01  0.82720787211E+01  0.00000000000E+00 0.  1.
         25    2    1    2    0    0 -0.15484162121E+02 -0.23757012246E+01  0.13609581692E+04  0.13667854175E+04  0.12509930430E+03 0.  0.
          5    1    3    3  502    0 -0.17967702707E+02 -0.48238300629E+01  0.13612026985E+04  0.13613362429E+04  0.41800000000E+01 0.  1.
         -5    1    3    3    0  502  0.24835405865E+01  0.24481288383E+01 -0.24452926159E+00  0.54491745442E+01  0.41800000000E+01 0.  1.
        -11    1    1    2    0    0  0.16447770791E+02 -0.40148909427E+02  0.13271633176E+03  0.13962839542E+03  0.00000000000E+00 0.  1.
         11    1    1    2    0    0 -0.96360867025E+00  0.42524610652E+02  0.23585638512E+03  0.23966123060E+03  0.00000000000E+00 0. -1.
</event>
<event>
 7    1  0.2788485E-009  0.1045434E+03  0.7561462E-02  0.1271022E+00
          1   -1    0    0  501    0  0.00000000000E+00  0.00000000000E+00  0.12167645632E+03  0.12167645632E+03  0.00000000000E+00 0. -1.
         -1   -1    0    0    0  501 -0.00000000000E+00 -0.00000000000E+00 -0.14657098915E+03  0.14657098915E+03  0.00000000000E+00 0.  1.
         25    2    1    2    0    0  0.79821602133E+02  0.35920738366E+01 -0.12946141665E+02  0.14899543486E+03  0.12509055066E+03 0.  0.
          5    1    3    3  502    0  0.51878762081E+01  0.25637364089E+02  0.44768391567E+02  0.52017975552E+02  0.41800000000E+01 0. -1.
         -5    1    3    3    0  502  0.74633725925E+02 -0.22045290253E+02 -0.57714533232E+02  0.96977459309E+02  0.41800000000E+01 0. -1.
        -11    1    1    2    0    0 -0.74972533793E+02 -0.27811023028E+02  0.16424893730E+02  0.81634006145E+02  0.00000000000E+00 0. -1.
         11    1    1    2    0    0 -0.48490683398E+01  0.24218949191E+02 -0.28373284904E+02  0.37618004465E+02  0.00000000000E+00 0.  1.
</event>
<event>
 7    1  0.2788485E-009  0.1354376E+03  0.7561462E-02  0.1219603E+00
         -2   -1    0    0    0  501 -0.00000000000E+00  0.00000000000E+00  0.21618115493E+03  0.21618115493E+03  0.00000000000E+00 0.  1.
          2   -1    0    0  501    0  0.00000000000E+00 -0.00000000000E+00 -0.13682701155E+03  0.13682701155E+03  0.00000000000E+00 0. -1.
         25    2    1    2    0    0 -0.37354108519E+02  0.11757482667E+03  0.93625280628E+02  0.19907895126E+03  0.12509023292E+03 0.  0.
          5    1    3    3  502    0 -0.28551200612E+02  0.75325684994E+02 -0.15066204934E+02  0.82058471881E+02  0.41800000000E+01 0.  1.
         -5    1    3    3    0  502 -0.88029079063E+01  0.42249141680E+02  0.10869148556E+03  0.11702047938E+03  0.41800000000E+01 0.  1.
        -11    1    1    2    0    0  0.21818500349E+02 -0.12688119124E+03  0.31755478753E+01  0.12878263762E+03  0.00000000000E+00 0.  1.
         11    1    1    2    0    0  0.15535608170E+02  0.93063645704E+01 -0.17446685126E+02  0.25146577592E+02  0.00000000000E+00 0. -1.
</event>
<event>
 7    1  0.2788485E-009  0.1173156E+03  0.7561462E-02  0.1247592E+00
         -2   -1    0    0    0  501 -0.00000000000E+00  0.00000000000E+00  0.26131897809E+02  0.26131897809E+02  0.00000000000E+00 0.  1.
          2   -1    0    0  501    0  0.00000000000E+00 -0.00000000000E+00 -0.65558333401E+03  0.65558333401E+03  0.00000000000E+00 0. -1.
         25    2    1    2    0    0 -0.75928599078E+02 -0.19897465412E+01 -0.36901559922E+03  0.39697337116E+03  0.12508490595E+03 0.  0.
          5    1    3    3  502    0 -0.15000733535E+02 -0.47608590186E+02 -0.25466221561E+03  0.25954174294E+03  0.41800000000E+01 0.  1.
         -5    1    3    3    0  502 -0.60927865542E+02  0.45618843645E+02 -0.11435338361E+03  0.13743162823E+03  0.41800000000E+01 0.  1.
        -11    1    1    2    0    0 -0.23806897684E+01  0.26229440392E+02 -0.11320456415E+03  0.11622789928E+03  0.00000000000E+00 0. -1.
         11    1    1    2    0    0  0.78309288846E+02 -0.24239693851E+02 -0.14723127283E+03  0.16851396137E+03  0.00000000000E+00 0.  1.
</event>
<event>
 7    1  0.2788485E-009  0.1012937E+03  0.7561462E-02  0.1277599E+00
          1   -1    0    0  501    0  0.00000000000E+00  0.00000000000E+00  0.58189522608E+02  0.58189522608E+02  0.00000000000E+00 0. -1.
         -1   -1    0    0    0  501 -0.00000000000E+00 -0.00000000000E+00 -0.21432621617E+03  0.21432621617E+03  0.00000000000E+00 0.  1.
         25    2    1    2    0    0 -0.33622489377E+01 -0.33477031510E+02 -0.71165632280E+02  0.14781159180E+03  0.12510676679E+03 0.  0.
          5    1    3    3  502    0  0.57797028989E+02 -0.10268438155E+02 -0.54425594676E+02  0.80159560490E+02  0.41800000000E+01 0.  1.
         -5    1    3    3    0  502 -0.61159277927E+02 -0.23208593354E+02 -0.16740037604E+02  0.67652031314E+02  0.41800000000E+01 0.  1.
        -11    1    1    2    0    0  0.13184888032E+02  0.53919658540E+02 -0.85592104392E+02  0.10201558304E+03  0.00000000000E+00 0.  1.
         11    1    1    2    0    0 -0.98226390939E+01 -0.20442627031E+02  0.62104310906E+00  0.22688563930E+02  0.00000000000E+00 0. -1.
</event>
<event>
 7    1  0.2788485E-009  0.1672602E+03  0.7561462E-02  0.1180735E+00
          2   -1    0    0  501    0  0.00000000000E+00  0.00000000000E+00  0.96570397242E+03  0.96570397242E+03  0.00000000000E+00 0.  1.
         -2   -1    0    0    0  501 -0.00000000000E+00 -0.00000000000E+00 -0.31448173665E+02  0.31448173665E+02  0.00000000000E+00 0. -1.
         25    2    1    2    0    0 -0.81404778486E+02 -0.10497302022E+03  0.58240904702E+03  0.61032307434E+03  0.12509150286E+03 0.  0.
          5    1    3    3  502    0  0.21272549332E+02 -0.62810435952E+02  0.29032295789E+03  0.29782975758E+03  0.41800000000E+01 0. -1.
         -5    1    3    3    0  502 -0.10267732782E+03 -0.42162584267E+02  0.29208608913E+03  0.31249331677E+03  0.41800000000E+01 0. -1.
        -11    1    1    2    0    0  0.47647082699E+02  0.11270818783E+03  0.23488666161E+03  0.26484924749E+03  0.00000000000E+00 0. -1.
         11    1    1    2    0    0  0.33757695787E+02 -0.77351676109E+01  0.11696009012E+03  0.12197982425E+03  0.00000000000E+00 0.  1.
</event>
<event>
 7    1  0.2788485E-009  0.8953959E+02  0.7561462E-02  0.1303970E+00
         -1   -1    0    0    0  501 -0.00000000000E+00  0.00000000000E+00  0.42427075638E+02  0.42427075638E+02  0.00000000000E+00 0.  1.
          1   -1    0    0  501    0  0.00000000000E+00 -0.00000000000E+00 -0.29854435450E+03  0.29854435450E+03  0.00000000000E+00 0. -1.
         25    2    1    2    0    0 -0.12361442197E+02 -0.59781022726E+00 -0.11076031745E+03  0.16753749369E+03  0.12509117171E+03 0.  0.
          5    1    3    3  502    0  0.18111531869E+02 -0.34304612358E+02 -0.11526005787E+03  0.12168478688E+03  0.41800000000E+01 0.  1.
         -5    1    3    3    0  502 -0.30472974065E+02  0.33706802131E+02  0.44997404196E+01  0.45852706814E+02  0.41800000000E+01 0.  1.
        -11    1    1    2    0    0  0.37945661260E+02 -0.34306302497E+02 -0.84002821804E+02  0.98352781712E+02  0.00000000000E+00 0.  1.
         11    1    1    2    0    0 -0.25584219063E+02  0.34904112724E+02 -0.61354139604E+02  0.75081154737E+02  0.00000000000E+00 0. -1.
</event>
<event>
 7    1  0.2788485E-009  0.1290653E+03  0.7561462E-02  0.1228849E+00
          1   -1    0    0  501    0  0.00000000000E+00  0.00000000000E+00  0.69594241471E+02  0.69594241471E+02  0.00000000000E+00 0. -1.
         -1   -1    0    0    0  501 -0.00000000000E+00 -0.00000000000E+00 -0.36587897962E+03  0.36587897962E+03  0.00000000000E+00 0.  1.
         25    2    1    2    0    0  0.79877545891E+02 -0.84319810155E+02 -0.15090653887E+03  0.22783750150E+03  0.12508753293E+03 0.  0.
          5    1    3    3  502    0  0.38225401831E+02 -0.30236669983E+02  0.12676614395E+02  0.50533221838E+02  0.41800000000E+01 0. -1.
         -5    1    3    3    0  502  0.41652144060E+02 -0.54083140171E+02 -0.16358315326E+03  0.17730427966E+03  0.41800000000E+01 0. -1.
        -11    1    1    2    0    0 -0.12007704103E+02  0.70556021050E+02 -0.10621358204E+03  0.12807678195E+03  0.00000000000E+00 0.  1.
         11    1    1    2    0    0 -0.67869841788E+02  0.13763789105E+02 -0.39164617238E+02  0.79558937639E+02  0.00000000000E+00 0. -1.
</event>
<event>
 7    1  0.2788485E-009  0.1249745E+03  0.7561462E-02  0.1235109E+00
          2   -1    0    0  501    0  0.00000000000E+00  0.00000000000E+00  0.15466202264E+03  0.15466202264E+03  0.00000000000E+00 0. -1.
         -2   -1    0    0    0  501 -0.00000000000E+00 -0.00000000000E+00 -0.13070284206E+03  0.13070284206E+03  0.00000000000E+00 0.  1.
         25    2    1    2    0    0  0.90258325025E+02 -0.70046073327E+01  0.12290956150E+02  0.15490237131E+03  0.12509215513E+03 0.  0.
          5    1    3    3  502    0  0.10943432359E+03 -0.71815203010E+01 -0.25181320914E+02  0.11260114004E+03  0.41800000000E+01 0.  1.
         -5    1    3    3    0  502 -0.19175998570E+02  0.17691296829E+00  0.37472277063E+02  0.42301231278E+02  0.41800000000E+01 0.  1.
        -11    1    1    2    0    0 -0.60167804084E+02  0.42779374461E+02  0.30746425137E+02  0.79972383898E+02  0.00000000000E+00 0. -1.
         11    1    1    2    0    0 -0.30090520941E+02 -0.35774767128E+02 -0.19078200713E+02  0.50490109487E+02  0.00000000000E+00 0.  1.
</event>
<event>
 7    1  0.2788485E-009  0.1308874E+03  0.7561462E-02  0.1226145E+00
          4   -1    0    0  501    0  0.00000000000E+00  0.00000000000E+00  0.33459686688E+03  0.33459686688E+03  0.00000000000E+00 0. -1.
         -4   -1    0    0    0  501 -0.00000000000E+00 -0.00000000000E+00 -0.78800581085E+02  0.78800581085E+02  0.00000000000E+00 0.  1.
         25    2    1    2    0    0  0.10830633000E+03  0.45568864851E+02  0.18610051772E+03  0.25315495260E+03  0.12508894742E+03 0.  0.
          5    1    3    3  502    0  0.74334276209E+02  0.34443799421E+02  0.21691347076E+02  0.84852500706E+02  0.41800000000E+01 0.  1.
         -5    1    3    3    0  502  0.33972053787E+02  0.11125065430E+02  0.16440917065E+03  0.16830245189E+03  0.41800000000E+01 0.  1.
        -11    1    1    2    0    0  0.11353625628E+01 -0.33642126721E+02  0.10579611833E+02  0.35284698171E+02  0.00000000000E+00 0.  1.
         11    1    1    2    0    0 -0.10944169256E+03 -0.11926738129E+02  0.59116156240E+02  0.12495779720E+03  0.00000000000E+00 0. -1.
</event>
<event>
 7    1  0.2788485E-009  0.6818499E+02  0.7561462E-02  0.1366376E+00
         -2   -1    0    0    0  501 -0.00000000000E+00  0.00000000000E+00  0.67047920860E+02  0.67047920860E+02  0.00000000000E+00 0.  1.
          2   -1    0    0  501    0  0.00000000000E+00 -0.00000000000E+00 -0.22737960695E+03  0.22737960695E+03  0.00000000000E+00 0. -1.
         25    2    1    2    0    0  0.13621522135E+02 -0.45689203632E+02 -0.47178416647E+02  0.14193158095E+03  0.12508285846E+03 0.  0.
          5    1    3    3  502    0  0.39173076097E+02 -0.44191732013E+02  0.25727036978E+02  0.64550692489E+02  0.41800000000E+01 0. -1.
         -5    1    3    3    0  502 -0.25551553962E+02 -0.14974716190E+01 -0.72905453625E+02  0.77380888463E+02  0.41800000000E+01 0. -1.
        -11    1    1    2    0    0 -0.98462864360E+01  0.63566713983E+01  0.14628534068E+02  0.18744349464E+02  0.00000000000E+00 0.  1.
         11    1    1    2    0    0 -0.37752356989E+01  0.39332532234E+02 -0.12778180351E+03  0.13375159739E+03  0.00000000000E+00 0. -1.
</event>
<event>
 7    1  0.2788485E-009  0.1057574E+03  0.7561462E-02  0.1268635E+00
         -1   -1    0    0    0  501 -0.00000000000E+00  0.00000000000E+00  0.70496591292E+02  0.70496591292E+02  0.00000000000E+00 0.  1.
          1   -1    0    0  501    0  0.00000000000E+00 -0.00000000000E+00 -0.17659750072E+03  0.17659750072E+03  0.00000000000E+00 0. -1.
         25    2    1    2    0    0  0.79827778049E+01  0.29011119619E+01 -0.89091737062E+02  0.15381694675E+03  0.12510065668E+03 0.  0.
          5    1    3    3  502    0 -0.33452861127E+02 -0.45355197281E+02 -0.63828465712E+02  0.85251001596E+02  0.41800000000E+01 0. -1.
         -5    1    3    3    0  502  0.41435638932E+02  0.48256309243E+02 -0.25263271351E+02  0.68565945154E+02  0.41800000000E+01 0. -1.
        -11    1    1    2    0    0  0.38335069700E+02  0.15595124428E+02 -0.12331310547E+02  0.43183870769E+02  0.00000000000E+00 0. -1.
         11    1    1    2    0    0 -0.46317847505E+02 -0.18496236390E+02 -0.46778618181E+01  0.50093274491E+02  0.00000000000E+00 0.  1.
</event>
<event>
 7    1  0.2788485E-009  0.2037984E+03  0.7561462E-02  0.1146573E+00
         -1   -1    0    0    0  501 -0.00000000000E+00  0.00000000000E+00  0.38596745788E+02  0.38596745788E+02  0.00000000000E+00 0.  1.
          1   -1    0    0  501    0  0.00000000000E+00 -0.00000000000E+00 -0.12808076269E+04  0.12808076269E+04  0.00000000000E+00 0. -1.
         25    2    1    2    0    0  0.25973908124E+02 -0.17056912734E+03 -0.38290707469E+03  0.43821634263E+03  0.12508902428E+03 0.  0.
          5    1    3    3  502    0 -0.14153866028E+02  0.16239098695E+02 -0.42426358830E+02  0.47765139731E+02  0.41800000000E+01 0. -1.
         -5    1    3    3    0  502  0.40127774152E+02 -0.18680822603E+03 -0.34048071586E+03  0.39045120290E+03  0.41800000000E+01 0. -1.
        -11    1    1    2    0    0 -0.15339931117E+02  0.17980212739E+03 -0.81318352237E+03  0.83296552123E+03  0.00000000000E+00 0.  1.
         11    1    1    2    0    0 -0.10633977007E+02 -0.92330000524E+01 -0.46120284094E+02  0.48222508872E+02  0.00000000000E+00 0. -1.
</event>
<event>
 7    1  0.2788485E-009  0.1209427E+03  0.7561462E-02  0.1241550E+00
         -1   -1    0    0    0  501 -0.00000000000E+00  0.00000000000E+00  0.16719240590E+02  0.16719240590E+02  0.00000000000E+00 0.  1.
          1   -1    0    0  501    0  0.00000000000E+00 -0.00000000000E+00 -0.10756507199E+04  0.10756507199E+04  0.00000000000E+00 0. -1.
         25    2    1    2    0    0 -0.43259192206E+02 -0.63168268054E+02 -0.50113880877E+03  0.52215727936E+03  0.12508609406E+03 0.  0.
          5    1    3    3  502    0 -0.71873524344E+02 -0.18347568373E+02 -0.40899500364E+03  0.41568837147E+03  0.41800000000E+01 0. -1.
         -5    1    3    3    0  502  0.28614332138E+02 -0.44820699681E+02 -0.92143805127E+02  0.10646890789E+03  0.41800000000E+01 0. -1.
        -11    1    1    2    0    0  0.41008589055E+02 -0.90505996122E+01 -0.13804062435E+03  0.14428732343E+03  0.00000000000E+00 0.  1.
         11    1    1    2    0    0  0.22506031503E+01  0.72218867666E+02 -0.41975204616E+03  0.42592535768E+03  0.00000000000E+00 0. -1.
</event>
<event>
 7    1  0.2788485E-009  0.1395878E+03  0.7561462E-02  0.1213885E+00
         -1   -1    0    0    0  501 -0.00000000000E+00  0.00000000000E+00  0.27270899057E+03  0.27270899057E+03  0.00000000000E+00 0.  1.
          1   -1    0    0  501    0  0.00000000000E+00 -0.00000000000E+00 -0.15326019977E+03  0.15326019977E+03  0.00000000000E+00 0. -1.
         25    2    1    2    0    0 -0.10177426651E+03  0.75544879944E+02  0.18498081214E+03  0.25676775464E+03  0.12508696476E+03 0.  0.
          5    1    3    3  502    0 -0.87092008370E+02  0.23803266819E+02  0.18143937351E+03  0.20270503717E+03  0.41800000000E+01 0. -1.
         -5    1    3    3    0  502 -0.14682258145E+02  0.51741613125E+02  0.35414386284E+01  0.54062717473E+02  0.41800000000E+01 0. -1.
        -11    1    1    2    0    0  0.52672394825E+02 -0.11104398549E+02  0.14053686226E+02  0.55634476184E+02  0.00000000000E+00 0.  1.
         11    1    1    2    0    0  0.49101871689E+02 -0.64440481395E+02 -0.79585707567E+02  0.11356695952E+03  0.00000000000E+00 0. -1.
</event>
<event>
 7    1  0.2788485E-009  0.6553245E+02  0.7561462E-02  0.1375980E+00
         -1   -1    0    0    0  501 -0.00000000000E+00  0.00000000000E+00  0.67429309878E+02  0.67429309878E+02  0.00000000000E+00 0.  1.
          1   -1    0    0  501    0  0.00000000000E+00 -0.00000000000E+00 -0.18818003073E+03  0.18818003073E+03  0.00000000000E+00 0. -1.
         25    2    1    2    0    0  0.29661164711E+02 -0.99046118726E+01 -0.61710184795E+02  0.14294625159E+03  0.12509035897E+03 0.  0.
          5    1    3    3  502    0 -0.12661299047E+02  0.21264741636E+01  0.34511892524E+02  0.37059054380E+02  0.41800000000E+01 0. -1.
         -5    1    3    3    0  502  0.42322463758E+02 -0.12031086036E+02 -0.96222077319E+02  0.10588719721E+03  0.41800000000E+01 0. -1.
        -11    1    1    2    0    0 -0.13505690593E+02 -0.28589333577E+02  0.89658822896E+01  0.32865494337E+02  0.00000000000E+00 0.  1.
         11    1    1    2    0    0 -0.16155474118E+02  0.38493945450E+02 -0.68006418347E+02  0.79797594679E+02  0.00000000000E+00 0. -1.
</event>
<event>
 7    1  0.2788485E-009  0.1055272E+03  0.7561462E-02  0.1269084E+00
          2   -1    0    0  501    0  0.00000000000E+00  0.00000000000E+00  0.17165576020E+03  0.17165576020E+03  0.00000000000E+00 0. -1.
         -2   -1    0    0    0  501 -0.00000000000E+00 -0.00000000000E+00 -0.81036635090E+02  0.81036635090E+02  0.00000000000E+00 0.  1.
         25    2    1    2    0    0  0.14591458034E+02  0.38489615860E+02  0.25332192771E+02  0.13409980865E+03  0.12508667999E+03 0.  0.
          5    1    3    3  502    0 -0.46024580637E+02  0.49173898422E+02  0.19300708697E+00  0.67482175133E+02  0.41800000000E+01 0. -1.
         -5    1    3    3    0  502  0.60616038671E+02 -0.10684282563E+02  0.25139185684E+02  0.66617633514E+02  0.41800000000E+01 0. -1.
        -11    1    1    2    0    0 -0.37693177022E+02 -0.83322907118E+00  0.64139282739E+02  0.74399714078E+02  0.00000000000E+00 0. -1.
         11    1    1    2    0    0  0.23101718987E+02 -0.37656386788E+02  0.11476496011E+01  0.44192872567E+02  0.00000000000E+00 0.  1.
</event>
<event>
 7    1  0.2788485E-009  0.7315233E+02  0.7561462E-02  0.1349690E+00
         -1   -1    0    0    0  501 -0.00000000000E+00  0.00000000000E+00  0.45998279994E+02  0.45998279994E+02  0.00000000000E+00 0.  1.
          1   -1    0    0  501    0  0.00000000000E+00 -0.00000000000E+00 -0.52501428392E+03  0.52501428392E+03  0.00000000000E+00 0. -1.
         25    2    1    2    0    0 -0.14148723460E+02  0.47672703644E+02 -0.43759157545E+03  0.45782962117E+03  0.12509477234E+03 0.  0.
          5    1    3    3  502    0 -0.27543494077E+01  0.27060421942E+02 -0.43249875308E+03  0.43337339177E+03  0.41800000000E+01 0.  1.
         -5    1    3    3    0  502 -0.11394374052E+02  0.20612281702E+02 -0.50928223723E+01  0.24456229405E+02  0.41800000000E+01 0.  1.
        -11    1    1    2    0    0 -0.23872889832E+02 -0.51387808319E+02 -0.48192860287E+02  0.74385304297E+02  0.00000000000E+00 0. -1.
         11    1    1    2    0    0  0.38021613292E+02  0.37151046749E+01  0.67684318086E+01  0.38797638449E+02  0.00000000000E+00 0.  1.
</event>
<event>
 7    1  0.2788485E-009  0.1155614E+03  0.7561462E-02  0.1250604E+00
         -2   -1    0    0    0  501 -0.00000000000E+00  0.00000000000E+00  0.26784824388E+02  0.26784824388E+02  0.00000000000E+00 0.  1.
          2   -1    0    0  501    0  0.00000000000E+00 -0.00000000000E+00 -0.64700444516E+03  0.64700444516E+03  0.00000000000E+00 0. -1.
         25    2    1    2    0    0  0.49630460176E+02 -0.55394499969E+02 -0.35727374968E+03  0.38577677444E+03  0.12508978487E+03 0.  0.
          5    1    3    3  502    0  0.67535961006E+02 -0.12200818409E+02 -0.84243178349E+02  0.10873983399E+03  0.41800000000E+01 0. -1.
         -5    1    3    3    0  502 -0.17905500829E+02 -0.43193681560E+02 -0.27303057134E+03  0.27703694044E+03  0.41800000000E+01 0. -1.
        -11    1    1    2    0    0 -0.63149706428E+02  0.70836408120E+02 -0.23416229352E+03  0.25266116014E+03  0.00000000000E+00 0. -1.
         11    1    1    2    0    0  0.13519246252E+02 -0.15441908150E+02 -0.28783577578E+02  0.35351334978E+02  0.00000000000E+00 0.  1.
</event>
<event>
 7    1  0.2788485E-009  0.1011483E+03  0.7561462E-02  0.1277900E+00
         -2   -1    0    0    0  501 -0.00000000000E+00  0.00000000000E+00  0.16866334434E+02  0.16866334434E+02  0.00000000000E+00 0.  1.
          2   -1    0    0  501    0  0.00000000000E+00 -0.00000000000E+00 -0.72262502072E+03  0.72262502072E+03  0.00000000000E+00 0. -1.
         25    2    1    2    0    0  0.22054041268E+02 -0.49721317592E+01 -0.37942284066E+03  0.40015063045E+03  0.12509089577E+03 0.  0.
          5    1    3    3  502    0  0.61884057856E+02  0.27173731758E+02 -0.28205566449E+03  0.29007054070E+03  0.41800000000E+01 0. -1.
         -5    1    3    3    0  502 -0.39830016588E+02 -0.32145863517E+02 -0.97367176178E+02  0.11008008975E+03  0.41800000000E+01 0. -1.
        -11    1    1    2    0    0 -0.25118871083E+02  0.40450619945E+02 -0.25722379002E+03  0.26159374704E+03  0.00000000000E+00 0. -1.
         11    1    1    2    0    0  0.30648298149E+01 -0.35478488186E+02 -0.69112055599E+02  0.77746977657E+02  0.00000000000E+00 0.  1.
</event>
<event>
 7    1  0.2788485E-009  0.2256144E+03  0.7561462E-02  0.1129765E+00
          1   -1    0    0  501    0  0.00000000000E+00  0.00000000000E+00  0.20262966176E+03  0.20262966176E+03  0.00000000000E+00 0.  1.
         -1   -1    0    0    0  501 -0.00000000000E+00 -0.00000000000E+00 -0.29603219461E+03  0.29603219461E+03  0.00000000000E+00 0. -1.
         25    2    1    2    0    0  0.57900050752E+02 -0.21010841488E+03 -0.23308082778E+02  0.25236725050E+03  0.12509196826E+03 0.  0.
          5    1    3    3  502    0  0.64405423111E+02 -0.20256751954E+03  0.14453269623E+02  0.21309159510E+03  0.41800000000E+01 0. -1.
         -5    1    3    3    0  502 -0.65053723595E+01 -0.75408953382E+01 -0.37761352401E+02  0.39275655401E+02  0.41800000000E+01 0. -1.
        -11    1    1    2    0    0 -0.71095898641E+02  0.14619529029E+03 -0.19525984869E+02  0.16373440015E+03  0.00000000000E+00 0.  1.
         11    1    1    2    0    0  0.13195847889E+02  0.63913124588E+02 -0.50568465205E+02  0.82560205725E+02  0.00000000000E+00 0. -1.
</event>
<event>
 7    1  0.2788485E-009  0.1073105E+03  0.7561462E-02  0.1265633E+00
         -1   -1    0    0    0  501 -0.00000000000E+00  0.00000000000E+00  0.64593713282E+03  0.64593713282E+03  0.00000000000E+00 0. -1.
          1   -1    0    0  501    0  0.00000000000E+00 -0.00000000000E+00 -0.29144638776E+02  0.29144638776E+02  0.00000000000E+00 0.  1.
         25    2    1    2    0    0  0.58352288617E+02  0.57129650503E+02  0.40596876037E+03  0.43258489473E+03  0.12510103995E+03 0.  0.
          5    1    3    3  502    0 -0.11115898827E+01  0.28705475148E+02  0.33262786090E+03  0.33389220743E+03  0.41800000000E+01 0.  1.
         -5    1    3    3    0  502  0.59463878500E+02  0.28424175355E+02  0.73340899468E+02  0.98692687296E+02  0.41800000000E+01 0.  1.
        -11    1    1    2    0    0  0.22898318808E+02 -0.64461974183E+01  0.48795367704E+02  0.54285121118E+02  0.00000000000E+00 0. -1.
         11    1    1    2    0    0 -0.81250607426E+02 -0.50683453085E+02  0.16202836597E+03  0.18821175575E+03  0.00000000000E+00 0.  1.
</event>
<event>
 7    1  0.2788485E-009  0.2111058E+03  0.7561462E-02  0.1140693E+00
         -1   -1    0    0    0  501 -0.00000000000E+00  0.00000000000E+00  0.49532832243E+02  0.49532832243E+02  0.00000000000E+00 0.  1.
          1   -1    0    0  501    0  0.00000000000E+00 -0.00000000000E+00 -0.10225975532E+04  0.10225975532E+04  0.00000000000E+00 0. -1.
         25    2    1    2    0    0  0.16722761382E+03  0.83804012995E+02 -0.65292614531E+03  0.69061501740E+03  0.12509341949E+03 0.  0.
          5    1    3    3  502    0  0.17373342810E+03  0.42449401404E+02 -0.46953010403E+03  0.50245521862E+03  0.41800000000E+01 0.  1.
         -5    1    3    3    0  502 -0.65058142859E+01  0.41354611591E+02 -0.18339604128E+03  0.18815979878E+03  0.41800000000E+01 0.  1.
        -11    1    1    2    0    0 -0.94010659075E+02 -0.86820574337E+02 -0.15606970997E+03  0.20182559431E+03  0.00000000000E+00 0. -1.
         11    1    1    2    0    0 -0.73216954741E+02  0.30165613424E+01 -0.16406886568E+03  0.17968977375E+03  0.00000000000E+00 0.  1.
</event>
<event>
 7    1  0.2788485E-009  0.1134298E+03  0.7561462E-02  0.1254347E+00
         -3   -1    0    0    0  501 -0.00000000000E+00  0.00000000000E+00  0.10151066608E+03  0.10151066608E+03  0.00000000000E+00 0.  1.
          3   -1    0    0  501    0  0.00000000000E+00 -0.00000000000E+00 -0.23296256070E+03  0.23296256070E+03  0.00000000000E+00 0. -1.
         25    2    1    2    0    0 -0.31095922629E+02  0.28491794642E+02  0.38209497697E+02  0.13742547407E+03  0.12508819466E+03 0.  0.
          5    1    3    3  502    0  0.46846449159E+02  0.17831163442E+02  0.29128689638E+02  0.58124806654E+02  0.41800000000E+01 0. -1.
         -5    1    3    3    0  502 -0.77942371788E+02  0.10660631201E+02  0.90808080591E+01  0.79300667415E+02  0.41800000000E+01 0. -1.
        -11    1    1    2    0    0 -0.13926371967E+02 -0.47062198867E+02 -0.63566386209E+02  0.80308653668E+02  0.00000000000E+00 0.  1.
         11    1    1    2    0    0  0.45022294596E+02  0.18570404224E+02 -0.10609500611E+03  0.11673909904E+03  0.00000000000E+00 0. -1.
</event>
<event>
 7    1  0.2788485E-009  0.1617473E+03  0.7561462E-02  0.1186738E+00
          1   -1    0    0  501    0  0.00000000000E+00  0.00000000000E+00  0.10934961605E+03  0.10934961605E+03  0.00000000000E+00 0. -1.
         -1   -1    0    0    0  501 -0.00000000000E+00 -0.00000000000E+00 -0.28717703176E+03  0.28717703176E+03  0.00000000000E+00 0.  1.
         25    2    1    2    0    0  0.12048625081E+03  0.34204603845E+02 -0.16113913488E+03  0.23937588035E+03  0.12509236486E+03 0.  0.
          5    1    3    3  502    0  0.11359081862E+03  0.74324549543E+02 -0.12941207509E+03  0.18759523000E+03  0.41800000000E+01 0. -1.
         -5    1    3    3    0  502  0.68954321916E+01 -0.40119945698E+02 -0.31727059784E+02  0.51780650348E+02  0.41800000000E+01 0. -1.
        -11    1    1    2    0    0 -0.55621831304E+02 -0.55417619926E+02 -0.35780740615E+02  0.86285352840E+02  0.00000000000E+00 0.  1.
         11    1    1    2    0    0 -0.64864419505E+02  0.21213016080E+02  0.19092459788E+02  0.70865414624E+02  0.00000000000E+00 0. -1.
</event>
<event>
 7    1  0.2788485E-009  0.9244743E+02  0.7561462E-02  0.1297031E+00
         -1   -1    0    0    0  501 -0.00000000000E+00  0.00000000000E+00  0.21413900054E+03  0.21413900054E+03  0.00000000000E+00 0.  1.
          1   -1    0    0  501    0  0.00000000000E+00 -0.00000000000E+00 -0.10825966448E+03  0.10825966448E+03  0.00000000000E+00 0. -1.
         25    2    1    2    0    0 -0.20759791878E+02  0.52496592265E+02 -0.37521224367E+02  0.14227437719E+03  0.12508914808E+03 0.  0.
          5    1    3    3  502    0  0.43270169829E+01 -0.88750675725E+01 -0.68244281327E+02  0.69081431907E+02  0.41800000000E+01 0.  1.
         -5    1    3    3    0  502 -0.25086808861E+02  0.61371659838E+02  0.30723056960E+02  0.73192945282E+02  0.41800000000E+01 0.  1.
        -11    1    1    2    0    0  0.57197819501E+02 -0.37141966456E+02  0.77159481442E+02  0.10297913286E+03  0.00000000000E+00 0. -1.
         11    1    1    2    0    0 -0.36438027623E+02 -0.15354625809E+02  0.66241078981E+02  0.77145154969E+02  0.00000000000E+00 0.  1.
</event>
<event>
 7    1  0.2788485E-009  0.8816795E+02  0.7561462E-02  0.1307350E+00
          1   -1    0    0  501    0  0.00000000000E+00  0.00000000000E+00  0.12044966067E+03  0.12044966067E+03  0.00000000000E+00 0. -1.
         -1   -1    0    0    0  501 -0.00000000000E+00 -0.00000000000E+00 -0.10353975796E+03  0.10353975796E+03  0.00000000000E+00 0.  1.
         25    2    1    2    0    0  0.34032082612E+01  0.97942535636E+01  0.38979434512E+02  0.13143399780E+03  0.12509192713E+03 0.  0.
          5    1    3    3  502    0  0.61281873697E+02  0.22673953659E+02  0.26852755910E+02  0.70768065667E+02  0.41800000000E+01 0. -1.
         -5    1    3    3    0  502 -0.57878665436E+02 -0.12879700096E+02  0.12126678602E+02  0.60665932129E+02  0.41800000000E+01 0. -1.
        -11    1    1    2    0    0  0.20515399181E+02 -0.16776860607E+02  0.26806007866E+02  0.37694916277E+02  0.00000000000E+00 0. -1.
         11    1    1    2    0    0 -0.23918607443E+02  0.69826070437E+01 -0.48875539660E+02  0.54860504557E+02  0.00000000000E+00 0.  1.
</event>
<event>
 7    1  0.2788485E-009  0.1034835E+03  0.7561462E-02  0.1273137E+00
         -2   -1    0    0    0  501 -0.00000000000E+00  0.00000000000E+00  0.29256472554E+02  0.29256472554E+02  0.00000000000E+00 0.  1.
          2   -1    0    0  501    0  0.00000000000E+00 -0.00000000000E+00 -0.49959959639E+03  0.49959959639E+03  0.00000000000E+00 0. -1.
         25    2    1    2    0    0 -0.15484807129E+02 -0.30091086221E+02 -0.17479468258E+03  0.21758655168E+03  0.12508186796E+03 0.  0.
          5    1    3    3  502    0  0.42488650633E+02 -0.38975823121E+02 -0.13423958763E+03  0.14615792660E+03  0.41800000000E+01 0.  1.
         -5    1    3    3    0  502 -0.57973457762E+02  0.88847368995E+01 -0.40555094946E+02  0.71428625079E+02  0.41800000000E+01 0.  1.
        -11    1    1    2    0    0  0.11945492325E+02  0.59525649045E+02 -0.13523681975E+03  0.14823965426E+03  0.00000000000E+00 0.  1.
         11    1    1    2    0    0  0.35393148037E+01 -0.29434562824E+02 -0.16031162151E+03  0.16302986300E+03  0.00000000000E+00 0. -1.
</event>
<event>
 7    1  0.2788485E-009  0.9959637E+02  0.7561462E-02  0.1281147E+00
         -1   -1    0    0    0  501 -0.00000000000E+00  0.00000000000E+00  0.45813798428E+03  0.45813798428E+03  0.00000000000E+00 0. -1.
          1   -1    0    0  501    0  0.00000000000E+00 -0.00000000000E+00 -0.40072845267E+02  0.40072845267E+02  0.00000000000E+00 0.  1.
         25    2    1    2    0    0  0.78219975281E+02  0.24480683456E+02  0.24788521479E+03  0.28949745839E+03  0.12507609806E+03 0.  0.
          5    1    3    3  502    0  0.72295584204E+02  0.48719242380E+02  0.24932148936E+03  0.26415694867E+03  0.41800000000E+01 0. -1.
         -5    1    3    3    0  502  0.59243910774E+01 -0.24238558923E+02 -0.14362745677E+01  0.25340509722E+02  0.41800000000E+01 0. -1.
        -11    1    1    2    0    0 -0.33553234489E+02 -0.25165058112E+02  0.10966479082E+02  0.43351624628E+02  0.00000000000E+00 0.  1.
         11    1    1    2    0    0 -0.44666740793E+02  0.68437465600E+00  0.15921344514E+03  0.16536174653E+03  0.00000000000E+00 0. -1.
</event>
<event>
 7    1  0.2788485E-009  0.2078535E+03  0.7561462E-02  0.1143277E+00
         -2   -1    0    0    0  501 -0.00000000000E+00  0.00000000000E+00  0.25164718324E+03  0.25164718324E+03  0.00000000000E+00 0.  1.
          2   -1    0    0  501    0  0.00000000000E+00 -0.00000000000E+00 -0.26968556110E+03  0.26968556110E+03  0.00000000000E+00 0. -1.
         25    2    1    2    0    0  0.15101053827E+03  0.92220561674E+02 -0.16596023311E+03  0.27294556994E+03  0.12509064917E+03 0.  0.
          5    1    3    3  502    0  0.11275541074E+03  0.12308808918E+03 -0.12114259788E+03  0.20629459947E+03  0.41800000000E+01 0. -1.
         -5    1    3    3    0  502  0.38255127524E+02 -0.30867527507E+02 -0.44817635227E+02  0.66650970463E+02  0.41800000000E+01 0. -1.
        -11    1    1    2    0    0 -0.79866500736E+02 -0.99829025615E+02  0.99314032629E+02  0.16188813845E+03  0.00000000000E+00 0.  1.
         11    1    1    2    0    0 -0.71144037531E+02  0.76084639414E+01  0.48607822623E+02  0.86499035948E+02  0.00000000000E+00 0. -1.
</event>
<event>
 7    1  0.2788485E-009  0.1043509E+03  0.7561462E-02  0.1271404E+00
          2   -1    0    0  501    0  0.00000000000E+00  0.00000000000E+00  0.21057675967E+03  0.21057675967E+03  0.00000000000E+00 0. -1.
         -2   -1    0    0    0  501 -0.00000000000E+00 -0.00000000000E+00 -0.99091761046E+02  0.99091761046E+02  0.00000000000E+00 0.  1.
         25    2    1    2    0    0 -0.22786814984E+02  0.72498985297E+02  0.58560394008E+00  0.14636762402E+03  0.12509115325E+03 0.  0.
          5    1    3    3  502    0  0.11167433981E+02  0.53074381758E+02  0.56220093971E+02  0.78228977667E+02  0.41800000000E+01 0.  1.
         -5    1    3    3    0  502 -0.33954248965E+02  0.19424603539E+02 -0.55634490031E+02  0.68138646350E+02  0.41800000000E+01 0.  1.
        -11    1    1    2    0    0  0.43371729846E+02 -0.81636126081E+02  0.67693272970E+02  0.11457723699E+03  0.00000000000E+00 0.  1.
         11    1    1    2    0    0 -0.20584914862E+02  0.91371407841E+01  0.43206121714E+02  0.48723659706E+02  0.00000000000E+00 0. -1.
</event>
<event>
 7    1  0.2788485E-009  0.8266635E+02  0.7561462E-02  0.1321651E+00
         -2   -1    0    0    0  501 -0.00000000000E+00  0.00000000000E+00  0.93879099045E+01  0.93879099045E+01  0.00000000000E+00 0.  1.
          2   -1    0    0  501    0  0.00000000000E+00 -0.00000000000E+00 -0.18823790949E+04  0.18823790949E+04  0.00000000000E+00 0. -1.
         25    2    1    2    0    0  0.17945287237E+02  0.13989225176E+02 -0.15780421572E+04  0.15831552299E+04  0.12508277345E+03 0.  0.
          5    1    3    3  502    0  0.51299411274E+02  0.73993971438E+01 -0.28788316777E+03  0.29254157202E+03  0.41800000000E+01 0. -1.
         -5    1    3    3    0  502 -0.33354124036E+02  0.65898280323E+01 -0.12901589895E+04  0.12906136579E+04  0.41800000000E+01 0. -1.
        -11    1    1    2    0    0 -0.45270500868E+02  0.53748276862E+01 -0.23976179137E+03  0.24405741870E+03  0.00000000000E+00 0. -1.
         11    1    1    2    0    0  0.27325213631E+02 -0.19364052862E+02 -0.55187236363E+02  0.64554356170E+02  0.00000000000E+00 0.  1.
</event>
<event>
 7    1  0.2788485E-009  0.9901996E+02  0.7561462E-02  0.1282370E+00
          4   -1    0    0  501    0  0.00000000000E+00  0.00000000000E+00  0.35277040307E+03  0.35277040307E+03  0.00000000000E+00 0. -1.
         -4   -1    0    0    0  501 -0.00000000000E+00 -0.00000000000E+00 -0.38173052040E+02  0.38173052040E+02  0.00000000000E+00 0.  1.
         25    2    1    2    0    0  0.23207167825E+02  0.38673786985E+02  0.17984761246E+03  0.22366477014E+03  0.12508609538E+03 0.  0.
          5    1    3    3  502    0 -0.46357670793E+02  0.12507203287E+02  0.31184987464E+02  0.57405919717E+02  0.41800000000E+01 0.  1.
         -5    1    3    3    0  502  0.69564838618E+02  0.26166583698E+02  0.14866262499E+03  0.16625885042E+03  0.41800000000E+01 0.  1.
        -11    1    1    2    0    0 -0.43749579466E+02 -0.30305747322E+02  0.31867093541E+02  0.62032053609E+02  0.00000000000E+00 0.  1.
         11    1    1    2    0    0  0.20542411641E+02 -0.83680396628E+01  0.10288264503E+03  0.10524663136E+03  0.00000000000E+00 0. -1.
</event>
<event>
 7    1  0.2788485E-009  0.1075792E+03  0.7561462E-02  0.1265120E+00
         -2   -1    0    0    0  501 -0.00000000000E+00  0.00000000000E+00  0.70481113891E+03  0.70481113891E+03  0.00000000000E+00 0.  1.
          2   -1    0    0  501    0  0.00000000000E+00 -0.00000000000E+00 -0.35287614584E+02  0.35287614584E+02  0.00000000000E+00 0. -1.
         25    2    1    2    0    0  0.12282016201E+02  0.56297625864E+02  0.58714106559E+03  0.60307667271E+03  0.12508625691E+03 0.  0.
          5    1    3    3  502    0  0.68619470221E+02  0.27595012172E+02  0.29733271650E+03  0.30642182215E+03  0.41800000000E+01 0. -1.
         -5    1    3    3    0  502 -0.56337454020E+02  0.28702613692E+02  0.28980834909E+03  0.29665485056E+03  0.41800000000E+01 0. -1.
        -11    1    1    2    0    0 -0.30424948181E+02 -0.49962288653E+02  0.96728095300E+02  0.11304084297E+03  0.00000000000E+00 0.  1.
         11    1    1    2    0    0  0.18142931979E+02 -0.63353372104E+01 -0.14345636565E+02  0.23981237809E+02  0.00000000000E+00 0. -1.
</event>
<event>
 7    1  0.2788485E-009  0.1341692E+03  0.7561462E-02  0.1221397E+00
         -2   -1    0    0    0  501 -0.00000000000E+00  0.00000000000E+00  0.40324974890E+02  0.40324974890E+02  0.00000000000E+00 0.  1.
          2   -1    0    0  501    0  0.00000000000E+00 -0.00000000000E+00 -0.59487614368E+03  0.59487614368E+03  0.00000000000E+00 0. -1.
         25    2    1    2    0    0 -0.70335309620E+02 -0.74407969111E+02 -0.38162681642E+03  0.41445199493E+03  0.12509127643E+03 0.  0.
          5    1    3    3  502    0 -0.75173231317E+02 -0.77637189714E+01 -0.10255028008E+03  0.12745713940E+03  0.41800000000E+01 0. -1.
         -5    1    3    3    0  502  0.48379216962E+01 -0.66644250139E+02 -0.27907653634E+03  0.28699485553E+03  0.41800000000E+01 0. -1.
        -11    1    1    2    0    0 -0.99638906198E+01 -0.63493196637E+01 -0.57118903347E+02  0.58328055822E+02  0.00000000000E+00 0. -1.
         11    1    1    2    0    0  0.80299200240E+02  0.80757288775E+02 -0.11580544902E+03  0.16242106782E+03  0.00000000000E+00 0.  1.
</event>
<event>
 7    1  0.2788485E-009  0.1317232E+03  0.7561462E-02  0.1224921E+00
          2   -1    0    0  501    0  0.00000000000E+00  0.00000000000E+00  0.26935054297E+02  0.26935054297E+02  0.00000000000E+00 0. -1.
         -2   -1    0    0    0  501 -0.00000000000E+00 -0.00000000000E+00 -0.70204964430E+03  0.70204964430E+03  0.00000000000E+00 0.  1.
         25    2    1    2    0    0 -0.74027811612E+02 -0.42294548735E+02 -0.36447090242E+03  0.39465743966E+03  0.12508601131E+03 0.  0.
          5    1    3    3  502    0 -0.89035553676E+02  0.15289504488E+02 -0.19381765604E+03  0.21387813109E+03  0.41800000000E+01 0. -1.
         -5    1    3    3    0  502  0.15007742064E+02 -0.57584053223E+02 -0.17065324638E+03  0.18077930857E+03  0.41800000000E+01 0. -1.
        -11    1    1    2    0    0  0.77977264409E+02  0.57987056921E+02 -0.29899201376E+03  0.31438698578E+03  0.00000000000E+00 0.  1.
         11    1    1    2    0    0 -0.39494527978E+01 -0.15692508186E+02 -0.11651673814E+02  0.19940273149E+02  0.00000000000E+00 0. -1.
</event>
<event>
 7    1  0.2788485E-009  0.1046664E+03  0.7561462E-02  0.1270778E+00
          2   -1    0    0  501    0  0.00000000000E+00  0.00000000000E+00  0.86589261086E+03  0.86589261086E+03  0.00000000000E+00 0. -1.
         -2   -1    0    0    0  501 -0.00000000000E+00 -0.00000000000E+00 -0.16836764830E+02  0.16836764830E+02  0.00000000000E+00 0.  1.
         25    2    1    2    0    0 -0.82473570612E+01 -0.42196957444E+02  0.60387701971E+03  0.61819489786E+03  0.12509546233E+03 0.  0.
          5    1    3    3  502    0 -0.30614293884E+02  0.25882672533E+02  0.81640763308E+02  0.91048527506E+02  0.41800000000E+01 0.  1.
         -5    1    3    3    0  502  0.22366936823E+02 -0.68079629976E+02  0.52223625640E+03  0.52714637036E+03  0.41800000000E+01 0.  1.
        -11    1    1    2    0    0 -0.12205809998E+02  0.65275718208E+02  0.14041535121E+03  0.15532666236E+03  0.00000000000E+00 0. -1.
         11    1    1    2    0    0  0.20453167060E+02 -0.23078760764E+02  0.10476347512E+03  0.10920781547E+03  0.00000000000E+00 0.  1.
</event>
<event>
 7    1  0.2788485E-009  0.1372793E+03  0.7561462E-02  0.1217037E+00
          2   -1    0    0  501    0  0.00000000000E+00  0.00000000000E+00  0.31371773508E+03  0.31371773508E+03  0.00000000000E+00 0. -1.
         -2   -1    0    0    0  501 -0.00000000000E+00 -0.00000000000E+00 -0.96958024844E+02  0.96958024844E+02  0.00000000000E+00 0.  1.
         25    2    1    2    0    0  0.14166771348E+02  0.13394958573E+03  0.87807973094E+02  0.20371736015E+03  0.12508930314E+03 0.  0.
          5    1    3    3  502    0  0.17710469800E+02  0.95699999547E+02  0.11919303670E+03  0.15393701002E+03  0.41800000000E+01 0. -1.
         -5    1    3    3    0  502 -0.35436984527E+01  0.38249586184E+02 -0.31385063609E+02  0.49780350137E+02  0.41800000000E+01 0. -1.
        -11    1    1    2    0    0  0.28540460392E+01 -0.10412437551E+03  0.39950437794E+02  0.11156194976E+03  0.00000000000E+00 0.  1.
         11    1    1    2    0    0 -0.17020817387E+02 -0.29825210221E+02  0.89001299344E+02  0.95396450008E+02  0.00000000000E+00 0. -1.
</event>
<event>
 7    1  0.2788485E-009  0.2031383E+03  0.7561462E-02  0.1147118E+00
         -2   -1    0    0    0  501 -0.00000000000E+00  0.00000000000E+00  0.10327918138E+04  0.10327918138E+04  0.00000000000E+00 0.  1.
          2   -1    0    0  501    0  0.00000000000E+00 -0.00000000000E+00 -0.49083268717E+02  0.49083268717E+02  0.00000000000E+00 0. -1.
         25    2    1    2    0    0 -0.15539245094E+03 -0.11966945163E+03  0.46725781830E+03  0.52196220165E+03  0.12508828772E+03 0.  0.
          5    1    3    3  502    0  0.73127902217E+01 -0.39789571989E+01 -0.40038651505E+01  0.10139641875E+02  0.41800000000E+01 0.  1.
         -5    1    3    3    0  502 -0.16270524116E+03 -0.11569049443E+03  0.47126168345E+03  0.51182255977E+03  0.41800000000E+01 0.  1.
        -11    1    1    2    0    0  0.84319388114E+02  0.78129281520E+02  0.18028779411E+03  0.21381682008E+03  0.00000000000E+00 0. -1.
         11    1    1    2    0    0  0.71073062826E+02  0.41540170108E+02  0.33616293268E+03  0.34609606080E+03  0.00000000000E+00 0.  1.
</event>
<event>
 7    1  0.2788485E-009  0.1115940E+03  0.7561462E-02  0.1257646E+00
         -2   -1    0    0    0  501 -0.00000000000E+00  0.00000000000E+00  0.92591924393E+02  0.92591924393E+02  0.00000000000E+00 0.  1.
          2   -1    0    0  501    0  0.00000000000E+00 -0.00000000000E+00 -0.25297699124E+03  0.25297699124E+03  0.00000000000E+00 0. -1.
         25    2    1    2    0    0  0.49600417765E+02 -0.87922714105E+02 -0.46804723980E+02  0.16741566725E+03  0.12508684325E+03 0.  0.
          5    1    3    3  502    0  0.32370158879E+02 -0.68837634943E+02 -0.89417736279E+02  0.11747106508E+03  0.41800000000E+01 0. -1.
         -5    1    3    3    0  502  0.17230258886E+02 -0.19085079162E+02  0.42613012300E+02  0.49944602162E+02  0.41800000000E+01 0. -1.
        -11    1    1    2    0    0  0.16726195204E+02  0.16919737295E+02 -0.65616373393E+02  0.69796501154E+02  0.00000000000E+00 0. -1.
         11    1    1    2    0    0 -0.66326612969E+02  0.71002976810E+02 -0.47963969478E+02  0.10835674724E+03  0.00000000000E+00 0.  1.
</event>
<event>
 7    1  0.2788485E-009  0.1252089E+03  0.7561462E-02  0.1234743E+00
          2   -1    0    0  501    0  0.00000000000E+00  0.00000000000E+00  0.83609953355E+03  0.83609953355E+03  0.00000000000E+00 0. -1.
         -2   -1    0    0    0  501 -0.00000000000E+00 -0.00000000000E+00 -0.27511373107E+02  0.27511373107E+02  0.00000000000E+00 0.  1.
         25    2    1    2    0    0 -0.95482051385E+02 -0.34374677774E+02  0.36145295025E+03  0.39571976121E+03  0.12508978198E+03 0.  0.
          5    1    3    3  502    0 -0.22813401075E+02 -0.32351333577E+02  0.29328570623E+03  0.29597472515E+03  0.41800000000E+01 0. -1.
         -5    1    3    3    0  502 -0.72668650310E+02 -0.20233441973E+01  0.68167244021E+02  0.99745036052E+02  0.41800000000E+01 0. -1.
        -11    1    1    2    0    0  0.54119503107E+02 -0.29545315964E+02  0.20380425130E+03  0.21292726261E+03  0.00000000000E+00 0.  1.
         11    1    1    2    0    0  0.41362548278E+02  0.63919993738E+02  0.24333095889E+03  0.25496388284E+03  0.00000000000E+00 0. -1.
</event>
<event>
 7    1  0.2788485E-009  0.1060958E+03  0.7561462E-02  0.1267975E+00
         -1   -1    0    0    0  501 -0.00000000000E+00  0.00000000000E+00  0.25475310477E+03  0.25475310477E+03  0.00000000000E+00 0.  1.
          1   -1    0    0  501    0  0.00000000000E+00 -0.00000000000E+00 -0.10070624649E+03  0.10070624649E+03  0.00000000000E+00 0. -1.
         25    2    1    2    0    0  0.12879368690E+01  0.26983168237E+02  0.20289668497E+03  0.23988367422E+03  0.12508941696E+03 0.  0.
          5    1    3    3  502    0 -0.30184509708E+02 -0.33042749250E+02  0.14103753331E+03  0.14802697763E+03  0.41800000000E+01 0.  1.
         -5    1    3    3    0  502  0.31472446577E+02  0.60025917488E+02  0.61859151660E+02  0.91856696587E+02  0.41800000000E+01 0.  1.
        -11    1    1    2    0    0  0.46936836576E+02 -0.18076434638E+02 -0.63776780101E+01  0.50700087709E+02  0.00000000000E+00 0. -1.
         11    1    1    2    0    0 -0.48224773445E+02 -0.89067335995E+01 -0.42472148687E+02  0.64875589333E+02  0.00000000000E+00 0.  1.
</event>
<event>
 7    1  0.2788485E-009  0.1333415E+03  0.7561462E-02  0.1222580E+00
          3   -1    0    0  501    0  0.00000000000E+00  0.00000000000E+00  0.13933907268E+03  0.13933907268E+03  0.00000000000E+00 0. -1.
         -3   -1    0    0    0  501 -0.00000000000E+00 -0.00000000000E+00 -0.19809837395E+03  0.19809837395E+03  0.00000000000E+00 0.  1.
         25    2    1    2    0    0  0.65320669458E+02 -0.78214958584E+02  0.40332322276E+02  0.16629769386E+03  0.12507540589E+03 0.  0.
          5    1    3    3  502    0  0.76248564529E+02 -0.86640178850E+02 -0.80918540433E+01  0.11577268540E+03  0.41800000000E+01 0. -1.
         -5    1    3    3    0  502 -0.10927895071E+02  0.84252202650E+01  0.48424176319E+02  0.50525008455E+02  0.41800000000E+01 0. -1.
        -11    1    1    2    0    0 -0.48368208510E+01 -0.20468041072E+02 -0.29012359591E+02  0.35833678995E+02  0.00000000000E+00 0. -1.
         11    1    1    2    0    0 -0.60483848607E+02  0.98682999656E+02 -0.70079263952E+02  0.13530607377E+03  0.00000000000E+00 0.  1.
</event>
<event>
 7    1  0.2788485E-009  0.1094624E+03  0.7561462E-02  0.1261569E+00
          3   -1    0    0  501    0  0.00000000000E+00  0.00000000000E+00  0.12886231002E+03  0.12886231002E+03  0.00000000000E+00 0. -1.
         -3   -1    0    0    0  501 -0.00000000000E+00 -0.00000000000E+00 -0.10401936467E+03  0.10401936467E+03  0.00000000000E+00 0.  1.
         25    2    1    2    0    0  0.10529444723E+02 -0.36595658644E+02  0.28712056521E+02  0.13387108858E+03  0.12508786804E+03 0.  0.
          5    1    3    3  502    0  0.32683548817E+02 -0.72528660968E+02  0.41153266749E+02  0.89664289375E+02  0.41800000000E+01 0. -1.
         -5    1    3    3    0  502 -0.22154104094E+02  0.35933002323E+02 -0.12441210228E+02  0.44206799207E+02  0.41800000000E+01 0. -1.
        -11    1    1    2    0    0  0.39452446504E+02  0.19576066469E+02 -0.11855174189E+02  0.45609900993E+02  0.00000000000E+00 0.  1.
         11    1    1    2    0    0 -0.49981891227E+02  0.17019592176E+02  0.79860630182E+01  0.53400685117E+02  0.00000000000E+00 0. -1.
</event>
<event>
 7    1  0.2788485E-009  0.1685086E+03  0.7561462E-02  0.1179412E+00
         -1   -1    0    0    0  501 -0.00000000000E+00  0.00000000000E+00  0.53841695292E+03  0.53841695292E+03  0.00000000000E+00 0.  1.
          1   -1    0    0  501    0  0.00000000000E+00 -0.00000000000E+00 -0.79070921769E+02  0.79070921769E+02  0.00000000000E+00 0. -1.
         25    2    1    2    0    0  0.81775002585E+02 -0.10585538032E+03  0.40838711631E+03  0.44757153079E+03  0.12509087022E+03 0.  0.
          5    1    3    3  502    0 -0.97442142833E+01 -0.81549765878E+02  0.13343807206E+03  0.15674343846E+03  0.41800000000E+01 0. -1.
         -5    1    3    3    0  502  0.91519216868E+02 -0.24305614443E+02  0.27494904425E+03  0.29082809232E+03  0.41800000000E+01 0. -1.
        -11    1    1    2    0    0 -0.91671441640E+02  0.52312753401E+02  0.20477953810E+02  0.10751569175E+03  0.00000000000E+00 0. -1.
         11    1    1    2    0    0  0.98964390556E+01  0.53542626920E+02  0.30480961034E+02  0.62400652153E+02  0.00000000000E+00 0.  1.
</event>
<event>
 7    1  0.2788485E-009  0.2514425E+03  0.7561462E-02  0.1112397E+00
         -2   -1    0    0    0  501 -0.00000000000E+00  0.00000000000E+00  0.24516076748E+02  0.24516076748E+02  0.00000000000E+00 0.  1.
          2   -1    0    0  501    0  0.00000000000E+00 -0.00000000000E+00 -0.26540896962E+04  0.26540896962E+04  0.00000000000E+00 0. -1.
         25    2    1    2    0    0 -0.22994243172E+03 -0.43546983378E+01 -0.14742536471E+04  0.14973189685E+04  0.12509113597E+03 0.  0.
          5    1    3    3  502    0 -0.11616457598E+03 -0.64056875004E+02 -0.79608847729E+03  0.80707609804E+03  0.41800000000E+01 0.  1.
         -5    1    3    3    0  502 -0.11377785574E+03  0.59702176666E+02 -0.67816516979E+03  0.69024287049E+03  0.41800000000E+01 0.  1.
        -11    1    1    2    0    0  0.13265536362E+03 -0.34141961818E+02 -0.53804773353E+03  0.55521030485E+03  0.00000000000E+00 0.  1.
         11    1    1    2    0    0  0.97287068098E+02  0.38496660156E+02 -0.61727223882E+03  0.62607649954E+03  0.00000000000E+00 0. -1.
</event>
<event>
 7    1  0.2788485E-009  0.1062652E+03  0.7561462E-02  0.1267647E+00
          2   -1    0    0  501    0  0.00000000000E+00  0.00000000000E+00  0.30718828185E+03  0.30718828185E+03  0.00000000000E+00 0. -1.
         -2   -1    0    0    0  501 -0.00000000000E+00 -0.00000000000E+00 -0.54194784716E+02  0.54194784716E+02  0.00000000000E+00 0.  1.
         25    2    1    2    0    0  0.66314053615E+02 -0.38258065547E+02  0.15202007043E+03  0.21123218417E+03  0.12509076916E+03 0.  0.
          5    1    3    3  502    0  0.88835958592E+02 -0.29097666701E+01  0.14257684697E+03  0.16806523725E+03  0.41800000000E+01 0.  1.
         -5    1    3    3    0  502 -0.22521904976E+02 -0.35348298877E+02  0.94432234648E+01  0.43166946923E+02  0.41800000000E+01 0.  1.
        -11    1    1    2    0    0 -0.27732645025E+02  0.31994113094E+02  0.50122081681E+00  0.42343524831E+02  0.00000000000E+00 0.  1.
         11    1    1    2    0    0 -0.38581408591E+02  0.62639524523E+01  0.10047220589E+03  0.10780735756E+03  0.00000000000E+00 0. -1.
</event>
<event>
 7    1  0.2788485E-009  0.1272849E+03  0.7561462E-02  0.1231541E+00
          1   -1    0    0  501    0  0.00000000000E+00  0.00000000000E+00  0.46275140165E+02  0.46275140165E+02  0.00000000000E+00 0. -1.
         -1   -1    0    0    0  501 -0.00000000000E+00 -0.00000000000E+00 -0.52776996591E+03  0.52776996591E+03  0.00000000000E+00 0.  1.
         25    2    1    2    0    0 -0.51051439818E+02 -0.82009573608E+02 -0.36513592854E+03  0.39787255156E+03  0.12508597566E+03 0.  0.
          5    1    3    3  502    0 -0.91705983069E+02 -0.54801188808E+02 -0.21888977054E+03  0.24360492949E+03  0.41800000000E+01 0.  1.
         -5    1    3    3    0  502  0.40654543250E+02 -0.27208384799E+02 -0.14624615800E+03  0.15426762207E+03  0.41800000000E+01 0.  1.
        -11    1    1    2    0    0  0.57337256732E+01  0.25423991645E+02 -0.97975022089E+02  0.10138224655E+03  0.00000000000E+00 0.  1.
         11    1    1    2    0    0  0.45317714145E+02  0.56585581963E+02 -0.18383875117E+02  0.74790307967E+02  0.00000000000E+00 0. -1.
</event>
<event>
 7    1  0.2788485E-009  0.9183998E+02  0.7561462E-02  0.1298456E+00
         -1   -1    0    0    0  501 -0.00000000000E+00  0.00000000000E+00  0.12335011403E+02  0.12335011403E+02  0.00000000000E+00 0.  1.
          1   -1    0    0  501    0  0.00000000000E+00 -0.00000000000E+00 -0.11905755620E+04  0.11905755620E+04  0.00000000000E+00 0. -1.
         25    2    1    2    0    0 -0.27905593956E+02 -0.12467565638E+02 -0.87962340486E+03  0.88899901403E+03  0.12509096773E+03 0.  0.
          5    1    3    3  502    0  0.18999463168E+01  0.32812767058E+02 -0.71216271941E+03  0.71293302546E+03  0.41800000000E+01 0. -1.
         -5    1    3    3    0  502 -0.29805540273E+02 -0.45280332696E+02 -0.16746068545E+03  0.17606598857E+03  0.41800000000E+01 0. -1.
        -11    1    1    2    0    0 -0.26532816285E+02 -0.19607841726E+02 -0.11978088822E+03  0.12424137387E+03  0.00000000000E+00 0.  1.
         11    1    1    2    0    0  0.54438410241E+02  0.32075407364E+02 -0.17883625754E+03  0.18967018553E+03  0.00000000000E+00 0. -1.
</event>
<event>
 7    1  0.2788485E-009  0.2001202E+03  0.7561462E-02  0.1149638E+00
         -1   -1    0    0    0  501 -0.00000000000E+00  0.00000000000E+00  0.30858440649E+03  0.30858440649E+03  0.00000000000E+00 0.  1.
          1   -1    0    0  501    0  0.00000000000E+00 -0.00000000000E+00 -0.15566003299E+03  0.15566003299E+03  0.00000000000E+00 0. -1.
         25    2    1    2    0    0  0.97941873193E+02 -0.16129137037E+03  0.56152473304E+02  0.23325634064E+03  0.12509158049E+03 0.  0.
          5    1    3    3  502    0  0.46126995095E+02 -0.14492935298E+03 -0.38503115829E+01  0.15219893012E+03  0.41800000000E+01 0. -1.
         -5    1    3    3    0  502  0.51814878098E+02 -0.16362017393E+02  0.60002784887E+02  0.81057410517E+02  0.41800000000E+01 0. -1.
        -11    1    1    2    0    0 -0.16225527476E+02  0.45863046520E+01  0.43108773835E+02  0.46288965357E+02  0.00000000000E+00 0.  1.
         11    1    1    2    0    0 -0.81716345717E+02  0.15670506572E+03  0.53663126370E+02  0.18469913349E+03  0.00000000000E+00 0. -1.
</event>
<event>
 7    1  0.2788485E-009  0.3139587E+03  0.7561462E-02  0.1078464E+00
          2   -1    0    0  501    0  0.00000000000E+00  0.00000000000E+00  0.81552971435E+03  0.81552971435E+03  0.00000000000E+00 0. -1.
         -2   -1    0    0    0  501 -0.00000000000E+00 -0.00000000000E+00 -0.14179015829E+03  0.14179015829E+03  0.00000000000E+00 0.  1.
         25    2    1    2    0    0 -0.22491914466E+03  0.21350381968E+03  0.22020590731E+03  0.40038811441E+03  0.12508995920E+03 0.  0.
          5    1    3    3  502    0 -0.48346858793E+02  0.21638254046E+02 -0.81516414386E+01  0.53754576098E+02  0.41800000000E+01 0. -1.
         -5    1    3    3    0  502 -0.17657228587E+03  0.19186556563E+03  0.22835754875E+03  0.34663353831E+03  0.41800000000E+01 0. -1.
        -11    1    1    2    0    0  0.15110777545E+03 -0.11013318758E+03  0.33256557000E+03  0.38152684985E+03  0.00000000000E+00 0. -1.
         11    1    1    2    0    0  0.73811369211E+02 -0.10337063210E+03  0.12096807876E+03  0.17540490838E+03  0.00000000000E+00 0.  1.
</event>
<event>
 7    1  0.3056909E-009  0.1573327E+03  0.7561462E-02  0.1191741E+00
         -2   -1    0    0    0  501 -0.00000000000E+00  0.00000000000E+00  0.34396705388E+02  0.34396705388E+02  0.00000000000E+00 0.  1.
          2   -1    0    0  501    0  0.00000000000E+00 -0.00000000000E+00 -0.75994176622E+03  0.75994176622E+03  0.00000000000E+00 0. -1.
         25    2    1    2    0    0 -0.89102472274E+02 -0.72660511210E+02 -0.46655135884E+03  0.49652439230E+03  0.12508997263E+03 0.  0.
          5    1    3    3  502    0 -0.12022019779E+03 -0.63253459624E+02 -0.35031092991E+03  0.37575140203E+03  0.41800000000E+01 0. -1.
         -5    1    3    3    0  502  0.31117725512E+02 -0.94070515864E+01 -0.11624042893E+03  0.12077299027E+03  0.41800000000E+01 0. -1.
        -11    1    1    2    0    0  0.55409878598E+02 -0.10371665865E+02 -0.11767119869E+03  0.13047734324E+03  0.00000000000E+00 0.  1.
         11    1    1    2    0    0  0.33692593676E+02  0.83032177075E+02 -0.14132250330E+03  0.16733673607E+03  0.00000000000E+00 0. -1.
</event>
<event>
 7    1  0.2788485E-009  0.1184365E+03  0.7561462E-02  0.1245699E+00
          2   -1    0    0  501    0  0.00000000000E+00  0.00000000000E+00  0.10184898948E+03  0.10184898948E+03  0.00000000000E+00 0. -1.
         -2   -1    0    0    0  501 -0.00000000000E+00 -0.00000000000E+00 -0.27227486176E+03  0.27227486176E+03  0.00000000000E+00 0.  1.
         25    2    1    2    0    0  0.26635707970E+02  0.96837390635E+02 -0.17520353927E+03  0.23755110231E+03  0.12508918766E+03 0.  0.
          5    1    3    3  502    0  0.17989849179E+02  0.63646797384E+02 -0.79285754054E+01  0.66744918898E+02  0.41800000000E+01 0. -1.
         -5    1    3    3    0  502  0.86458587905E+01  0.33190593251E+02 -0.16727496387E+03  0.17080618341E+03  0.41800000000E+01 0. -1.
        -11    1    1    2    0    0  0.24179270034E+02  0.26611235396E+01 -0.33464109123E+01  0.24554371176E+02  0.00000000000E+00 0.  1.
         11    1    1    2    0    0 -0.50814978003E+02 -0.99498514174E+02  0.81240779034E+01  0.11201837775E+03  0.00000000000E+00 0. -1.
</event>
<event>
 7    1  0.2788485E-009  0.1390300E+03  0.7561462E-02  0.1214640E+00
         -1   -1    0    0    0  501 -0.00000000000E+00  0.00000000000E+00  0.20063370632E+03  0.20063370632E+03  0.00000000000E+00 0.  1.
          1   -1    0    0  501    0  0.00000000000E+00 -0.00000000000E+00 -0.15267394235E+03  0.15267394235E+03  0.00000000000E+00 0. -1.
         25    2    1    2    0    0 -0.58153215074E+02  0.83452999052E+02  0.11821140456E+03  0.19992001855E+03  0.12509147922E+03 0.  0.
          5    1    3    3  502    0 -0.68988443143E+02  0.12592681785E+02  0.10587417691E+03  0.12706216848E+03  0.41800000000E+01 0.  1.
         -5    1    3    3    0  502  0.10835228069E+02  0.70860317267E+02  0.12337227643E+02  0.72857850067E+02  0.41800000000E+01 0.  1.
        -11    1    1    2    0    0  0.36493728871E+02  0.11771055641E+02 -0.14922055828E+02  0.41146296892E+02  0.00000000000E+00 0.  1.
         11    1    1    2    0    0  0.21659486203E+02 -0.95224054693E+02 -0.55329584767E+02  0.11224133323E+03  0.00000000000E+00 0. -1.
</event>
<event>
 7    1  0.2788485E-009  0.9729019E+02  0.7561462E-02  0.1286100E+00
         -1   -1    0    0    0  501 -0.00000000000E+00  0.00000000000E+00  0.68394822059E+02  0.68394822059E+02  0.00000000000E+00 0.  1.
          1   -1    0    0  501    0  0.00000000000E+00 -0.00000000000E+00 -0.28351488589E+03  0.28351488589E+03  0.00000000000E+00 0. -1.
         25    2    1    2    0    0 -0.40120681793E+02  0.36962227531E+02 -0.20735786508E+03  0.24823424705E+03  0.12508829613E+03 0.  0.
          5    1    3    3  502    0  0.26956103985E+02  0.10496210132E+02 -0.15816622751E+03  0.16084411676E+03  0.41800000000E+01 0.  1.
         -5    1    3    3    0  502 -0.67076785778E+02  0.26466017399E+02 -0.49191637562E+02  0.87390130297E+02  0.41800000000E+01 0.  1.
        -11    1    1    2    0    0  0.49927795949E+02  0.48615119074E+01 -0.26586616655E+02  0.56773825761E+02  0.00000000000E+00 0.  1.
         11    1    1    2    0    0 -0.98071141565E+01 -0.41823739438E+02  0.18824417903E+02  0.46901635132E+02  0.00000000000E+00 0. -1.
</event>
<event>
 7    1  0.2788485E-009  0.4936010E+02  0.7561462E-02  0.1448824E+00
          2   -1    0    0  501    0  0.00000000000E+00  0.00000000000E+00  0.52571274731E+02  0.52571274731E+02  0.00000000000E+00 0.  1.
         -2   -1    0    0    0  501 -0.00000000000E+00 -0.00000000000E+00 -0.25526829892E+03  0.25526829892E+03  0.00000000000E+00 0. -1.
         25    2    1    2    0    0 -0.22688228518E+02 -0.10074133257E+02 -0.71870911609E+02  0.14638063606E+03  0.12508244802E+03 0.  0.
          5    1    3    3  502    0 -0.18737076546E+02 -0.11137527562E+02  0.33861261126E+02  0.40486787508E+02  0.41800000000E+01 0.  1.
         -5    1    3    3    0  502 -0.39511519726E+01  0.10633943048E+01 -0.10573217273E+03  0.10589384855E+03  0.41800000000E+01 0.  1.
        -11    1    1    2    0    0  0.26098483005E+02 -0.24582179473E+02 -0.11961882363E+03  0.12487624806E+03  0.00000000000E+00 0. -1.
         11    1    1    2    0    0 -0.34102544871E+01  0.34656312731E+02 -0.11207288948E+02  0.36582689531E+02  0.00000000000E+00 0.  1.
</event>
<event>
 7    1  0.2788485E-009  0.1285482E+03  0.7561462E-02  0.1229626E+00
         -1   -1    0    0    0  501 -0.00000000000E+00  0.00000000000E+00  0.10507365671E+03  0.10507365671E+03  0.00000000000E+00 0.  1.
          1   -1    0    0  501    0  0.00000000000E+00 -0.00000000000E+00 -0.24021634481E+03  0.24021634481E+03  0.00000000000E+00 0. -1.
         25    2    1    2    0    0 -0.30534746291E+02 -0.76110854939E+02  0.15688729222E+02  0.15039304635E+03  0.12508676666E+03 0.  0.
          5    1    3    3  502    0  0.39512448893E+02 -0.40680845750E+02  0.38343494251E+02  0.68584697855E+02  0.41800000000E+01 0.  1.
         -5    1    3    3    0  502 -0.70047195184E+02 -0.35430009189E+02 -0.22654765029E+02  0.81808348491E+02  0.41800000000E+01 0.  1.
        -11    1    1    2    0    0  0.44950216204E+02  0.81360490060E+00 -0.40271501110E+02  0.60357084848E+02  0.00000000000E+00 0.  1.
         11    1    1    2    0    0 -0.14415469913E+02  0.75297250038E+02 -0.11055991621E+03  0.13453987033E+03  0.00000000000E+00 0. -1.
</event>
<event>
 7    1  0.2788485E-009  0.1499971E+03  0.7561462E-02  0.1200477E+00
          2   -1    0    0  501    0  0.00000000000E+00  0.00000000000E+00  0.28106146137E+02  0.28106146137E+02  0.00000000000E+00 0.  1.
         -2   -1    0    0    0  501 -0.00000000000E+00 -0.00000000000E+00 -0.10115724831E+04  0.10115724831E+04  0.00000000000E+00 0. -1.
         25    2    1    2    0    0 -0.42732758628E+02  0.98238288284E+02 -0.30388914939E+03  0.34564972643E+03  0.12509303865E+03 0.  0.
          5    1    3    3  502    0 -0.65020048749E+02  0.64629653911E+01 -0.16619461151E+03  0.17862670001E+03  0.41800000000E+01 0.  1.
         -5    1    3    3    0  502  0.22287290121E+02  0.91775322893E+02 -0.13769453787E+03  0.16702302642E+03  0.41800000000E+01 0.  1.
        -11    1    1    2    0    0  0.50789641332E+02 -0.10482458241E+02 -0.29091100088E+03  0.29549734353E+03  0.00000000000E+00 0.  1.
         11    1    1    2    0    0 -0.80568827042E+01 -0.87755830044E+02 -0.38866618674E+03  0.39853155932E+03  0.00000000000E+00 0. -1.
</event>
<event>
 7    1  0.2788485E-009  0.1461946E+03  0.7561462E-02  0.1205229E+00
         -1   -1    0    0    0  501 -0.00000000000E+00  0.00000000000E+00  0.15963150524E+03  0.15963150524E+03  0.00000000000E+00 0.  1.
          1   -1    0    0  501    0  0.00000000000E+00 -0.00000000000E+00 -0.18629791793E+03  0.18629791793E+03  0.00000000000E+00 0. -1.
         25    2    1    2    0    0 -0.91101769052E+02  0.98038139254E+02 -0.29128641474E+02  0.18549166713E+03  0.12509065411E+03 0.  0.
          5    1    3    3  502    0 -0.75203669804E+02  0.35909101686E+02 -0.70350330995E+02  0.10914072112E+03  0.41800000000E+01 0.  1.
         -5    1    3    3    0  502 -0.15898099248E+02  0.62129037568E+02  0.41221689521E+02  0.76350946005E+02  0.41800000000E+01 0.  1.
        -11    1    1    2    0    0 -0.29211656314E+00 -0.31814606695E+02 -0.29233557654E+02  0.43207122380E+02  0.00000000000E+00 0.  1.
         11    1    1    2    0    0  0.91393885615E+02 -0.66223532559E+02  0.31695786442E+02  0.11723063367E+03  0.00000000000E+00 0. -1.
</event>
<event>
 7    1  0.2788485E-009  0.7357573E+02  0.7561462E-02  0.1348339E+00
          2   -1    0    0  501    0  0.00000000000E+00  0.00000000000E+00  0.48764073122E+03  0.48764073122E+03  0.00000000000E+00 0. -1.
         -2   -1    0    0    0  501 -0.00000000000E+00 -0.00000000000E+00 -0.35533766025E+02  0.35533766025E+02  0.00000000000E+00 0.  1.
         25    2    1    2    0    0 -0.12457482378E+02  0.39333636622E+02  0.37419337851E+03  0.39670231896E+03  0.12509884696E+03 0.  0.
          5    1    3    3  502    0  0.62135484866E+01  0.51247522799E+02  0.50875060176E+02  0.72599317667E+02  0.41800000000E+01 0.  1.
         -5    1    3    3    0  502 -0.18671030865E+02 -0.11913886176E+02  0.32331831833E+03  0.32410300129E+03  0.41800000000E+01 0.  1.
        -11    1    1    2    0    0 -0.78593299027E+01 -0.49487369054E+02  0.88277105054E+02  0.10150672903E+03  0.00000000000E+00 0. -1.
         11    1    1    2    0    0  0.20316812281E+02  0.10153732432E+02 -0.10363518365E+02  0.24965449254E+02  0.00000000000E+00 0.  1.
</event>
<event>
 7    1  0.2788485E-009  0.1133291E+03  0.7561462E-02  0.1254526E+00
         -1   -1    0    0    0  501 -0.00000000000E+00  0.00000000000E+00  0.20268004692E+02  0.20268004692E+02  0.00000000000E+00 0. -1.
          1   -1    0    0  501    0  0.00000000000E+00 -0.00000000000E+00 -0.10576348286E+04  0.10576348286E+04  0.00000000000E+00 0.  1.
         25    2    1    2    0    0  0.72850280335E+02  0.30806964711E+02 -0.75029687643E+03  0.76475394813E+03  0.12508783307E+03 0.  0.
          5    1    3    3  502    0 -0.93531611820E+01 -0.12186544880E+02 -0.10319435311E+02  0.18972523431E+02  0.41800000000E+01 0. -1.
         -5    1    3    3    0  502  0.82203441517E+02  0.42993509591E+02 -0.73997744112E+03  0.74578142470E+03  0.41800000000E+01 0. -1.
        -11    1    1    2    0    0 -0.62174372889E+02  0.20502373906E+02 -0.10545950484E+03  0.12412778553E+03  0.00000000000E+00 0.  1.
         11    1    1    2    0    0 -0.10675907446E+02 -0.51309338617E+02 -0.18161044261E+03  0.18902109960E+03  0.00000000000E+00 0. -1.
</event>
<event>
 7    1  0.2788485E-009  0.1139702E+03  0.7561462E-02  0.1253389E+00
          3   -1    0    0  501    0  0.00000000000E+00  0.00000000000E+00  0.31658215650E+02  0.31658215650E+02  0.00000000000E+00 0. -1.
         -3   -1    0    0    0  501 -0.00000000000E+00 -0.00000000000E+00 -0.68593271105E+03  0.68593271105E+03  0.00000000000E+00 0.  1.
         25    2    1    2    0    0 -0.93014308792E+02  0.70699253297E+01 -0.29190957951E+03  0.33099781470E+03  0.12508679085E+03 0.  0.
          5    1    3    3  502    0 -0.32759126410E+02  0.77451220634E-02 -0.26044127146E+03  0.26252673903E+03  0.41800000000E+01 0.  1.
         -5    1    3    3    0  502 -0.60255182382E+02  0.70621802077E+01 -0.31468308049E+02  0.68471075679E+02  0.41800000000E+01 0.  1.
        -11    1    1    2    0    0  0.14404616293E+02  0.39975941685E+02 -0.13241510568E+03  0.13906591637E+03  0.00000000000E+00 0. -1.
         11    1    1    2    0    0  0.78609692498E+02 -0.47045867014E+02 -0.22994981021E+03  0.24752719562E+03  0.00000000000E+00 0.  1.
</event>
<event>
 7    1  0.2788485E-009  0.1040402E+03  0.7561462E-02  0.1272022E+00
         -3   -1    0    0    0  501 -0.00000000000E+00  0.00000000000E+00  0.14449147303E+04  0.14449147303E+04  0.00000000000E+00 0.  1.
          3   -1    0    0  501    0  0.00000000000E+00 -0.00000000000E+00 -0.10595729359E+02  0.10595729359E+02  0.00000000000E+00 0. -1.
         25    2    1    2    0    0  0.74639812786E+01 -0.57499274346E+01  0.10680984506E+04  0.10754397034E+04  0.12508989852E+03 0.  0.
          5    1    3    3  502    0  0.57870280338E+02  0.21489439262E+02  0.38611781679E+03  0.39104373948E+03  0.41800000000E+01 0. -1.
         -5    1    3    3    0  502 -0.50406299060E+02 -0.27239366697E+02  0.68198063380E+03  0.68439596387E+03  0.41800000000E+01 0. -1.
        -11    1    1    2    0    0  0.38869540019E+02 -0.94410614877E+01  0.77009640888E+02  0.86778220614E+02  0.00000000000E+00 0.  1.
         11    1    1    2    0    0 -0.46333521297E+02  0.15190988922E+02  0.28921090942E+03  0.29329253565E+03  0.00000000000E+00 0. -1.
</event>
<event>
 7    1  0.2788485E-009  0.1403867E+03  0.7561462E-02  0.1212810E+00
          1   -1    0    0  501    0  0.00000000000E+00  0.00000000000E+00  0.99766007259E+03  0.99766007259E+03  0.00000000000E+00 0. -1.
         -1   -1    0    0    0  501 -0.00000000000E+00 -0.00000000000E+00 -0.21616600470E+02  0.21616600470E+02  0.00000000000E+00 0.  1.
         25    2    1    2    0    0  0.83431857503E+02 -0.41712006882E+02  0.42681158137E+03  0.45443782490E+03  0.12507935218E+03 0.  0.
          5    1    3    3  502    0 -0.22664897830E+02 -0.41450423225E+02  0.97334130999E+02  0.10827391485E+03  0.41800000000E+01 0. -1.
         -5    1    3    3    0  502  0.10609675533E+03 -0.26158365717E+00  0.32947745037E+03  0.34616391005E+03  0.41800000000E+01 0. -1.
        -11    1    1    2    0    0 -0.43254935035E+01 -0.23963922659E+02  0.57001378410E+02  0.61984970952E+02  0.00000000000E+00 0.  1.
         11    1    1    2    0    0 -0.79106363999E+02  0.65675929542E+02  0.49223051234E+03  0.50285387721E+03  0.00000000000E+00 0. -1.
</event>
<event>
 7    1  0.2788485E-009  0.9504902E+02  0.7561462E-02  0.1291066E+00
         -2   -1    0    0    0  501 -0.00000000000E+00  0.00000000000E+00  0.36379381587E+02  0.36379381587E+02  0.00000000000E+00 0.  1.
          2   -1    0    0  501    0  0.00000000000E+00 -0.00000000000E+00 -0.37031484373E+03  0.37031484373E+03  0.00000000000E+00 0. -1.
         25    2    1    2    0    0 -0.27169411979E+02 -0.75144251941E+01 -0.12715543247E+03  0.18058448070E+03  0.12509039583E+03 0.  0.
          5    1    3    3  502    0 -0.76349148697E+02 -0.19408730087E+00 -0.91575650123E+02  0.11930130876E+03  0.41800000000E+01 0.  1.
         -5    1    3    3    0  502  0.49179736718E+02 -0.73203378933E+01 -0.35579782346E+02  0.61283171935E+02  0.41800000000E+01 0.  1.
        -11    1    1    2    0    0  0.20148971283E+02 -0.24065340380E+02 -0.18371936957E+03  0.18638113748E+03  0.00000000000E+00 0. -1.
         11    1    1    2    0    0  0.70204406961E+01  0.31579765574E+02 -0.23060660103E+02  0.39728607145E+02  0.00000000000E+00 0.  1.
</event>
<event>
 7    1  0.2788485E-009  0.1815039E+03  0.7561462E-02  0.1166355E+00
          2   -1    0    0  501    0  0.00000000000E+00  0.00000000000E+00  0.12297963373E+03  0.12297963373E+03  0.00000000000E+00 0.  1.
         -2   -1    0    0    0  501 -0.00000000000E+00 -0.00000000000E+00 -0.33139512794E+03  0.33139512794E+03  0.00000000000E+00 0. -1.
         25    2    1    2    0    0 -0.16230555937E+02  0.15068754631E+03 -0.19737281567E+03  0.27852080284E+03  0.12509053397E+03 0.  0.
          5    1    3    3  502    0 -0.52389224238E+02  0.14986850418E+03 -0.14729697706E+03  0.21660810514E+03  0.41800000000E+01 0.  1.
         -5    1    3    3    0  502  0.36158668301E+02  0.81904212444E+00 -0.50075838608E+02  0.61912697693E+02  0.41800000000E+01 0.  1.
        -11    1    1    2    0    0 -0.21491989149E+02 -0.11086826553E+03  0.17076360490E+02  0.11421593578E+03  0.00000000000E+00 0. -1.
         11    1    1    2    0    0  0.37722545086E+02 -0.39819280777E+02 -0.28119039031E+02  0.61638023049E+02  0.00000000000E+00 0.  1.
</event>
<event>
 7    1  0.2788485E-009  0.1861031E+03  0.7561462E-02  0.1162024E+00
         -2   -1    0    0    0  501 -0.00000000000E+00  0.00000000000E+00  0.20845840024E+02  0.20845840024E+02  0.00000000000E+00 0.  1.
          2   -1    0    0  501    0  0.00000000000E+00 -0.00000000000E+00 -0.17156370999E+04  0.17156370999E+04  0.00000000000E+00 0. -1.
         25    2    1    2    0    0 -0.10048309354E+03 -0.11852021600E+03 -0.86917131594E+03  0.89176823923E+03  0.12509165581E+03 0.  0.
          5    1    3    3  502    0  0.72999922121E+01 -0.84129867834E+02 -0.31492563786E+03  0.32607783477E+03  0.41800000000E+01 0. -1.
         -5    1    3    3    0  502 -0.10778308576E+03 -0.34390348163E+02 -0.55424567809E+03  0.56569040446E+03  0.41800000000E+01 0. -1.
        -11    1    1    2    0    0  0.95276518063E+02  0.53608388890E+02 -0.60029043309E+03  0.61016397658E+03  0.00000000000E+00 0.  1.
         11    1    1    2    0    0  0.52065754812E+01  0.64911827107E+02 -0.22532951084E+03  0.23455072411E+03  0.00000000000E+00 0. -1.
</event>
<event>
 7    1  0.2788485E-009  0.1015721E+03  0.7561462E-02  0.1277024E+00
         -2   -1    0    0    0  501 -0.00000000000E+00  0.00000000000E+00  0.22527806371E+03  0.22527806371E+03  0.00000000000E+00 0. -1.
          2   -1    0    0  501    0  0.00000000000E+00 -0.00000000000E+00 -0.63960026335E+02  0.63960026335E+02  0.00000000000E+00 0.  1.
         25    2    1    2    0    0  0.36869006579E+02 -0.27765955074E+02  0.10732999705E+03  0.17116644921E+03  0.12509177896E+03 0.  0.
          5    1    3    3  502    0 -0.27971223879E+02 -0.13394974104E+01 -0.13565790434E+02  0.31395647607E+02  0.41800000000E+01 0.  1.
         -5    1    3    3    0  502  0.64840230458E+02 -0.26426457664E+02  0.12089578748E+03  0.13977080160E+03  0.41800000000E+01 0.  1.
        -11    1    1    2    0    0 -0.36942144877E+02  0.61074871291E+02  0.41032475394E+02  0.82331804355E+02  0.00000000000E+00 0.  1.
         11    1    1    2    0    0  0.73138298088E-01 -0.33308916217E+02  0.12955564934E+02  0.35739836479E+02  0.00000000000E+00 0. -1.
</event>
<event>
 7    1  0.2788485E-009  0.2687984E+03  0.7561462E-02  0.1101969E+00
          1   -1    0    0  501    0  0.00000000000E+00  0.00000000000E+00  0.13084887914E+03  0.13084887914E+03  0.00000000000E+00 0. -1.
         -1   -1    0    0    0  501 -0.00000000000E+00 -0.00000000000E+00 -0.62575649017E+03  0.62575649017E+03  0.00000000000E+00 0.  1.
         25    2    1    2    0    0  0.20617827328E+03 -0.15415873842E+03 -0.33255986490E+03  0.43876857813E+03  0.12508958554E+03 0.  0.
          5    1    3    3  502    0  0.14626386221E+03 -0.63281474063E+02 -0.26888438163E+03  0.31259229906E+03  0.41800000000E+01 0.  1.
         -5    1    3    3    0  502  0.59914411076E+02 -0.90877264352E+02 -0.63675483267E+02  0.12617627907E+03  0.41800000000E+01 0.  1.
        -11    1    1    2    0    0 -0.26179345396E+02  0.61405957738E+02 -0.17923696807E+02  0.69118077797E+02  0.00000000000E+00 0. -1.
         11    1    1    2    0    0 -0.17999892789E+03  0.92752780677E+02 -0.14442404932E+03  0.24871871338E+03  0.00000000000E+00 0.  1.
</event>
<event>
 7    1  0.2788485E-009  0.1394558E+03  0.7561462E-02  0.1214063E+00
         -2   -1    0    0    0  501 -0.00000000000E+00  0.00000000000E+00  0.28601197762E+02  0.28601197762E+02  0.00000000000E+00 0. -1.
          2   -1    0    0  501    0  0.00000000000E+00 -0.00000000000E+00 -0.77859469528E+03  0.77859469528E+03  0.00000000000E+00 0.  1.
         25    2    1    2    0    0  0.96439766917E+02 -0.21366634400E+02 -0.48101942948E+03  0.50673861459E+03  0.12508864966E+03 0.  0.
          5    1    3    3  502    0  0.10781209087E+03  0.14235872732E+02 -0.42874762716E+03  0.44234387891E+03  0.41800000000E+01 0.  1.
         -5    1    3    3    0  502 -0.11372323953E+02 -0.35602507132E+02 -0.52271802317E+02  0.64394735683E+02  0.41800000000E+01 0.  1.
        -11    1    1    2    0    0 -0.37146226421E+02 -0.34728768251E+02 -0.82683936031E+02  0.97069885954E+02  0.00000000000E+00 0. -1.
         11    1    1    2    0    0 -0.59293540496E+02  0.56095402651E+02 -0.18629013201E+03  0.20338739250E+03  0.00000000000E+00 0.  1.
</event>
<event>
 7    1  0.2788485E-009  0.1078958E+03  0.7561462E-02  0.1264517E+00
         -2   -1    0    0    0  501 -0.00000000000E+00  0.00000000000E+00  0.16858226699E+02  0.16858226699E+02  0.00000000000E+00 0.  1.
          2   -1    0    0  501    0  0.00000000000E+00 -0.00000000000E+00 -0.79509183391E+03  0.79509183391E+03  0.00000000000E+00 0. -1.
         25    2    1    2    0    0 -0.23795551546E+02 -0.36185469446E+01 -0.32397521427E+03  0.34811923649E+03  0.12509093171E+03 0.  0.
          5    1    3    3  502    0 -0.73112377517E+02 -0.36352143922E+01 -0.14581335290E+03  0.16321041883E+03  0.41800000000E+01 0. -1.
         -5    1    3    3    0  502  0.49316825971E+02  0.16667447595E-01 -0.17816186137E+03  0.18490881766E+03  0.41800000000E+01 0. -1.
        -11    1    1    2    0    0  0.57082050641E+02 -0.81698361660E+01 -0.30964849383E+03  0.31497189788E+03  0.00000000000E+00 0. -1.
         11    1    1    2    0    0 -0.33286499095E+02  0.11788383111E+02 -0.14460989911E+03  0.14885892624E+03  0.00000000000E+00 0.  1.
</event>
<event>
 7    1  0.2788485E-009  0.1629331E+03  0.7561462E-02  0.1185425E+00
         -1   -1    0    0    0  501 -0.00000000000E+00  0.00000000000E+00  0.89924163265E+03  0.89924163265E+03  0.00000000000E+00 0.  1.
          1   -1    0    0  501    0  0.00000000000E+00 -0.00000000000E+00 -0.61256522867E+02  0.61256522867E+02  0.00000000000E+00 0. -1.
         25    2    1    2    0    0 -0.13811002745E+03  0.11719348060E+01  0.75109923428E+03  0.77386908693E+03  0.12509017089E+03 0.  0.
          5    1    3    3  502    0 -0.86139687491E+02  0.45225474561E+02  0.25263703448E+03  0.27075511611E+03  0.41800000000E+01 0.  1.
         -5    1    3    3    0  502 -0.51970339958E+02 -0.44053539755E+02  0.49846219980E+03  0.50311397082E+03  0.41800000000E+01 0.  1.
        -11    1    1    2    0    0  0.11913287806E+03  0.30798907779E+02  0.84705768407E+02  0.14938635332E+03  0.00000000000E+00 0.  1.
         11    1    1    2    0    0  0.18977149389E+02 -0.31970842585E+02  0.21801071045E+01  0.37242715281E+02  0.00000000000E+00 0. -1.
</event>
<event>
 7    1  0.2788485E-009  0.9165207E+02  0.7561462E-02  0.1298900E+00
         -1   -1    0    0    0  501 -0.00000000000E+00  0.00000000000E+00  0.96467367354E+02  0.96467367354E+02  0.00000000000E+00 0.  1.
          1   -1    0    0  501    0  0.00000000000E+00 -0.00000000000E+00 -0.12566540455E+03  0.12566540455E+03  0.00000000000E+00 0. -1.
         25    2    1    2    0    0  0.78939982064E+01 -0.19048816959E+02 -0.12151956406E+02  0.12735695602E+03  0.12508777545E+03 0.  0.
          5    1    3    3  502    0 -0.12078994578E+02 -0.58524200661E+02 -0.42584439078E+02  0.73497557950E+02  0.41800000000E+01 0.  1.
         -5    1    3    3    0  502  0.19972992784E+02  0.39475383701E+02  0.30432482672E+02  0.53859398072E+02  0.41800000000E+01 0.  1.
        -11    1    1    2    0    0  0.13100747157E+02 -0.26082174267E+02 -0.31500658836E+02  0.42944160228E+02  0.00000000000E+00 0. -1.
         11    1    1    2    0    0 -0.20994745363E+02  0.45130991226E+02  0.14454578041E+02  0.51831655658E+02  0.00000000000E+00 0.  1.
</event>
<event>
 7    1  0.2788485E-009  0.1111988E+03  0.7561462E-02  0.1258366E+00
          1   -1    0    0  501    0  0.00000000000E+00  0.00000000000E+00  0.15615858731E+03  0.15615858731E+03  0.00000000000E+00 0. -1.
         -1   -1    0    0    0  501 -0.00000000000E+00 -0.00000000000E+00 -0.85676365759E+02  0.85676365759E+02  0.00000000000E+00 0.  1.
         25    2    1    2    0    0 -0.34076354068E+02 -0.93353561370E+01  0.63118320873E+02  0.14449017618E+03  0.12508054126E+03 0.  0.
          5    1    3    3  502    0 -0.35160597621E+02  0.52520397521E+02  0.12767453819E+02  0.64615323708E+02  0.41800000000E+01 0.  1.
         -5    1    3    3    0  502  0.10842435532E+01 -0.61855753658E+02  0.50350867053E+02  0.79874852474E+02  0.41800000000E+01 0.  1.
        -11    1    1    2    0    0 -0.19369785488E+02 -0.26410211315E+02  0.33189644442E+01  0.32919650310E+02  0.00000000000E+00 0. -1.
         11    1    1    2    0    0  0.53446139556E+02  0.35745567452E+02  0.40449362375E+01  0.64425126581E+02  0.00000000000E+00 0.  1.
</event>
<event>
 7    1  0.2788485E-009  0.1304695E+03  0.7561462E-02  0.1226761E+00
          3   -1    0    0  501    0  0.00000000000E+00  0.00000000000E+00  0.42407919484E+03  0.42407919484E+03  0.00000000000E+00 0. -1.
         -3   -1    0    0    0  501 -0.00000000000E+00 -0.00000000000E+00 -0.88991149274E+02  0.88991149274E+02  0.00000000000E+00 0.  1.
         25    2    1    2    0    0  0.29023451257E+02  0.11413738176E+03  0.30952454659E+02  0.17457209863E+03  0.12509060930E+03 0.  0.
          5    1    3    3  502    0  0.38465002464E+02  0.90551866437E+02 -0.34418611308E+02  0.10431351846E+03  0.41800000000E+01 0. -1.
         -5    1    3    3    0  502 -0.94415512067E+01  0.23585515319E+02  0.65371065967E+02  0.70258580171E+02  0.41800000000E+01 0. -1.
        -11    1    1    2    0    0  0.31991516763E+01 -0.10236471131E+03  0.15725334585E+03  0.18766295179E+03  0.00000000000E+00 0.  1.
         11    1    1    2    0    0 -0.32222602933E+02 -0.11772670442E+02  0.14688224506E+03  0.15083529369E+03  0.00000000000E+00 0. -1.
</event>
<event>
 7    1  0.2788485E-009  0.1497164E+03  0.7561462E-02  0.1200822E+00
          1   -1    0    0  501    0  0.00000000000E+00  0.00000000000E+00  0.25289180842E+03  0.25289180842E+03  0.00000000000E+00 0. -1.
         -1   -1    0    0    0  501 -0.00000000000E+00 -0.00000000000E+00 -0.12373490074E+03  0.12373490074E+03  0.00000000000E+00 0.  1.
         25    2    1    2    0    0 -0.11711313072E+03 -0.77277937565E+02  0.85641483954E+02  0.20656677364E+03  0.12509197887E+03 0.  0.
          5    1    3    3  502    0 -0.55349892409E+02 -0.34579870211E+02 -0.27310101411E+02  0.70870953518E+02  0.41800000000E+01 0. -1.
         -5    1    3    3    0  502 -0.61763238307E+02 -0.42698067354E+02  0.11295158537E+03  0.13569582012E+03  0.41800000000E+01 0. -1.
        -11    1    1    2    0    0  0.52162974397E+02 -0.67846822051E+01 -0.58356685377E+01  0.52925068142E+02  0.00000000000E+00 0.  1.
         11    1    1    2    0    0  0.64950156319E+02  0.84062619770E+02  0.49351092257E+02  0.11713486738E+03  0.00000000000E+00 0. -1.
</event>
<event>
 7    1  0.2788485E-009  0.1044397E+03  0.7561462E-02  0.1271228E+00
          1   -1    0    0  501    0  0.00000000000E+00  0.00000000000E+00  0.56965271170E+02  0.56965271170E+02  0.00000000000E+00 0. -1.
         -1   -1    0    0    0  501 -0.00000000000E+00 -0.00000000000E+00 -0.31568840552E+03  0.31568840552E+03  0.00000000000E+00 0.  1.
         25    2    1    2    0    0  0.31449025372E+02  0.29556267022E+02 -0.23378229756E+03  0.26863457186E+03  0.12509099260E+03 0.  0.
          5    1    3    3  502    0 -0.89687022904E+01 -0.35386508773E+02 -0.20641621561E+02  0.42144887764E+02  0.41800000000E+01 0. -1.
         -5    1    3    3    0  502  0.40417727662E+02  0.64942775796E+02 -0.21314067599E+03  0.22648968409E+03  0.41800000000E+01 0. -1.
        -11    1    1    2    0    0 -0.17795177193E+02 -0.59775346195E+02 -0.32026028528E+02  0.70110105173E+02  0.00000000000E+00 0.  1.
         11    1    1    2    0    0 -0.13653848179E+02  0.30219079173E+02  0.70851917316E+01  0.33908999661E+02  0.00000000000E+00 0. -1.
</event>
<event>
 7    1  0.2788485E-009  0.9374462E+02  0.7561462E-02  0.1294029E+00
          1   -1    0    0  501    0  0.00000000000E+00  0.00000000000E+00  0.29136535432E+02  0.29136535432E+02  0.00000000000E+00 0. -1.
         -1   -1    0    0    0  501 -0.00000000000E+00 -0.00000000000E+00 -0.62782010281E+03  0.62782010281E+03  0.00000000000E+00 0.  1.
         25    2    1    2    0    0  0.79748801380E+01 -0.68999200210E+02 -0.42169561790E+03  0.44530843786E+03  0.12509165572E+03 0.  0.
          5    1    3    3  502    0  0.22694151443E+02 -0.62083959929E+02 -0.82959786308E+02  0.10615668201E+03  0.41800000000E+01 0.  1.
         -5    1    3    3    0  502 -0.14719271305E+02 -0.69152402812E+01 -0.33873583159E+03  0.33915175585E+03  0.41800000000E+01 0.  1.
        -11    1    1    2    0    0 -0.41637539990E+02  0.52407844543E+02 -0.15328093880E+03  0.16725822284E+03  0.00000000000E+00 0.  1.
         11    1    1    2    0    0  0.33662659852E+02  0.16591355667E+02 -0.23707010675E+02  0.44389977543E+02  0.00000000000E+00 0. -1.
</event>
<event>
 7    1  0.2788485E-009  0.1083882E+03  0.7561462E-02  0.1263584E+00
          1   -1    0    0  501    0  0.00000000000E+00  0.00000000000E+00  0.50119988825E+03  0.50119988825E+03  0.00000000000E+00 0. -1.
         -1   -1    0    0    0  501 -0.00000000000E+00 -0.00000000000E+00 -0.28413608691E+02  0.28413608691E+02  0.00000000000E+00 0.  1.
         25    2    1    2    0    0 -0.14116397380E+02  0.63859962809E+02  0.27284072783E+03  0.30719275353E+03  0.12509179643E+03 0.  0.
          5    1    3    3  502    0 -0.56959678771E+02  0.69476932019E+02  0.22645701131E+03  0.24366308596E+03  0.41800000000E+01 0. -1.
         -5    1    3    3    0  502  0.42843281391E+02 -0.56169692102E+01  0.46383716522E+02  0.63529667572E+02  0.41800000000E+01 0. -1.
        -11    1    1    2    0    0  0.32744745936E+02 -0.51643209664E+02  0.18680078054E+03  0.19655475345E+03  0.00000000000E+00 0. -1.
         11    1    1    2    0    0 -0.18628348556E+02 -0.12216753145E+02  0.13144771189E+02  0.25865989966E+02  0.00000000000E+00 0.  1.
</event>
<event>
 7    1  0.2788485E-009  0.1030343E+03  0.7561462E-02  0.1274042E+00
         -1   -1    0    0    0  501 -0.00000000000E+00  0.00000000000E+00  0.12597604743E+03  0.12597604743E+03  0.00000000000E+00 0.  1.
          1   -1    0    0  501    0  0.00000000000E+00 -0.00000000000E+00 -0.12418133831E+03  0.12418133831E+03  0.00000000000E+00 0. -1.
         25    2    1    2    0    0  0.21476354039E+02  0.39283647363E+01 -0.55184277908E+02  0.13845555784E+03  0.12509185080E+03 0.  0.
          5    1    3    3  502    0  0.87927939352E+01 -0.59666598674E+02 -0.15860825976E+02  0.62501635364E+02  0.41800000000E+01 0.  1.
         -5    1    3    3    0  502  0.12683560104E+02  0.63594963410E+02 -0.39323451932E+02  0.75953922479E+02  0.41800000000E+01 0.  1.
        -11    1    1    2    0    0 -0.12308175985E+02 -0.40810592586E+02  0.59974322970E+02  0.73579311488E+02  0.00000000000E+00 0.  1.
         11    1    1    2    0    0 -0.91681780537E+01  0.36882227850E+02 -0.29953359436E+01  0.38122516410E+02  0.00000000000E+00 0. -1.
</event>
<event>
 7    1  0.2788485E-009  0.1980116E+03  0.7561462E-02  0.1151428E+00
         -2   -1    0    0    0  501 -0.00000000000E+00  0.00000000000E+00  0.28315057646E+03  0.28315057646E+03  0.00000000000E+00 0.  1.
          2   -1    0    0  501    0  0.00000000000E+00 -0.00000000000E+00 -0.17657607561E+03  0.17657607561E+03  0.00000000000E+00 0. -1.
         25    2    1    2    0    0 -0.15555572058E+02  0.18329666897E+03 -0.12031430908E+02  0.22277592720E+03  0.12507883007E+03 0.  0.
          5    1    3    3  502    0 -0.34923594270E+02  0.61761801181E+02 -0.57590770404E+02  0.91478668320E+02  0.41800000000E+01 0.  1.
         -5    1    3    3    0  502  0.19368022212E+02  0.12153486779E+03  0.45559339496E+02  0.13129725888E+03  0.41800000000E+01 0.  1.
        -11    1    1    2    0    0 -0.13775406742E+02 -0.16830650487E+03  0.11386568815E+03  0.20367188404E+03  0.00000000000E+00 0. -1.
         11    1    1    2    0    0  0.29330978799E+02 -0.14990164105E+02  0.47402436105E+01  0.33278840826E+02  0.00000000000E+00 0.  1.
</event>
<event>
 7    1  0.2788485E-009  0.1196013E+03  0.7561462E-02  0.1243756E+00
         -4   -1    0    0    0  501 -0.00000000000E+00  0.00000000000E+00  0.96056578707E+02  0.96056578707E+02  0.00000000000E+00 0.  1.
          4   -1    0    0  501    0  0.00000000000E+00 -0.00000000000E+00 -0.17468206776E+03  0.17468206776E+03  0.00000000000E+00 0. -1.
         25    2    1    2    0    0 -0.12237236796E+02  0.60532822267E+02 -0.30331623058E+01  0.13953688680E+03  0.12508944867E+03 0.  0.
          5    1    3    3  502    0 -0.17561014901E+01  0.96728173017E+02 -0.18507434884E+02  0.98587123367E+02  0.41800000000E+01 0.  1.
         -5    1    3    3    0  502 -0.10481135306E+02 -0.36195350750E+02  0.15474272578E+02  0.40949763431E+02  0.41800000000E+01 0.  1.
        -11    1    1    2    0    0 -0.35197525314E+02 -0.38463173404E+02 -0.52579686783E+02  0.74046640428E+02  0.00000000000E+00 0.  1.
         11    1    1    2    0    0  0.47434762110E+02 -0.22069648863E+02 -0.23012639963E+02  0.57155119241E+02  0.00000000000E+00 0. -1.
</event>
<event>
 7    1  0.2788485E-009  0.1122382E+03  0.7561462E-02  0.1256480E+00
          2   -1    0    0  501    0  0.00000000000E+00  0.00000000000E+00  0.18243164180E+04  0.18243164180E+04  0.00000000000E+00 0. -1.
         -2   -1    0    0    0  501 -0.00000000000E+00 -0.00000000000E+00 -0.87485452611E+01  0.87485452611E+01  0.00000000000E+00 0.  1.
         25    2    1    2    0    0  0.48094100849E+01  0.43406165874E+02  0.13919822477E+04  0.13982737456E+04  0.12509062371E+03 0.  0.
          5    1    3    3  502    0  0.25587221989E+02 -0.36831405308E+02  0.33095775548E+03  0.33400863261E+03  0.41800000000E+01 0.  1.
         -5    1    3    3    0  502 -0.20777811904E+02  0.80237571182E+02  0.10610244922E+04  0.10642651130E+04  0.41800000000E+01 0.  1.
        -11    1    1    2    0    0  0.14158664413E+02  0.23206536994E+02  0.15808285539E+03  0.16040324281E+03  0.00000000000E+00 0.  1.
         11    1    1    2    0    0 -0.18968074498E+02 -0.66612702868E+02  0.26550276967E+03  0.27438797484E+03  0.00000000000E+00 0. -1.
</event>
<event>
 7    1  0.2788485E-009  0.3904453E+02  0.7561462E-02  0.1515363E+00
         -3   -1    0    0    0  501 -0.00000000000E+00  0.00000000000E+00  0.99299752245E+02  0.99299752245E+02  0.00000000000E+00 0.  1.
          3   -1    0    0  501    0  0.00000000000E+00 -0.00000000000E+00 -0.11873552140E+03  0.11873552140E+03  0.00000000000E+00 0. -1.
         25    2    1    2    0    0  0.11467269811E+02 -0.72591669564E+01 -0.16164837262E+01  0.12583518419E+03  0.12509071420E+03 0.  0.
          5    1    3    3  502    0  0.57647775542E+01  0.21352838824E+02 -0.57999342977E+02  0.62213925868E+02  0.41800000000E+01 0. -1.
         -5    1    3    3    0  502  0.57024922572E+01 -0.28612005780E+02  0.56382859251E+02  0.63621258319E+02  0.41800000000E+01 0. -1.
        -11    1    1    2    0    0 -0.14245611888E+02 -0.37682004976E+01  0.35102659929E+02  0.38070113306E+02  0.00000000000E+00 0.  1.
         11    1    1    2    0    0  0.27783420765E+01  0.11027367454E+02 -0.52921945359E+02  0.54129976153E+02  0.00000000000E+00 0. -1.
</event>
<event>
 7    1  0.2788485E-009  0.7844500E+02  0.7561462E-02  0.1333523E+00
          2   -1    0    0  501    0  0.00000000000E+00  0.00000000000E+00  0.11615723741E+03  0.11615723741E+03  0.00000000000E+00 0. -1.
         -2   -1    0    0    0  501 -0.00000000000E+00 -0.00000000000E+00 -0.12087677260E+03  0.12087677260E+03  0.00000000000E+00 0.  1.
         25    2    1    2    0    0  0.47858807164E+02 -0.11491711616E+02 -0.43797541575E+01  0.13449473571E+03  0.12508847600E+03 0.  0.
          5    1    3    3  502    0 -0.14183620613E+02 -0.35129111675E+02  0.39430586534E+02  0.54840433397E+02  0.41800000000E+01 0. -1.
         -5    1    3    3    0  502  0.62042427777E+02  0.23637400059E+02 -0.43810340692E+02  0.79654302317E+02  0.41800000000E+01 0. -1.
        -11    1    1    2    0    0 -0.11221299234E+02 -0.47375478261E+01  0.42304060189E+02  0.44022669437E+02  0.00000000000E+00 0. -1.
         11    1    1    2    0    0 -0.36637507930E+02  0.16229259442E+02 -0.42643841224E+02  0.58516604854E+02  0.00000000000E+00 0.  1.
</event>
<event>
 7    1  0.2788485E-009  0.1303827E+03  0.7561462E-02  0.1226889E+00
         -2   -1    0    0    0  501 -0.00000000000E+00  0.00000000000E+00  0.36185670992E+02  0.36185670992E+02  0.00000000000E+00 0.  1.
          2   -1    0    0  501    0  0.00000000000E+00 -0.00000000000E+00 -0.64754814057E+03  0.64754814057E+03  0.00000000000E+00 0. -1.
         25    2    1    2    0    0 -0.10329194753E+03  0.11941672889E+02 -0.26335301729E+03  0.30953906086E+03  0.12509112082E+03 0.  0.
          5    1    3    3  502    0 -0.92060030636E+02 -0.25012673589E+02 -0.87733442895E+02  0.12967386970E+03  0.41800000000E+01 0.  1.
         -5    1    3    3    0  502 -0.11231916892E+02  0.36954346479E+02 -0.17561957440E+03  0.17986519116E+03  0.41800000000E+01 0.  1.
        -11    1    1    2    0    0  0.71953144577E+01  0.23058582188E+02 -0.22551598436E+02  0.33046109524E+02  0.00000000000E+00 0. -1.
         11    1    1    2    0    0  0.96096633071E+02 -0.35000255077E+02 -0.32545785385E+03  0.34114864117E+03  0.00000000000E+00 0.  1.
</event>
<event>
 7    1  0.2788485E-009  0.1109886E+03  0.7561462E-02  0.1258750E+00
         -1   -1    0    0    0  501 -0.00000000000E+00  0.00000000000E+00  0.47670251848E+02  0.47670251848E+02  0.00000000000E+00 0.  1.
          1   -1    0    0  501    0  0.00000000000E+00 -0.00000000000E+00 -0.38130500385E+03  0.38130500385E+03  0.00000000000E+00 0. -1.
         25    2    1    2    0    0  0.21441349515E+02  0.77269402116E+02 -0.17680568429E+03  0.23095211645E+03  0.12509331766E+03 0.  0.
          5    1    3    3  502    0 -0.34180807245E+02  0.17348954192E+02 -0.13223285853E+03  0.13774002711E+03  0.41800000000E+01 0.  1.
         -5    1    3    3    0  502  0.55622156760E+02  0.59920447924E+02 -0.44572825767E+02  0.93212089339E+02  0.41800000000E+01 0.  1.
        -11    1    1    2    0    0 -0.33239937280E+02 -0.12175692389E+02 -0.96985812704E+01  0.36704269427E+02  0.00000000000E+00 0.  1.
         11    1    1    2    0    0  0.11798587764E+02 -0.65093709727E+02 -0.14713048643E+03  0.16131886981E+03  0.00000000000E+00 0. -1.
</event>
<event>
 7    1  0.2788485E-009  0.9409811E+02  0.7561462E-02  0.1293220E+00
         -2   -1    0    0    0  501 -0.00000000000E+00  0.00000000000E+00  0.22764248967E+02  0.22764248967E+02  0.00000000000E+00 0.  1.
          2   -1    0    0  501    0  0.00000000000E+00 -0.00000000000E+00 -0.72663581628E+03  0.72663581628E+03  0.00000000000E+00 0. -1.
         25    2    1    2    0    0  0.38365743443E+02 -0.59608230519E+01 -0.56075000327E+03  0.57584320112E+03  0.12508942574E+03 0.  0.
          5    1    3    3  502    0 -0.28778382063E+02  0.16183151378E+02 -0.38387895716E+03  0.38531884954E+03  0.41800000000E+01 0. -1.
         -5    1    3    3    0  502  0.67144125506E+02 -0.22143974430E+02 -0.17687104611E+03  0.19052435158E+03  0.41800000000E+01 0. -1.
        -11    1    1    2    0    0  0.74381142908E+01  0.31007130431E+02 -0.10268895238E+03  0.10752575795E+03  0.00000000000E+00 0. -1.
         11    1    1    2    0    0 -0.45803857734E+02 -0.25046307379E+02 -0.40432611667E+02  0.66031106177E+02  0.00000000000E+00 0.  1.
</event>
<event>
 7    1  0.2788485E-009  0.1071490E+03  0.7561462E-02  0.1265942E+00
         -1   -1    0    0    0  501 -0.00000000000E+00  0.00000000000E+00  0.10117945457E+03  0.10117945457E+03  0.00000000000E+00 0.  1.
          1   -1    0    0  501    0  0.00000000000E+00 -0.00000000000E+00 -0.29248836452E+03  0.29248836452E+03  0.00000000000E+00 0. -1.
         25    2    1    2    0    0 -0.29398708330E+02  0.40108669568E+02 -0.24357080403E+03  0.27829307940E+03  0.12508921632E+03 0.  0.
          5    1    3    3  502    0 -0.31944125467E+02 -0.28291597143E+02 -0.17913494526E+03  0.18419457819E+03  0.41800000000E+01 0. -1.
         -5    1    3    3    0  502  0.25454171367E+01  0.68400266711E+02 -0.64435858768E+02  0.94098501208E+02  0.41800000000E+01 0. -1.
        -11    1    1    2    0    0  0.58275791328E+02 -0.44911155576E+02  0.36591636467E+02  0.82170722337E+02  0.00000000000E+00 0.  1.
         11    1    1    2    0    0 -0.28877082998E+02  0.48024860082E+01  0.15670257616E+02  0.33204017349E+02  0.00000000000E+00 0. -1.
</event>
<event>
 7    1  0.2788485E-009  0.8281898E+02  0.7561462E-02  0.1321237E+00
         -1   -1    0    0    0  501 -0.00000000000E+00  0.00000000000E+00  0.18867470717E+02  0.18867470717E+02  0.00000000000E+00 0.  1.
          1   -1    0    0  501    0  0.00000000000E+00 -0.00000000000E+00 -0.11386582226E+04  0.11386582226E+04  0.00000000000E+00 0. -1.
         25    2    1    2    0    0  0.44791437467E+02 -0.62851769086E+02 -0.85600319612E+03  0.86853047440E+03  0.12508835056E+03 0.  0.
          5    1    3    3  502    0  0.17475075494E+02 -0.13397103377E+02 -0.73038293211E+03  0.73072673453E+03  0.41800000000E+01 0. -1.
         -5    1    3    3    0  502  0.27316361972E+02 -0.49454665709E+02 -0.12562026401E+03  0.13780373987E+03  0.41800000000E+01 0. -1.
        -11    1    1    2    0    0 -0.18913196583E+02  0.56980679955E+02 -0.25353669240E+03  0.26054819379E+03  0.00000000000E+00 0. -1.
         11    1    1    2    0    0 -0.25878240884E+02  0.58710891315E+01 -0.10250863359E+02  0.28447025125E+02  0.00000000000E+00 0.  1.
</event>
<event>
 7    1  0.2788485E-009  0.1621123E+03  0.7561462E-02  0.1186332E+00
          1   -1    0    0  501    0  0.00000000000E+00  0.00000000000E+00  0.39337695174E+03  0.39337695174E+03  0.00000000000E+00 0. -1.
         -1   -1    0    0    0  501 -0.00000000000E+00 -0.00000000000E+00 -0.98948154607E+02  0.98948154607E+02  0.00000000000E+00 0.  1.
         25    2    1    2    0    0 -0.13832440969E+03  0.37349397176E+00  0.45979223965E+02  0.19208169864E+03  0.12509000001E+03 0.  0.
          5    1    3    3  502    0  0.14180803936E+02  0.10499171518E+02 -0.18716303960E+02  0.26059551737E+02  0.41800000000E+01 0. -1.
         -5    1    3    3    0  502 -0.15250521362E+03 -0.10125677546E+02  0.64695527925E+02  0.16602214690E+03  0.41800000000E+01 0. -1.
        -11    1    1    2    0    0  0.27674726542E+02 -0.27767197353E+02  0.17990688808E+02  0.43134355470E+02  0.00000000000E+00 0.  1.
         11    1    1    2    0    0  0.11064968314E+03  0.27393703381E+02  0.23045888436E+03  0.25710905225E+03  0.00000000000E+00 0. -1.
</event>
<event>
 7    1  0.6677155E-009  0.1230112E+03  0.7561462E-02  0.1238211E+00
          1   -1    0    0  501    0  0.00000000000E+00  0.00000000000E+00  0.83072745979E+03  0.83072745979E+03  0.00000000000E+00 0. -1.
         -1   -1    0    0    0  501 -0.00000000000E+00 -0.00000000000E+00 -0.37038605896E+02  0.37038605896E+02  0.00000000000E+00 0.  1.
         25    2    1    2    0    0  0.11597524608E+03  0.30826316197E+02  0.58638757371E+03  0.61147223350E+03  0.12508951303E+03 0.  0.
          5    1    3    3  502    0  0.35414637184E+02  0.26092260003E+02  0.41481052001E+02  0.60606539532E+02  0.41800000000E+01 0.  1.
         -5    1    3    3    0  502  0.80560608896E+02  0.47340561939E+01  0.54490652171E+03  0.55086569397E+03  0.41800000000E+01 0.  1.
        -11    1    1    2    0    0 -0.49300781010E+02 -0.51062321571E+01  0.16710671292E+03  0.17430230669E+03  0.00000000000E+00 0. -1.
         11    1    1    2    0    0 -0.66674465070E+02 -0.25720084040E+02  0.40194567273E+02  0.81991525499E+02  0.00000000000E+00 0.  1.
</event>
<event>
 7    1  0.2788485E-009  0.8800271E+02  0.7561462E-02  0.1307762E+00
         -1   -1    0    0    0  501 -0.00000000000E+00  0.00000000000E+00  0.60008526361E+03  0.60008526361E+03  0.00000000000E+00 0.  1.
          1   -1    0    0  501    0  0.00000000000E+00 -0.00000000000E+00 -0.21941452897E+02  0.21941452897E+02  0.00000000000E+00 0. -1.
         25    2    1    2    0    0  0.25490508578E+02  0.11537447436E+02  0.31503802836E+03  0.34011450211E+03  0.12508411772E+03 0.  0.
          5    1    3    3  502    0  0.24442098809E+02 -0.26819934308E+02  0.29379375538E+03  0.29605568424E+03  0.41800000000E+01 0. -1.
         -5    1    3    3    0  502  0.10484097685E+01  0.38357381744E+02  0.21244272987E+02  0.44058817869E+02  0.41800000000E+01 0. -1.
        -11    1    1    2    0    0 -0.28683002043E+02  0.40012556035E+02  0.14031993512E+03  0.14870576128E+03  0.00000000000E+00 0. -1.
         11    1    1    2    0    0  0.31924934649E+01 -0.51550003471E+02  0.12278584723E+03  0.13320645312E+03  0.00000000000E+00 0.  1.
</event>
<event>
 7    1  0.2788485E-009  0.1328401E+03  0.7561462E-02  0.1223301E+00
          2   -1    0    0  501    0  0.00000000000E+00  0.00000000000E+00  0.64770935648E+03  0.64770935648E+03  0.00000000000E+00 0. -1.
         -2   -1    0    0    0  501 -0.00000000000E+00 -0.00000000000E+00 -0.43059714725E+02  0.43059714725E+02  0.00000000000E+00 0.  1.
         25    2    1    2    0    0 -0.65149084743E+02  0.10688954517E+03  0.32272783777E+03  0.36806309903E+03  0.12508960584E+03 0.  0.
          5    1    3    3  502    0 -0.38776824197E+02  0.52700656750E+02  0.29390534266E+03  0.30112924827E+03  0.41800000000E+01 0. -1.
         -5    1    3    3    0  502 -0.26372260545E+02  0.54188888415E+02  0.28822495106E+02  0.66933850764E+02  0.41800000000E+01 0. -1.
        -11    1    1    2    0    0  0.49166616175E+02 -0.22949126890E+02  0.18825892939E+03  0.19592203313E+03  0.00000000000E+00 0. -1.
         11    1    1    2    0    0  0.15982468567E+02 -0.83940418275E+02  0.93662874600E+02  0.12678393905E+03  0.00000000000E+00 0.  1.
</event>
<event>
 7    1  0.2788485E-009  0.1126261E+03  0.7561462E-02  0.1255783E+00
         -1   -1    0    0    0  501 -0.00000000000E+00  0.00000000000E+00  0.60427267530E+03  0.60427267530E+03  0.00000000000E+00 0.  1.
          1   -1    0    0  501    0  0.00000000000E+00 -0.00000000000E+00 -0.26818501446E+02  0.26818501446E+02  0.00000000000E+00 0. -1.
         25    2    1    2    0    0  0.31669766082E+02  0.40353234473E+02  0.41635769178E+03  0.43776048706E+03  0.12509659832E+03 0.  0.
          5    1    3    3  502    0 -0.42937652038E+02  0.30454917271E+02  0.10659283630E+03  0.11895650087E+03  0.41800000000E+01 0. -1.
         -5    1    3    3    0  502  0.74607418119E+02  0.98983172023E+01  0.30976485548E+03  0.31880398619E+03  0.41800000000E+01 0. -1.
        -11    1    1    2    0    0 -0.50553690807E+02 -0.53846155688E+02  0.15084932018E+03  0.16796011889E+03  0.00000000000E+00 0.  1.
         11    1    1    2    0    0  0.18883924726E+02  0.13492921215E+02  0.10247161895E+02  0.25370570803E+02  0.00000000000E+00 0. -1.
</event>
<event>
 7    1  0.2788485E-009  0.1147285E+03  0.7561462E-02  0.1252056E+00
         -1   -1    0    0    0  501 -0.00000000000E+00  0.00000000000E+00  0.13392276371E+03  0.13392276371E+03  0.00000000000E+00 0.  1.
          1   -1    0    0  501    0  0.00000000000E+00 -0.00000000000E+00 -0.13068729469E+03  0.13068729469E+03  0.00000000000E+00 0. -1.
         25    2    1    2    0    0 -0.61295148443E+02 -0.47651413280E+02  0.50864582863E+01  0.14731516736E+03  0.12509250204E+03 0.  0.
          5    1    3    3  502    0 -0.11841981135E+02 -0.81837780858E+02  0.20117195445E+02  0.85204629249E+02  0.41800000000E+01 0. -1.
         -5    1    3    3    0  502 -0.49453167308E+02  0.34186367578E+02 -0.15030737158E+02  0.62110538111E+02  0.41800000000E+01 0. -1.
        -11    1    1    2    0    0  0.21219744725E+02 -0.34046791854E+01 -0.37516093369E+02  0.43235710567E+02  0.00000000000E+00 0. -1.
         11    1    1    2    0    0  0.40075403717E+02  0.51056092465E+02  0.35665104100E+02  0.74059180466E+02  0.00000000000E+00 0.  1.
</event>
<event>
 7    1  0.2788485E-009  0.8265706E+02  0.7561462E-02  0.1321676E+00
         -2   -1    0    0    0  501 -0.00000000000E+00  0.00000000000E+00  0.31506290755E+02  0.31506290755E+02  0.00000000000E+00 0. -1.
          2   -1    0    0  501    0  0.00000000000E+00 -0.00000000000E+00 -0.48695577701E+03  0.48695577701E+03  0.00000000000E+00 0.  1.
         25    2    1    2    0    0 -0.14942130646E+02 -0.18003435247E+02 -0.36008381260E+03  0.38191467563E+03  0.12510426219E+03 0.  0.
          5    1    3    3  502    0 -0.32898048068E+02  0.15951136894E+02 -0.33228533754E+03  0.33431682321E+03  0.41800000000E+01 0. -1.
         -5    1    3    3    0  502  0.17955917423E+02 -0.33954572141E+02 -0.27798475059E+02  0.47597852424E+02  0.41800000000E+01 0. -1.
        -11    1    1    2    0    0  0.37640532116E+02  0.42303987802E+02 -0.84201278437E+02  0.10147064764E+03  0.00000000000E+00 0.  1.
         11    1    1    2    0    0 -0.22698401471E+02 -0.24300552555E+02 -0.11164395221E+02  0.35076744496E+02  0.00000000000E+00 0. -1.
</event>
<event>
 7    1  0.2788485E-009  0.1187159E+03  0.7561462E-02  0.1245231E+00
          1   -1    0    0  501    0  0.00000000000E+00  0.00000000000E+00  0.72640232529E+03  0.72640232529E+03  0.00000000000E+00 0.  1.
         -1   -1    0    0    0  501 -0.00000000000E+00 -0.00000000000E+00 -0.22381202784E+02  0.22381202784E+02  0.00000000000E+00 0. -1.
         25    2    1    2    0    0  0.66466468063E+02  0.16280327804E+02  0.40260148947E+03  0.42710478960E+03  0.12509077313E+03 0.  0.
          5    1    3    3  502    0  0.75482357384E+02 -0.36155517743E+02  0.18566903199E+03  0.20370387719E+03  0.41800000000E+01 0. -1.
         -5    1    3    3    0  502 -0.90158893206E+01  0.52435845547E+02  0.21693245748E+03  0.22340091241E+03  0.41800000000E+01 0. -1.
        -11    1    1    2    0    0  0.44930880222E+01 -0.27986484598E+02  0.16545093734E+03  0.16786138277E+03  0.00000000000E+00 0.  1.
         11    1    1    2    0    0 -0.70959556086E+02  0.11706156794E+02  0.13596869569E+03  0.15381735570E+03  0.00000000000E+00 0. -1.
</event>
<event>
 7    1  0.2788485E-009  0.8636868E+02  0.7561462E-02  0.1311892E+00
         -1   -1    0    0    0  501 -0.00000000000E+00  0.00000000000E+00  0.21086697262E+03  0.21086697262E+03  0.00000000000E+00 0.  1.
          1   -1    0    0  501    0  0.00000000000E+00 -0.00000000000E+00 -0.63313792747E+02  0.63313792747E+02  0.00000000000E+00 0. -1.
         25    2    1    2    0    0  0.17336922316E+02  0.23663146130E+02  0.56342236613E+02  0.14028945367E+03  0.12508465063E+03 0.  0.
          5    1    3    3  502    0  0.38914412062E+01 -0.39175752655E+02  0.64189032915E+02  0.75416094153E+02  0.41800000000E+01 0.  1.
         -5    1    3    3    0  502  0.13445481110E+02  0.62838898785E+02 -0.78467963016E+01  0.64873359517E+02  0.41800000000E+01 0.  1.
        -11    1    1    2    0    0 -0.29570466092E+02  0.11340616367E+02  0.91483457847E+02  0.96810356389E+02  0.00000000000E+00 0.  1.
         11    1    1    2    0    0  0.12233543776E+02 -0.35003762496E+02 -0.27251458849E+00  0.37080955306E+02  0.00000000000E+00 0. -1.
</event>
<event>
 7    1  0.2788485E-009  0.1337177E+03  0.7561462E-02  0.1222041E+00
          1   -1    0    0  501    0  0.00000000000E+00  0.00000000000E+00  0.13281722592E+03  0.13281722592E+03  0.00000000000E+00 0. -1.
         -1   -1    0    0    0  501 -0.00000000000E+00 -0.00000000000E+00 -0.32134179193E+03  0.32134179193E+03  0.00000000000E+00 0.  1.
         25    2    1    2    0    0 -0.91671333031E+02  0.12043007211E+02 -0.26238545162E+03  0.30502770291E+03  0.12508839674E+03 0.  0.
          5    1    3    3  502    0 -0.11487594426E+03  0.28420360762E+02 -0.24320990859E+03  0.27050458685E+03  0.41800000000E+01 0. -1.
         -5    1    3    3    0  502  0.23204611226E+02 -0.16377353551E+02 -0.19175543034E+02  0.34523116055E+02  0.41800000000E+01 0. -1.
        -11    1    1    2    0    0  0.84552935497E+02 -0.38507848360E+02  0.78132460697E+02  0.12139495336E+03  0.00000000000E+00 0. -1.
         11    1    1    2    0    0  0.71183975339E+01  0.26464841149E+02 -0.42715750871E+01  0.27736361590E+02  0.00000000000E+00 0.  1.
</event>
<event>
 7    1  0.2788485E-009  0.9762091E+02  0.7561462E-02  0.1285380E+00
         -1   -1    0    0    0  501 -0.00000000000E+00  0.00000000000E+00  0.25890131172E+03  0.25890131172E+03  0.00000000000E+00 0.  1.
          1   -1    0    0  501    0  0.00000000000E+00 -0.00000000000E+00 -0.54417728893E+02  0.54417728893E+02  0.00000000000E+00 0. -1.
         25    2    1    2    0    0  0.46647958599E+02  0.18253904762E+02  0.11290057358E+03  0.17579766108E+03  0.12509612722E+03 0.  0.
          5    1    3    3  502    0 -0.15740687005E+02  0.30571604499E+02 -0.11103746225E+02  0.36375236209E+02  0.41800000000E+01 0.  1.
         -5    1    3    3    0  502  0.62388645604E+02 -0.12317699737E+02  0.12400431980E+03  0.13942242487E+03  0.41800000000E+01 0.  1.
        -11    1    1    2    0    0  0.22948900531E+02  0.50119463343E+01  0.49855927601E+01  0.24013075122E+02  0.00000000000E+00 0. -1.
         11    1    1    2    0    0 -0.69596859130E+02 -0.23265851097E+02  0.86597416493E+02  0.11350830442E+03  0.00000000000E+00 0.  1.
</event>
<event>
 7    1  0.2788485E-009  0.8331250E+02  0.7561462E-02  0.1319905E+00
         -1   -1    0    0    0  501 -0.00000000000E+00  0.00000000000E+00  0.12357149132E+03  0.12357149132E+03  0.00000000000E+00 0.  1.
          1   -1    0    0  501    0  0.00000000000E+00 -0.00000000000E+00 -0.15666382984E+03  0.15666382984E+03  0.00000000000E+00 0. -1.
         25    2    1    2    0    0 -0.37915705804E+01 -0.10182162197E+02  0.70686423289E+02  0.14408348668E+03  0.12508168636E+03 0.  0.
          5    1    3    3  502    0  0.22170199949E+02  0.48287181210E+02  0.70669967422E+01  0.53764156070E+02  0.41800000000E+01 0.  1.
         -5    1    3    3    0  502 -0.25961770529E+02 -0.58469343407E+02  0.63619426547E+02  0.90319330608E+02  0.41800000000E+01 0.  1.
        -11    1    1    2    0    0  0.22748094315E+02  0.17701048954E+02  0.15516625426E+01  0.28865387330E+02  0.00000000000E+00 0.  1.
         11    1    1    2    0    0 -0.18956523735E+02 -0.75188867569E+01 -0.10533042435E+03  0.10728644716E+03  0.00000000000E+00 0. -1.
</event>
<event>
 7    1  0.2788485E-009  0.1333432E+03  0.7561462E-02  0.1222578E+00
          1   -1    0    0  501    0  0.00000000000E+00  0.00000000000E+00  0.19467299571E+03  0.19467299571E+03  0.00000000000E+00 0. -1.
         -1   -1    0    0    0  501 -0.00000000000E+00 -0.00000000000E+00 -0.21623258003E+03  0.21623258003E+03  0.00000000000E+00 0.  1.
         25    2    1    2    0    0 -0.90643123774E+02  0.74273782068E+02 -0.13841205483E+03  0.22032154701E+03  0.12510362330E+03 0.  0.
          5    1    3    3  502    0 -0.45978392974E+02  0.90506074212E+02 -0.13953007685E+03  0.17260207657E+03  0.41800000000E+01 0.  1.
         -5    1    3    3    0  502 -0.44664730800E+02 -0.16232292143E+02  0.11180220243E+01  0.47719470438E+02  0.41800000000E+01 0.  1.
        -11    1    1    2    0    0  0.19128129281E+02 -0.19330092660E+02 -0.14833562299E+02  0.30976965353E+02  0.00000000000E+00 0.  1.
         11    1    1    2    0    0  0.71514994494E+02 -0.54943689409E+02  0.13168603281E+03  0.15960706338E+03  0.00000000000E+00 0. -1.
</event>
<event>
 7    1  0.2788485E-009  0.1462509E+03  0.7561462E-02  0.1205157E+00
          2   -1    0    0  501    0  0.00000000000E+00  0.00000000000E+00  0.44807464054E+03  0.44807464054E+03  0.00000000000E+00 0. -1.
         -2   -1    0    0    0  501 -0.00000000000E+00 -0.00000000000E+00 -0.55895780318E+02  0.55895780318E+02  0.00000000000E+00 0.  1.
         25    2    1    2    0    0 -0.12250266599E+02  0.11419998338E+03  0.20449220521E+03  0.26581054181E+03  0.12508587813E+03 0.  0.
          5    1    3    3  502    0 -0.58945212366E+02  0.25320829981E+02  0.49691040536E+02  0.81254873093E+02  0.41800000000E+01 0. -1.
         -5    1    3    3    0  502  0.46694945767E+02  0.88879153403E+02  0.15480116468E+03  0.18455566872E+03  0.41800000000E+01 0. -1.
        -11    1    1    2    0    0 -0.21441760970E+02 -0.61948117591E+02  0.15417085316E+03  0.16752901346E+03  0.00000000000E+00 0. -1.
         11    1    1    2    0    0  0.33692027569E+02 -0.52251865793E+02  0.33515801850E+02  0.70630865592E+02  0.00000000000E+00 0.  1.
</event>
<event>
 7    1  0.2788485E-009  0.1775915E+03  0.7561462E-02  0.1170155E+00
         -1   -1    0    0    0  501 -0.00000000000E+00  0.00000000000E+00  0.35252960485E+02  0.35252960485E+02  0.00000000000E+00 0.  1.
          1   -1    0    0  501    0  0.00000000000E+00 -0.00000000000E+00 -0.96108195028E+03  0.96108195028E+03  0.00000000000E+00 0. -1.
         25    2    1    2    0    0 -0.97017071305E+02 -0.10553503830E+03 -0.57998545164E+03  0.61039586517E+03  0.12510008660E+03 0.  0.
          5    1    3    3  502    0 -0.12473064337E+03 -0.77942138361E+02 -0.40107772989E+03  0.42721602046E+03  0.41800000000E+01 0. -1.
         -5    1    3    3    0  502  0.27713572067E+02 -0.27592899937E+02 -0.17890772175E+03  0.18317984471E+03  0.41800000000E+01 0. -1.
        -11    1    1    2    0    0  0.11068366300E+03  0.70812987951E+02 -0.29435221316E+03  0.32234853484E+03  0.00000000000E+00 0.  1.
         11    1    1    2    0    0 -0.13666591700E+02  0.34722050347E+02 -0.51491324993E+02  0.63590510759E+02  0.00000000000E+00 0. -1.
</event>
<event>
 7    1  0.3022725E-009  0.1038791E+03  0.7561462E-02  0.1272344E+00
          1   -1    0    0  501    0  0.00000000000E+00  0.00000000000E+00  0.42423454466E+03  0.42423454466E+03  0.00000000000E+00 0. -1.
         -1   -1    0    0    0  501 -0.00000000000E+00 -0.00000000000E+00 -0.41364554224E+02  0.41364554224E+02  0.00000000000E+00 0.  1.
         25    2    1    2    0    0  0.64250874237E+02 -0.23095018212E+02  0.15437684872E+03  0.21009712381E+03  0.12508811016E+03 0.  0.
          5    1    3    3  502    0 -0.11074257404E+02 -0.55422663186E+02  0.87379286630E+02  0.10414856170E+03  0.41800000000E+01 0. -1.
         -5    1    3    3    0  502  0.75325131641E+02  0.32327644975E+02  0.66997562095E+02  0.10594856211E+03  0.41800000000E+01 0. -1.
        -11    1    1    2    0    0 -0.20238984381E+02  0.12335142322E+02  0.11947015365E+01  0.23731825396E+02  0.00000000000E+00 0.  1.
         11    1    1    2    0    0 -0.44011889856E+02  0.10759875890E+02  0.22729844017E+03  0.23177014968E+03  0.00000000000E+00 0. -1.
</event>
<event>
 7    1  0.2788485E-009  0.8309083E+02  0.7561462E-02  0.1320502E+00
          1   -1    0    0  501    0  0.00000000000E+00  0.00000000000E+00  0.22485431255E+03  0.22485431255E+03  0.00000000000E+00 0. -1.
         -1   -1    0    0    0  501 -0.00000000000E+00 -0.00000000000E+00 -0.57529336844E+02  0.57529336844E+02  0.00000000000E+00 0.  1.
         25    2    1    2    0    0 -0.17507593684E+02  0.23037229109E+02  0.84391019568E+02  0.15364529699E+03  0.12509118011E+03 0.  0.
          5    1    3    3  502    0 -0.29164925874E+02 -0.39964460906E+02  0.73229975348E+02  0.88475153157E+02  0.41800000000E+01 0. -1.
         -5    1    3    3    0  502  0.11657332190E+02  0.63001690016E+02  0.11161044220E+02  0.65170143829E+02  0.41800000000E+01 0. -1.
        -11    1    1    2    0    0  0.96164470982E+01  0.12584456235E+02  0.90163271399E+02  0.91543760590E+02  0.00000000000E+00 0. -1.
         11    1    1    2    0    0  0.78911465862E+01 -0.35621685344E+02 -0.72293152636E+01  0.37194591816E+02  0.00000000000E+00 0.  1.
</event>
<event>
 7    1  0.2788485E-009  0.1226234E+03  0.7561462E-02  0.1238831E+00
          3   -1    0    0  501    0  0.00000000000E+00  0.00000000000E+00  0.49834725361E+02  0.49834725361E+02  0.00000000000E+00 0. -1.
         -3   -1    0    0    0  501 -0.00000000000E+00 -0.00000000000E+00 -0.38378882952E+03  0.38378882952E+03  0.00000000000E+00 0.  1.
         25    2    1    2    0    0  0.71109076627E+02  0.70376835792E+02 -0.21374521496E+03  0.26710317252E+03  0.12509071930E+03 0.  0.
          5    1    3    3  502    0 -0.41891390664E+01  0.61467757583E+02 -0.30765465807E+02  0.68991451607E+02  0.41800000000E+01 0.  1.
         -5    1    3    3    0  502  0.75298215694E+02  0.89090782087E+01 -0.18297974916E+03  0.19811172091E+03  0.41800000000E+01 0.  1.
        -11    1    1    2    0    0 -0.61744510334E+02 -0.35028667178E+02 -0.48343401622E+02  0.85886416627E+02  0.00000000000E+00 0. -1.
         11    1    1    2    0    0 -0.93645662930E+01 -0.35348168614E+02 -0.71865487577E+02  0.80633965740E+02  0.00000000000E+00 0.  1.
</event>
<event>
 7    1  0.2788485E-009  0.1164587E+03  0.7561462E-02  0.1249056E+00
          1   -1    0    0  501    0  0.00000000000E+00  0.00000000000E+00  0.60522384064E+03  0.60522384064E+03  0.00000000000E+00 0. -1.
         -1   -1    0    0    0  501 -0.00000000000E+00 -0.00000000000E+00 -0.29134624373E+02  0.29134624373E+02  0.00000000000E+00 0.  1.
         25    2    1    2    0    0  0.27692776768E+02 -0.70266305882E+02  0.32768116954E+03  0.35878578631E+03  0.12509215788E+03 0.  0.
          5    1    3    3  502    0  0.48488977260E+02 -0.79253034092E+02  0.13042298904E+03  0.16018693080E+03  0.41800000000E+01 0.  1.
         -5    1    3    3    0  502 -0.20796200493E+02  0.89867282096E+01  0.19725818050E+03  0.19859885552E+03  0.41800000000E+01 0.  1.
        -11    1    1    2    0    0 -0.17292930853E+02 -0.19755945374E+02  0.35269100873E+02  0.43968765180E+02  0.00000000000E+00 0.  1.
         11    1    1    2    0    0 -0.10399845915E+02  0.90022251256E+02  0.21313894586E+03  0.23160391352E+03  0.00000000000E+00 0. -1.
</event>
<event>
 7    1  0.2788485E-009  0.1073790E+03  0.7561462E-02  0.1265502E+00
          1   -1    0    0  501    0  0.00000000000E+00  0.00000000000E+00  0.32874854842E+03  0.32874854842E+03  0.00000000000E+00 0. -1.
         -1   -1    0    0    0  501 -0.00000000000E+00 -0.00000000000E+00 -0.51334442793E+02  0.51334442793E+02  0.00000000000E+00 0.  1.
         25    2    1    2    0    0  0.46414552740E+02  0.54130335041E+02  0.18081060590E+03  0.23113948622E+03  0.12509429646E+03 0.  0.
          5    1    3    3  502    0  0.57197721585E+02  0.32946261198E+01  0.18020706622E+02  0.60205084361E+02  0.41800000000E+01 0. -1.
         -5    1    3    3    0  502 -0.10783168844E+02  0.50835708921E+02  0.16278989928E+03  0.17093440186E+03  0.41800000000E+01 0. -1.
        -11    1    1    2    0    0  0.10569691581E+02 -0.46499626705E+02  0.72108956826E+02  0.86450189811E+02  0.00000000000E+00 0.  1.
         11    1    1    2    0    0 -0.56984244321E+02 -0.76307083359E+01  0.24494542900E+02  0.62493315182E+02  0.00000000000E+00 0. -1.
</event>
<event>
 7    1  0.2788485E-009  0.1010897E+03  0.7561462E-02  0.1278021E+00
          2   -1    0    0  501    0  0.00000000000E+00  0.00000000000E+00  0.13223886803E+04  0.13223886803E+04  0.00000000000E+00 0.  1.
         -2   -1    0    0    0  501 -0.00000000000E+00 -0.00000000000E+00 -0.13543444648E+02  0.13543444648E+02  0.00000000000E+00 0. -1.
         25    2    1    2    0    0  0.36393795978E+02  0.28405590877E+02  0.10606339796E+04  0.10689829333E+04  0.12509471197E+03 0.  0.
          5    1    3    3  502    0  0.76666612892E+02 -0.18122837896E+01  0.78576246145E+03  0.78950691709E+03  0.41800000000E+01 0. -1.
         -5    1    3    3    0  502 -0.40272816914E+02  0.30217874667E+02  0.27487151818E+03  0.27947601621E+03  0.41800000000E+01 0. -1.
        -11    1    1    2    0    0  0.15476619391E+02  0.48036970343E+00  0.45207370518E+01  0.16130516616E+02  0.00000000000E+00 0. -1.
         11    1    1    2    0    0 -0.51870415368E+02 -0.28885960580E+02  0.24369051901E+03  0.25081867507E+03  0.00000000000E+00 0.  1.
</event>
<event>
 7    1  0.2788485E-009  0.1473594E+03  0.7561462E-02  0.1203756E+00
         -1   -1    0    0    0  501 -0.00000000000E+00  0.00000000000E+00  0.21341548240E+03  0.21341548240E+03  0.00000000000E+00 0.  1.
          1   -1    0    0  501    0  0.00000000000E+00 -0.00000000000E+00 -0.16569921290E+03  0.16569921290E+03  0.00000000000E+00 0. -1.
         25    2    1    2    0    0 -0.52025332264E+02  0.12038096984E+03 -0.40624337527E+02  0.18573145484E+03  0.12509046094E+03 0.  0.
          5    1    3    3  502    0  0.27208629164E+02  0.14937120941E+02 -0.43663730671E+02  0.53734726752E+02  0.41800000000E+01 0. -1.
         -5    1    3    3    0  502 -0.79233961428E+02  0.10544384890E+03  0.30393931440E+01  0.13199672809E+03  0.41800000000E+01 0. -1.
        -11    1    1    2    0    0  0.36536519882E+02 -0.73796344521E+02  0.11189802532E+03  0.13893158684E+03  0.00000000000E+00 0.  1.
         11    1    1    2    0    0  0.15488812382E+02 -0.46584625324E+02 -0.23557418302E+02  0.54451653626E+02  0.00000000000E+00 0. -1.
</event>
<event>
 7    1  0.2788485E-009  0.1268683E+03  0.7561462E-02  0.1232178E+00
         -2   -1    0    0    0  501 -0.00000000000E+00  0.00000000000E+00  0.39217231345E+02  0.39217231345E+02  0.00000000000E+00 0.  1.
          2   -1    0    0  501    0  0.00000000000E+00 -0.00000000000E+00 -0.51333414022E+03  0.51333414022E+03  0.00000000000E+00 0. -1.
         25    2    1    2    0    0 -0.88010553903E+02  0.26794340442E+02 -0.24203033925E+03  0.28755835099E+03  0.12508927144E+03 0.  0.
          5    1    3    3  502    0 -0.92987211486E+02  0.55627446378E+02 -0.23243223733E+03  0.25648245874E+03  0.41800000000E+01 0.  1.
         -5    1    3    3    0  502  0.49766575834E+01 -0.28833105937E+02 -0.95981019189E+01  0.31075892249E+02  0.41800000000E+01 0.  1.
        -11    1    1    2    0    0  0.29817356454E+02  0.24174072978E+02 -0.30354257704E+02  0.48937117927E+02  0.00000000000E+00 0.  1.
         11    1    1    2    0    0  0.58193197448E+02 -0.50968413419E+02 -0.20173231193E+03  0.21605590265E+03  0.00000000000E+00 0. -1.
</event>
<event>
 7    1  0.2788485E-009  0.8485341E+02  0.7561462E-02  0.1315816E+00
          4   -1    0    0  501    0  0.00000000000E+00  0.00000000000E+00  0.49641371534E+03  0.49641371534E+03  0.00000000000E+00 0. -1.
         -4   -1    0    0    0  501 -0.00000000000E+00 -0.00000000000E+00 -0.26978187621E+02  0.26978187621E+02  0.00000000000E+00 0.  1.
         25    2    1    2    0    0 -0.17464004912E+02 -0.30369093887E+02  0.30363658884E+03  0.33025820191E+03  0.12509208013E+03 0.  0.
          5    1    3    3  502    0  0.12247103150E+02  0.17034408257E+02 -0.91324924716E-01  0.21392600134E+02  0.41800000000E+01 0. -1.
         -5    1    3    3    0  502 -0.29711108062E+02 -0.47403502144E+02  0.30372791377E+03  0.30886560178E+03  0.41800000000E+01 0. -1.
        -11    1    1    2    0    0 -0.34414139557E+02  0.18186707386E+02  0.36820686176E+02  0.53580334615E+02  0.00000000000E+00 0.  1.
         11    1    1    2    0    0  0.51878144469E+02  0.12182386501E+02  0.12897825270E+03  0.13955336643E+03  0.00000000000E+00 0. -1.
</event>
<event>
 7    1  0.2788485E-009  0.1039226E+03  0.7561462E-02  0.1272257E+00
          1   -1    0    0  501    0  0.00000000000E+00  0.00000000000E+00  0.12802735126E+03  0.12802735126E+03  0.00000000000E+00 0. -1.
         -1   -1    0    0    0  501 -0.00000000000E+00 -0.00000000000E+00 -0.10468499670E+03  0.10468499670E+03  0.00000000000E+00 0.  1.
         25    2    1    2    0    0  0.74904787177E+01 -0.12412909002E+02 -0.70539466051E+01  0.12612397649E+03  0.12508921497E+03 0.  0.
          5    1    3    3  502    0  0.56404306920E+02 -0.35658721307E+02 -0.20932002234E+02  0.70061482727E+02  0.41800000000E+01 0.  1.
         -5    1    3    3    0  502 -0.48913828202E+02  0.23245812305E+02  0.13878055629E+02  0.56062493765E+02  0.41800000000E+01 0.  1.
        -11    1    1    2    0    0  0.26206935261E+02  0.36722852591E+02  0.43849362684E+02  0.62913734320E+02  0.00000000000E+00 0. -1.
         11    1    1    2    0    0 -0.33697413979E+02 -0.24309943589E+02 -0.13453061517E+02  0.43674637152E+02  0.00000000000E+00 0.  1.
</event>
<event>
 7    1  0.2788485E-009  0.1701690E+03  0.7561462E-02  0.1177672E+00
         -2   -1    0    0    0  501 -0.00000000000E+00  0.00000000000E+00  0.23379470475E+02  0.23379470475E+02  0.00000000000E+00 0.  1.
          2   -1    0    0  501    0  0.00000000000E+00 -0.00000000000E+00 -0.13786199821E+04  0.13786199821E+04  0.00000000000E+00 0. -1.
         25    2    1    2    0    0 -0.11447817499E+03  0.75693817472E+02 -0.86678519614E+03  0.88645129403E+03  0.12507803117E+03 0.  0.
          5    1    3    3  502    0 -0.11302027252E+03  0.12070911950E+02 -0.41964963178E+03  0.43479026526E+03  0.41800000000E+01 0. -1.
         -5    1    3    3    0  502 -0.14579024665E+01  0.63622905522E+02 -0.44713556436E+03  0.45166102876E+03  0.41800000000E+01 0. -1.
        -11    1    1    2    0    0  0.99944533532E+02 -0.15795550779E+02 -0.34191672244E+03  0.35657461251E+03  0.00000000000E+00 0. -1.
         11    1    1    2    0    0  0.14533641454E+02 -0.59898266692E+02 -0.14653859307E+03  0.15897354606E+03  0.00000000000E+00 0.  1.
</event>
<event>
 7    1  0.2788485E-009  0.6605728E+02  0.7561462E-02  0.1374038E+00
          2   -1    0    0  501    0  0.00000000000E+00  0.00000000000E+00  0.86560039454E+03  0.86560039454E+03  0.00000000000E+00 0.  1.
         -2   -1    0    0    0  501 -0.00000000000E+00 -0.00000000000E+00 -0.15347505996E+02  0.15347505996E+02  0.00000000000E+00 0. -1.
         25    2    1    2    0    0  0.18543382144E+02 -0.18951163927E+01  0.40782765381E+03  0.42698848005E+03  0.12509323883E+03 0.  0.
          5    1    3    3  502    0 -0.59279758353E+01 -0.36308004332E+01 -0.74214743292E+01  0.10994284447E+02  0.41800000000E+01 0.  1.
         -5    1    3    3    0  502  0.24471357979E+02  0.17356840405E+01  0.41524912814E+03  0.41599419561E+03  0.41800000000E+01 0.  1.
        -11    1    1    2    0    0  0.39720314217E+02 -0.65087006526E+01  0.13193338733E+03  0.13793652612E+03  0.00000000000E+00 0. -1.
         11    1    1    2    0    0 -0.58263696361E+02  0.84038170454E+01  0.31049184741E+03  0.31602289436E+03  0.00000000000E+00 0.  1.
</event>
<event>
 7    1  0.2788485E-009  0.1672205E+03  0.7561462E-02  0.1180778E+00
          2   -1    0    0  501    0  0.00000000000E+00  0.00000000000E+00  0.35569364956E+02  0.35569364956E+02  0.00000000000E+00 0.  1.
         -2   -1    0    0    0  501 -0.00000000000E+00 -0.00000000000E+00 -0.81753676240E+03  0.81753676240E+03  0.00000000000E+00 0. -1.
         25    2    1    2    0    0  0.25177402613E+02 -0.12788578151E+03 -0.44375096264E+03  0.47911459699E+03  0.12508879046E+03 0.  0.
          5    1    3    3  502    0  0.50761485671E+02 -0.21622944440E+01 -0.15350238419E+03  0.16174627754E+03  0.41800000000E+01 0.  1.
         -5    1    3    3    0  502 -0.25584083057E+02 -0.12572348706E+03 -0.29024857844E+03  0.31736831945E+03  0.41800000000E+01 0.  1.
        -11    1    1    2    0    0 -0.40438638262E+02  0.18190259857E+02 -0.14096520225E+03  0.14777468411E+03  0.00000000000E+00 0. -1.
         11    1    1    2    0    0  0.15261235649E+02  0.10969552165E+03 -0.19725123256E+03  0.22621684625E+03  0.00000000000E+00 0.  1.
</event>
<event>
 7    1  0.2788485E-009  0.1207763E+03  0.7561462E-02  0.1241822E+00
          1   -1    0    0  501    0  0.00000000000E+00  0.00000000000E+00  0.24181516807E+02  0.24181516807E+02  0.00000000000E+00 0. -1.
         -1   -1    0    0    0  501 -0.00000000000E+00 -0.00000000000E+00 -0.67162992990E+03  0.67162992990E+03  0.00000000000E+00 0.  1.
         25    2    1    2    0    0 -0.56065757254E+02  0.35483113955E+02 -0.36353155068E+03  0.39013352092E+03  0.12508619144E+03 0.  0.
          5    1    3    3  502    0 -0.76602550259E+02  0.64150763278E+02 -0.31133869904E+03  0.32700539607E+03  0.41800000000E+01 0.  1.
         -5    1    3    3    0  502  0.20536793005E+02 -0.28667649323E+02 -0.52192851640E+02  0.63128124849E+02  0.41800000000E+01 0.  1.
        -11    1    1    2    0    0  0.77900956218E+02 -0.24985177980E+02 -0.25579485885E+03  0.26855879787E+03  0.00000000000E+00 0.  1.
         11    1    1    2    0    0 -0.21835198964E+02 -0.10497935975E+02 -0.28122003561E+02  0.37119127924E+02  0.00000000000E+00 0. -1.
</event>
<event>
 7    1  0.2788485E-009  0.1125820E+03  0.7561462E-02  0.1255862E+00
         -4   -1    0    0    0  501 -0.00000000000E+00  0.00000000000E+00  0.59414651021E+02  0.59414651021E+02  0.00000000000E+00 0.  1.
          4   -1    0    0  501    0  0.00000000000E+00 -0.00000000000E+00 -0.26700110216E+03  0.26700110216E+03  0.00000000000E+00 0. -1.
         25    2    1    2    0    0  0.43287147444E+02  0.47604619309E+02 -0.12520661413E+03  0.18831631865E+03  0.12508542174E+03 0.  0.
          5    1    3    3  502    0 -0.21252986089E+02 -0.16338685420E+02 -0.84361299552E+02  0.88616834299E+02  0.41800000000E+01 0.  1.
         -5    1    3    3    0  502  0.64540133533E+02  0.63943304730E+02 -0.40845314579E+02  0.99699484348E+02  0.41800000000E+01 0.  1.
        -11    1    1    2    0    0 -0.51523048414E+01  0.24757680959E+02 -0.55730744264E+01  0.25894944878E+02  0.00000000000E+00 0.  1.
         11    1    1    2    0    0 -0.38134842602E+02 -0.72362300269E+02 -0.76806762577E+02  0.11220448965E+03  0.00000000000E+00 0. -1.
</event>
<event>
 7    1  0.2788485E-009  0.1022298E+03  0.7561462E-02  0.1275676E+00
          1   -1    0    0  501    0  0.00000000000E+00  0.00000000000E+00  0.34730179237E+03  0.34730179237E+03  0.00000000000E+00 0. -1.
         -1   -1    0    0    0  501 -0.00000000000E+00 -0.00000000000E+00 -0.33250190174E+02  0.33250190174E+02  0.00000000000E+00 0.  1.
         25    2    1    2    0    0 -0.51573563169E+00  0.76817960900E+01  0.18788466345E+03  0.22584953892E+03  0.12509233189E+03 0.  0.
          5    1    3    3  502    0  0.60138554344E+02 -0.43197674219E+01  0.68590035261E+02  0.91418660274E+02  0.41800000000E+01 0. -1.
         -5    1    3    3    0  502 -0.60654289976E+02  0.12001563512E+02  0.11929462819E+03  0.13443087865E+03  0.41800000000E+01 0. -1.
        -11    1    1    2    0    0  0.23686875727E+02  0.29749199655E+02  0.28338300407E+02  0.47425122370E+02  0.00000000000E+00 0.  1.
         11    1    1    2    0    0 -0.23171140096E+02 -0.37430995746E+02  0.97828638336E+02  0.10727732125E+03  0.00000000000E+00 0. -1.
</event>
<event>
 7    1  0.2788485E-009  0.1232025E+03  0.7561462E-02  0.1237906E+00
         -3   -1    0    0    0  501 -0.00000000000E+00  0.00000000000E+00  0.10619408637E+03  0.10619408637E+03  0.00000000000E+00 0.  1.
          3   -1    0    0  501    0  0.00000000000E+00 -0.00000000000E+00 -0.18771648540E+03  0.18771648540E+03  0.00000000000E+00 0. -1.
         25    2    1    2    0    0  0.81327944129E+02 -0.38134619315E+02 -0.50546537919E+02  0.16208427891E+03  0.12509147568E+03 0.  0.
          5    1    3    3  502    0  0.37967907396E+02 -0.76765292758E+02 -0.11828084028E+01  0.85751639051E+02  0.41800000000E+01 0.  1.
         -5    1    3    3    0  502  0.43360036733E+02  0.38630673443E+02 -0.49363729516E+02  0.76332639860E+02  0.41800000000E+01 0.  1.
        -11    1    1    2    0    0 -0.54436044059E+02 -0.15997683896E+01  0.23430772429E+02  0.59286113452E+02  0.00000000000E+00 0.  1.
         11    1    1    2    0    0 -0.26891900070E+02  0.39734387704E+02 -0.54406633536E+02  0.72540179407E+02  0.00000000000E+00 0. -1.
</event>
<event>
 7    1  0.2788485E-009  0.1590066E+03  0.7561462E-02  0.1189823E+00
         -2   -1    0    0    0  501 -0.00000000000E+00  0.00000000000E+00  0.17212788245E+03  0.17212788245E+03  0.00000000000E+00 0.  1.
          2   -1    0    0  501    0  0.00000000000E+00 -0.00000000000E+00 -0.16531299379E+03  0.16531299379E+03  0.00000000000E+00 0. -1.
         25    2    1    2    0    0  0.28800299628E+02 -0.12206072131E+03 -0.14142179813E+02  0.17769257257E+03  0.12508545939E+03 0.  0.
          5    1    3    3  502    0 -0.30204863469E+02 -0.79835130523E+01  0.28302536569E+02  0.42362438953E+02  0.41800000000E+01 0. -1.
         -5    1    3    3    0  502  0.59005163096E+02 -0.11407720825E+03 -0.42444716381E+02  0.13533013361E+03  0.41800000000E+01 0. -1.
        -11    1    1    2    0    0  0.34403868628E+02  0.61428249644E+02  0.38711656301E+01  0.70512707750E+02  0.00000000000E+00 0. -1.
         11    1    1    2    0    0 -0.63204168255E+02  0.60632471662E+02  0.17085902835E+02  0.89235595927E+02  0.00000000000E+00 0.  1.
</event>
<event>
 7    1  0.2824397E-009  0.9925032E+02  0.7561462E-02  0.1281880E+00
         -2   -1    0    0    0  501 -0.00000000000E+00  0.00000000000E+00  0.15507904629E+02  0.15507904629E+02  0.00000000000E+00 0.  1.
          2   -1    0    0  501    0  0.00000000000E+00 -0.00000000000E+00 -0.10177427420E+04  0.10177427420E+04  0.00000000000E+00 0. -1.
         25    2    1    2    0    0 -0.14484821439E+02 -0.99549141478E+01 -0.81037952734E+03  0.82016448388E+03  0.12508353973E+03 0.  0.
          5    1    3    3  502    0 -0.12783554997E+02  0.46907030989E+02 -0.60638345471E+03  0.60834369840E+03  0.41800000000E+01 0. -1.
         -5    1    3    3    0  502 -0.17012664419E+01 -0.56861945137E+02 -0.20399607264E+03  0.21182078548E+03  0.41800000000E+01 0. -1.
        -11    1    1    2    0    0  0.53259869106E+02  0.37200512878E+01 -0.11426701941E+03  0.12612455813E+03  0.00000000000E+00 0.  1.
         11    1    1    2    0    0 -0.38775047667E+02  0.62348628600E+01 -0.77588290584E+02  0.86961604586E+02  0.00000000000E+00 0. -1.
</event>
<event>
 7    1  0.2788485E-009  0.2409223E+03  0.7561462E-02  0.1119180E+00
         -2   -1    0    0    0  501 -0.00000000000E+00  0.00000000000E+00  0.38808319886E+02  0.38808319886E+02  0.00000000000E+00 0.  1.
          2   -1    0    0  501    0  0.00000000000E+00 -0.00000000000E+00 -0.19011305349E+04  0.19011305349E+04  0.00000000000E+00 0. -1.
         25    2    1    2    0    0 -0.17970167496E+02 -0.22924911285E+03 -0.12888746775E+04  0.13151894199E+04  0.12508874150E+03 0.  0.
          5    1    3    3  502    0 -0.21099036005E+02 -0.23866867974E+03 -0.10903544378E+04  0.11163772572E+04  0.41800000000E+01 0.  1.
         -5    1    3    3    0  502  0.31288685094E+01  0.94195668847E+01 -0.19852023971E+03  0.19881216269E+03  0.41800000000E+01 0.  1.
        -11    1    1    2    0    0 -0.49091435517E+01  0.10408315496E+03 -0.15030846345E+03  0.18289351279E+03  0.00000000000E+00 0.  1.
         11    1    1    2    0    0  0.22879311047E+02  0.12516595789E+03 -0.42313907406E+03  0.44185592209E+03  0.00000000000E+00 0. -1.
</event>
<event>
 7    1  0.2788485E-009  0.1422270E+03  0.7561462E-02  0.1210363E+00
         -1   -1    0    0    0  501 -0.00000000000E+00  0.00000000000E+00  0.46216536952E+03  0.46216536952E+03  0.00000000000E+00 0.  1.
          1   -1    0    0  501    0  0.00000000000E+00 -0.00000000000E+00 -0.79439621743E+02  0.79439621743E+02  0.00000000000E+00 0. -1.
         25    2    1    2    0    0  0.99931872358E+02  0.61171986384E+02  0.51700070954E+02  0.17902120209E+03  0.12508917791E+03 0.  0.
          5    1    3    3  502    0 -0.77773656575E+01  0.25243797458E+02 -0.29159051827E+02  0.39565887202E+02  0.41800000000E+01 0.  1.
         -5    1    3    3    0  502  0.10770923802E+03  0.35928188926E+02  0.80859122781E+02  0.13945531489E+03  0.41800000000E+01 0.  1.
        -11    1    1    2    0    0 -0.62158560496E+01  0.19480071255E+02  0.23600722597E+02  0.31226657676E+02  0.00000000000E+00 0.  1.
         11    1    1    2    0    0 -0.93716016308E+02 -0.80652057638E+02  0.30742495423E+03  0.33135713150E+03  0.00000000000E+00 0. -1.
</event>
<event>
 7    1  0.2788485E-009  0.9154204E+02  0.7561462E-02  0.1299160E+00
          1   -1    0    0  501    0  0.00000000000E+00  0.00000000000E+00  0.30395800087E+03  0.30395800087E+03  0.00000000000E+00 0. -1.
         -1   -1    0    0    0  501 -0.00000000000E+00 -0.00000000000E+00 -0.49718056602E+02  0.49718056602E+02  0.00000000000E+00 0.  1.
         25    2    1    2    0    0 -0.44565846275E+02 -0.20396719112E+02  0.10409588793E+03  0.16995830339E+03  0.12509088776E+03 0.  0.
          5    1    3    3  502    0 -0.11895386544E+02  0.20894212136E+02 -0.22245128933E+02  0.33021000637E+02  0.41800000000E+01 0. -1.
         -5    1    3    3    0  502 -0.32670459731E+02 -0.41290931248E+02  0.12634101686E+03  0.13693730275E+03  0.41800000000E+01 0. -1.
        -11    1    1    2    0    0 -0.29641447577E+02  0.46787642465E+01  0.43725630251E+02  0.53032414523E+02  0.00000000000E+00 0.  1.
         11    1    1    2    0    0  0.74207293852E+02  0.15717954865E+02  0.10641842609E+03  0.13068533956E+03  0.00000000000E+00 0. -1.
</event>
<event>
 7    1  0.2788485E-009  0.1282873E+03  0.7561462E-02  0.1230019E+00
         -1   -1    0    0    0  501 -0.00000000000E+00  0.00000000000E+00  0.10328360380E+03  0.10328360380E+03  0.00000000000E+00 0.  1.
          1   -1    0    0  501    0  0.00000000000E+00 -0.00000000000E+00 -0.17093722666E+03  0.17093722666E+03  0.00000000000E+00 0. -1.
         25    2    1    2    0    0 -0.28151946527E+02  0.65665675146E+02 -0.30396968873E+02  0.14722694521E+03  0.12508910702E+03 0.  0.
          5    1    3    3  502    0 -0.55175006124E+00  0.97292770726E+02 -0.40037898641E+01  0.97466355205E+02  0.41800000000E+01 0. -1.
         -5    1    3    3    0  502 -0.27600196465E+02 -0.31627095580E+02 -0.26393179009E+02  0.49760590008E+02  0.41800000000E+01 0. -1.
        -11    1    1    2    0    0 -0.62654439059E+01  0.21974441284E+02  0.56257537028E+01  0.23532551111E+02  0.00000000000E+00 0.  1.
         11    1    1    2    0    0  0.34417390433E+02 -0.87640116430E+02 -0.42882407696E+02  0.10346133414E+03  0.00000000000E+00 0. -1.
</event>
<event>
 7    1  0.2788485E-009  0.9510187E+02  0.7561462E-02  0.1290947E+00
          2   -1    0    0  501    0  0.00000000000E+00  0.00000000000E+00  0.38668662943E+03  0.38668662943E+03  0.00000000000E+00 0. -1.
         -2   -1    0    0    0  501 -0.00000000000E+00 -0.00000000000E+00 -0.31428213637E+02  0.31428213637E+02  0.00000000000E+00 0.  1.
         25    2    1    2    0    0 -0.19953989626E+02 -0.69532798014E+01  0.21156034977E+03  0.24668253608E+03  0.12509189506E+03 0.  0.
          5    1    3    3  502    0 -0.45900857561E+02 -0.46320533134E+02  0.17521829588E+03  0.18700642803E+03  0.41800000000E+01 0. -1.
         -5    1    3    3    0  502  0.25946867935E+02  0.39367253332E+02  0.36342053885E+02  0.59676108043E+02  0.41800000000E+01 0. -1.
        -11    1    1    2    0    0 -0.14370270655E+02 -0.26150247198E+02  0.13451252370E+02  0.32730357431E+02  0.00000000000E+00 0.  1.
         11    1    1    2    0    0  0.34324260281E+02  0.33103526999E+02  0.13024681365E+03  0.13870194955E+03  0.00000000000E+00 0. -1.
</event>
<event>
 7    1  0.2788485E-009  0.1286396E+03  0.7561462E-02  0.1229488E+00
         -1   -1    0    0    0  501 -0.00000000000E+00  0.00000000000E+00  0.12622364944E+03  0.12622364944E+03  0.00000000000E+00 0.  1.
          1   -1    0    0  501    0  0.00000000000E+00 -0.00000000000E+00 -0.31118344441E+03  0.31118344441E+03  0.00000000000E+00 0. -1.
         25    2    1    2    0    0 -0.96493683000E+02  0.21661994995E+02 -0.24370180414E+03  0.29123642376E+03  0.12509121592E+03 0.  0.
          5    1    3    3  502    0 -0.51194253606E+02  0.48571921761E+02 -0.22389780020E+03  0.23479305893E+03  0.41800000000E+01 0. -1.
         -5    1    3    3    0  502 -0.45299429394E+02 -0.26909926765E+02 -0.19804003939E+02  0.56443364836E+02  0.41800000000E+01 0. -1.
        -11    1    1    2    0    0  0.94478868186E+02  0.16163639217E+02  0.39327083401E+02  0.10360569123E+03  0.00000000000E+00 0.  1.
         11    1    1    2    0    0  0.20148148148E+01 -0.37825634213E+02  0.19414925773E+02  0.42564978857E+02  0.00000000000E+00 0. -1.
</event>
<event>
 7    1  0.2788485E-009  0.9768509E+02  0.7561462E-02  0.1285241E+00
         -3   -1    0    0    0  501 -0.00000000000E+00  0.00000000000E+00  0.15506814483E+03  0.15506814483E+03  0.00000000000E+00 0.  1.
          3   -1    0    0  501    0  0.00000000000E+00 -0.00000000000E+00 -0.94500138046E+02  0.94500138046E+02  0.00000000000E+00 0. -1.
         25    2    1    2    0    0 -0.11240425618E+02 -0.23949478434E+02 -0.16229154445E+02  0.12888450935E+03  0.12509159288E+03 0.  0.
          5    1    3    3  502    0 -0.35194935658E+02 -0.57075919269E+02 -0.43067310606E+02  0.79803569464E+02  0.41800000000E+01 0. -1.
         -5    1    3    3    0  502  0.23954510040E+02  0.33126440836E+02  0.26838156160E+02  0.49080939883E+02  0.41800000000E+01 0. -1.
        -11    1    1    2    0    0  0.14188616627E+02  0.54542232239E+02  0.27790664151E+02  0.62837034887E+02  0.00000000000E+00 0.  1.
         11    1    1    2    0    0 -0.29481910087E+01 -0.30592753806E+02  0.49006497078E+02  0.57846738642E+02  0.00000000000E+00 0. -1.
</event>
<event>
 7    1  0.2788485E-009  0.6185891E+02  0.7561462E-02  0.1390192E+00
          1   -1    0    0  501    0  0.00000000000E+00  0.00000000000E+00  0.74037671872E+02  0.74037671872E+02  0.00000000000E+00 0. -1.
         -1   -1    0    0    0  501 -0.00000000000E+00 -0.00000000000E+00 -0.24118136515E+03  0.24118136515E+03  0.00000000000E+00 0.  1.
         25    2    1    2    0    0  0.34155328033E+02 -0.12440372794E+02 -0.10933979854E+02  0.13072771299E+03  0.12509529856E+03 0.  0.
          5    1    3    3  502    0  0.32129200833E+02  0.25698056395E+02 -0.57203686612E+02  0.70586187109E+02  0.41800000000E+01 0. -1.
         -5    1    3    3    0  502  0.20261271996E+01 -0.38138429189E+02  0.46269706758E+02  0.60141525885E+02  0.41800000000E+01 0. -1.
        -11    1    1    2    0    0 -0.33607835412E+02  0.21905117896E+01 -0.16655020072E+03  0.16992131798E+03  0.00000000000E+00 0.  1.
         11    1    1    2    0    0 -0.54749262148E+00  0.10249861005E+02  0.10340487297E+02  0.14570006051E+02  0.00000000000E+00 0. -1.
</event>
<event>
 7    1  0.2788485E-009  0.1064001E+03  0.7561462E-02  0.1267385E+00
          1   -1    0    0  501    0  0.00000000000E+00  0.00000000000E+00  0.17418302517E+03  0.17418302517E+03  0.00000000000E+00 0. -1.
         -1   -1    0    0    0  501 -0.00000000000E+00 -0.00000000000E+00 -0.78502802883E+02  0.78502802883E+02  0.00000000000E+00 0.  1.
         25    2    1    2    0    0  0.40397135544E+02 -0.38395846747E+01  0.75057046129E+02  0.15141356141E+03  0.12508331398E+03 0.  0.
          5    1    3    3  502    0 -0.78126203729E+01 -0.52747340791E+02  0.58147925564E+01  0.53801516801E+02  0.41800000000E+01 0.  1.
         -5    1    3    3    0  502  0.48209755917E+02  0.48907756116E+02  0.69242253573E+02  0.97612044614E+02  0.41800000000E+01 0.  1.
        -11    1    1    2    0    0 -0.35898070543E+02  0.40188118618E+02  0.32305507336E+02  0.62828354674E+02  0.00000000000E+00 0. -1.
         11    1    1    2    0    0 -0.44990650006E+01 -0.36348533943E+02 -0.11682331175E+02  0.38443911968E+02  0.00000000000E+00 0.  1.
</event>
<event>
 7    1  0.2788485E-009  0.1081425E+03  0.7561462E-02  0.1264049E+00
          2   -1    0    0  501    0  0.00000000000E+00  0.00000000000E+00  0.10832801883E+04  0.10832801883E+04  0.00000000000E+00 0. -1.
         -2   -1    0    0    0  501 -0.00000000000E+00 -0.00000000000E+00 -0.13801867856E+02  0.13801867856E+02  0.00000000000E+00 0.  1.
         25    2    1    2    0    0 -0.52143915788E+02  0.19817765674E+00  0.71698012571E+03  0.72967686188E+03  0.12509514328E+03 0.  0.
          5    1    3    3  502    0  0.36411098192E+01  0.56047481875E+02  0.28102827595E+03  0.28661636762E+03  0.41800000000E+01 0. -1.
         -5    1    3    3    0  502 -0.55785025607E+02 -0.55849304218E+02  0.43595184976E+03  0.44306049426E+03  0.41800000000E+01 0. -1.
        -11    1    1    2    0    0 -0.51329087430E+00 -0.23377396289E+02  0.22571891823E+02  0.32500098850E+02  0.00000000000E+00 0.  1.
         11    1    1    2    0    0  0.52657206662E+02  0.23179218632E+02  0.32992630288E+03  0.33490509540E+03  0.00000000000E+00 0. -1.
</event>
<event>
 7    1  0.2788485E-009  0.1293732E+03  0.7561462E-02  0.1228389E+00
         -2   -1    0    0    0  501 -0.00000000000E+00  0.00000000000E+00  0.48980665918E+02  0.48980665918E+02  0.00000000000E+00 0.  1.
          2   -1    0    0  501    0  0.00000000000E+00 -0.00000000000E+00 -0.49671774945E+03  0.49671774945E+03  0.00000000000E+00 0. -1.
         25    2    1    2    0    0  0.68302571079E+02  0.83751700021E+02 -0.28783459008E+03  0.33192522664E+03  0.12508403718E+03 0.  0.
          5    1    3    3  502    0 -0.57163948889E+01  0.31431322835E+02 -0.22794694573E+01  0.32299746233E+02  0.41800000000E+01 0.  1.
         -5    1    3    3    0  502  0.74018965968E+02  0.52320377186E+02 -0.28555512062E+03  0.29962548040E+03  0.41800000000E+01 0.  1.
        -11    1    1    2    0    0 -0.84731986086E+02 -0.50347343320E+02 -0.14097254110E+03  0.17201052813E+03  0.00000000000E+00 0.  1.
         11    1    1    2    0    0  0.16429415007E+02 -0.33404356701E+02 -0.18929952349E+02  0.41762660596E+02  0.00000000000E+00 0. -1.
</event>
<event>
 7    1  0.2788485E-009  0.2113293E+03  0.7561462E-02  0.1140518E+00
          2   -1    0    0  501    0  0.00000000000E+00  0.00000000000E+00  0.30429908392E+03  0.30429908392E+03  0.00000000000E+00 0. -1.
         -2   -1    0    0    0  501 -0.00000000000E+00 -0.00000000000E+00 -0.17044954657E+03  0.17044954657E+03  0.00000000000E+00 0.  1.
         25    2    1    2    0    0  0.14562798812E+03  0.12661732228E+03  0.12420738103E+03  0.26137217267E+03  0.12509389242E+03 0.  0.
          5    1    3    3  502    0 -0.20182785374E+02  0.89956064384E+01  0.29413316565E+02  0.37025414947E+02  0.41800000000E+01 0. -1.
         -5    1    3    3    0  502  0.16581077349E+03  0.11762171584E+03  0.94794064470E+02  0.22434675773E+03  0.41800000000E+01 0. -1.
        -11    1    1    2    0    0 -0.92082254951E+02 -0.10343757466E+03  0.44437740009E+02  0.14544134992E+03  0.00000000000E+00 0.  1.
         11    1    1    2    0    0 -0.53545733165E+02 -0.23179747619E+02 -0.34795583692E+02  0.67935107892E+02  0.00000000000E+00 0. -1.
</event>
<event>
 7    1  0.2788485E-009  0.1146458E+03  0.7561462E-02  0.1252201E+00
          1   -1    0    0  501    0  0.00000000000E+00  0.00000000000E+00  0.23762556118E+03  0.23762556118E+03  0.00000000000E+00 0. -1.
         -1   -1    0    0    0  501 -0.00000000000E+00 -0.00000000000E+00 -0.57153773439E+02  0.57153773439E+02  0.00000000000E+00 0.  1.
         25    2    1    2    0    0 -0.36631989377E+02 -0.50035362990E+01  0.76508173597E+02  0.15122312247E+03  0.12509194268E+03 0.  0.
          5    1    3    3  502    0  0.71998936251E+01 -0.59655551088E+02  0.33850327139E+02  0.69093706597E+02  0.41800000000E+01 0. -1.
         -5    1    3    3    0  502 -0.43831883002E+02  0.54652014789E+02  0.42657846458E+02  0.82129415878E+02  0.41800000000E+01 0. -1.
        -11    1    1    2    0    0 -0.13130229607E+01  0.44259197015E+02  0.50070268296E+02  0.66840349467E+02  0.00000000000E+00 0.  1.
         11    1    1    2    0    0  0.37945012338E+02 -0.39255660716E+02  0.53893345844E+02  0.76715862674E+02  0.00000000000E+00 0. -1.
</event>
<event>
 7    1  0.2788485E-009  0.1092543E+03  0.7561462E-02  0.1261957E+00
          2   -1    0    0  501    0  0.00000000000E+00  0.00000000000E+00  0.24114808763E+03  0.24114808763E+03  0.00000000000E+00 0. -1.
         -2   -1    0    0    0  501 -0.00000000000E+00 -0.00000000000E+00 -0.50017372131E+02  0.50017372131E+02  0.00000000000E+00 0.  1.
         25    2    1    2    0    0 -0.15851891598E+02 -0.10595088496E+02  0.11018467935E+03  0.16778370001E+03  0.12508864080E+03 0.  0.
          5    1    3    3  502    0 -0.68415617490E+02  0.10584742160E+02  0.66768492405E+02  0.96271685667E+02  0.41800000000E+01 0. -1.
         -5    1    3    3    0  502  0.52563725892E+02 -0.21179830656E+02  0.43416186943E+02  0.71512014340E+02  0.41800000000E+01 0. -1.
        -11    1    1    2    0    0  0.39341287083E+02  0.39049699726E+02  0.56311704111E+02  0.79016605457E+02  0.00000000000E+00 0. -1.
         11    1    1    2    0    0 -0.23489395485E+02 -0.28454611231E+02  0.24634332036E+02  0.44365154293E+02  0.00000000000E+00 0.  1.
</event>
<event>
 7    1  0.2788485E-009  0.1017013E+03  0.7561462E-02  0.1276758E+00
         -4   -1    0    0    0  501 -0.00000000000E+00  0.00000000000E+00  0.27903619678E+02  0.27903619678E+02  0.00000000000E+00 0.  1.
          4   -1    0    0  501    0  0.00000000000E+00 -0.00000000000E+00 -0.49953072202E+03  0.49953072202E+03  0.00000000000E+00 0. -1.
         25    2    1    2    0    0 -0.35536759551E+01  0.46108474550E+02 -0.27041390271E+03  0.30151277084E+03  0.12509057583E+03 0.  0.
          5    1    3    3  502    0  0.26953085266E+02  0.71591145608E+02 -0.97278618904E+02  0.12382391946E+03  0.41800000000E+01 0.  1.
         -5    1    3    3    0  502 -0.30506761221E+02 -0.25482671058E+02 -0.17313528381E+03  0.17768885138E+03  0.41800000000E+01 0.  1.
        -11    1    1    2    0    0 -0.25187859473E+02 -0.51730548959E+02 -0.18204256016E+03  0.19091875673E+03  0.00000000000E+00 0. -1.
         11    1    1    2    0    0  0.28741535428E+02  0.56220744086E+01 -0.19170639466E+02  0.35002814129E+02  0.00000000000E+00 0.  1.
</event>
<event>
 7    1  0.2788485E-009  0.9383159E+02  0.7561462E-02  0.1293830E+00
          2   -1    0    0  501    0  0.00000000000E+00  0.00000000000E+00  0.19336462067E+04  0.19336462067E+04  0.00000000000E+00 0. -1.
         -2   -1    0    0    0  501 -0.00000000000E+00 -0.00000000000E+00 -0.16591306724E+02  0.16591306724E+02  0.00000000000E+00 0.  1.
         25    2    1    2    0    0  0.21068448400E+01  0.85163219053E+02  0.16409010445E+04  0.16478670844E+04  0.12510986057E+03 0.  0.
          5    1    3    3  502    0  0.11986749445E+02  0.13239536498E+02  0.28917638537E+02  0.34244265323E+02  0.41800000000E+01 0. -1.
         -5    1    3    3    0  502 -0.98799046053E+01  0.71923682555E+02  0.16119834060E+04  0.16136228191E+04  0.41800000000E+01 0. -1.
        -11    1    1    2    0    0  0.21646157097E+02 -0.36132958941E+02  0.22050746048E+03  0.22449429161E+03  0.00000000000E+00 0. -1.
         11    1    1    2    0    0 -0.23753001937E+02 -0.49030260112E+02  0.55646394989E+02  0.77876137442E+02  0.00000000000E+00 0.  1.
</event>
<event>
 7    1  0.2788485E-009  0.2826639E+03  0.7561462E-02  0.1094243E+00
         -3   -1    0    0    0  501 -0.00000000000E+00  0.00000000000E+00  0.40425152914E+03  0.40425152914E+03  0.00000000000E+00 0. -1.
          3   -1    0    0  501    0  0.00000000000E+00 -0.00000000000E+00 -0.22962815975E+03  0.22962815975E+03  0.00000000000E+00 0.  1.
         25    2    1    2    0    0  0.31197654256E+02  0.27809284253E+03  0.34572388630E+02  0.30846176017E+03  0.12507791466E+03 0.  0.
          5    1    3    3  502    0  0.29668285208E+02  0.24907983690E+03 -0.14485514379E+02  0.25129320489E+03  0.41800000000E+01 0.  1.
         -5    1    3    3    0  502  0.15293690480E+01  0.29013005630E+02  0.49057903009E+02  0.57168555282E+02  0.41800000000E+01 0.  1.
        -11    1    1    2    0    0 -0.46265155676E+02 -0.17969510694E+03  0.52473387486E+02  0.19283218736E+03  0.00000000000E+00 0.  1.
         11    1    1    2    0    0  0.15067501420E+02 -0.98397735590E+02  0.87577593268E+02  0.13258574136E+03  0.00000000000E+00 0. -1.
</event>
<event>
 7    1  0.2788485E-009  0.1087637E+03  0.7561462E-02  0.1262877E+00
         -1   -1    0    0    0  501 -0.00000000000E+00  0.00000000000E+00  0.61183025131E+03  0.61183025131E+03  0.00000000000E+00 0.  1.
          1   -1    0    0  501    0  0.00000000000E+00 -0.00000000000E+00 -0.27237712229E+02  0.27237712229E+02  0.00000000000E+00 0. -1.
         25    2    1    2    0    0 -0.51726585662E+02  0.18424326715E+02  0.22429348604E+03  0.26261902014E+03  0.12508431708E+03 0.  0.
          5    1    3    3  502    0 -0.77792117624E+02  0.28163861555E+02  0.78466111731E+02  0.11410179557E+03  0.41800000000E+01 0.  1.
         -5    1    3    3    0  502  0.26065531961E+02 -0.97395348406E+01  0.14582737431E+03  0.14851722457E+03  0.41800000000E+01 0.  1.
        -11    1    1    2    0    0  0.90517705630E+01 -0.51668332835E+02  0.21779688638E+03  0.22402463009E+03  0.00000000000E+00 0.  1.
         11    1    1    2    0    0  0.42674815099E+02  0.33244006121E+02  0.14250216665E+03  0.15242431331E+03  0.00000000000E+00 0. -1.
</event>
<event>
 7    1  0.3013369E-009  0.1301618E+03  0.7561462E-02  0.1227216E+00
         -1   -1    0    0    0  501 -0.00000000000E+00  0.00000000000E+00  0.70077905096E+02  0.70077905096E+02  0.00000000000E+00 0.  1.
          1   -1    0    0  501    0  0.00000000000E+00 -0.00000000000E+00 -0.27045249350E+03  0.27045249350E+03  0.00000000000E+00 0. -1.
         25    2    1    2    0    0  0.59400864877E+02 -0.59819308726E+02 -0.11914359283E+03  0.19222166428E+03  0.12508860884E+03 0.  0.
          5    1    3    3  502    0  0.85036855140E+02 -0.13412671885E+02 -0.10749112165E+03  0.13777873614E+03  0.41800000000E+01 0. -1.
         -5    1    3    3    0  502 -0.25635990263E+02 -0.46406636842E+02 -0.11652471176E+02  0.54442928138E+02  0.41800000000E+01 0. -1.
        -11    1    1    2    0    0 -0.35984889773E+02 -0.17608127722E+02 -0.43222371105E+02  0.58933282768E+02  0.00000000000E+00 0. -1.
         11    1    1    2    0    0 -0.23415975104E+02  0.77427436449E+02 -0.38008624472E+02  0.89375451548E+02  0.00000000000E+00 0.  1.
</event>
<event>
 7    1  0.2800629E-009  0.5425659E+02  0.7561462E-02  0.1423648E+00
         -1   -1    0    0    0  501 -0.00000000000E+00  0.00000000000E+00  0.22740617242E+03  0.22740617242E+03  0.00000000000E+00 0.  1.
          1   -1    0    0  501    0  0.00000000000E+00 -0.00000000000E+00 -0.73574467601E+02  0.73574467601E+02  0.00000000000E+00 0. -1.
         25    2    1    2    0    0  0.22818881693E+02 -0.81247027001E+01  0.16210792180E+03  0.20618772283E+03  0.12509071341E+03 0.  0.
          5    1    3    3  502    0  0.29319610907E+02  0.81887610522E+00 -0.11791055585E+02  0.31887482397E+02  0.41800000000E+01 0.  1.
         -5    1    3    3    0  502 -0.65007292137E+01 -0.89435788053E+01  0.17389897738E+03  0.17430024044E+03  0.41800000000E+01 0.  1.
        -11    1    1    2    0    0  0.12084779569E+02 -0.19235290800E+02  0.29014601602E+02  0.36849496814E+02  0.00000000000E+00 0.  1.
         11    1    1    2    0    0 -0.34903661262E+02  0.27359993500E+02 -0.37290818580E+02  0.57943420370E+02  0.00000000000E+00 0. -1.
</event>
<event>
 7    1  0.2788485E-009  0.2072462E+03  0.7561462E-02  0.1143765E+00
          2   -1    0    0  501    0  0.00000000000E+00  0.00000000000E+00  0.11835245727E+04  0.11835245727E+04  0.00000000000E+00 0. -1.
         -2   -1    0    0    0  501 -0.00000000000E+00 -0.00000000000E+00 -0.68429711298E+02  0.68429711298E+02  0.00000000000E+00 0.  1.
         25    2    1    2    0    0  0.19585443064E+03 -0.38825713648E+02  0.19720913280E+03  0.30725428257E+03  0.12508940024E+03 0.  0.
          5    1    3    3  502    0  0.30174524899E+02 -0.60649313010E+01 -0.16231344668E+02  0.35045888408E+02  0.41800000000E+01 0. -1.
         -5    1    3    3    0  502  0.16567990574E+03 -0.32760782347E+02  0.21344047747E+03  0.27220839416E+03  0.41800000000E+01 0. -1.
        -11    1    1    2    0    0 -0.13284480570E+03 -0.12212851104E+02  0.43312877840E+03  0.45320793772E+03  0.00000000000E+00 0.  1.
         11    1    1    2    0    0 -0.63009624939E+02  0.51038564753E+02  0.48475695025E+03  0.49149206376E+03  0.00000000000E+00 0. -1.
</event>
<event>
 7    1  0.2788485E-009  0.1040047E+03  0.7561462E-02  0.1272093E+00
         -2   -1    0    0    0  501 -0.00000000000E+00  0.00000000000E+00  0.42995429870E+03  0.42995429870E+03  0.00000000000E+00 0.  1.
          2   -1    0    0  501    0  0.00000000000E+00 -0.00000000000E+00 -0.33273886850E+02  0.33273886850E+02  0.00000000000E+00 0. -1.
         25    2    1    2    0    0 -0.38745519173E+02  0.30750700021E+02  0.20567365383E+03  0.24575557869E+03  0.12508929518E+03 0.  0.
          5    1    3    3  502    0 -0.23405750169E+02  0.65672528399E+02  0.51233485011E+02  0.86620162282E+02  0.41800000000E+01 0.  1.
         -5    1    3    3    0  502 -0.15339769004E+02 -0.34921828378E+02  0.15444016882E+03  0.15913541641E+03  0.41800000000E+01 0.  1.
        -11    1    1    2    0    0  0.54114731078E+02 -0.51008988863E+02  0.16557626263E+03  0.18150983392E+03  0.00000000000E+00 0. -1.
         11    1    1    2    0    0 -0.15369211905E+02  0.20258288841E+02  0.25430495384E+02  0.35962772930E+02  0.00000000000E+00 0.  1.
</event>
<event>
 7    1  0.2788485E-009  0.1173818E+03  0.7561462E-02  0.1247480E+00
         -2   -1    0    0    0  501 -0.00000000000E+00  0.00000000000E+00  0.91296217355E+02  0.91296217355E+02  0.00000000000E+00 0.  1.
          2   -1    0    0  501    0  0.00000000000E+00 -0.00000000000E+00 -0.28081219191E+03  0.28081219191E+03  0.00000000000E+00 0. -1.
         25    2    1    2    0    0  0.10943206492E+02 -0.83481556268E+02 -0.19908117804E+03  0.24973296423E+03  0.12507723202E+03 0.  0.
          5    1    3    3  502    0  0.49850764159E+02  0.77232899831E+01 -0.54651816948E+02  0.74491888089E+02  0.41800000000E+01 0. -1.
         -5    1    3    3    0  502 -0.38907557666E+02 -0.91204846251E+02 -0.14442936109E+03  0.17524107614E+03  0.41800000000E+01 0. -1.
        -11    1    1    2    0    0  0.10368541431E+01  0.33004256867E+02  0.47681487946E+02  0.57998968358E+02  0.00000000000E+00 0. -1.
         11    1    1    2    0    0 -0.11980060636E+02  0.50477299401E+02 -0.38116284468E+02  0.64376476677E+02  0.00000000000E+00 0.  1.
</event>
<event>
 7    1  0.4245930E-009  0.1264721E+03  0.7561462E-02  0.1232786E+00
         -1   -1    0    0    0  501 -0.00000000000E+00  0.00000000000E+00  0.10356034169E+03  0.10356034169E+03  0.00000000000E+00 0.  1.
          1   -1    0    0  501    0  0.00000000000E+00 -0.00000000000E+00 -0.24039424654E+03  0.24039424654E+03  0.00000000000E+00 0. -1.
         25    2    1    2    0    0 -0.53527092285E+02 -0.89023506701E+02 -0.12571561977E+03  0.20553296394E+03  0.12509615445E+03 0.  0.
          5    1    3    3  502    0 -0.71590479197E+02 -0.79750312167E+02 -0.14285514645E+03  0.17863475101E+03  0.41800000000E+01 0. -1.
         -5    1    3    3    0  502  0.18063386912E+02 -0.92731945342E+01  0.17139526682E+02  0.26898212924E+02  0.41800000000E+01 0. -1.
        -11    1    1    2    0    0  0.33224173823E+02 -0.43717372137E+00  0.23147839728E+02  0.40495176641E+02  0.00000000000E+00 0.  1.
         11    1    1    2    0    0  0.20302918462E+02  0.89460680422E+02 -0.34266124806E+02  0.97926447647E+02  0.00000000000E+00 0. -1.
</event>
<event>
 7    1  0.2788485E-009  0.2463256E+03  0.7561462E-02  0.1115649E+00
         -2   -1    0    0    0  501 -0.00000000000E+00  0.00000000000E+00  0.11541352535E+03  0.11541352535E+03  0.00000000000E+00 0.  1.
          2   -1    0    0  501    0  0.00000000000E+00 -0.00000000000E+00 -0.54556041276E+03  0.54556041276E+03  0.00000000000E+00 0. -1.
         25    2    1    2    0    0 -0.39505747055E+02 -0.21936957541E+03 -0.26784369077E+03  0.37023361307E+03  0.12509584682E+03 0.  0.
          5    1    3    3  502    0 -0.65402943656E+02 -0.51665678674E+02 -0.65280523992E+02  0.10595237895E+03  0.41800000000E+01 0.  1.
         -5    1    3    3    0  502  0.25897196601E+02 -0.16770389674E+03 -0.20256316678E+03  0.26428123412E+03  0.41800000000E+01 0.  1.
        -11    1    1    2    0    0  0.23571111242E+02  0.45014360096E+01 -0.27891661724E+02  0.36794089268E+02  0.00000000000E+00 0. -1.
         11    1    1    2    0    0  0.15934635813E+02  0.21486813940E+03 -0.13441153492E+03  0.25394623578E+03  0.00000000000E+00 0.  1.
</event>
<event>
 7    1  0.2788485E-009  0.3450592E+03  0.7561462E-02  0.1064661E+00
         -3   -1    0    0    0  501 -0.00000000000E+00  0.00000000000E+00  0.80952965444E+03  0.80952965444E+03  0.00000000000E+00 0.  1.
          3   -1    0    0  501    0  0.00000000000E+00 -0.00000000000E+00 -0.15084989606E+03  0.15084989606E+03  0.00000000000E+00 0. -1.
         25    2    1    2    0    0 -0.21409617564E+03  0.25399519598E+03  0.34397280221E+03  0.49428329455E+03  0.12509178472E+03 0.  0.
          5    1    3    3  502    0 -0.22257597062E+03  0.21103046563E+03  0.27220980298E+03  0.41010921638E+03  0.41800000000E+01 0. -1.
         -5    1    3    3    0  502  0.84797949819E+01  0.42964730355E+02  0.71762999225E+02  0.84174078166E+02  0.41800000000E+01 0. -1.
        -11    1    1    2    0    0  0.16719600550E+03 -0.14727056482E+03  0.16989191440E+03  0.28018991077E+03  0.00000000000E+00 0.  1.
         11    1    1    2    0    0  0.46900170142E+02 -0.10672463116E+03  0.14481504177E+03  0.18590634518E+03  0.00000000000E+00 0. -1.
</event>
<event>
 7    1  0.2788485E-009  0.3273247E+03  0.7561462E-02  0.1072327E+00
          1   -1    0    0  501    0  0.00000000000E+00  0.00000000000E+00  0.36924336508E+03  0.36924336508E+03  0.00000000000E+00 0. -1.
         -1   -1    0    0    0  501 -0.00000000000E+00 -0.00000000000E+00 -0.30413514692E+03  0.30413514692E+03  0.00000000000E+00 0.  1.
         25    2    1    2    0    0  0.23380072705E+03 -0.20586135208E+03 -0.23353045049E+02  0.33650846998E+03  0.12510359467E+03 0.  0.
          5    1    3    3  502    0  0.16766155268E+03 -0.64763935525E+02 -0.10354526094E+02  0.18008179309E+03  0.41800000000E+01 0. -1.
         -5    1    3    3    0  502  0.66139174370E+02 -0.14109741656E+03 -0.12998518956E+02  0.15642667688E+03  0.41800000000E+01 0. -1.
        -11    1    1    2    0    0 -0.15774816689E+03  0.93739778126E+02  0.18604451122E+02  0.18443902993E+03  0.00000000000E+00 0.  1.
         11    1    1    2    0    0 -0.76052560161E+02  0.11212157396E+03  0.69856812085E+02  0.15243101210E+03  0.00000000000E+00 0. -1.
</event>
<event>
 7    1  0.2788485E-009  0.1080099E+03  0.7561462E-02  0.1264300E+00
          2   -1    0    0  501    0  0.00000000000E+00  0.00000000000E+00  0.56367777614E+03  0.56367777614E+03  0.00000000000E+00 0. -1.
         -2   -1    0    0    0  501 -0.00000000000E+00 -0.00000000000E+00 -0.35381001100E+02  0.35381001100E+02  0.00000000000E+00 0.  1.
         25    2    1    2    0    0  0.33599454349E+02 -0.67436712479E+02  0.18124042289E+03  0.23274893233E+03  0.12508933244E+03 0.  0.
          5    1    3    3  502    0 -0.18262102664E+01 -0.70314233129E+02  0.18382664186E+03  0.19686831406E+03  0.41800000000E+01 0. -1.
         -5    1    3    3    0  502  0.35425664615E+02  0.28775206492E+01 -0.25862189747E+01  0.35880618265E+02  0.41800000000E+01 0. -1.
        -11    1    1    2    0    0 -0.59597694535E+02  0.54375615110E+02  0.18745650602E+03  0.20407972551E+03  0.00000000000E+00 0.  1.
         11    1    1    2    0    0  0.25998240186E+02  0.13061097370E+02  0.15959984613E+03  0.16223011940E+03  0.00000000000E+00 0. -1.
</event>
<event>
 7    1  0.2788485E-009  0.1566430E+03  0.7561462E-02  0.1192540E+00
         -1   -1    0    0    0  501 -0.00000000000E+00  0.00000000000E+00  0.11018478636E+04  0.11018478636E+04  0.00000000000E+00 0.  1.
          1   -1    0    0  501    0  0.00000000000E+00 -0.00000000000E+00 -0.24597256858E+02  0.24597256858E+02  0.00000000000E+00 0. -1.
         25    2    1    2    0    0  0.86035535357E+02 -0.80737031151E+02  0.63742964855E+03  0.66021583421E+03  0.12509120411E+03 0.  0.
          5    1    3    3  502    0 -0.25354032668E+02 -0.15824579837E+02  0.25140963010E+03  0.25321437322E+03  0.41800000000E+01 0.  1.
         -5    1    3    3    0  502  0.11138956802E+03 -0.64912451314E+02  0.38602001845E+03  0.40700146099E+03  0.41800000000E+01 0.  1.
        -11    1    1    2    0    0 -0.35866127163E+02  0.95341710933E+02  0.27128422028E+03  0.28977844829E+03  0.00000000000E+00 0.  1.
         11    1    1    2    0    0 -0.50169408195E+02 -0.14604679782E+02  0.16853673792E+03  0.17645083797E+03  0.00000000000E+00 0. -1.
</event>
<event>
 7    1  0.2788485E-009  0.1197637E+03  0.7561462E-02  0.1243487E+00
         -1   -1    0    0    0  501 -0.00000000000E+00  0.00000000000E+00  0.27716124004E+03  0.27716124004E+03  0.00000000000E+00 0.  1.
          1   -1    0    0  501    0  0.00000000000E+00 -0.00000000000E+00 -0.71674842645E+02  0.71674842645E+02  0.00000000000E+00 0. -1.
         25    2    1    2    0    0  0.79172968184E+02  0.34348262969E+02  0.77457796588E+02  0.17057368684E+03  0.12509000892E+03 0.  0.
          5    1    3    3  502    0 -0.10894035891E+02 -0.10691419224E+02  0.67460096188E+02  0.69291582755E+02  0.41800000000E+01 0. -1.
         -5    1    3    3    0  502  0.90067004075E+02  0.45039682193E+02  0.99977004004E+01  0.10128210409E+03  0.41800000000E+01 0. -1.
        -11    1    1    2    0    0 -0.61139104596E+02 -0.63809091776E+02  0.10234167268E+03  0.13521615389E+03  0.00000000000E+00 0.  1.
         11    1    1    2    0    0 -0.18033863588E+02  0.29460828807E+02  0.25686928118E+02  0.43046241950E+02  0.00000000000E+00 0. -1.
</event>
<event>
 7    1  0.2788485E-009  0.8143883E+02  0.7561462E-02  0.1325017E+00
          1   -1    0    0  501    0  0.00000000000E+00  0.00000000000E+00  0.15223561912E+03  0.15223561912E+03  0.00000000000E+00 0. -1.
         -1   -1    0    0    0  501 -0.00000000000E+00 -0.00000000000E+00 -0.91617492674E+02  0.91617492674E+02  0.00000000000E+00 0.  1.
         25    2    1    2    0    0 -0.26022646017E+02  0.39153037567E+02  0.50574798578E+02  0.14287665866E+03  0.12508313588E+03 0.  0.
          5    1    3    3  502    0 -0.46981341794E+02  0.63123339324E+02  0.69952659407E+02  0.10536911028E+03  0.41800000000E+01 0. -1.
         -5    1    3    3    0  502  0.20958695776E+02 -0.23970301757E+02 -0.19377860829E+02  0.37507548377E+02  0.41800000000E+01 0. -1.
        -11    1    1    2    0    0  0.16518150362E+01 -0.22237116198E+02  0.47926400566E+02  0.52859792857E+02  0.00000000000E+00 0. -1.
         11    1    1    2    0    0  0.24370830981E+02 -0.16915921370E+02 -0.37883072701E+02  0.48116660272E+02  0.00000000000E+00 0.  1.
</event>
<event>
 7    1  0.2788485E-009  0.1293092E+03  0.7561462E-02  0.1228484E+00
         -2   -1    0    0    0  501 -0.00000000000E+00  0.00000000000E+00  0.23175018041E+02  0.23175018041E+02  0.00000000000E+00 0.  1.
          2   -1    0    0  501    0  0.00000000000E+00 -0.00000000000E+00 -0.10556375907E+04  0.10556375907E+04  0.00000000000E+00 0. -1.
         25    2    1    2    0    0 -0.97598556007E+02  0.50658474917E+02 -0.58704720447E+03  0.61021656729E+03  0.12509228394E+03 0.  0.
          5    1    3    3  502    0 -0.12399702993E+02  0.29193926370E+02 -0.42184774174E+03  0.42305913012E+03  0.41800000000E+01 0.  1.
         -5    1    3    3    0  502 -0.85198853014E+02  0.21464548547E+02 -0.16519946273E+03  0.18715743717E+03  0.41800000000E+01 0.  1.
        -11    1    1    2    0    0  0.28040545949E+02 -0.62133107989E+02 -0.14807091604E+03  0.16300856267E+03  0.00000000000E+00 0.  1.
         11    1    1    2    0    0  0.69558010057E+02  0.11474633072E+02 -0.29734445212E+03  0.30558747876E+03  0.00000000000E+00 0. -1.
</event>
<event>
 7    1  0.2788485E-009  0.1096753E+03  0.7561462E-02  0.1261172E+00
         -3   -1    0    0    0  501 -0.00000000000E+00  0.00000000000E+00  0.61714957124E+02  0.61714957124E+02  0.00000000000E+00 0.  1.
          3   -1    0    0  501    0  0.00000000000E+00 -0.00000000000E+00 -0.19563016982E+03  0.19563016982E+03  0.00000000000E+00 0. -1.
         25    2    1    2    0    0 -0.50859184929E+02 -0.46131590249E+02 -0.82684439523E+02  0.16491639927E+03  0.12508365960E+03 0.  0.
          5    1    3    3  502    0 -0.82324425445E+02  0.48581215492E+01 -0.45599653266E+02  0.94327690249E+02  0.41800000000E+01 0. -1.
         -5    1    3    3    0  502  0.31465240516E+02 -0.50989711798E+02 -0.37084786257E+02  0.70588709024E+02  0.41800000000E+01 0. -1.
        -11    1    1    2    0    0  0.23290689087E+02  0.37359715022E+00 -0.12421900993E+02  0.26398852196E+02  0.00000000000E+00 0.  1.
         11    1    1    2    0    0  0.27568495843E+02  0.45757993099E+02 -0.38808872184E+02  0.66029875478E+02  0.00000000000E+00 0. -1.
</event>
<event>
 7    1  0.2788485E-009  0.1438724E+03  0.7561462E-02  0.1208211E+00
          1   -1    0    0  501    0  0.00000000000E+00  0.00000000000E+00  0.51327271039E+02  0.51327271039E+02  0.00000000000E+00 0. -1.
         -1   -1    0    0    0  501 -0.00000000000E+00 -0.00000000000E+00 -0.56568067561E+03  0.56568067561E+03  0.00000000000E+00 0.  1.
         25    2    1    2    0    0 -0.76856075094E+02 -0.90658884036E+02 -0.17719835140E+03  0.24733013710E+03  0.12508817468E+03 0.  0.
          5    1    3    3  502    0 -0.10154999604E+03 -0.34454923050E+02 -0.87048007583E+02  0.13818238470E+03  0.41800000000E+01 0. -1.
         -5    1    3    3    0  502  0.24693920946E+02 -0.56203960985E+02 -0.90150343818E+02  0.10914775239E+03  0.41800000000E+01 0. -1.
        -11    1    1    2    0    0  0.13806280579E+02  0.14429763722E+02 -0.18177157680E+01  0.20053317807E+02  0.00000000000E+00 0. -1.
         11    1    1    2    0    0  0.63049794516E+02  0.76229120314E+02 -0.33533733740E+03  0.34962449175E+03  0.00000000000E+00 0.  1.
</event>
<event>
 7    1  0.2788485E-009  0.3280880E+03  0.7561462E-02  0.1071986E+00
          2   -1    0    0  501    0  0.00000000000E+00  0.00000000000E+00  0.60118642850E+03  0.60118642850E+03  0.00000000000E+00 0. -1.
         -2   -1    0    0    0  501 -0.00000000000E+00 -0.00000000000E+00 -0.21076934551E+03  0.21076934551E+03  0.00000000000E+00 0.  1.
         25    2    1    2    0    0 -0.31760981381E+03 -0.31630193290E+02  0.32745542788E+03  0.47407890953E+03  0.12508913725E+03 0.  0.
          5    1    3    3  502    0 -0.67281792906E+02 -0.30668113733E+02  0.14973608877E+03  0.16705011684E+03  0.41800000000E+01 0. -1.
         -5    1    3    3    0  502 -0.25032802090E+03 -0.96207955656E+00  0.17771933911E+03  0.30702879269E+03  0.41800000000E+01 0. -1.
        -11    1    1    2    0    0  0.14556633826E+03  0.59885131156E+02  0.35836017217E+02  0.16143112432E+03  0.00000000000E+00 0. -1.
         11    1    1    2    0    0  0.17204347554E+03 -0.28254937866E+02  0.27125637882E+02  0.17644574016E+03  0.00000000000E+00 0.  1.
</event>
<event>
 7    1  0.2788485E-009  0.1190293E+03  0.7561462E-02  0.1244707E+00
         -2   -1    0    0    0  501 -0.00000000000E+00  0.00000000000E+00  0.56967337017E+02  0.56967337017E+02  0.00000000000E+00 0.  1.
          2   -1    0    0  501    0  0.00000000000E+00 -0.00000000000E+00 -0.34905658000E+03  0.34905658000E+03  0.00000000000E+00 0. -1.
         25    2    1    2    0    0  0.88869745634E+02 -0.19340572004E+02 -0.17154628144E+03  0.23097065238E+03  0.12508967253E+03 0.  0.
          5    1    3    3  502    0  0.81878168136E+02 -0.49170520389E+02 -0.54785912841E+02  0.11018504045E+03  0.41800000000E+01 0. -1.
         -5    1    3    3    0  502  0.69915774980E+01  0.29829948385E+02 -0.11676036859E+03  0.12078561194E+03  0.41800000000E+01 0. -1.
        -11    1    1    2    0    0  0.28932986691E+01  0.19560990619E+02 -0.64653196580E+02  0.67609462054E+02  0.00000000000E+00 0. -1.
         11    1    1    2    0    0 -0.91763044303E+02 -0.22041861444E+00 -0.55889764966E+02  0.10744380258E+03  0.00000000000E+00 0.  1.
</event>
<event>
 7    1  0.2788485E-009  0.1018903E+03  0.7561462E-02  0.1276370E+00
          2   -1    0    0  501    0  0.00000000000E+00  0.00000000000E+00  0.11638960220E+03  0.11638960220E+03  0.00000000000E+00 0. -1.
         -2   -1    0    0    0  501 -0.00000000000E+00 -0.00000000000E+00 -0.18646536807E+03  0.18646536807E+03  0.00000000000E+00 0.  1.
         25    2    1    2    0    0  0.46250455010E+02 -0.49879970595E+02 -0.11394856014E+03  0.18236546295E+03  0.12508305906E+03 0.  0.
          5    1    3    3  502    0  0.66893425746E+02  0.10776071357E+02 -0.92360898211E+02  0.11462487531E+03  0.41800000000E+01 0. -1.
         -5    1    3    3    0  502 -0.20642970736E+02 -0.60656041952E+02 -0.21587661931E+02  0.67740587640E+02  0.41800000000E+01 0. -1.
        -11    1    1    2    0    0 -0.46674019031E+02  0.39067868683E+02  0.69671102084E+02  0.92513917232E+02  0.00000000000E+00 0. -1.
         11    1    1    2    0    0  0.42356402056E+00  0.10812101912E+02 -0.25798307819E+02  0.27975590084E+02  0.00000000000E+00 0.  1.
</event>
<event>
 7    1  0.2788485E-009  0.1214353E+03  0.7561462E-02  0.1240748E+00
          2   -1    0    0  501    0  0.00000000000E+00  0.00000000000E+00  0.14906603238E+03  0.14906603238E+03  0.00000000000E+00 0.  1.
         -2   -1    0    0    0  501 -0.00000000000E+00 -0.00000000000E+00 -0.16146049918E+03  0.16146049918E+03  0.00000000000E+00 0. -1.
         25    2    1    2    0    0 -0.33692830001E+02  0.10420153285E+03  0.10162080899E+02  0.16656923929E+03  0.12509547293E+03 0.  0.
          5    1    3    3  502    0 -0.16541083856E+02  0.10487312604E+03 -0.39888318323E+02  0.11349242424E+03  0.41800000000E+01 0.  1.
         -5    1    3    3    0  502 -0.17151746145E+02 -0.67159319303E+00  0.50050399222E+02  0.53076815047E+02  0.41800000000E+01 0.  1.
        -11    1    1    2    0    0 -0.11816355298E+02 -0.19567264874E+02 -0.40212055550E+02  0.46254875622E+02  0.00000000000E+00 0. -1.
         11    1    1    2    0    0  0.45509185299E+02 -0.84634267977E+02  0.17655507853E+02  0.97702416654E+02  0.00000000000E+00 0.  1.
</event>
<event>
 7    1  0.2788485E-009  0.8728036E+02  0.7561462E-02  0.1309575E+00
         -2   -1    0    0    0  501 -0.00000000000E+00  0.00000000000E+00  0.13692626122E+03  0.13692626122E+03  0.00000000000E+00 0.  1.
          2   -1    0    0  501    0  0.00000000000E+00 -0.00000000000E+00 -0.11444785016E+03  0.11444785016E+03  0.00000000000E+00 0. -1.
         25    2    1    2    0    0 -0.18483088624E+01  0.26993008563E+02  0.70368831549E+02  0.14605313339E+03  0.12509079328E+03 0.  0.
          5    1    3    3  502    0  0.27595089917E+02 -0.42872687027E+02  0.36878932195E+02  0.63064128634E+02  0.41800000000E+01 0. -1.
         -5    1    3    3    0  502 -0.29443398780E+02  0.69865695591E+02  0.33489899353E+02  0.82989004758E+02  0.41800000000E+01 0. -1.
        -11    1    1    2    0    0 -0.12026410460E+02 -0.30816740793E+02  0.18148780990E+02  0.37731741453E+02  0.00000000000E+00 0.  1.
         11    1    1    2    0    0  0.13874719323E+02  0.38237322299E+01 -0.66039201470E+02  0.67589236534E+02  0.00000000000E+00 0. -1.
</event>
<event>
 7    1  0.2788485E-009  0.8257780E+02  0.7561462E-02  0.1321891E+00
         -1   -1    0    0    0  501 -0.00000000000E+00  0.00000000000E+00  0.57518996195E+02  0.57518996195E+02  0.00000000000E+00 0.  1.
          1   -1    0    0  501    0  0.00000000000E+00 -0.00000000000E+00 -0.31961393707E+03  0.31961393707E+03  0.00000000000E+00 0. -1.
         25    2    1    2    0    0 -0.16035275261E+02  0.10135130673E+01 -0.34438952522E+02  0.13074138902E+03  0.12509641118E+03 0.  0.
          5    1    3    3  502    0  0.25943766609E+02 -0.13770777287E+02  0.36411221087E+02  0.46967677758E+02  0.41800000000E+01 0. -1.
         -5    1    3    3    0  502 -0.41979041870E+02  0.14784290355E+02 -0.70850173609E+02  0.83773711259E+02  0.41800000000E+01 0. -1.
        -11    1    1    2    0    0  0.18044157133E+02 -0.44101788463E+02 -0.86060891983E+02  0.98371929335E+02  0.00000000000E+00 0.  1.
         11    1    1    2    0    0 -0.20088818717E+01  0.43088275396E+02 -0.14159509637E+03  0.14801961491E+03  0.00000000000E+00 0. -1.
</event>
<event>
 7    1  0.2788485E-009  0.1113164E+03  0.7561462E-02  0.1258151E+00
          1   -1    0    0  501    0  0.00000000000E+00  0.00000000000E+00  0.41985638672E+03  0.41985638672E+03  0.00000000000E+00 0. -1.
         -1   -1    0    0    0  501 -0.00000000000E+00 -0.00000000000E+00 -0.53378751585E+02  0.53378751585E+02  0.00000000000E+00 0.  1.
         25    2    1    2    0    0 -0.26614812666E+02 -0.75827299466E+02  0.96528618158E+02  0.17725747721E+03  0.12507722217E+03 0.  0.
          5    1    3    3  502    0 -0.10712432398E+02  0.15166080714E+02 -0.20588287430E+02  0.28037763667E+02  0.41800000000E+01 0.  1.
         -5    1    3    3    0  502 -0.15902380268E+02 -0.90993380181E+02  0.11711690559E+03  0.14921971354E+03  0.41800000000E+01 0.  1.
        -11    1    1    2    0    0 -0.24147251786E+02  0.61364633147E+01  0.21211255093E+02  0.32720991633E+02  0.00000000000E+00 0.  1.
         11    1    1    2    0    0  0.50762064452E+02  0.69690836152E+02  0.24873776189E+03  0.26325666947E+03  0.00000000000E+00 0. -1.
</event>
<event>
 7    1  0.2788485E-009  0.9425645E+02  0.7561462E-02  0.1292860E+00
         -1   -1    0    0    0  501 -0.00000000000E+00  0.00000000000E+00  0.54221925483E+02  0.54221925483E+02  0.00000000000E+00 0.  1.
          1   -1    0    0  501    0  0.00000000000E+00 -0.00000000000E+00 -0.25133618739E+03  0.25133618739E+03  0.00000000000E+00 0. -1.
         25    2    1    2    0    0 -0.28543074137E+02  0.42641193112E+01 -0.15441139383E+03  0.20080524124E+03  0.12508787539E+03 0.  0.
          5    1    3    3  502    0 -0.91433629127E+01 -0.59781545311E+02 -0.83841812352E+02  0.10346185840E+03  0.41800000000E+01 0.  1.
         -5    1    3    3    0  502 -0.19399711224E+02  0.64045664623E+02 -0.70569581474E+02  0.97343382836E+02  0.41800000000E+01 0.  1.
        -11    1    1    2    0    0  0.36040586940E+02 -0.21555827137E+02  0.14576214967E+02  0.44452712328E+02  0.00000000000E+00 0.  1.
         11    1    1    2    0    0 -0.74975128033E+01  0.17291707826E+02 -0.57279083049E+02  0.60300159309E+02  0.00000000000E+00 0. -1.
</event>
<event>
 7    1  0.2788485E-009  0.1090098E+03  0.7561462E-02  0.1262415E+00
          2   -1    0    0  501    0  0.00000000000E+00  0.00000000000E+00  0.15156039192E+04  0.15156039192E+04  0.00000000000E+00 0. -1.
         -2   -1    0    0    0  501 -0.00000000000E+00 -0.00000000000E+00 -0.12449961173E+02  0.12449961173E+02  0.00000000000E+00 0.  1.
         25    2    1    2    0    0 -0.11193354831E+02  0.20902149830E+02  0.12635559420E+04  0.12699539873E+04  0.12508924887E+03 0.  0.
          5    1    3    3  502    0 -0.57568337933E+02 -0.24099832080E+02  0.62950217593E+03  0.63260206871E+03  0.41800000000E+01 0.  1.
         -5    1    3    3    0  502  0.46374983101E+02  0.45001981910E+02  0.63405376611E+03  0.63735191860E+03  0.41800000000E+01 0.  1.
        -11    1    1    2    0    0  0.47916129006E+02  0.10565412966E+01  0.83845029076E+02  0.96576708368E+02  0.00000000000E+00 0.  1.
         11    1    1    2    0    0 -0.36722774174E+02 -0.21958691126E+02  0.15575298687E+03  0.16152318465E+03  0.00000000000E+00 0. -1.
</event>
<event>
 7    1  0.2788485E-009  0.1228674E+03  0.7561462E-02  0.1238440E+00
         -2   -1    0    0    0  501 -0.00000000000E+00  0.00000000000E+00  0.17184748141E+03  0.17184748141E+03  0.00000000000E+00 0.  1.
          2   -1    0    0  501    0  0.00000000000E+00 -0.00000000000E+00 -0.14669539668E+03  0.14669539668E+03  0.00000000000E+00 0. -1.
         25    2    1    2    0    0  0.79848291428E+02  0.23094903164E+02  0.94168684967E+02  0.17726804235E+03  0.12508834244E+03 0.  0.
          5    1    3    3  502    0 -0.17328775175E+02 -0.33166867112E+02  0.27312961999E+02  0.46516640208E+02  0.41800000000E+01 0.  1.
         -5    1    3    3    0  502  0.97177066603E+02  0.56261770276E+02  0.66855722968E+02  0.13075140214E+03  0.41800000000E+01 0.  1.
        -11    1    1    2    0    0 -0.28730251717E+02 -0.32884928368E+02 -0.77096550261E+02  0.88604311066E+02  0.00000000000E+00 0. -1.
         11    1    1    2    0    0 -0.51118039711E+02  0.97900252039E+01  0.80799500162E+01  0.52670524676E+02  0.00000000000E+00 0.  1.
</event>
<event>
 7    1  0.2788485E-009  0.1000573E+03  0.7561462E-02  0.1280175E+00
         -1   -1    0    0    0  501 -0.00000000000E+00  0.00000000000E+00  0.37838115232E+03  0.37838115232E+03  0.00000000000E+00 0.  1.
          1   -1    0    0  501    0  0.00000000000E+00 -0.00000000000E+00 -0.36536997784E+02  0.36536997784E+02  0.00000000000E+00 0. -1.
         25    2    1    2    0    0 -0.42680508278E+02 -0.91671396651E+00  0.21297531379E+03  0.25065549647E+03  0.12508887830E+03 0.  0.
          5    1    3    3  502    0  0.37958671724E+02  0.16181052548E+02  0.11665651356E+03  0.12380994216E+03  0.41800000000E+01 0. -1.
         -5    1    3    3    0  502 -0.80639180001E+02 -0.17097766514E+02  0.96318800231E+02  0.12684555431E+03  0.41800000000E+01 0. -1.
        -11    1    1    2    0    0 -0.14436499847E+02 -0.10505213925E+02 -0.47709182330E+01  0.18480630623E+02  0.00000000000E+00 0. -1.
         11    1    1    2    0    0  0.57117008125E+02  0.11421927891E+02  0.13363975898E+03  0.14578202301E+03  0.00000000000E+00 0.  1.
</event>
<event>
 7    1  0.2788485E-009  0.1227822E+03  0.7561462E-02  0.1238577E+00
          2   -1    0    0  501    0  0.00000000000E+00  0.00000000000E+00  0.62861923782E+03  0.62861923782E+03  0.00000000000E+00 0. -1.
         -2   -1    0    0    0  501 -0.00000000000E+00 -0.00000000000E+00 -0.29708898026E+02  0.29708898026E+02  0.00000000000E+00 0.  1.
         25    2    1    2    0    0 -0.75233212248E+02 -0.36479892938E+02  0.35609957187E+03  0.38658111810E+03  0.12508891626E+03 0.  0.
          5    1    3    3  502    0 -0.59553531588E+02  0.29712180299E+02  0.90733045463E+02  0.11260281845E+03  0.41800000000E+01 0. -1.
         -5    1    3    3    0  502 -0.15679680659E+02 -0.66192073237E+02  0.26536652641E+03  0.27397829966E+03  0.41800000000E+01 0. -1.
        -11    1    1    2    0    0  0.65353182218E+02 -0.73796088656E+01  0.83937037682E+02  0.10663453169E+03  0.00000000000E+00 0.  1.
         11    1    1    2    0    0  0.98800300300E+01  0.43859501803E+02  0.15887373024E+03  0.16511248606E+03  0.00000000000E+00 0. -1.
</event>
<event>
 7    1  0.2788485E-009  0.1752677E+03  0.7561462E-02  0.1172463E+00
          1   -1    0    0  501    0  0.00000000000E+00  0.00000000000E+00  0.49536162610E+02  0.49536162610E+02  0.00000000000E+00 0. -1.
         -1   -1    0    0    0  501 -0.00000000000E+00 -0.00000000000E+00 -0.74247683103E+03  0.74247683103E+03  0.00000000000E+00 0.  1.
         25    2    1    2    0    0 -0.15003678709E+03 -0.39378419041E+02 -0.30537725495E+03  0.36464383719E+03  0.12509261686E+03 0.  0.
          5    1    3    3  502    0 -0.16589951160E+03 -0.36473924454E+02 -0.30356993146E+03  0.34788672122E+03  0.41800000000E+01 0. -1.
         -5    1    3    3    0  502  0.15862724504E+02 -0.29044945866E+01 -0.18073234896E+01  0.16757115972E+02  0.41800000000E+01 0. -1.
        -11    1    1    2    0    0  0.65160736975E+02 -0.97619912036E+01 -0.75251533331E+02  0.10002005491E+03  0.00000000000E+00 0. -1.
         11    1    1    2    0    0  0.84876050120E+02  0.49140410245E+02 -0.31231188014E+03  0.32734910154E+03  0.00000000000E+00 0.  1.
</event>
<event>
 7    1  0.2788485E-009  0.9662245E+02  0.7561462E-02  0.1287563E+00
          2   -1    0    0  501    0  0.00000000000E+00  0.00000000000E+00  0.35236678657E+03  0.35236678657E+03  0.00000000000E+00 0. -1.
         -2   -1    0    0    0  501 -0.00000000000E+00 -0.00000000000E+00 -0.40580695234E+02  0.40580695234E+02  0.00000000000E+00 0.  1.
         25    2    1    2    0    0  0.22503155674E+02  0.41306071812E+02  0.14281299338E+03  0.19559152653E+03  0.12509160878E+03 0.  0.
          5    1    3    3  502    0  0.92804438175E+01  0.79060663018E+02  0.13156136205E+03  0.15382645890E+03  0.41800000000E+01 0. -1.
         -5    1    3    3    0  502  0.13222711856E+02 -0.37754591206E+02  0.11251631327E+02  0.41765067622E+02  0.41800000000E+01 0. -1.
        -11    1    1    2    0    0 -0.40009219052E+02 -0.38605185318E+02  0.17073125340E+03  0.17955572625E+03  0.00000000000E+00 0. -1.
         11    1    1    2    0    0  0.17506063378E+02 -0.27008864945E+01 -0.17581554402E+01  0.17800229027E+02  0.00000000000E+00 0.  1.
</event>
<event>
 7    1  0.2788485E-009  0.1072019E+03  0.7561462E-02  0.1265841E+00
         -2   -1    0    0    0  501 -0.00000000000E+00  0.00000000000E+00  0.14782440628E+02  0.14782440628E+02  0.00000000000E+00 0.  1.
          2   -1    0    0  501    0  0.00000000000E+00 -0.00000000000E+00 -0.10809750922E+04  0.10809750922E+04  0.00000000000E+00 0. -1.
         25    2    1    2    0    0 -0.47712977942E+02  0.20568630178E+02 -0.76142524079E+03  0.77337931448E+03  0.12509024717E+03 0.  0.
          5    1    3    3  502    0  0.61953175465E+00  0.61928355012E+02 -0.23315189268E+03  0.24127325263E+03  0.41800000000E+01 0. -1.
         -5    1    3    3    0  502 -0.48332509697E+02 -0.41359724834E+02 -0.52827334811E+03  0.53210606185E+03  0.41800000000E+01 0. -1.
        -11    1    1    2    0    0 -0.19180940606E+02 -0.62327357406E+01 -0.16364465983E+02  0.25972123984E+02  0.00000000000E+00 0.  1.
         11    1    1    2    0    0  0.66893918548E+02 -0.14335894438E+02 -0.28840294477E+03  0.29640609434E+03  0.00000000000E+00 0. -1.
</event>
<event>
 7    1  0.2788485E-009  0.7118651E+02  0.7561462E-02  0.1356104E+00
         -2   -1    0    0    0  501 -0.00000000000E+00  0.00000000000E+00  0.25668034495E+02  0.25668034495E+02  0.00000000000E+00 0.  1.
          2   -1    0    0  501    0  0.00000000000E+00 -0.00000000000E+00 -0.51159066547E+03  0.51159066547E+03  0.00000000000E+00 0. -1.
         25    2    1    2    0    0 -0.22744377213E+01  0.92649964393E+01 -0.22510224861E+03  0.25770217953E+03  0.12509347617E+03 0.  0.
          5    1    3    3  502    0  0.16079575940E+02  0.20782409369E+02  0.45489875631E+01  0.26993091514E+02  0.41800000000E+01 0. -1.
         -5    1    3    3    0  502 -0.18354013662E+02 -0.11517412930E+02 -0.22965123617E+03  0.23070908802E+03  0.41800000000E+01 0. -1.
        -11    1    1    2    0    0 -0.35063104488E+02  0.24966452132E+02 -0.70419610204E+02  0.82532820924E+02  0.00000000000E+00 0.  1.
         11    1    1    2    0    0  0.37337542209E+02 -0.34231448571E+02 -0.19040077216E+03  0.19702369951E+03  0.00000000000E+00 0. -1.
</event>
<event>
 7    1  0.2788485E-009  0.1107759E+03  0.7561462E-02  0.1259140E+00
         -1   -1    0    0    0  501 -0.00000000000E+00  0.00000000000E+00  0.37444116059E+02  0.37444116059E+02  0.00000000000E+00 0.  1.
          1   -1    0    0  501    0  0.00000000000E+00 -0.00000000000E+00 -0.46021153992E+03  0.46021153992E+03  0.00000000000E+00 0. -1.
         25    2    1    2    0    0  0.43548566204E+02  0.95685965201E+01 -0.12298238691E+03  0.18099818992E+03  0.12509053365E+03 0.  0.
          5    1    3    3  502    0 -0.49703335230E+01 -0.48635000303E+02 -0.19795528717E+02  0.52909383166E+02  0.41800000000E+01 0. -1.
         -5    1    3    3    0  502  0.48518899727E+02  0.58203596823E+02 -0.10318685819E+03  0.12808880676E+03  0.41800000000E+01 0. -1.
        -11    1    1    2    0    0  0.17828371146E+02  0.21395962791E+02 -0.46438272847E+02  0.54149341884E+02  0.00000000000E+00 0. -1.
         11    1    1    2    0    0 -0.61376937349E+02 -0.30964559311E+02 -0.25334676410E+03  0.26250812417E+03  0.00000000000E+00 0.  1.
</event>
<event>
 7    1  0.2788485E-009  0.1010630E+03  0.7561462E-02  0.1278076E+00
         -2   -1    0    0    0  501 -0.00000000000E+00  0.00000000000E+00  0.12720494460E+02  0.12720494460E+02  0.00000000000E+00 0.  1.
          2   -1    0    0  501    0  0.00000000000E+00 -0.00000000000E+00 -0.18885873661E+04  0.18885873661E+04  0.00000000000E+00 0. -1.
         25    2    1    2    0    0 -0.19668485115E+01 -0.79925170161E+02 -0.14712609087E+04  0.14787334255E+04  0.12510787795E+03 0.  0.
          5    1    3    3  502    0 -0.19253347322E+02 -0.11794037786E+02 -0.11324552477E+04  0.11326880202E+04  0.41800000000E+01 0. -1.
         -5    1    3    3    0  502  0.17286498811E+02 -0.68131132375E+02 -0.33880566097E+03  0.34604540532E+03  0.41800000000E+01 0. -1.
        -11    1    1    2    0    0 -0.32634141397E+02  0.61321786394E+02 -0.33950500551E+03  0.34653859444E+03  0.00000000000E+00 0. -1.
         11    1    1    2    0    0  0.34600989908E+02  0.18603383767E+02 -0.65100957483E+02  0.76035840598E+02  0.00000000000E+00 0.  1.
</event>
<event>
 7    1  0.2788485E-009  0.1234783E+03  0.7561462E-02  0.1237467E+00
          2   -1    0    0  501    0  0.00000000000E+00  0.00000000000E+00  0.22201946267E+03  0.22201946267E+03  0.00000000000E+00 0. -1.
         -2   -1    0    0    0  501 -0.00000000000E+00 -0.00000000000E+00 -0.99351122801E+02  0.99351122801E+02  0.00000000000E+00 0.  1.
         25    2    1    2    0    0 -0.91920738208E+02  0.12420264765E+01  0.21285267968E+02  0.15669931724E+03  0.12510255252E+03 0.  0.
          5    1    3    3  502    0 -0.26554567512E+02 -0.40086272195E+02 -0.36129893092E+02  0.60290097439E+02  0.41800000000E+01 0.  1.
         -5    1    3    3    0  502 -0.65366170696E+02  0.41328298672E+02  0.57415161061E+02  0.96409219799E+02  0.41800000000E+01 0.  1.
        -11    1    1    2    0    0  0.15108847742E+02 -0.34406252708E+02  0.64416712831E+01  0.38125616512E+02  0.00000000000E+00 0.  1.
         11    1    1    2    0    0  0.76811890466E+02  0.33164226231E+02  0.94941400620E+02  0.12654565172E+03  0.00000000000E+00 0. -1.
</event>
<event>
 7    1  0.2788485E-009  0.1862872E+03  0.7561462E-02  0.1161853E+00
          1   -1    0    0  501    0  0.00000000000E+00  0.00000000000E+00  0.54366841894E+03  0.54366841894E+03  0.00000000000E+00 0. -1.
         -1   -1    0    0    0  501 -0.00000000000E+00 -0.00000000000E+00 -0.97596513822E+02  0.97596513822E+02  0.00000000000E+00 0.  1.
         25    2    1    2    0    0 -0.87494587698E+02 -0.13119501384E+03  0.53470573784E+02  0.20827629633E+03  0.12510986699E+03 0.  0.
          5    1    3    3  502    0  0.31828198653E+02 -0.37512018165E+02  0.95697565414E+01  0.50291533846E+02  0.41800000000E+01 0.  1.
         -5    1    3    3    0  502 -0.11932278635E+03 -0.93682995676E+02  0.43900817243E+02  0.15798476248E+03  0.41800000000E+01 0.  1.
        -11    1    1    2    0    0  0.56582775545E+02  0.12850486376E+03  0.36638151631E+03  0.39236529662E+03  0.00000000000E+00 0. -1.
         11    1    1    2    0    0  0.30911812154E+02  0.26901500776E+01  0.26219815033E+02  0.40623339824E+02  0.00000000000E+00 0.  1.
</event>
<event>
 7    1  0.2788485E-009  0.1952347E+03  0.7561462E-02  0.1153823E+00
         -2   -1    0    0    0  501 -0.00000000000E+00  0.00000000000E+00  0.34877084855E+03  0.34877084855E+03  0.00000000000E+00 0.  1.
          2   -1    0    0  501    0  0.00000000000E+00 -0.00000000000E+00 -0.12632797854E+03  0.12632797854E+03  0.00000000000E+00 0. -1.
         25    2    1    2    0    0  0.51534606637E+02  0.16451416472E+03  0.16849903699E+03  0.27158550017E+03  0.12508410116E+03 0.  0.
          5    1    3    3  502    0  0.91505282403E+02  0.90697419958E+02  0.10459651788E+03  0.16600344167E+03  0.41800000000E+01 0.  1.
         -5    1    3    3    0  502 -0.39970675767E+02  0.73816744760E+02  0.63902519111E+02  0.10558205850E+03  0.41800000000E+01 0.  1.
        -11    1    1    2    0    0 -0.27109461116E+01 -0.78990303857E+02 -0.18604274988E+02  0.81196898833E+02  0.00000000000E+00 0. -1.
         11    1    1    2    0    0 -0.48823660525E+02 -0.85523860860E+02  0.72548108011E+02  0.12231642809E+03  0.00000000000E+00 0.  1.
</event>
<event>
 7    1  0.2788485E-009  0.1001968E+03  0.7561462E-02  0.1279883E+00
          2   -1    0    0  501    0  0.00000000000E+00  0.00000000000E+00  0.13163505880E+04  0.13163505880E+04  0.00000000000E+00 0. -1.
         -2   -1    0    0    0  501 -0.00000000000E+00 -0.00000000000E+00 -0.21625314319E+02  0.21625314319E+02  0.00000000000E+00 0.  1.
         25    2    1    2    0    0 -0.47434933897E+02  0.30600603498E+02  0.11524197772E+04  0.11605629744E+04  0.12509438388E+03 0.  0.
          5    1    3    3  502    0 -0.67079271001E+02  0.14267025271E+02  0.30068781664E+03  0.30843769563E+03  0.41800000000E+01 0.  1.
         -5    1    3    3    0  502  0.19644337104E+02  0.16333578227E+02  0.85173196051E+03  0.85212527877E+03  0.41800000000E+01 0.  1.
        -11    1    1    2    0    0  0.17540128318E+01 -0.54305572095E+02  0.68414004845E+02  0.87365026072E+02  0.00000000000E+00 0.  1.
         11    1    1    2    0    0  0.45680921065E+02  0.23704968597E+02  0.73891491719E+02  0.90047901886E+02  0.00000000000E+00 0. -1.
</event>
<event>
 7    1  0.2788485E-009  0.1131352E+03  0.7561462E-02  0.1254872E+00
         -1   -1    0    0    0  501 -0.00000000000E+00  0.00000000000E+00  0.82527385439E+02  0.82527385439E+02  0.00000000000E+00 0.  1.
          1   -1    0    0  501    0  0.00000000000E+00 -0.00000000000E+00 -0.22581677683E+03  0.22581677683E+03  0.00000000000E+00 0. -1.
         25    2    1    2    0    0 -0.77412983894E+02  0.27382274319E+02 -0.91005579817E+02  0.17513365600E+03  0.12508885995E+03 0.  0.
          5    1    3    3  502    0 -0.91729103320E+02  0.42652887024E+02 -0.22958678713E+02  0.10381748646E+03  0.41800000000E+01 0. -1.
         -5    1    3    3    0  502  0.14316119426E+02 -0.15270612705E+02 -0.68046901104E+02  0.71316169539E+02  0.41800000000E+01 0. -1.
        -11    1    1    2    0    0  0.41667349119E+01  0.17356352783E+02  0.15658956518E+02  0.23744632678E+02  0.00000000000E+00 0.  1.
         11    1    1    2    0    0  0.73246248982E+02 -0.44738627102E+02 -0.67942768096E+02  0.10946587359E+03  0.00000000000E+00 0. -1.
</event>
<event>
 7    1  0.2788485E-009  0.1739199E+03  0.7561462E-02  0.1173821E+00
         -1   -1    0    0    0  501 -0.00000000000E+00  0.00000000000E+00  0.32378855366E+03  0.32378855366E+03  0.00000000000E+00 0.  1.
          1   -1    0    0  501    0  0.00000000000E+00 -0.00000000000E+00 -0.11633740384E+03  0.11633740384E+03  0.00000000000E+00 0. -1.
         25    2    1    2    0    0 -0.61554696787E+02 -0.13861719218E+03  0.50460719672E+02  0.20296818074E+03  0.12508433755E+03 0.  0.
          5    1    3    3  502    0 -0.61814192529E+02 -0.39743903607E+02  0.70583867661E+02  0.10198101316E+03  0.41800000000E+01 0. -1.
         -5    1    3    3    0  502  0.25949574228E+00 -0.98873288570E+02 -0.20123147989E+02  0.10098716758E+03  0.41800000000E+01 0. -1.
        -11    1    1    2    0    0  0.76166369343E+02  0.14119936049E+03  0.13054755266E+03  0.20683626067E+03  0.00000000000E+00 0. -1.
         11    1    1    2    0    0 -0.14611672556E+02 -0.25821683104E+01  0.26442877491E+02  0.30321516092E+02  0.00000000000E+00 0.  1.
</event>
<event>
 7    1  0.2788485E-009  0.1059025E+03  0.7561462E-02  0.1268352E+00
          1   -1    0    0  501    0  0.00000000000E+00  0.00000000000E+00  0.31004362091E+02  0.31004362091E+02  0.00000000000E+00 0. -1.
         -1   -1    0    0    0  501 -0.00000000000E+00 -0.00000000000E+00 -0.56366215849E+03  0.56366215849E+03  0.00000000000E+00 0.  1.
         25    2    1    2    0    0  0.63118892698E+02 -0.38818946099E+02 -0.27737927372E+03  0.31317533004E+03  0.12509444698E+03 0.  0.
          5    1    3    3  502    0 -0.68270526053E+01  0.18596084283E+02  0.11560953036E+01  0.20278854856E+02  0.41800000000E+01 0. -1.
         -5    1    3    3    0  502  0.69945945304E+02 -0.57415030382E+02 -0.27853536902E+03  0.29289647518E+03  0.41800000000E+01 0. -1.
        -11    1    1    2    0    0 -0.18277175597E+02  0.51271186987E+02 -0.20856919884E+03  0.21555486649E+03  0.00000000000E+00 0.  1.
         11    1    1    2    0    0 -0.44841717101E+02 -0.12452240887E+02 -0.46709323838E+02  0.65936324049E+02  0.00000000000E+00 0. -1.
</event>
<event>
 7    1  0.2788485E-009  0.1443492E+03  0.7561462E-02  0.1207594E+00
         -2   -1    0    0    0  501 -0.00000000000E+00  0.00000000000E+00  0.35660388746E+03  0.35660388746E+03  0.00000000000E+00 0.  1.
          2   -1    0    0  501    0  0.00000000000E+00 -0.00000000000E+00 -0.71571308337E+02  0.71571308337E+02  0.00000000000E+00 0. -1.
         25    2    1    2    0    0  0.11476854190E+03  0.13965973022E+02  0.13033052463E+03  0.21447767054E+03  0.12509100246E+03 0.  0.
          5    1    3    3  502    0  0.11107543087E+03  0.57733656516E+02  0.10603449226E+03  0.16410884311E+03  0.41800000000E+01 0. -1.
         -5    1    3    3    0  502  0.36931110335E+01 -0.43767683495E+02  0.24296032373E+02  0.50368827430E+02  0.41800000000E+01 0. -1.
        -11    1    1    2    0    0 -0.81979047589E+02 -0.23309751255E+02  0.15792025784E+03  0.17945115375E+03  0.00000000000E+00 0.  1.
         11    1    1    2    0    0 -0.32789494316E+02  0.93437782338E+01 -0.32182033381E+01  0.34246371514E+02  0.00000000000E+00 0. -1.
</event>
<event>
 7    1  0.2788485E-009  0.2093407E+03  0.7561462E-02  0.1142089E+00
          1   -1    0    0  501    0  0.00000000000E+00  0.00000000000E+00  0.10201501831E+04  0.10201501831E+04  0.00000000000E+00 0. -1.
         -1   -1    0    0    0  501 -0.00000000000E+00 -0.00000000000E+00 -0.52151824930E+02  0.52151824930E+02  0.00000000000E+00 0.  1.
         25    2    1    2    0    0 -0.12597771662E+02  0.18224903149E+03  0.29489855156E+03  0.36876294157E+03  0.12509011964E+03 0.  0.
          5    1    3    3  502    0  0.11444528103E+01  0.19838546407E+03  0.27680949407E+03  0.34058636281E+03  0.41800000000E+01 0.  1.
         -5    1    3    3    0  502 -0.13742224473E+02 -0.16136432575E+02  0.18089057489E+02  0.28176578759E+02  0.41800000000E+01 0.  1.
        -11    1    1    2    0    0 -0.28199726751E+02 -0.30635076661E+02  0.82312902397E+02  0.92245034619E+02  0.00000000000E+00 0.  1.
         11    1    1    2    0    0  0.40797498413E+02 -0.15161395483E+03  0.59078690420E+03  0.61129403183E+03  0.00000000000E+00 0. -1.
</event>
<event>
 7    1  0.2788485E-009  0.1451485E+03  0.7561462E-02  0.1206564E+00
         -1   -1    0    0    0  501 -0.00000000000E+00  0.00000000000E+00  0.23700773413E+03  0.23700773413E+03  0.00000000000E+00 0.  1.
          1   -1    0    0  501    0  0.00000000000E+00 -0.00000000000E+00 -0.93218408359E+02  0.93218408359E+02  0.00000000000E+00 0. -1.
         25    2    1    2    0    0  0.17386215583E+02 -0.97043452769E+02  0.51944524422E+02  0.16752647751E+03  0.12508866788E+03 0.  0.
          5    1    3    3  502    0 -0.14171904335E+02  0.26762843772E+02  0.17104442611E+02  0.35030373054E+02  0.41800000000E+01 0.  1.
         -5    1    3    3    0  502  0.31558119918E+02 -0.12380629654E+03  0.34840081812E+02  0.13249610446E+03  0.41800000000E+01 0.  1.
        -11    1    1    2    0    0  0.30981764983E+02  0.69831311813E+02  0.37803413199E+02  0.85237197986E+02  0.00000000000E+00 0. -1.
         11    1    1    2    0    0 -0.48367980566E+02  0.27212140956E+02  0.54041388154E+02  0.77462466996E+02  0.00000000000E+00 0.  1.
</event>
<event>
 7    1  0.2788485E-009  0.2268184E+03  0.7561462E-02  0.1128899E+00
         -1   -1    0    0    0  501 -0.00000000000E+00  0.00000000000E+00  0.61022069216E+03  0.61022069216E+03  0.00000000000E+00 0.  1.
          1   -1    0    0  501    0  0.00000000000E+00 -0.00000000000E+00 -0.10635855296E+03  0.10635855296E+03  0.00000000000E+00 0. -1.
         25    2    1    2    0    0 -0.63490246647E+02  0.19274275278E+03  0.41094179369E+03  0.47508395215E+03  0.12510325183E+03 0.  0.
          5    1    3    3  502    0  0.93668350420E+01  0.14920358816E+03  0.30120990507E+03  0.33629500090E+03  0.41800000000E+01 0.  1.
         -5    1    3    3    0  502 -0.72857081689E+02  0.43539164619E+02  0.10973188862E+03  0.13878895125E+03  0.41800000000E+01 0.  1.
        -11    1    1    2    0    0 -0.17108597301E+02 -0.71471827222E+02  0.52691433280E+02  0.90428498435E+02  0.00000000000E+00 0.  1.
         11    1    1    2    0    0  0.80598843948E+02 -0.12127092556E+03  0.40228912229E+02  0.15106679454E+03  0.00000000000E+00 0. -1.
</event>
<event>
 7    1  0.2788485E-009  0.1159732E+03  0.7561462E-02  0.1249892E+00
          2   -1    0    0  501    0  0.00000000000E+00  0.00000000000E+00  0.10770631339E+02  0.10770631339E+02  0.00000000000E+00 0. -1.
         -2   -1    0    0    0  501 -0.00000000000E+00 -0.00000000000E+00 -0.12562341853E+04  0.12562341853E+04  0.00000000000E+00 0.  1.
         25    2    1    2    0    0  0.41666009633E+02 -0.11831609858E+02 -0.71208235360E+03  0.72428417052E+03  0.12510091129E+03 0.  0.
          5    1    3    3  502    0  0.84789541617E+02  0.57613935539E+01 -0.42748753412E+03  0.43587328921E+03  0.41800000000E+01 0.  1.
         -5    1    3    3    0  502 -0.43123531984E+02 -0.17593003412E+02 -0.28459481948E+03  0.28841088131E+03  0.41800000000E+01 0.  1.
        -11    1    1    2    0    0 -0.52476738295E+02  0.42532492496E+02 -0.37371508483E+03  0.37977070136E+03  0.00000000000E+00 0. -1.
         11    1    1    2    0    0  0.10810728662E+02 -0.30700882638E+02 -0.15966611554E+03  0.16294994477E+03  0.00000000000E+00 0.  1.
</event>
<event>
 7    1  0.2788485E-009  0.1002645E+03  0.7561462E-02  0.1279741E+00
         -2   -1    0    0    0  501 -0.00000000000E+00  0.00000000000E+00  0.21887691886E+03  0.21887691886E+03  0.00000000000E+00 0. -1.
          2   -1    0    0  501    0  0.00000000000E+00 -0.00000000000E+00 -0.23943759003E+03  0.23943759003E+03  0.00000000000E+00 0.  1.
         25    2    1    2    0    0  0.91859391942E+01  0.23099052218E+02 -0.20957109001E+03  0.24532698744E+03  0.12508933332E+03 0.  0.
          5    1    3    3  502    0  0.65771705088E+02  0.18319031113E+02 -0.13659124929E+03  0.15276172909E+03  0.41800000000E+01 0.  1.
         -5    1    3    3    0  502 -0.56585765894E+02  0.47800211050E+01 -0.72979840717E+02  0.92565258356E+02  0.41800000000E+01 0.  1.
        -11    1    1    2    0    0 -0.22225412474E+02  0.20158040872E+02  0.15659359377E+02  0.33845695554E+02  0.00000000000E+00 0.  1.
         11    1    1    2    0    0  0.13039473280E+02 -0.43257093090E+02  0.17335105947E+03  0.17914182589E+03  0.00000000000E+00 0. -1.
</event>
<event>
 7    1  0.2788485E-009  0.1326913E+03  0.7561462E-02  0.1223516E+00
          3   -1    0    0  501    0  0.00000000000E+00  0.00000000000E+00  0.72109270596E+02  0.72109270596E+02  0.00000000000E+00 0. -1.
         -3   -1    0    0    0  501 -0.00000000000E+00 -0.00000000000E+00 -0.28168960830E+03  0.28168960830E+03  0.00000000000E+00 0.  1.
         25    2    1    2    0    0 -0.11570545882E+02 -0.81135103472E+02 -0.14857256916E+03  0.21079678446E+03  0.12507874914E+03 0.  0.
          5    1    3    3  502    0 -0.43832070880E+02 -0.92731244060E+02 -0.14266547702E+03  0.17575905324E+03  0.41800000000E+01 0.  1.
         -5    1    3    3    0  502  0.32261524998E+02  0.11596140588E+02 -0.59070921433E+01  0.35037731224E+02  0.41800000000E+01 0.  1.
        -11    1    1    2    0    0  0.49107643303E+02  0.75744042769E+02 -0.34068256864E+02  0.96485059836E+02  0.00000000000E+00 0.  1.
         11    1    1    2    0    0 -0.37537097421E+02  0.53910607029E+01 -0.26939511679E+02  0.46517034598E+02  0.00000000000E+00 0. -1.
</event>
<event>
 7    1  0.2788485E-009  0.8854577E+02  0.7561462E-02  0.1306412E+00
         -1   -1    0    0    0  501 -0.00000000000E+00  0.00000000000E+00  0.38571493304E+02  0.38571493304E+02  0.00000000000E+00 0.  1.
          1   -1    0    0  501    0  0.00000000000E+00 -0.00000000000E+00 -0.57843608722E+03  0.57843608722E+03  0.00000000000E+00 0. -1.
         25    2    1    2    0    0 -0.40993920891E+02  0.57687203920E+02 -0.44561241078E+03  0.46821366533E+03  0.12508117649E+03 0.  0.
          5    1    3    3  502    0 -0.13733169269E+02  0.29659095472E+02 -0.41999023407E+03  0.42128082202E+03  0.41800000000E+01 0.  1.
         -5    1    3    3    0  502 -0.27260751622E+02  0.28028108449E+02 -0.25622176712E+02  0.46932843315E+02  0.41800000000E+01 0.  1.
        -11    1    1    2    0    0  0.20277918692E+01  0.18836849039E+02 -0.47231688180E+02  0.50889794556E+02  0.00000000000E+00 0. -1.
         11    1    1    2    0    0  0.38966129022E+02 -0.76524052960E+02 -0.47020494954E+02  0.97904120639E+02  0.00000000000E+00 0.  1.
</event>
<event>
 7    1  0.2788485E-009  0.1135907E+03  0.7561462E-02  0.1254061E+00
         -4   -1    0    0    0  501 -0.00000000000E+00  0.00000000000E+00  0.95286332451E+02  0.95286332451E+02  0.00000000000E+00 0.  1.
          4   -1    0    0  501    0  0.00000000000E+00 -0.00000000000E+00 -0.17758932563E+03  0.17758932563E+03  0.00000000000E+00 0. -1.
         25    2    1    2    0    0  0.32587104275E+02 -0.71098053871E+02 -0.33848972200E+02  0.15136104306E+03  0.12509020669E+03 0.  0.
          5    1    3    3  502    0 -0.10818171502E+02 -0.79017921494E+02 -0.60008847507E+02  0.99896941550E+02  0.41800000000E+01 0. -1.
         -5    1    3    3    0  502  0.43405275777E+02  0.79198676222E+01  0.26159875308E+02  0.51464101513E+02  0.41800000000E+01 0. -1.
        -11    1    1    2    0    0 -0.53506809199E+02  0.48727649003E+02 -0.54119024434E+02  0.90367202091E+02  0.00000000000E+00 0. -1.
         11    1    1    2    0    0  0.20919704924E+02  0.22370404868E+02  0.56650034530E+01  0.31147412930E+02  0.00000000000E+00 0.  1.
</event>
<event>
 7    1  0.2788485E-009  0.1273491E+03  0.7561462E-02  0.1231443E+00
         -3   -1    0    0    0  501 -0.00000000000E+00  0.00000000000E+00  0.20270267792E+03  0.20270267792E+03  0.00000000000E+00 0.  1.
          3   -1    0    0  501    0  0.00000000000E+00 -0.00000000000E+00 -0.88805990158E+02  0.88805990158E+02  0.00000000000E+00 0. -1.
         25    2    1    2    0    0  0.78369018429E+02  0.79091093124E+01  0.63756781000E+02  0.16098665647E+03  0.12509004508E+03 0.  0.
          5    1    3    3  502    0  0.24300588696E+02 -0.55458068491E+02  0.44850888491E+02  0.75466486404E+02  0.41800000000E+01 0.  1.
         -5    1    3    3    0  502  0.54068429732E+02  0.63367177803E+02  0.18905892509E+02  0.85520170066E+02  0.41800000000E+01 0.  1.
        -11    1    1    2    0    0 -0.31005431631E+02  0.34952768746E+02  0.47442085752E+02  0.66586667841E+02  0.00000000000E+00 0.  1.
         11    1    1    2    0    0 -0.47363586797E+02 -0.42861878059E+02  0.26978210152E+01  0.63935343772E+02  0.00000000000E+00 0. -1.
</event>
<event>
 7    1  0.2788485E-009  0.1862747E+03  0.7561462E-02  0.1161865E+00
         -2   -1    0    0    0  501 -0.00000000000E+00  0.00000000000E+00  0.72750257755E+02  0.72750257755E+02  0.00000000000E+00 0.  1.
          2   -1    0    0  501    0  0.00000000000E+00 -0.00000000000E+00 -0.54954736446E+03  0.54954736446E+03  0.00000000000E+00 0. -1.
         25    2    1    2    0    0  0.13639984985E+03  0.95593809237E+02 -0.22538323265E+03  0.30690184967E+03  0.12509215949E+03 0.  0.
          5    1    3    3  502    0  0.17005787658E+02 -0.28427068526E+02 -0.20160694883E+02  0.39002833962E+02  0.41800000000E+01 0.  1.
         -5    1    3    3    0  502  0.11939406220E+03  0.12402087776E+03 -0.20522253776E+03  0.26789901570E+03  0.41800000000E+01 0.  1.
        -11    1    1    2    0    0 -0.11760415519E+03 -0.77323659314E+02 -0.13139190214E+03  0.19254484557E+03  0.00000000000E+00 0.  1.
         11    1    1    2    0    0 -0.18795694661E+02 -0.18270149923E+02 -0.12002197192E+03  0.12285092697E+03  0.00000000000E+00 0. -1.
</event>
<event>
 7    1  0.2788485E-009  0.8374098E+02  0.7561462E-02  0.1318758E+00
         -1   -1    0    0    0  501 -0.00000000000E+00  0.00000000000E+00  0.25274837526E+02  0.25274837526E+02  0.00000000000E+00 0.  1.
          1   -1    0    0  501    0  0.00000000000E+00 -0.00000000000E+00 -0.63303518910E+03  0.63303518910E+03  0.00000000000E+00 0. -1.
         25    2    1    2    0    0  0.21627156163E+02 -0.22717917021E+02 -0.50255232181E+03  0.51883490510E+03  0.12508790890E+03 0.  0.
          5    1    3    3  502    0 -0.13072539680E+02 -0.56161379589E+02 -0.11961244113E+03  0.13285179835E+03  0.41800000000E+01 0. -1.
         -5    1    3    3    0  502  0.34699695844E+02  0.33443462568E+02 -0.38293988068E+03  0.38598310675E+03  0.41800000000E+01 0. -1.
        -11    1    1    2    0    0  0.15861423567E+02  0.17207965488E+02  0.41237000236E+01  0.23763495864E+02  0.00000000000E+00 0.  1.
         11    1    1    2    0    0 -0.37488579730E+02  0.55099515331E+01 -0.10933172978E+03  0.11571162566E+03  0.00000000000E+00 0. -1.
</event>
<event>
 7    1  0.2788485E-009  0.1088204E+03  0.7561462E-02  0.1262770E+00
          2   -1    0    0  501    0  0.00000000000E+00  0.00000000000E+00  0.10762571116E+04  0.10762571116E+04  0.00000000000E+00 0. -1.
         -2   -1    0    0    0  501 -0.00000000000E+00 -0.00000000000E+00 -0.18063475257E+02  0.18063475257E+02  0.00000000000E+00 0.  1.
         25    2    1    2    0    0 -0.39916856341E+02 -0.73546899243E+02  0.65864443342E+03  0.67562070918E+03  0.12509336992E+03 0.  0.
          5    1    3    3  502    0  0.27598472479E+02 -0.54998134979E+02  0.47585927344E+03  0.47983954719E+03  0.41800000000E+01 0.  1.
         -5    1    3    3    0  502 -0.67515328820E+02 -0.18548764263E+02  0.18278515998E+03  0.19578116199E+03  0.41800000000E+01 0.  1.
        -11    1    1    2    0    0 -0.12379700903E+01  0.10242604631E+02 -0.16579794054E+01  0.10449517467E+02  0.00000000000E+00 0.  1.
         11    1    1    2    0    0  0.41154826431E+02  0.63304294611E+02  0.40120718230E+03  0.40825036017E+03  0.00000000000E+00 0. -1.
</event>
<event>
 7    1  0.2788485E-009  0.1639442E+03  0.7561462E-02  0.1184314E+00
          1   -1    0    0  501    0  0.00000000000E+00  0.00000000000E+00  0.94604298035E+03  0.94604298035E+03  0.00000000000E+00 0. -1.
         -1   -1    0    0    0  501 -0.00000000000E+00 -0.00000000000E+00 -0.36897294125E+02  0.36897294125E+02  0.00000000000E+00 0.  1.
         25    2    1    2    0    0 -0.10219335294E+03 -0.87328015140E+02  0.28815719532E+03  0.34169362737E+03  0.12510116769E+03 0.  0.
          5    1    3    3  502    0 -0.10750908118E+03 -0.10423660787E+03  0.28663412852E+03  0.32341933923E+03  0.41800000000E+01 0.  1.
         -5    1    3    3    0  502  0.53157282347E+01  0.16908592726E+02  0.15230667985E+01  0.18274288142E+02  0.41800000000E+01 0.  1.
        -11    1    1    2    0    0  0.56946565890E+02 -0.48883249364E+01  0.21577121649E+03  0.22321295874E+03  0.00000000000E+00 0.  1.
         11    1    1    2    0    0  0.45246787052E+02  0.92216340077E+02  0.40521727441E+03  0.41803368835E+03  0.00000000000E+00 0. -1.
</event>
<event>
 7    1  0.2788485E-009  0.7632186E+02  0.7561462E-02  0.1339826E+00
          1   -1    0    0  501    0  0.00000000000E+00  0.00000000000E+00  0.12092758124E+03  0.12092758124E+03  0.00000000000E+00 0. -1.
         -1   -1    0    0    0  501 -0.00000000000E+00 -0.00000000000E+00 -0.12734431751E+03  0.12734431751E+03  0.00000000000E+00 0.  1.
         25    2    1    2    0    0  0.32611924532E+02  0.48968270813E+02 -0.10857396271E+02  0.13865879030E+03  0.12508776081E+03 0.  0.
          5    1    3    3  502    0  0.20791760012E+02  0.55862869951E+01 -0.64741118530E+02  0.68354873384E+02  0.41800000000E+01 0. -1.
         -5    1    3    3    0  502  0.11820164520E+02  0.43381983818E+02  0.53883722259E+02  0.70303916916E+02  0.41800000000E+01 0. -1.
        -11    1    1    2    0    0 -0.24110712986E+02 -0.63941901104E+02 -0.27231914509E+02  0.73562696833E+02  0.00000000000E+00 0.  1.
         11    1    1    2    0    0 -0.85012115454E+01  0.14973630291E+02  0.31672574507E+02  0.36050411617E+02  0.00000000000E+00 0. -1.
</event>
<event>
 7    1  0.2788485E-009  0.1187845E+03  0.7561462E-02  0.1245116E+00
          2   -1    0    0  501    0  0.00000000000E+00  0.00000000000E+00  0.30642338457E+03  0.30642338457E+03  0.00000000000E+00 0. -1.
         -2   -1    0    0    0  501 -0.00000000000E+00 -0.00000000000E+00 -0.71354573293E+02  0.71354573293E+02  0.00000000000E+00 0.  1.
         25    2    1    2    0    0  0.91780730024E+02 -0.31767122159E+02  0.72853700507E+02  0.17432206442E+03  0.12509063919E+03 0.  0.
          5    1    3    3  502    0  0.37365768191E+01  0.23207948301E+02 -0.22869850705E+02  0.33061659697E+02  0.41800000000E+01 0. -1.
         -5    1    3    3    0  502  0.88044153205E+02 -0.54975070461E+02  0.95723551212E+02  0.14126040472E+03  0.41800000000E+01 0. -1.
        -11    1    1    2    0    0 -0.11869049734E+02 -0.13494646898E+02  0.73860742244E+02  0.76015716015E+02  0.00000000000E+00 0. -1.
         11    1    1    2    0    0 -0.79911680290E+02  0.45261769058E+02  0.88354368527E+02  0.12744017743E+03  0.00000000000E+00 0.  1.
</event>
<event>
 7    1  0.2788485E-009  0.1550115E+03  0.7561462E-02  0.1194447E+00
          1   -1    0    0  501    0  0.00000000000E+00  0.00000000000E+00  0.10371091971E+04  0.10371091971E+04  0.00000000000E+00 0. -1.
         -1   -1    0    0    0  501 -0.00000000000E+00 -0.00000000000E+00 -0.27805667547E+02  0.27805667547E+02  0.00000000000E+00 0.  1.
         25    2    1    2    0    0  0.50661830674E+02  0.96813435144E+02  0.31812021765E+03  0.35886933744E+03  0.12508903294E+03 0.  0.
          5    1    3    3  502    0 -0.41924733675E+02  0.32884308327E+02  0.98115241737E+02  0.11172794677E+03  0.41800000000E+01 0.  1.
         -5    1    3    3    0  502  0.92586564350E+02  0.63929126818E+02  0.22000497592E+03  0.24714139067E+03  0.41800000000E+01 0.  1.
        -11    1    1    2    0    0 -0.48948146626E+02 -0.11538352499E+03  0.61085050343E+03  0.62357647201E+03  0.00000000000E+00 0. -1.
         11    1    1    2    0    0 -0.17136840485E+01  0.18570089849E+02  0.80332808505E+02  0.82469055241E+02  0.00000000000E+00 0.  1.
</event>
<event>
 7    1  0.2788485E-009  0.1347412E+03  0.7561462E-02  0.1220585E+00
          1   -1    0    0  501    0  0.00000000000E+00  0.00000000000E+00  0.79140285960E+03  0.79140285960E+03  0.00000000000E+00 0. -1.
         -1   -1    0    0    0  501 -0.00000000000E+00 -0.00000000000E+00 -0.34362665262E+02  0.34362665262E+02  0.00000000000E+00 0.  1.
         25    2    1    2    0    0 -0.13059660443E+02  0.11752767916E+03  0.49708857472E+03  0.52604990031E+03  0.12509251140E+03 0.  0.
          5    1    3    3  502    0 -0.26423297415E+01  0.98390457013E+02  0.15773382790E+03  0.18597068802E+03  0.41800000000E+01 0. -1.
         -5    1    3    3    0  502 -0.10417330702E+02  0.19137222150E+02  0.33935474682E+03  0.34007921230E+03  0.41800000000E+01 0. -1.
        -11    1    1    2    0    0 -0.38662589636E+02 -0.60438109429E+02  0.13631505156E+03  0.15404335166E+03  0.00000000000E+00 0. -1.
         11    1    1    2    0    0  0.51722250080E+02 -0.57089569734E+02  0.12363656806E+03  0.14567227288E+03  0.00000000000E+00 0.  1.
</event>
<event>
 7    1  0.2788485E-009  0.1448738E+03  0.7561462E-02  0.1206917E+00
          2   -1    0    0  501    0  0.00000000000E+00  0.00000000000E+00  0.59619513056E+03  0.59619513056E+03  0.00000000000E+00 0. -1.
         -2   -1    0    0    0  501 -0.00000000000E+00 -0.00000000000E+00 -0.44519025527E+02  0.44519025527E+02  0.00000000000E+00 0.  1.
         25    2    1    2    0    0  0.26556924511E+02 -0.12440031432E+03  0.21695867870E+03  0.28089211663E+03  0.12509438229E+03 0.  0.
          5    1    3    3  502    0  0.26945570134E+02  0.81928047515E+01  0.10020686142E+03  0.10417328484E+03  0.41800000000E+01 0. -1.
         -5    1    3    3    0  502 -0.38864562283E+00 -0.13259311907E+03  0.11675181728E+03  0.17671883179E+03  0.41800000000E+01 0. -1.
        -11    1    1    2    0    0 -0.15465912111E+02  0.31881008020E+02  0.13270622768E+03  0.13735550945E+03  0.00000000000E+00 0.  1.
         11    1    1    2    0    0 -0.11091012400E+02  0.92519306298E+02  0.20201119865E+03  0.22246653001E+03  0.00000000000E+00 0. -1.
</event>
<event>
 7    1  0.2788485E-009  0.1118904E+03  0.7561462E-02  0.1257109E+00
         -1   -1    0    0    0  501 -0.00000000000E+00  0.00000000000E+00  0.42448713408E+03  0.42448713408E+03  0.00000000000E+00 0.  1.
          1   -1    0    0  501    0  0.00000000000E+00 -0.00000000000E+00 -0.32509985697E+02  0.32509985697E+02  0.00000000000E+00 0. -1.
         25    2    1    2    0    0 -0.18676740961E+02 -0.38846751298E+02  0.21654492323E+03  0.25376394140E+03  0.12508614408E+03 0.  0.
          5    1    3    3  502    0 -0.70817176823E+02 -0.10583336232E+02  0.13465871067E+03  0.15256972274E+03  0.41800000000E+01 0.  1.
         -5    1    3    3    0  502  0.52140435862E+02 -0.28263415066E+02  0.81886212559E+02  0.10119421866E+03  0.41800000000E+01 0.  1.
        -11    1    1    2    0    0 -0.25127273930E+02  0.41719374229E+02  0.47708379480E+02  0.68176062910E+02  0.00000000000E+00 0. -1.
         11    1    1    2    0    0  0.43804014891E+02 -0.28726229314E+01  0.12772384567E+03  0.13505711546E+03  0.00000000000E+00 0.  1.
</event>
<event>
 7    1  0.2788485E-009  0.8723610E+02  0.7561462E-02  0.1309686E+00
          1   -1    0    0  501    0  0.00000000000E+00  0.00000000000E+00  0.39117707070E+03  0.39117707070E+03  0.00000000000E+00 0. -1.
         -1   -1    0    0    0  501 -0.00000000000E+00 -0.00000000000E+00 -0.44300298898E+02  0.44300298898E+02  0.00000000000E+00 0.  1.
         25    2    1    2    0    0 -0.43553862876E+02 -0.38997203928E+02  0.11595789468E+03  0.18030797279E+03  0.12508801233E+03 0.  0.
          5    1    3    3  502    0 -0.69949650615E+01  0.23649420630E+02  0.10364142037E+03  0.10661726431E+03  0.41800000000E+01 0.  1.
         -5    1    3    3    0  502 -0.36558897815E+02 -0.62646624558E+02  0.12316474310E+02  0.73690708487E+02  0.41800000000E+01 0.  1.
        -11    1    1    2    0    0  0.19336665637E+02  0.47382538851E+02  0.22232498572E+03  0.22813901661E+03  0.00000000000E+00 0. -1.
         11    1    1    2    0    0  0.24217197239E+02 -0.83853349231E+01  0.85938914074E+01  0.27030380194E+02  0.00000000000E+00 0.  1.
</event>
<event>
 7    1  0.2788485E-009  0.1102699E+03  0.7561462E-02  0.1260071E+00
          2   -1    0    0  501    0  0.00000000000E+00  0.00000000000E+00  0.56197025386E+03  0.56197025386E+03  0.00000000000E+00 0. -1.
         -2   -1    0    0    0  501 -0.00000000000E+00 -0.00000000000E+00 -0.37901655443E+02  0.37901655443E+02  0.00000000000E+00 0.  1.
         25    2    1    2    0    0  0.19902954063E+00  0.48773289760E+02  0.45381835635E+03  0.47326230213E+03  0.12508889901E+03 0.  0.
          5    1    3    3  502    0 -0.54897967812E+02  0.45215545627E+02  0.33037988228E+03  0.33797421714E+03  0.41800000000E+01 0.  1.
         -5    1    3    3    0  502  0.55096997352E+02  0.35577441330E+01  0.12343847407E+03  0.13528808499E+03  0.41800000000E+01 0.  1.
        -11    1    1    2    0    0 -0.33898272573E+02  0.88845263529E+00  0.55120372169E+02  0.64715822328E+02  0.00000000000E+00 0. -1.
         11    1    1    2    0    0  0.33699243032E+02 -0.49661742395E+02  0.15129869896E+02  0.61893784840E+02  0.00000000000E+00 0.  1.
</event>
<event>
 7    1  0.2788485E-009  0.1003534E+03  0.7561462E-02  0.1279555E+00
         -1   -1    0    0    0  501 -0.00000000000E+00  0.00000000000E+00  0.58837985316E+02  0.58837985316E+02  0.00000000000E+00 0.  1.
          1   -1    0    0  501    0  0.00000000000E+00 -0.00000000000E+00 -0.31467510533E+03  0.31467510533E+03  0.00000000000E+00 0. -1.
         25    2    1    2    0    0  0.42500933136E+02 -0.64546262144E+02 -0.13888483027E+03  0.20226333892E+03  0.12509561509E+03 0.  0.
          5    1    3    3  502    0 -0.63164587161E+01 -0.51181966364E+01  0.22037599055E+02  0.23858368755E+02  0.41800000000E+01 0. -1.
         -5    1    3    3    0  502  0.48817391852E+02 -0.59428065508E+02 -0.16092242933E+03  0.17840497016E+03  0.41800000000E+01 0. -1.
        -11    1    1    2    0    0  0.14488924769E+02  0.54854558278E+02 -0.23600940475E+02  0.61448807117E+02  0.00000000000E+00 0.  1.
         11    1    1    2    0    0 -0.56989857905E+02  0.96917038668E+01 -0.93351349263E+02  0.10980094461E+03  0.00000000000E+00 0. -1.
</event>
<event>
 7    1  0.3945582E-009  0.9911516E+02  0.7561462E-02  0.1282168E+00
         -1   -1    0    0    0  501 -0.00000000000E+00  0.00000000000E+00  0.70302693451E+02  0.70302693451E+02  0.00000000000E+00 0.  1.
          1   -1    0    0  501    0  0.00000000000E+00 -0.00000000000E+00 -0.23299173951E+03  0.23299173951E+03  0.00000000000E+00 0. -1.
         25    2    1    2    0    0 -0.39810358290E+02  0.53884912447E+02 -0.73923440555E+02  0.16000745084E+03  0.12509700574E+03 0.  0.
          5    1    3    3  502    0 -0.11396962889E+02  0.81409547777E+02 -0.85396866868E+02  0.11860650279E+03  0.41800000000E+01 0. -1.
         -5    1    3    3    0  502 -0.28413395401E+02 -0.27524635330E+02  0.11473426314E+02  0.41400948053E+02  0.41800000000E+01 0. -1.
        -11    1    1    2    0    0  0.10919441290E+02  0.38523802078E+01  0.16285569106E+02  0.19982362034E+02  0.00000000000E+00 0.  1.
         11    1    1    2    0    0  0.28890917000E+02 -0.57737292655E+02 -0.10505117461E+03  0.12330462009E+03  0.00000000000E+00 0. -1.
</event>
<event>
 7    1  0.2788485E-009  0.9530930E+02  0.7561462E-02  0.1290481E+00
         -1   -1    0    0    0  501 -0.00000000000E+00  0.00000000000E+00  0.38301867728E+03  0.38301867728E+03  0.00000000000E+00 0.  1.
          1   -1    0    0  501    0  0.00000000000E+00 -0.00000000000E+00 -0.90114514602E+02  0.90114514602E+02  0.00000000000E+00 0. -1.
         25    2    1    2    0    0  0.59603668820E+02  0.12878026557E+02  0.33058906115E+03  0.35868465218E+03  0.12508841454E+03 0.  0.
          5    1    3    3  502    0  0.87673772526E+02  0.14669734735E+02  0.13933918209E+03  0.16533230650E+03  0.41800000000E+01 0.  1.
         -5    1    3    3    0  502 -0.28070103706E+02 -0.17917081776E+01  0.19124987907E+03  0.19335234569E+03  0.41800000000E+01 0.  1.
        -11    1    1    2    0    0 -0.61007069203E+02 -0.77952651493E+00 -0.62166729194E+02  0.87104376314E+02  0.00000000000E+00 0. -1.
         11    1    1    2    0    0  0.14034003830E+01 -0.12098500042E+02  0.24481830719E+02  0.27344163386E+02  0.00000000000E+00 0.  1.
</event>
<event>
 7    1  0.2788485E-009  0.9926280E+02  0.7561462E-02  0.1281854E+00
          2   -1    0    0  501    0  0.00000000000E+00  0.00000000000E+00  0.43995622953E+03  0.43995622953E+03  0.00000000000E+00 0. -1.
         -2   -1    0    0    0  501 -0.00000000000E+00 -0.00000000000E+00 -0.47754423098E+02  0.47754423098E+02  0.00000000000E+00 0.  1.
         25    2    1    2    0    0 -0.17174057738E+02  0.79190041456E+02  0.29495110881E+03  0.33046896661E+03  0.12509024893E+03 0.  0.
          5    1    3    3  502    0  0.24018834937E+02 -0.50582882426E+00  0.24699753497E+01  0.24509864805E+02  0.41800000000E+01 0.  1.
         -5    1    3    3    0  502 -0.41192892675E+02  0.79695870280E+02  0.29248113346E+03  0.30595910181E+03  0.41800000000E+01 0.  1.
        -11    1    1    2    0    0  0.22635381148E+02 -0.53937106402E+02  0.19777847423E+01  0.58527630733E+02  0.00000000000E+00 0.  1.
         11    1    1    2    0    0 -0.54613234095E+01 -0.25252935054E+02  0.95272912876E+02  0.98714055281E+02  0.00000000000E+00 0. -1.
</event>
<event>
 7    1  0.2788485E-009  0.7329483E+02  0.7561462E-02  0.1349234E+00
          1   -1    0    0  501    0  0.00000000000E+00  0.00000000000E+00  0.57991969134E+03  0.57991969134E+03  0.00000000000E+00 0. -1.
         -1   -1    0    0    0  501 -0.00000000000E+00 -0.00000000000E+00 -0.26971377488E+02  0.26971377488E+02  0.00000000000E+00 0.  1.
         25    2    1    2    0    0  0.60656272283E+01  0.27363727573E+02  0.44266649206E+03  0.46085403869E+03  0.12508899375E+03 0.  0.
          5    1    3    3  502    0  0.18279583430E+02  0.54540757500E+02  0.89918937212E+02  0.10682567607E+03  0.41800000000E+01 0. -1.
         -5    1    3    3    0  502 -0.12213956201E+02 -0.27177029927E+02  0.35274755485E+03  0.35402836261E+03  0.41800000000E+01 0. -1.
        -11    1    1    2    0    0 -0.21901677160E+02  0.52949404665E+01  0.10727635868E+03  0.10961722943E+03  0.00000000000E+00 0. -1.
         11    1    1    2    0    0  0.15836049931E+02 -0.32658668040E+02  0.30054631157E+01  0.36419800715E+02  0.00000000000E+00 0.  1.
</event>
<event>
 7    1  0.2788485E-009  0.1232686E+03  0.7561462E-02  0.1237800E+00
         -1   -1    0    0    0  501 -0.00000000000E+00  0.00000000000E+00  0.36029565508E+03  0.36029565508E+03  0.00000000000E+00 0.  1.
          1   -1    0    0  501    0  0.00000000000E+00 -0.00000000000E+00 -0.55026209462E+02  0.55026209462E+02  0.00000000000E+00 0. -1.
         25    2    1    2    0    0 -0.27342844272E+02 -0.85728429623E+02  0.15682747331E+03  0.21986227936E+03  0.12509025031E+03 0.  0.
          5    1    3    3  502    0  0.40522669551E+02 -0.47983835892E+02  0.26926996989E+02  0.68462185339E+02  0.41800000000E+01 0.  1.
         -5    1    3    3    0  502 -0.67865513824E+02 -0.37744593731E+02  0.12990047632E+03  0.15140009402E+03  0.41800000000E+01 0.  1.
        -11    1    1    2    0    0  0.44446179109E+02  0.67591463360E+02  0.15006184372E+03  0.17047763988E+03  0.00000000000E+00 0.  1.
         11    1    1    2    0    0 -0.17103334837E+02  0.18136966263E+02 -0.16198714121E+01  0.24981945304E+02  0.00000000000E+00 0. -1.
</event>
<event>
 7    1  0.2788485E-009  0.1294329E+03  0.7561462E-02  0.1228300E+00
         -2   -1    0    0    0  501 -0.00000000000E+00  0.00000000000E+00  0.27412069226E+03  0.27412069226E+03  0.00000000000E+00 0.  1.
          2   -1    0    0  501    0  0.00000000000E+00 -0.00000000000E+00 -0.94142095095E+02  0.94142095095E+02  0.00000000000E+00 0. -1.
         25    2    1    2    0    0 -0.64952582990E+02 -0.89373378036E+02  0.13734992675E+03  0.21614421338E+03  0.12508748884E+03 0.  0.
          5    1    3    3  502    0  0.98617134043E+01 -0.25790497093E+02  0.11091778352E+03  0.11437932607E+03  0.41800000000E+01 0. -1.
         -5    1    3    3    0  502 -0.74814296395E+02 -0.63582880943E+02  0.26432143224E+02  0.10176488731E+03  0.41800000000E+01 0. -1.
        -11    1    1    2    0    0 -0.14212743089E+02  0.13431155737E+01  0.29788997484E+02  0.33033171156E+02  0.00000000000E+00 0.  1.
         11    1    1    2    0    0  0.79165326079E+02  0.88030262462E+02  0.12839672936E+02  0.11908540281E+03  0.00000000000E+00 0. -1.
</event>
<event>
 7    1  0.2788485E-009  0.9990621E+02  0.7561462E-02  0.1280493E+00
         -2   -1    0    0    0  501 -0.00000000000E+00  0.00000000000E+00  0.38650038370E+02  0.38650038370E+02  0.00000000000E+00 0.  1.
          2   -1    0    0  501    0  0.00000000000E+00 -0.00000000000E+00 -0.39586004100E+03  0.39586004100E+03  0.00000000000E+00 0. -1.
         25    2    1    2    0    0 -0.50399214978E+02  0.38262832309E+02 -0.18760446616E+03  0.23419518818E+03  0.12509126763E+03 0.  0.
          5    1    3    3  502    0 -0.18779678040E+02  0.54551348740E+02 -0.18969760473E+03  0.19832090055E+03  0.41800000000E+01 0. -1.
         -5    1    3    3    0  502 -0.31619536938E+02 -0.16288516431E+02  0.20931385670E+01  0.35874287627E+02  0.41800000000E+01 0. -1.
        -11    1    1    2    0    0 -0.79525189030E+01  0.21321738663E+02 -0.44127988517E+02  0.49650160796E+02  0.00000000000E+00 0.  1.
         11    1    1    2    0    0  0.58351733881E+02 -0.59584570972E+02 -0.12547754795E+03  0.15066473039E+03  0.00000000000E+00 0. -1.
</event>
<event>
 7    1  0.2788485E-009  0.1260999E+03  0.7561462E-02  0.1233360E+00
          1   -1    0    0  501    0  0.00000000000E+00  0.00000000000E+00  0.36479142171E+03  0.36479142171E+03  0.00000000000E+00 0. -1.
         -1   -1    0    0    0  501 -0.00000000000E+00 -0.00000000000E+00 -0.73650833081E+02  0.73650833081E+02  0.00000000000E+00 0.  1.
         25    2    1    2    0    0 -0.55127561834E+02 -0.75532233185E+02  0.50803981699E+02  0.16423108811E+03  0.12508652774E+03 0.  0.
          5    1    3    3  502    0  0.18331079112E+02 -0.25195676529E+02  0.66643729699E+02  0.73686563805E+02  0.41800000000E+01 0.  1.
         -5    1    3    3    0  502 -0.73458640946E+02 -0.50336556656E+02 -0.15839748000E+02  0.90544524309E+02  0.41800000000E+01 0.  1.
        -11    1    1    2    0    0 -0.18312607922E+02  0.50994346198E+02  0.10969088466E+03  0.12234322674E+03  0.00000000000E+00 0.  1.
         11    1    1    2    0    0  0.73440169756E+02  0.24537886987E+02  0.13064572228E+03  0.15186793994E+03  0.00000000000E+00 0. -1.
</event>
<event>
 7    1  0.2788485E-009  0.1532133E+03  0.7561462E-02  0.1196579E+00
         -3   -1    0    0    0  501 -0.00000000000E+00  0.00000000000E+00  0.23909631730E+03  0.23909631730E+03  0.00000000000E+00 0.  1.
          3   -1    0    0  501    0  0.00000000000E+00 -0.00000000000E+00 -0.14909159997E+03  0.14909159997E+03  0.00000000000E+00 0. -1.
         25    2    1    2    0    0  0.13984715095E+03 -0.18698483174E+02  0.11024175466E+03  0.21842286892E+03  0.12509375004E+03 0.  0.
          5    1    3    3  502    0 -0.13844574236E+01  0.35373771840E+01 -0.22552872645E+02  0.23249391911E+02  0.41800000000E+01 0.  1.
         -5    1    3    3    0  502  0.14123160837E+03 -0.22235860358E+02  0.13279462730E+03  0.19517347701E+03  0.41800000000E+01 0.  1.
        -11    1    1    2    0    0 -0.77606263762E+02  0.45520850178E+02 -0.41012033739E+02  0.98878040472E+02  0.00000000000E+00 0. -1.
         11    1    1    2    0    0 -0.62240887185E+02 -0.26822367005E+02  0.20774996415E+02  0.70887007874E+02  0.00000000000E+00 0.  1.
</event>
<event>
 7    1  0.2788485E-009  0.1676775E+03  0.7561462E-02  0.1180292E+00
          1   -1    0    0  501    0  0.00000000000E+00  0.00000000000E+00  0.93109784303E+03  0.93109784303E+03  0.00000000000E+00 0. -1.
         -1   -1    0    0    0  501 -0.00000000000E+00 -0.00000000000E+00 -0.41583464424E+02  0.41583464424E+02  0.00000000000E+00 0.  1.
         25    2    1    2    0    0  0.49353055452E+02  0.12691646159E+03  0.24119995393E+03  0.30392040481E+03  0.12508669945E+03 0.  0.
          5    1    3    3  502    0 -0.34389207469E+02  0.80004839806E+02  0.13505274896E+03  0.16074859061E+03  0.41800000000E+01 0.  1.
         -5    1    3    3    0  502  0.83742262921E+02  0.46911621780E+02  0.10614720497E+03  0.14317181419E+03  0.41800000000E+01 0.  1.
        -11    1    1    2    0    0  0.16615939037E+02 -0.37130130429E+02  0.81358779311E+02  0.90961458799E+02  0.00000000000E+00 0.  1.
         11    1    1    2    0    0 -0.65968994489E+02 -0.89786331156E+02  0.56695564537E+03  0.57779944385E+03  0.00000000000E+00 0. -1.
</event>
<event>
 7    1  0.2788485E-009  0.1213102E+03  0.7561462E-02  0.1240951E+00
          2   -1    0    0  501    0  0.00000000000E+00  0.00000000000E+00  0.14977019236E+03  0.14977019236E+03  0.00000000000E+00 0. -1.
         -2   -1    0    0    0  501 -0.00000000000E+00 -0.00000000000E+00 -0.16065077925E+03  0.16065077925E+03  0.00000000000E+00 0.  1.
         25    2    1    2    0    0  0.22836862907E+02 -0.92043320358E+02 -0.64747484516E+02  0.16980370748E+03  0.12509023620E+03 0.  0.
          5    1    3    3  502    0 -0.58989084319E+01 -0.10674012066E+03 -0.80266318881E+02  0.13374754138E+03  0.41800000000E+01 0. -1.
         -5    1    3    3    0  502  0.28735771338E+02  0.14696800304E+02  0.15518834365E+02  0.36056166097E+02  0.41800000000E+01 0. -1.
        -11    1    1    2    0    0 -0.34594431785E+02  0.66046835824E+02 -0.54887813559E+01  0.74760189631E+02  0.00000000000E+00 0.  1.
         11    1    1    2    0    0  0.11757568878E+02  0.25996484534E+02  0.59355678977E+02  0.65857074494E+02  0.00000000000E+00 0. -1.
</event>
<event>
 7    1  0.2788485E-009  0.1008579E+03  0.7561462E-02  0.1278502E+00
          3   -1    0    0  501    0  0.00000000000E+00  0.00000000000E+00  0.96598787168E+03  0.96598787168E+03  0.00000000000E+00 0. -1.
         -3   -1    0    0    0  501 -0.00000000000E+00 -0.00000000000E+00 -0.21291939619E+02  0.21291939619E+02  0.00000000000E+00 0.  1.
         25    2    1    2    0    0  0.13187417492E+02 -0.82526350210E+02  0.66073132784E+03  0.67764153032E+03  0.12509056546E+03 0.  0.
          5    1    3    3  502    0  0.81584437575E+01 -0.95690835534E+01  0.50881727583E+03  0.50898980358E+03  0.41800000000E+01 0.  1.
         -5    1    3    3    0  502  0.50289737344E+01 -0.72957266657E+02  0.15191405201E+03  0.16865172674E+03  0.41800000000E+01 0.  1.
        -11    1    1    2    0    0 -0.29853777263E+02 -0.11684365558E+01  0.32777543271E+02  0.44350655055E+02  0.00000000000E+00 0.  1.
         11    1    1    2    0    0  0.16666359772E+02  0.83694786766E+02  0.25118706095E+03  0.26528762593E+03  0.00000000000E+00 0. -1.
</event>
<event>
 7    1  0.2788485E-009  0.1037265E+03  0.7561462E-02  0.1272649E+00
          1   -1    0    0  501    0  0.00000000000E+00  0.00000000000E+00  0.22200246011E+03  0.22200246011E+03  0.00000000000E+00 0. -1.
         -1   -1    0    0    0  501 -0.00000000000E+00 -0.00000000000E+00 -0.76190985753E+02  0.76190985753E+02  0.00000000000E+00 0.  1.
         25    2    1    2    0    0 -0.40546390785E+01 -0.42823593510E+02  0.15633513414E+02  0.13319753035E+03  0.12508746976E+03 0.  0.
          5    1    3    3  502    0 -0.43785924141E+02  0.17947086595E+02 -0.20795192345E+02  0.51857665729E+02  0.41800000000E+01 0. -1.
         -5    1    3    3    0  502  0.39731285063E+02 -0.60770680104E+02  0.36428705759E+02  0.81339864620E+02  0.41800000000E+01 0. -1.
        -11    1    1    2    0    0 -0.34264683523E+02  0.74381108492E+01  0.97091075930E+02  0.10322824737E+03  0.00000000000E+00 0.  1.
         11    1    1    2    0    0  0.38319322602E+02  0.35385482661E+02  0.33086885009E+02  0.61767668139E+02  0.00000000000E+00 0. -1.
</event>
<event>
 7    1  0.2788485E-009  0.7782742E+02  0.7561462E-02  0.1335332E+00
          2   -1    0    0  501    0  0.00000000000E+00  0.00000000000E+00  0.53092358726E+02  0.53092358726E+02  0.00000000000E+00 0. -1.
         -2   -1    0    0    0  501 -0.00000000000E+00 -0.00000000000E+00 -0.30984261157E+03  0.30984261157E+03  0.00000000000E+00 0.  1.
         25    2    1    2    0    0 -0.22291135929E+02 -0.58512020239E+02 -0.13626052351E+03  0.19528110734E+03  0.12508888586E+03 0.  0.
          5    1    3    3  502    0 -0.58774884833E+01 -0.30534936714E+02 -0.15462296746E+03  0.15777408436E+03  0.41800000000E+01 0. -1.
         -5    1    3    3    0  502 -0.16413647446E+02 -0.27977083525E+02  0.18362443950E+02  0.37507022981E+02  0.41800000000E+01 0. -1.
        -11    1    1    2    0    0  0.46294420540E+02  0.41290127633E+02 -0.12325238859E+03  0.13798260509E+03  0.00000000000E+00 0.  1.
         11    1    1    2    0    0 -0.24003284610E+02  0.17221892606E+02  0.27626592575E+01  0.29671257863E+02  0.00000000000E+00 0. -1.
</event>
<event>
 7    1  0.2788485E-009  0.1171449E+03  0.7561462E-02  0.1247883E+00
          2   -1    0    0  501    0  0.00000000000E+00  0.00000000000E+00  0.10686119041E+03  0.10686119041E+03  0.00000000000E+00 0. -1.
         -2   -1    0    0    0  501 -0.00000000000E+00 -0.00000000000E+00 -0.15071809876E+03  0.15071809876E+03  0.00000000000E+00 0.  1.
         25    2    1    2    0    0  0.34231481759E+02 -0.55872600818E+02 -0.14401739135E+02  0.14194669302E+03  0.12509161324E+03 0.  0.
          5    1    3    3  502    0 -0.37684163197E+02 -0.30737680051E+02 -0.38248538307E+02  0.62010678220E+02  0.41800000000E+01 0.  1.
         -5    1    3    3    0  502  0.71915644956E+02 -0.25134920768E+02  0.23846799171E+02  0.79936014800E+02  0.41800000000E+01 0.  1.
        -11    1    1    2    0    0  0.73984702137E+01  0.65940292214E+02 -0.29948956168E+02  0.72799721664E+02  0.00000000000E+00 0. -1.
         11    1    1    2    0    0 -0.41629951973E+02 -0.10067691396E+02  0.49378694484E+00  0.42832874487E+02  0.00000000000E+00 0.  1.
</event>
<event>
 7    1  0.2788485E-009  0.1261545E+03  0.7561462E-02  0.1233276E+00
         -4   -1    0    0    0  501 -0.00000000000E+00  0.00000000000E+00  0.22706874253E+03  0.22706874253E+03  0.00000000000E+00 0. -1.
          4   -1    0    0  501    0  0.00000000000E+00 -0.00000000000E+00 -0.10465966810E+03  0.10465966810E+03  0.00000000000E+00 0.  1.
         25    2    1    2    0    0 -0.80628282120E+02 -0.33438175841E+02  0.13881264586E+03  0.20624191425E+03  0.12509094717E+03 0.  0.
          5    1    3    3  502    0  0.19029004837E+02 -0.32710307635E+02  0.36347054801E+01  0.38245924418E+02  0.41800000000E+01 0. -1.
         -5    1    3    3    0  502 -0.99657286957E+02 -0.72786820543E+00  0.13517794038E+03  0.16799598983E+03  0.41800000000E+01 0. -1.
        -11    1    1    2    0    0  0.70869302960E+02 -0.85481349690E+01 -0.33827534113E+02  0.78992599512E+02  0.00000000000E+00 0.  1.
         11    1    1    2    0    0  0.97589791601E+01  0.41986310810E+02  0.17423962690E+02  0.46493896863E+02  0.00000000000E+00 0. -1.
</event>
<event>
 7    1  0.2788485E-009  0.1150288E+03  0.7561462E-02  0.1251531E+00
         -2   -1    0    0    0  501 -0.00000000000E+00  0.00000000000E+00  0.35249469874E+02  0.35249469874E+02  0.00000000000E+00 0.  1.
          2   -1    0    0  501    0  0.00000000000E+00 -0.00000000000E+00 -0.45833563120E+03  0.45833563120E+03  0.00000000000E+00 0. -1.
         25    2    1    2    0    0  0.44506494892E+02 -0.43191410054E+02 -0.27311771571E+03  0.30673611879E+03  0.12508970361E+03 0.  0.
          5    1    3    3  502    0  0.66945077906E+02 -0.74882952028E+02 -0.19366510979E+03  0.21820345348E+03  0.41800000000E+01 0.  1.
         -5    1    3    3    0  502 -0.22438583014E+02  0.31691541974E+02 -0.79452605918E+02  0.88532665314E+02  0.41800000000E+01 0.  1.
        -11    1    1    2    0    0  0.15141615928E+02  0.22924676251E+02 -0.10730126195E+03  0.11076267481E+03  0.00000000000E+00 0. -1.
         11    1    1    2    0    0 -0.59648110820E+02  0.20266733804E+02 -0.42667183672E+02  0.76086307480E+02  0.00000000000E+00 0.  1.
</event>
<event>
 7    1  0.2788485E-009  0.1080312E+03  0.7561462E-02  0.1264260E+00
         -2   -1    0    0    0  501 -0.00000000000E+00  0.00000000000E+00  0.81615220813E+03  0.81615220813E+03  0.00000000000E+00 0.  1.
          2   -1    0    0  501    0  0.00000000000E+00 -0.00000000000E+00 -0.23087330625E+02  0.23087330625E+02  0.00000000000E+00 0. -1.
         25    2    1    2    0    0 -0.58111130360E+02  0.43897654746E+02  0.56447146890E+03  0.58273486904E+03  0.12509188953E+03 0.  0.
          5    1    3    3  502    0 -0.41412306929E+02  0.62343270465E+02  0.15186714406E+03  0.16935986651E+03  0.41800000000E+01 0. -1.
         -5    1    3    3    0  502 -0.16698823430E+02 -0.18445615719E+02  0.41260432484E+03  0.41337500253E+03  0.41800000000E+01 0. -1.
        -11    1    1    2    0    0  0.30523010090E+01 -0.58762094081E+02  0.10432596120E+03  0.11977565038E+03  0.00000000000E+00 0.  1.
         11    1    1    2    0    0  0.55058829351E+02  0.14864439335E+02  0.12426744741E+03  0.13672901935E+03  0.00000000000E+00 0. -1.
</event>
<event>
 7    1  0.2788485E-009  0.1863341E+03  0.7561462E-02  0.1161810E+00
          1   -1    0    0  501    0  0.00000000000E+00  0.00000000000E+00  0.76428462914E+03  0.76428462914E+03  0.00000000000E+00 0. -1.
         -1   -1    0    0    0  501 -0.00000000000E+00 -0.00000000000E+00 -0.46340347107E+02  0.46340347107E+02  0.00000000000E+00 0.  1.
         25    2    1    2    0    0  0.10817482089E+03 -0.10615983666E+03  0.43182901243E+03  0.47444153383E+03  0.12508705070E+03 0.  0.
          5    1    3    3  502    0  0.83572871350E+02  0.35722420333E+01  0.19564234864E+03  0.21281585167E+03  0.41800000000E+01 0. -1.
         -5    1    3    3    0  502  0.24601949544E+02 -0.10973207870E+03  0.23618666378E+03  0.26162568216E+03  0.41800000000E+01 0. -1.
        -11    1    1    2    0    0 -0.41083234483E+02  0.10106485357E+03  0.17056300907E+03  0.20246895280E+03  0.00000000000E+00 0. -1.
         11    1    1    2    0    0 -0.67091586411E+02  0.50949830887E+01  0.11555226054E+03  0.13371448962E+03  0.00000000000E+00 0.  1.
</event>
<event>
 7    1  0.2788485E-009  0.1371807E+03  0.7561462E-02  0.1217174E+00
         -2   -1    0    0    0  501 -0.00000000000E+00  0.00000000000E+00  0.23025087059E+03  0.23025087059E+03  0.00000000000E+00 0.  1.
          2   -1    0    0  501    0  0.00000000000E+00 -0.00000000000E+00 -0.10318992806E+03  0.10318992806E+03  0.00000000000E+00 0. -1.
         25    2    1    2    0    0  0.73561604372E+02  0.79889690528E+02  0.72796910860E+02  0.18095425471E+03  0.12510547461E+03 0.  0.
          5    1    3    3  502    0  0.54708770103E+02  0.94868362050E+02  0.97149591167E+02  0.14645330692E+03  0.41800000000E+01 0. -1.
         -5    1    3    3    0  502  0.18852834268E+02 -0.14978671522E+02 -0.24352680307E+02  0.34500947793E+02  0.41800000000E+01 0. -1.
        -11    1    1    2    0    0  0.37056142036E+01 -0.60570919628E+02  0.36728066239E+02  0.70933199074E+02  0.00000000000E+00 0.  1.
         11    1    1    2    0    0 -0.77267218575E+02 -0.19318770900E+02  0.17535965426E+02  0.81553344866E+02  0.00000000000E+00 0. -1.
</event>
<event>
 7    1  0.2788485E-009  0.1080409E+03  0.7561462E-02  0.1264242E+00
         -2   -1    0    0    0  501 -0.00000000000E+00  0.00000000000E+00  0.10681922107E+04  0.10681922107E+04  0.00000000000E+00 0.  1.
          2   -1    0    0  501    0  0.00000000000E+00 -0.00000000000E+00 -0.12844461718E+02  0.12844461718E+02  0.00000000000E+00 0. -1.
         25    2    1    2    0    0 -0.25202491797E+02 -0.11924474373E+02  0.74114063515E+03  0.75214004253E+03  0.12509134188E+03 0.  0.
          5    1    3    3  502    0 -0.42512879802E+02 -0.56924995057E+02  0.56524638911E+03  0.56970935819E+03  0.41800000000E+01 0.  1.
         -5    1    3    3    0  502  0.17310388005E+02  0.45000520684E+02  0.17589424604E+03  0.18243068433E+03  0.41800000000E+01 0.  1.
        -11    1    1    2    0    0  0.71261910024E+01  0.52034368667E+02  0.19013122079E+03  0.19725171543E+03  0.00000000000E+00 0.  1.
         11    1    1    2    0    0  0.18076300795E+02 -0.40109894294E+02  0.12407589303E+03  0.13164491445E+03  0.00000000000E+00 0. -1.
</event>
<event>
 7    1  0.3163075E-009  0.1067171E+03  0.7561462E-02  0.1266773E+00
          1   -1    0    0  501    0  0.00000000000E+00  0.00000000000E+00  0.13930676943E+03  0.13930676943E+03  0.00000000000E+00 0. -1.
         -1   -1    0    0    0  501 -0.00000000000E+00 -0.00000000000E+00 -0.12297833663E+03  0.12297833663E+03  0.00000000000E+00 0.  1.
         25    2    1    2    0    0  0.23499816210E+02  0.45393150363E+02  0.61261321667E+02  0.14836814629E+03  0.12508947933E+03 0.  0.
          5    1    3    3  502    0 -0.98660204451E+01  0.75492706384E+02  0.52390801089E+01  0.76429100720E+02  0.41800000000E+01 0.  1.
         -5    1    3    3    0  502  0.33365836655E+02 -0.30099556020E+02  0.56022241558E+02  0.71939045570E+02  0.41800000000E+01 0.  1.
        -11    1    1    2    0    0  0.25128813816E+02 -0.33704553291E+02 -0.48001704439E+02  0.63809229939E+02  0.00000000000E+00 0.  1.
         11    1    1    2    0    0 -0.48628630026E+02 -0.11688597073E+02  0.30688155651E+01  0.50107729830E+02  0.00000000000E+00 0. -1.
</event>
<event>
 7    1  0.2788485E-009  0.1116216E+03  0.7561462E-02  0.1257596E+00
         -1   -1    0    0    0  501 -0.00000000000E+00  0.00000000000E+00  0.39207215335E+02  0.39207215335E+02  0.00000000000E+00 0.  1.
          1   -1    0    0  501    0  0.00000000000E+00 -0.00000000000E+00 -0.50319921946E+03  0.50319921946E+03  0.00000000000E+00 0. -1.
         25    2    1    2    0    0  0.26846701919E+02  0.14586330786E+02 -0.41470132718E+03  0.43423267628E+03  0.12508924788E+03 0.  0.
          5    1    3    3  502    0 -0.19201182016E+02  0.59400420572E+02 -0.24071806487E+03  0.24871621280E+03  0.41800000000E+01 0. -1.
         -5    1    3    3    0  502  0.46047883936E+02 -0.44814089785E+02 -0.17398326231E+03  0.18551646348E+03  0.41800000000E+01 0. -1.
        -11    1    1    2    0    0 -0.38558282857E+01 -0.52124348321E+02 -0.26191350206E+02  0.58461969905E+02  0.00000000000E+00 0. -1.
         11    1    1    2    0    0 -0.22990873634E+02  0.37538017534E+02 -0.23099326737E+02  0.49711788607E+02  0.00000000000E+00 0.  1.
</event>
<event>
 7    1  0.2788485E-009  0.1330311E+03  0.7561462E-02  0.1223026E+00
         -3   -1    0    0    0  501 -0.00000000000E+00  0.00000000000E+00  0.28976448343E+03  0.28976448343E+03  0.00000000000E+00 0.  1.
          3   -1    0    0  501    0  0.00000000000E+00 -0.00000000000E+00 -0.94082534671E+02  0.94082534671E+02  0.00000000000E+00 0. -1.
         25    2    1    2    0    0 -0.24605057505E+02  0.94056439017E+02  0.19299361960E+03  0.24969175296E+03  0.12508961474E+03 0.  0.
          5    1    3    3  502    0 -0.49828406435E+02  0.11441440626E+03  0.14163358782E+03  0.18881491479E+03  0.41800000000E+01 0.  1.
         -5    1    3    3    0  502  0.25223348930E+02 -0.20357967244E+02  0.51360031781E+02  0.60876838174E+02  0.41800000000E+01 0.  1.
        -11    1    1    2    0    0 -0.60680088790E+01 -0.67997888158E+02 -0.36983396986E+02  0.77642161087E+02  0.00000000000E+00 0. -1.
         11    1    1    2    0    0  0.30673066384E+02 -0.26058550859E+02  0.39671726142E+02  0.56513104050E+02  0.00000000000E+00 0.  1.
</event>
<event>
 7    1  0.2788485E-009  0.9951846E+02  0.7561462E-02  0.1281312E+00
         -2   -1    0    0    0  501 -0.00000000000E+00  0.00000000000E+00  0.33179116281E+02  0.33179116281E+02  0.00000000000E+00 0.  1.
          2   -1    0    0  501    0  0.00000000000E+00 -0.00000000000E+00 -0.43428132099E+03  0.43428132099E+03  0.00000000000E+00 0. -1.
         25    2    1    2    0    0 -0.12132113659E+02 -0.51273580520E+02 -0.21942795673E+03  0.25801373174E+03  0.12508512833E+03 0.  0.
          5    1    3    3  502    0 -0.18747352547E+02 -0.91772931150E+02 -0.16416947495E+03  0.18905772406E+03  0.41800000000E+01 0. -1.
         -5    1    3    3    0  502  0.66152388873E+01  0.40499350630E+02 -0.55258481777E+02  0.68956007681E+02  0.41800000000E+01 0. -1.
        -11    1    1    2    0    0  0.24458114077E+02  0.24835649057E+02 -0.17639090892E+03  0.17980200654E+03  0.00000000000E+00 0. -1.
         11    1    1    2    0    0 -0.12326000418E+02  0.26437931463E+02 -0.52833390569E+01  0.29644698986E+02  0.00000000000E+00 0.  1.
</event>
<event>
 7    1  0.2788485E-009  0.1123061E+03  0.7561462E-02  0.1256358E+00
          2   -1    0    0  501    0  0.00000000000E+00  0.00000000000E+00  0.99918470834E+03  0.99918470834E+03  0.00000000000E+00 0. -1.
         -2   -1    0    0    0  501 -0.00000000000E+00 -0.00000000000E+00 -0.14435506931E+02  0.14435506931E+02  0.00000000000E+00 0.  1.
         25    2    1    2    0    0 -0.39033800822E+02 -0.30413447531E+02  0.64132604998E+03  0.65528047741E+03  0.12507912010E+03 0.  0.
          5    1    3    3  502    0  0.20513657461E+02 -0.60562536121E+02  0.38900768296E+03  0.39425002311E+03  0.41800000000E+01 0. -1.
         -5    1    3    3    0  502 -0.59547458283E+02  0.30149088591E+02  0.25231836703E+03  0.26103045429E+03  0.41800000000E+01 0. -1.
        -11    1    1    2    0    0  0.36128576469E+02 -0.21248686252E+02  0.84821815772E+02  0.94612478754E+02  0.00000000000E+00 0.  1.
         11    1    1    2    0    0  0.29052243527E+01  0.51662133782E+02  0.25860133566E+03  0.26372725911E+03  0.00000000000E+00 0. -1.
</event>
<event>
 7    1  0.2788485E-009  0.1363737E+03  0.7561462E-02  0.1218293E+00
         -2   -1    0    0    0  501 -0.00000000000E+00  0.00000000000E+00  0.23692646136E+02  0.23692646136E+02  0.00000000000E+00 0. -1.
          2   -1    0    0  501    0  0.00000000000E+00 -0.00000000000E+00 -0.10157007603E+04  0.10157007603E+04  0.00000000000E+00 0.  1.
         25    2    1    2    0    0  0.98529861915E+02  0.27510901079E+02 -0.39185146592E+03  0.42386318606E+03  0.12508975093E+03 0.  0.
          5    1    3    3  502    0  0.10551138453E+03  0.47577478543E+02 -0.20252638938E+03  0.23330383521E+03  0.41800000000E+01 0. -1.
         -5    1    3    3    0  502 -0.69815226116E+01 -0.20066577463E+02 -0.18932507654E+03  0.19055935085E+03  0.41800000000E+01 0. -1.
        -11    1    1    2    0    0 -0.34444692300E+02  0.32589357833E+02 -0.16978295942E+03  0.17628033464E+03  0.00000000000E+00 0. -1.
         11    1    1    2    0    0 -0.64085169615E+02 -0.60100258913E+02 -0.43037368883E+03  0.43924988574E+03  0.00000000000E+00 0.  1.
</event>
<event>
 7    1  0.2788485E-009  0.1008982E+03  0.7561462E-02  0.1278419E+00
          1   -1    0    0  501    0  0.00000000000E+00  0.00000000000E+00  0.14854836552E+03  0.14854836552E+03  0.00000000000E+00 0. -1.
         -1   -1    0    0    0  501 -0.00000000000E+00 -0.00000000000E+00 -0.89692758068E+02  0.89692758068E+02  0.00000000000E+00 0.  1.
         25    2    1    2    0    0 -0.12885522509E+02 -0.15358598789E+02 -0.52633914781E+01  0.12679483780E+03  0.12508918561E+03 0.  0.
          5    1    3    3  502    0  0.53125408412E+02  0.12691806136E+02 -0.42130298406E+01  0.54941905522E+02  0.41800000000E+01 0.  1.
         -5    1    3    3    0  502 -0.66010930921E+02 -0.28050404925E+02 -0.10503616375E+01  0.71852932279E+02  0.41800000000E+01 0.  1.
        -11    1    1    2    0    0 -0.21396286648E+02 -0.17532701653E+02 -0.44592763544E+01  0.28019312182E+02  0.00000000000E+00 0.  1.
         11    1    1    2    0    0  0.34281809157E+02  0.32891300442E+02  0.68578275280E+02  0.83426973601E+02  0.00000000000E+00 0. -1.
</event>
<event>
 7    1  0.2788485E-009  0.1066698E+03  0.7561462E-02  0.1266864E+00
          3   -1    0    0  501    0  0.00000000000E+00  0.00000000000E+00  0.12070505613E+03  0.12070505613E+03  0.00000000000E+00 0. -1.
         -3   -1    0    0    0  501 -0.00000000000E+00 -0.00000000000E+00 -0.13537871271E+03  0.13537871271E+03  0.00000000000E+00 0.  1.
         25    2    1    2    0    0  0.55714301723E+02 -0.19038276022E+02 -0.39087554505E+02  0.14365940254E+03  0.12507456836E+03 0.  0.
          5    1    3    3  502    0  0.93436002632E+02 -0.28660874187E+02 -0.18987704029E+02  0.99648068728E+02  0.41800000000E+01 0. -1.
         -5    1    3    3    0  502 -0.37721700908E+02  0.96225981650E+01 -0.20099850476E+02  0.44011333813E+02  0.41800000000E+01 0. -1.
        -11    1    1    2    0    0 -0.47471003739E+01 -0.14562959645E+02 -0.28031378853E+02  0.31943277164E+02  0.00000000000E+00 0.  1.
         11    1    1    2    0    0 -0.50967201350E+02  0.33601235667E+02  0.52445276777E+02  0.80481089132E+02  0.00000000000E+00 0. -1.
</event>
<event>
 7    1  0.2971561E-009  0.1032270E+03  0.7561462E-02  0.1273653E+00
         -2   -1    0    0    0  501 -0.00000000000E+00  0.00000000000E+00  0.31400902666E+02  0.31400902666E+02  0.00000000000E+00 0.  1.
          2   -1    0    0  501    0  0.00000000000E+00 -0.00000000000E+00 -0.65597391577E+03  0.65597391577E+03  0.00000000000E+00 0. -1.
         25    2    1    2    0    0 -0.80728820754E+02 -0.32156077525E+02 -0.41829734380E+03  0.44516508281E+03  0.12509247497E+03 0.  0.
          5    1    3    3  502    0 -0.53556833480E+02 -0.12017967349E+02 -0.47218305956E+02  0.72524525293E+02  0.41800000000E+01 0. -1.
         -5    1    3    3    0  502 -0.27171987274E+02 -0.20138110176E+02 -0.37107903785E+03  0.37264055751E+03  0.41800000000E+01 0. -1.
        -11    1    1    2    0    0  0.54155835018E+02 -0.20852652019E+02 -0.55944992514E+02  0.80607256188E+02  0.00000000000E+00 0.  1.
         11    1    1    2    0    0  0.26572985736E+02  0.53008729544E+02 -0.15033067678E+03  0.16160247944E+03  0.00000000000E+00 0. -1.
</event>
<event>
 7    1  0.2788485E-009  0.1093128E+03  0.7561462E-02  0.1261848E+00
         -3   -1    0    0    0  501 -0.00000000000E+00  0.00000000000E+00  0.39142963084E+03  0.39142963084E+03  0.00000000000E+00 0.  1.
          3   -1    0    0  501    0  0.00000000000E+00 -0.00000000000E+00 -0.33832747332E+02  0.33832747332E+02  0.00000000000E+00 0. -1.
         25    2    1    2    0    0  0.50831442404E+00  0.24812135496E+02  0.26485905613E+03  0.29396563310E+03  0.12509825489E+03 0.  0.
          5    1    3    3  502    0 -0.30410677513E+02  0.66789834730E+02  0.13037623493E+03  0.14967005835E+03  0.41800000000E+01 0.  1.
         -5    1    3    3    0  502  0.30918991937E+02 -0.41977699234E+02  0.13448282120E+03  0.14429557475E+03  0.41800000000E+01 0.  1.
        -11    1    1    2    0    0  0.40898250352E+01  0.33788843778E+02  0.37349014965E+02  0.50530798050E+02  0.00000000000E+00 0.  1.
         11    1    1    2    0    0 -0.45981394593E+01 -0.58600979274E+02  0.55388812412E+02  0.80765947025E+02  0.00000000000E+00 0. -1.
</event>
<event>
 7    1  0.2788485E-009  0.1038711E+03  0.7561462E-02  0.1272360E+00
          1   -1    0    0  501    0  0.00000000000E+00  0.00000000000E+00  0.91777462039E+03  0.91777462039E+03  0.00000000000E+00 0. -1.
         -1   -1    0    0    0  501 -0.00000000000E+00 -0.00000000000E+00 -0.14704787553E+02  0.14704787553E+02  0.00000000000E+00 0.  1.
         25    2    1    2    0    0 -0.87072251517E+01 -0.14950184070E+02  0.64306764012E+03  0.65534924049E+03  0.12508922204E+03 0.  0.
          5    1    3    3  502    0  0.52819235603E+02  0.18912422238E+01  0.41899443898E+03  0.42233548364E+03  0.41800000000E+01 0. -1.
         -5    1    3    3    0  502 -0.61526460755E+02 -0.16841426294E+02  0.22407320114E+03  0.23301375685E+03  0.41800000000E+01 0. -1.
        -11    1    1    2    0    0  0.47295210733E+02  0.20982611032E+02  0.10200434654E+03  0.11437654322E+03  0.00000000000E+00 0.  1.
         11    1    1    2    0    0 -0.38587985581E+02 -0.60324269614E+01  0.15799784617E+03  0.16275362423E+03  0.00000000000E+00 0. -1.
</event>
<event>
 7    1  0.2788485E-009  0.9684043E+02  0.7561462E-02  0.1287084E+00
         -1   -1    0    0    0  501 -0.00000000000E+00  0.00000000000E+00  0.14168144441E+03  0.14168144441E+03  0.00000000000E+00 0. -1.
          1   -1    0    0  501    0  0.00000000000E+00 -0.00000000000E+00 -0.11017336007E+03  0.11017336007E+03  0.00000000000E+00 0.  1.
         25    2    1    2    0    0 -0.39336809623E+01  0.57964396282E+02  0.39791390793E+02  0.14354915433E+03  0.12509060654E+03 0.  0.
          5    1    3    3  502    0 -0.47243995094E+02  0.57088859883E+02  0.60120527529E+02  0.95514832490E+02  0.41800000000E+01 0.  1.
         -5    1    3    3    0  502  0.43310314132E+02  0.87553639926E+00 -0.20329136736E+02  0.48034321840E+02  0.41800000000E+01 0.  1.
        -11    1    1    2    0    0  0.23594231269E+02 -0.48892665359E+02 -0.41722312450E+02  0.68468473265E+02  0.00000000000E+00 0.  1.
         11    1    1    2    0    0 -0.19660550306E+02 -0.90717309231E+01  0.33439005996E+02  0.39837176887E+02  0.00000000000E+00 0. -1.
</event>
<event>
 7    1  0.2788485E-009  0.7597272E+02  0.7561462E-02  0.1340885E+00
          1   -1    0    0  501    0  0.00000000000E+00  0.00000000000E+00  0.82448037109E+02  0.82448037109E+02  0.00000000000E+00 0. -1.
         -1   -1    0    0    0  501 -0.00000000000E+00 -0.00000000000E+00 -0.16662141836E+03  0.16662141836E+03  0.00000000000E+00 0.  1.
         25    2    1    2    0    0 -0.37601781947E+02 -0.31810038381E+02 -0.55346514391E+02  0.14537795787E+03  0.12508293821E+03 0.  0.
          5    1    3    3  502    0 -0.19702528659E+02 -0.34643288284E+02  0.34958251618E+02  0.53177991828E+02  0.41800000000E+01 0.  1.
         -5    1    3    3    0  502 -0.17899253288E+02  0.28332499039E+01 -0.90304766009E+02  0.92199966037E+02  0.41800000000E+01 0.  1.
        -11    1    1    2    0    0 -0.13766062845E+02 -0.17367562272E+02  0.80587097737E+01  0.23581338145E+02  0.00000000000E+00 0. -1.
         11    1    1    2    0    0  0.51367844792E+02  0.49177600652E+02 -0.36885576632E+02  0.80110159455E+02  0.00000000000E+00 0.  1.
</event>
<event>
 7    1  0.2788485E-009  0.1097675E+03  0.7561462E-02  0.1261001E+00
         -2   -1    0    0    0  501 -0.00000000000E+00  0.00000000000E+00  0.10370134083E+03  0.10370134083E+03  0.00000000000E+00 0.  1.
          2   -1    0    0  501    0  0.00000000000E+00 -0.00000000000E+00 -0.23259641517E+03  0.23259641517E+03  0.00000000000E+00 0. -1.
         25    2    1    2    0    0  0.52045794081E+01 -0.25529018964E+02 -0.18509887102E+03  0.22491509344E+03  0.12508552574E+03 0.  0.
          5    1    3    3  502    0 -0.56261149261E+02 -0.33081853619E+02 -0.10266753531E+03  0.12172847309E+03  0.41800000000E+01 0. -1.
         -5    1    3    3    0  502  0.61465728669E+02  0.75528346543E+01 -0.82431335708E+02  0.10318662035E+03  0.41800000000E+01 0. -1.
        -11    1    1    2    0    0 -0.23076020702E+02  0.53845162800E+02  0.19599053934E+02  0.61773191625E+02  0.00000000000E+00 0.  1.
         11    1    1    2    0    0  0.17871441294E+02 -0.28316143836E+02  0.36604742743E+02  0.49609470940E+02  0.00000000000E+00 0. -1.
</event>
<event>
 7    1  0.2788485E-009  0.1098431E+03  0.7561462E-02  0.1260861E+00
          2   -1    0    0  501    0  0.00000000000E+00  0.00000000000E+00  0.23840111935E+02  0.23840111935E+02  0.00000000000E+00 0.  1.
         -2   -1    0    0    0  501 -0.00000000000E+00 -0.00000000000E+00 -0.94193974254E+03  0.94193974254E+03  0.00000000000E+00 0. -1.
         25    2    1    2    0    0 -0.26909939996E+02  0.47373304448E+02 -0.77561813731E+03  0.78752747902E+03  0.12509060897E+03 0.  0.
          5    1    3    3  502    0 -0.10971995378E+02 -0.42908925141E+02 -0.27258946464E+03  0.27619567189E+03  0.41800000000E+01 0.  1.
         -5    1    3    3    0  502 -0.15937944618E+02  0.90282229589E+02 -0.50302867266E+03  0.51133180713E+03  0.41800000000E+01 0.  1.
        -11    1    1    2    0    0 -0.20584000099E+02 -0.94510576968E+01 -0.10372732362E+03  0.10617147083E+03  0.00000000000E+00 0. -1.
         11    1    1    2    0    0  0.47493940095E+02 -0.37922246751E+02 -0.38754169677E+02  0.72080904626E+02  0.00000000000E+00 0.  1.
</event>
<event>
 7    1  0.2788485E-009  0.9323154E+02  0.7561462E-02  0.1295210E+00
          2   -1    0    0  501    0  0.00000000000E+00  0.00000000000E+00  0.55845638656E+03  0.55845638656E+03  0.00000000000E+00 0. -1.
         -2   -1    0    0    0  501 -0.00000000000E+00 -0.00000000000E+00 -0.28295491956E+02  0.28295491956E+02  0.00000000000E+00 0.  1.
         25    2    1    2    0    0 -0.27209665394E+01 -0.34160192186E+02  0.42288662338E+03  0.44232935605E+03  0.12509132902E+03 0.  0.
          5    1    3    3  502    0  0.57486281065E+02 -0.10830424322E+02  0.27032610558E+03  0.27661461704E+03  0.41800000000E+01 0. -1.
         -5    1    3    3    0  502 -0.60207247605E+02 -0.23329767864E+02  0.15256051780E+03  0.16571473901E+03  0.41800000000E+01 0. -1.
        -11    1    1    2    0    0 -0.22967231814E+02  0.36958839672E+01  0.10153065006E+03  0.10416153895E+03  0.00000000000E+00 0. -1.
         11    1    1    2    0    0  0.25688198353E+02  0.30464308219E+02  0.57436211676E+01  0.40260983520E+02  0.00000000000E+00 0.  1.
</event>
<event>
 7    1  0.2788485E-009  0.1391812E+03  0.7561462E-02  0.1214435E+00
          2   -1    0    0  501    0  0.00000000000E+00  0.00000000000E+00  0.24872212184E+03  0.24872212184E+03  0.00000000000E+00 0. -1.
         -2   -1    0    0    0  501 -0.00000000000E+00 -0.00000000000E+00 -0.14917993414E+03  0.14917993414E+03  0.00000000000E+00 0.  1.
         25    2    1    2    0    0 -0.44143041995E+02  0.12708517979E+03  0.90409796745E+02  0.20474423014E+03  0.12508803838E+03 0.  0.
          5    1    3    3  502    0 -0.18418474062E+02  0.10250826151E+03 -0.34396638893E+01  0.10429040010E+03  0.41800000000E+01 0.  1.
         -5    1    3    3    0  502 -0.25724567933E+02  0.24576918279E+02  0.93849460634E+02  0.10045383004E+03  0.41800000000E+01 0.  1.
        -11    1    1    2    0    0 -0.52072451688E+01 -0.13060405239E+02 -0.52581536032E+02  0.54428921712E+02  0.00000000000E+00 0.  1.
         11    1    1    2    0    0  0.49350287164E+02 -0.11402477455E+03  0.61713926990E+02  0.13872890413E+03  0.00000000000E+00 0. -1.
</event>
<event>
 7    1  0.2788485E-009  0.1075255E+03  0.7561462E-02  0.1265222E+00
         -1   -1    0    0    0  501 -0.00000000000E+00  0.00000000000E+00  0.10897759590E+03  0.10897759590E+03  0.00000000000E+00 0.  1.
          1   -1    0    0  501    0  0.00000000000E+00 -0.00000000000E+00 -0.12109464822E+03  0.12109464822E+03  0.00000000000E+00 0. -1.
         25    2    1    2    0    0 -0.27870791815E+02  0.12564686091E+02 -0.31743229391E+02  0.13262314836E+03  0.12508642810E+03 0.  0.
          5    1    3    3  502    0 -0.32652588010E+02 -0.49658290668E+02 -0.36543327207E+02  0.69892950282E+02  0.41800000000E+01 0. -1.
         -5    1    3    3    0  502  0.47817961946E+01  0.62222976758E+02  0.48000978160E+01  0.62730198075E+02  0.41800000000E+01 0. -1.
        -11    1    1    2    0    0  0.31955507311E+01 -0.48900034369E+02 -0.79784148046E+00  0.49010829995E+02  0.00000000000E+00 0.  1.
         11    1    1    2    0    0  0.24675241084E+02  0.36335348278E+02  0.20424018544E+02  0.48438265767E+02  0.00000000000E+00 0. -1.
</event>
<event>
 7    1  0.2788485E-009  0.1308938E+03  0.7561462E-02  0.1226135E+00
          2   -1    0    0  501    0  0.00000000000E+00  0.00000000000E+00  0.10322468860E+04  0.10322468860E+04  0.00000000000E+00 0. -1.
         -2   -1    0    0    0  501 -0.00000000000E+00 -0.00000000000E+00 -0.39780530123E+02  0.39780530123E+02  0.00000000000E+00 0.  1.
         25    2    1    2    0    0 -0.10891620973E+03  0.38120547642E+02  0.85076228313E+03  0.86761651526E+03  0.12508412474E+03 0.  0.
          5    1    3    3  502    0 -0.39704364508E+02  0.61552278391E+01  0.67223621526E+03  0.67344882872E+03  0.41800000000E+01 0. -1.
         -5    1    3    3    0  502 -0.69211845224E+02  0.31965319803E+02  0.17852606787E+03  0.19416768654E+03  0.41800000000E+01 0. -1.
        -11    1    1    2    0    0  0.99555252026E+02  0.61945312500E+01  0.79988005484E+02  0.12785813015E+03  0.00000000000E+00 0.  1.
         11    1    1    2    0    0  0.93609577060E+01 -0.44315078892E+02  0.61716067282E+02  0.76552770735E+02  0.00000000000E+00 0. -1.
</event>
<event>
 7    1  0.2788485E-009  0.1646628E+03  0.7561462E-02  0.1183531E+00
          2   -1    0    0  501    0  0.00000000000E+00  0.00000000000E+00  0.13405763172E+03  0.13405763172E+03  0.00000000000E+00 0. -1.
         -2   -1    0    0    0  501 -0.00000000000E+00 -0.00000000000E+00 -0.26971576703E+03  0.26971576703E+03  0.00000000000E+00 0.  1.
         25    2    1    2    0    0  0.10018353973E+03 -0.11574574131E+03 -0.10529940112E+03  0.22398365041E+03  0.12508754339E+03 0.  0.
          5    1    3    3  502    0  0.21409200600E+02 -0.20058786854E+02 -0.95034888751E+02  0.99548035040E+02  0.41800000000E+01 0. -1.
         -5    1    3    3    0  502  0.78774339130E+02 -0.95686954460E+02 -0.10264512369E+02  0.12443561537E+03  0.41800000000E+01 0. -1.
        -11    1    1    2    0    0  0.12794914904E+02  0.33717391732E+02  0.31736818405E+01  0.36202825981E+02  0.00000000000E+00 0.  1.
         11    1    1    2    0    0 -0.11297845463E+03  0.82028349581E+02 -0.33532416034E+02  0.14358692236E+03  0.00000000000E+00 0. -1.
</event>
<event>
 7    1  0.2788485E-009  0.2014581E+03  0.7561462E-02  0.1148515E+00
         -3   -1    0    0    0  501 -0.00000000000E+00  0.00000000000E+00  0.85862369467E+03  0.85862369467E+03  0.00000000000E+00 0.  1.
          3   -1    0    0  501    0  0.00000000000E+00 -0.00000000000E+00 -0.57883717603E+02  0.57883717603E+02  0.00000000000E+00 0. -1.
         25    2    1    2    0    0 -0.16672693493E+03 -0.93494071000E+02  0.48841001236E+03  0.53919424988E+03  0.12508831597E+03 0.  0.
          5    1    3    3  502    0 -0.47812878872E+02 -0.15404968118E+02  0.28803631416E+02  0.58056059214E+02  0.41800000000E+01 0.  1.
         -5    1    3    3    0  502 -0.11891405606E+03 -0.78089102881E+02  0.45960638094E+03  0.48113819067E+03  0.41800000000E+01 0.  1.
        -11    1    1    2    0    0  0.85620604320E+02 -0.10400003092E+01  0.14976086063E+03  0.17251169485E+03  0.00000000000E+00 0. -1.
         11    1    1    2    0    0  0.81106330614E+02  0.94534071309E+02  0.16256910409E+03  0.20480146754E+03  0.00000000000E+00 0.  1.
</event>
<event>
 7    1  0.2788485E-009  0.1036655E+03  0.7561462E-02  0.1272771E+00
          1   -1    0    0  501    0  0.00000000000E+00  0.00000000000E+00  0.10019751873E+04  0.10019751873E+04  0.00000000000E+00 0. -1.
         -1   -1    0    0    0  501 -0.00000000000E+00 -0.00000000000E+00 -0.35526351745E+02  0.35526351745E+02  0.00000000000E+00 0.  1.
         25    2    1    2    0    0  0.32867504937E+02 -0.39826226343E+02  0.90728017017E+03  0.91731759239E+03  0.12509139430E+03 0.  0.
          5    1    3    3  502    0  0.12310639454E+02 -0.67102179248E+02  0.25111439009E+03  0.26025019426E+03  0.41800000000E+01 0.  1.
         -5    1    3    3    0  502  0.20556865483E+02  0.27275952904E+02  0.65616578009E+03  0.65706739813E+03  0.41800000000E+01 0.  1.
        -11    1    1    2    0    0 -0.58557447071E+02  0.16808156929E+01  0.31519433930E+02  0.66522736445E+02  0.00000000000E+00 0.  1.
         11    1    1    2    0    0  0.25689942134E+02  0.38145410650E+02  0.27649231430E+02  0.53661210192E+02  0.00000000000E+00 0. -1.
</event>
<event>
 7    1  0.2788485E-009  0.1160630E+03  0.7561462E-02  0.1249737E+00
          2   -1    0    0  501    0  0.00000000000E+00  0.00000000000E+00  0.67900107032E+03  0.67900107032E+03  0.00000000000E+00 0. -1.
         -2   -1    0    0    0  501 -0.00000000000E+00 -0.00000000000E+00 -0.36433957595E+02  0.36433957595E+02  0.00000000000E+00 0.  1.
         25    2    1    2    0    0 -0.78380507178E+02 -0.68655767078E+02  0.45547171223E+03  0.48369345893E+03  0.12509102011E+03 0.  0.
          5    1    3    3  502    0 -0.56369007413E+02 -0.82743554420E+02  0.17255180578E+03  0.19953836441E+03  0.41800000000E+01 0. -1.
         -5    1    3    3    0  502 -0.22011499765E+02  0.14087787342E+02  0.28291990645E+03  0.28415509452E+03  0.41800000000E+01 0. -1.
        -11    1    1    2    0    0  0.25460766117E+02  0.12756557134E+02  0.13693557991E+03  0.13986541176E+03  0.00000000000E+00 0. -1.
         11    1    1    2    0    0  0.52919741061E+02  0.55899209944E+02  0.50159820593E+02  0.91876157235E+02  0.00000000000E+00 0.  1.
</event>
<event>
 7    1  0.2788485E-009  0.1003727E+03  0.7561462E-02  0.1279514E+00
          1   -1    0    0  501    0  0.00000000000E+00  0.00000000000E+00  0.92451980752E+03  0.92451980752E+03  0.00000000000E+00 0. -1.
         -1   -1    0    0    0  501 -0.00000000000E+00 -0.00000000000E+00 -0.23308857239E+02  0.23308857239E+02  0.00000000000E+00 0.  1.
         25    2    1    2    0    0  0.51752686379E+02  0.63327032397E+02  0.31063880842E+03  0.34472119130E+03  0.12509027482E+03 0.  0.
          5    1    3    3  502    0  0.22657685461E+02  0.47664461283E+02  0.27551025908E+02  0.59680842893E+02  0.41800000000E+01 0.  1.
         -5    1    3    3    0  502  0.29095000918E+02  0.15662571115E+02  0.28308778251E+03  0.28504034841E+03  0.41800000000E+01 0.  1.
        -11    1    1    2    0    0 -0.73428590061E+02 -0.45063133562E+02  0.51943606605E+03  0.52653230723E+03  0.00000000000E+00 0. -1.
         11    1    1    2    0    0  0.21675903682E+02 -0.18263898835E+02  0.71136075813E+02  0.76575166230E+02  0.00000000000E+00 0.  1.
</event>
<event>
 7    1  0.2788485E-009  0.8355703E+02  0.7561462E-02  0.1319250E+00
          1   -1    0    0  501    0  0.00000000000E+00  0.00000000000E+00  0.12436031924E+04  0.12436031924E+04  0.00000000000E+00 0. -1.
         -1   -1    0    0    0  501 -0.00000000000E+00 -0.00000000000E+00 -0.12463388607E+02  0.12463388607E+02  0.00000000000E+00 0.  1.
         25    2    1    2    0    0 -0.52013025588E+02 -0.16062788867E+02  0.82199539877E+03  0.83323920048E+03  0.12509101326E+03 0.  0.
          5    1    3    3  502    0 -0.45617783023E+02 -0.30749756979E+02  0.13227566159E+03  0.14332080356E+03  0.41800000000E+01 0.  1.
         -5    1    3    3    0  502 -0.63952425649E+01  0.14686968112E+02  0.68971973718E+03  0.68991839692E+03  0.41800000000E+01 0.  1.
        -11    1    1    2    0    0  0.27655482498E+02 -0.31519385739E+02  0.90651505251E+02  0.99879891840E+02  0.00000000000E+00 0.  1.
         11    1    1    2    0    0  0.24357543090E+02  0.47582174606E+02  0.31849289975E+03  0.32294748867E+03  0.00000000000E+00 0. -1.
</event>
<event>
 7    1  0.2788485E-009  0.1030507E+03  0.7561462E-02  0.1274009E+00
         -1   -1    0    0    0  501 -0.00000000000E+00  0.00000000000E+00  0.86579620155E+03  0.86579620155E+03  0.00000000000E+00 0.  1.
          1   -1    0    0  501    0  0.00000000000E+00 -0.00000000000E+00 -0.29040475762E+02  0.29040475762E+02  0.00000000000E+00 0. -1.
         25    2    1    2    0    0 -0.69547290340E+01 -0.94864677915E+02  0.63831487925E+03  0.65737461662E+03  0.12509127119E+03 0.  0.
          5    1    3    3  502    0  0.13642923264E+02 -0.54465148763E+02  0.83590188591E+02  0.10078379738E+03  0.41800000000E+01 0.  1.
         -5    1    3    3    0  502 -0.20597652298E+02 -0.40399529152E+02  0.55472469066E+03  0.55659081924E+03  0.41800000000E+01 0.  1.
        -11    1    1    2    0    0  0.22928656855E+02  0.76773830967E+02  0.19769691225E+03  0.21331669775E+03  0.00000000000E+00 0.  1.
         11    1    1    2    0    0 -0.15973927821E+02  0.18090846948E+02  0.74393428597E+00  0.24145362941E+02  0.00000000000E+00 0. -1.
</event>
<event>
 7    1  0.2788485E-009  0.2069036E+03  0.7561462E-02  0.1144042E+00
         -1   -1    0    0    0  501 -0.00000000000E+00  0.00000000000E+00  0.43379423626E+02  0.43379423626E+02  0.00000000000E+00 0.  1.
          1   -1    0    0  501    0  0.00000000000E+00 -0.00000000000E+00 -0.13860960880E+04  0.13860960880E+04  0.00000000000E+00 0. -1.
         25    2    1    2    0    0 -0.52051852416E+02  0.18805209401E+03 -0.40171075895E+03  0.46378046097E+03  0.12509115366E+03 0.  0.
          5    1    3    3  502    0  0.22644593603E+00  0.58882671721E+02 -0.25359789675E+03  0.26037777544E+03  0.41800000000E+01 0.  1.
         -5    1    3    3    0  502 -0.52278298352E+02  0.12916942229E+03 -0.14811286219E+03  0.20340268553E+03  0.41800000000E+01 0.  1.
        -11    1    1    2    0    0 -0.25917894013E+02 -0.34485800613E+02 -0.14557023122E+03  0.15182786270E+03  0.00000000000E+00 0.  1.
         11    1    1    2    0    0  0.77969746429E+02 -0.15356629340E+03 -0.79543567417E+03  0.81386718792E+03  0.00000000000E+00 0. -1.
</event>
<event>
 7    1  0.2788485E-009  0.1619920E+03  0.7561462E-02  0.1186466E+00
          2   -1    0    0  501    0  0.00000000000E+00  0.00000000000E+00  0.36535927235E+03  0.36535927235E+03  0.00000000000E+00 0. -1.
         -2   -1    0    0    0  501 -0.00000000000E+00 -0.00000000000E+00 -0.96587682128E+02  0.96587682128E+02  0.00000000000E+00 0.  1.
         25    2    1    2    0    0 -0.10078849456E+03 -0.87703332892E+02  0.47689647627E+02  0.18913499934E+03  0.12509016848E+03 0.  0.
          5    1    3    3  502    0  0.12865181399E+02  0.20741190466E+02  0.13901157804E+02  0.28397613679E+02  0.41800000000E+01 0.  1.
         -5    1    3    3    0  502 -0.11365367596E+03 -0.10844452336E+03  0.33788489823E+02  0.16073738567E+03  0.41800000000E+01 0.  1.
        -11    1    1    2    0    0  0.72805914999E+02  0.31573551508E+02  0.18292898580E+03  0.19940061249E+03  0.00000000000E+00 0. -1.
         11    1    1    2    0    0  0.27982579563E+02  0.56129781384E+02  0.38152956795E+02  0.73411342649E+02  0.00000000000E+00 0.  1.
</event>
<event>
 7    1  0.2788485E-009  0.1595908E+03  0.7561462E-02  0.1189159E+00
          1   -1    0    0  501    0  0.00000000000E+00  0.00000000000E+00  0.10681723737E+03  0.10681723737E+03  0.00000000000E+00 0. -1.
         -1   -1    0    0    0  501 -0.00000000000E+00 -0.00000000000E+00 -0.31331914352E+03  0.31331914352E+03  0.00000000000E+00 0.  1.
         25    2    1    2    0    0 -0.53179338407E+01  0.13526118550E+03 -0.17398125260E+03  0.25345816033E+03  0.12509074329E+03 0.  0.
          5    1    3    3  502    0 -0.24412404366E+02  0.14950361456E+03 -0.11666156675E+03  0.19124510402E+03  0.41800000000E+01 0. -1.
         -5    1    3    3    0  502  0.19094470525E+02 -0.14242429058E+02 -0.57319685848E+02  0.62213056313E+02  0.41800000000E+01 0. -1.
        -11    1    1    2    0    0  0.15929788756E+02 -0.13108798218E+03 -0.53756265570E+02  0.14257472893E+03  0.00000000000E+00 0.  1.
         11    1    1    2    0    0 -0.10611854916E+02 -0.41732033195E+01  0.21235612025E+02  0.24103491631E+02  0.00000000000E+00 0. -1.
</event>
<event>
 7    1  0.2788485E-009  0.1261606E+03  0.7561462E-02  0.1233267E+00
          3   -1    0    0  501    0  0.00000000000E+00  0.00000000000E+00  0.45622757898E+03  0.45622757898E+03  0.00000000000E+00 0. -1.
         -3   -1    0    0    0  501 -0.00000000000E+00 -0.00000000000E+00 -0.63287966643E+02  0.63287966643E+02  0.00000000000E+00 0.  1.
         25    2    1    2    0    0 -0.10020780545E+03 -0.55086174536E+02  0.11196803616E+03  0.20312636005E+03  0.12508951246E+03 0.  0.
          5    1    3    3  502    0 -0.65051063288E+02 -0.33943916744E+02  0.13658379391E+03  0.15510137162E+03  0.41800000000E+01 0. -1.
         -5    1    3    3    0  502 -0.35156742166E+02 -0.21142257792E+02 -0.24615757753E+02  0.48024988433E+02  0.41800000000E+01 0. -1.
        -11    1    1    2    0    0  0.25188919963E+02 -0.19461229067E+02  0.28753947130E+02  0.42895344750E+02  0.00000000000E+00 0.  1.
         11    1    1    2    0    0  0.75018885491E+02  0.74547403603E+02  0.25221762905E+03  0.27349384082E+03  0.00000000000E+00 0. -1.
</event>
<event>
 7    1  0.2788485E-009  0.1774859E+03  0.7561462E-02  0.1170259E+00
          1   -1    0    0  501    0  0.00000000000E+00  0.00000000000E+00  0.10822875143E+04  0.10822875143E+04  0.00000000000E+00 0. -1.
         -1   -1    0    0    0  501 -0.00000000000E+00 -0.00000000000E+00 -0.68395891943E+02  0.68395891943E+02  0.00000000000E+00 0.  1.
         25    2    1    2    0    0 -0.58572464210E+02  0.16372327614E+03  0.14155944566E+03  0.25675389670E+03  0.12508973620E+03 0.  0.
          5    1    3    3  502    0 -0.53980869143E+02  0.81768005383E+02  0.14435542959E+03  0.17451619807E+03  0.41800000000E+01 0.  1.
         -5    1    3    3    0  502 -0.45915950668E+01  0.81955270754E+02 -0.27959839277E+01  0.82237698628E+02  0.41800000000E+01 0.  1.
        -11    1    1    2    0    0  0.52033555820E+02 -0.12430312282E+03  0.80021622468E+03  0.81148306422E+03  0.00000000000E+00 0. -1.
         11    1    1    2    0    0  0.65389083895E+01 -0.39420153318E+02  0.72115951987E+02  0.82446445293E+02  0.00000000000E+00 0.  1.
</event>
<event>
 7    1  0.2788485E-009  0.2004059E+03  0.7561462E-02  0.1149397E+00
          3   -1    0    0  501    0  0.00000000000E+00  0.00000000000E+00  0.64163899379E+02  0.64163899379E+02  0.00000000000E+00 0. -1.
         -3   -1    0    0    0  501 -0.00000000000E+00 -0.00000000000E+00 -0.78684141088E+03  0.78684141088E+03  0.00000000000E+00 0.  1.
         25    2    1    2    0    0  0.74241841994E+02 -0.18147365594E+03 -0.39862011522E+03  0.46150943580E+03  0.12509366158E+03 0.  0.
          5    1    3    3  502    0  0.47811552581E+02 -0.16168788117E+03 -0.20695729334E+03  0.26697885524E+03  0.41800000000E+01 0. -1.
         -5    1    3    3    0  502  0.26430289413E+02 -0.19785774773E+02 -0.19166282188E+03  0.19453058056E+03  0.41800000000E+01 0. -1.
        -11    1    1    2    0    0 -0.27469540560E+02  0.11056881169E+03 -0.25751852238E+03  0.28159514759E+03  0.00000000000E+00 0.  1.
         11    1    1    2    0    0 -0.46772301433E+02  0.70904844252E+02 -0.66538873903E+02  0.10790072687E+03  0.00000000000E+00 0. -1.
</event>
<event>
 7    1  0.2788485E-009  0.6285147E+02  0.7561462E-02  0.1386241E+00
         -1   -1    0    0    0  501 -0.00000000000E+00  0.00000000000E+00  0.24336082369E+03  0.24336082369E+03  0.00000000000E+00 0.  1.
          1   -1    0    0  501    0  0.00000000000E+00 -0.00000000000E+00 -0.52611777143E+02  0.52611777143E+02  0.00000000000E+00 0. -1.
         25    2    1    2    0    0 -0.97646877878E+01 -0.23919043337E+02  0.10513178305E+03  0.16542970474E+03  0.12508727210E+03 0.  0.
          5    1    3    3  502    0 -0.83616082296E+00 -0.18275790776E+02 -0.26961088943E+02  0.32849298477E+02  0.41800000000E+01 0. -1.
         -5    1    3    3    0  502 -0.89285269649E+01 -0.56432525612E+01  0.13209287199E+03  0.13258040626E+03  0.41800000000E+01 0. -1.
        -11    1    1    2    0    0  0.49120194989E+02  0.27088168225E+02  0.65478297255E+02  0.86220472191E+02  0.00000000000E+00 0.  1.
         11    1    1    2    0    0 -0.39355507201E+02 -0.31691248879E+01  0.20138966247E+02  0.44322423908E+02  0.00000000000E+00 0. -1.
</event>
<event>
 7    1  0.2788485E-009  0.1039660E+03  0.7561462E-02  0.1272170E+00
          1   -1    0    0  501    0  0.00000000000E+00  0.00000000000E+00  0.22494843566E+04  0.22494843566E+04  0.00000000000E+00 0. -1.
         -1   -1    0    0    0  501 -0.00000000000E+00 -0.00000000000E+00 -0.78702206748E+01  0.78702206748E+01  0.00000000000E+00 0.  1.
         25    2    1    2    0    0 -0.20805847987E+02 -0.17791522704E+02  0.18171475469E+04  0.18216537022E+04  0.12509029457E+03 0.  0.
          5    1    3    3  502    0  0.44263525007E+02  0.26455096292E+01  0.11824430715E+04  0.11832816013E+04  0.41800000000E+01 0.  1.
         -5    1    3    3    0  502 -0.65069372994E+02 -0.20437032333E+02  0.63470447543E+03  0.63837210083E+03  0.41800000000E+01 0.  1.
        -11    1    1    2    0    0  0.30234378480E+02 -0.32211113439E+02  0.14288453127E+03  0.14955822528E+03  0.00000000000E+00 0.  1.
         11    1    1    2    0    0 -0.94285304931E+01  0.50002636142E+02  0.28158205776E+03  0.28614264985E+03  0.00000000000E+00 0. -1.
</event>
<event>
 7    1  0.2788485E-009  0.1002203E+03  0.7561462E-02  0.1279833E+00
          2   -1    0    0  501    0  0.00000000000E+00  0.00000000000E+00  0.16840626714E+03  0.16840626714E+03  0.00000000000E+00 0. -1.
         -2   -1    0    0    0  501 -0.00000000000E+00 -0.00000000000E+00 -0.75878709189E+02  0.75878709189E+02  0.00000000000E+00 0.  1.
         25    2    1    2    0    0  0.78857302942E+01 -0.12940505816E+02  0.20601904712E+02  0.12768033037E+03  0.12509271303E+03 0.  0.
          5    1    3    3  502    0  0.61669920248E+02 -0.39220630225E+01  0.34974561781E+02  0.71128433229E+02  0.41800000000E+01 0. -1.
         -5    1    3    3    0  502 -0.53784189954E+02 -0.90184427938E+01 -0.14372657070E+02  0.56551897145E+02  0.41800000000E+01 0. -1.
        -11    1    1    2    0    0  0.66771349911E+01 -0.34006600825E+02  0.54239291057E+02  0.64365625343E+02  0.00000000000E+00 0. -1.
         11    1    1    2    0    0 -0.14562865285E+02  0.46947106641E+02  0.17686362181E+02  0.52239020612E+02  0.00000000000E+00 0.  1.
</event>
<event>
 7    1  0.2788485E-009  0.8696081E+02  0.7561462E-02  0.1310383E+00
          1   -1    0    0  501    0  0.00000000000E+00  0.00000000000E+00  0.43733263022E+03  0.43733263022E+03  0.00000000000E+00 0. -1.
         -1   -1    0    0    0  501 -0.00000000000E+00 -0.00000000000E+00 -0.42964412927E+02  0.42964412927E+02  0.00000000000E+00 0.  1.
         25    2    1    2    0    0 -0.47198129760E+02  0.44796983833E+02  0.12929583704E+03  0.19130956911E+03  0.12508998578E+03 0.  0.
          5    1    3    3  502    0 -0.51790917266E+02  0.45843939791E+02  0.78896244395E+01  0.69740121168E+02  0.41800000000E+01 0. -1.
         -5    1    3    3    0  502  0.45927875060E+01 -0.10469559577E+01  0.12140621260E+03  0.12156944794E+03  0.41800000000E+01 0. -1.
        -11    1    1    2    0    0 -0.98315304723E+00 -0.49873717812E+02  0.20906232109E+03  0.21493117135E+03  0.00000000000E+00 0. -1.
         11    1    1    2    0    0  0.48181282807E+02  0.50767339787E+01  0.56010059158E+02  0.74056302687E+02  0.00000000000E+00 0.  1.
</event>
<event>
 7    1  0.2788485E-009  0.9687475E+02  0.7561462E-02  0.1287009E+00
         -3   -1    0    0    0  501 -0.00000000000E+00  0.00000000000E+00  0.29351833408E+03  0.29351833408E+03  0.00000000000E+00 0.  1.
          3   -1    0    0  501    0  0.00000000000E+00 -0.00000000000E+00 -0.46176867539E+02  0.46176867539E+02  0.00000000000E+00 0. -1.
         25    2    1    2    0    0 -0.34752463401E+02  0.23134262988E+02  0.13018343665E+03  0.18530618014E+03  0.12509086851E+03 0.  0.
          5    1    3    3  502    0 -0.70304555896E+02  0.46246326998E+02  0.60868292984E+02  0.10394168957E+03  0.41800000000E+01 0.  1.
         -5    1    3    3    0  502  0.35552092495E+02 -0.23112064010E+02  0.69315143670E+02  0.81364490569E+02  0.41800000000E+01 0.  1.
        -11    1    1    2    0    0  0.17154576657E+02  0.16323865232E+02  0.10755394744E+03  0.11012992185E+03  0.00000000000E+00 0.  1.
         11    1    1    2    0    0  0.17597886744E+02 -0.39458128219E+02  0.96040824483E+01  0.44259099631E+02  0.00000000000E+00 0. -1.
</event>
<event>
 7    1  0.2788485E-009  0.1456639E+03  0.7561462E-02  0.1205905E+00
          2   -1    0    0  501    0  0.00000000000E+00  0.00000000000E+00  0.14058839761E+04  0.14058839761E+04  0.00000000000E+00 0. -1.
         -2   -1    0    0    0  501 -0.00000000000E+00 -0.00000000000E+00 -0.18509701889E+02  0.18509701889E+02  0.00000000000E+00 0.  1.
         25    2    1    2    0    0  0.25290143018E+02 -0.11771881740E+03  0.92630721520E+03  0.94243864590E+03  0.12509289773E+03 0.  0.
          5    1    3    3  502    0  0.33172865410E+02  0.13538076455E+02  0.31973371827E+03  0.32176208837E+03  0.41800000000E+01 0. -1.
         -5    1    3    3    0  502 -0.78827223914E+01 -0.13125689385E+03  0.60657349693E+03  0.62067655753E+03  0.41800000000E+01 0. -1.
        -11    1    1    2    0    0 -0.19001760778E+02  0.28487787576E+02  0.45932800222E+02  0.57292609382E+02  0.00000000000E+00 0.  1.
         11    1    1    2    0    0 -0.62883822409E+01  0.89231029820E+02  0.41513425882E+03  0.42466242273E+03  0.00000000000E+00 0. -1.
</event>
<event>
 7    1  0.2788485E-009  0.1225810E+03  0.7561462E-02  0.1238899E+00
          2   -1    0    0  501    0  0.00000000000E+00  0.00000000000E+00  0.58329814379E+03  0.58329814379E+03  0.00000000000E+00 0.  1.
         -2   -1    0    0    0  501 -0.00000000000E+00 -0.00000000000E+00 -0.30422046634E+02  0.30422046634E+02  0.00000000000E+00 0. -1.
         25    2    1    2    0    0  0.47606495638E+02 -0.44625207051E+02  0.21400093880E+03  0.25632211870E+03  0.12508732629E+03 0.  0.
          5    1    3    3  502    0  0.55384073216E+02  0.30222292718E+02  0.74097494288E+02  0.97409925587E+02  0.41800000000E+01 0.  1.
         -5    1    3    3    0  502 -0.77775775779E+01 -0.74847499768E+02  0.13990344451E+03  0.15891219311E+03  0.41800000000E+01 0.  1.
        -11    1    1    2    0    0 -0.59336680452E+02 -0.11110647635E+01  0.12499961533E+03  0.13837261269E+03  0.00000000000E+00 0. -1.
         11    1    1    2    0    0  0.11730184814E+02  0.45736271814E+02  0.21387554303E+03  0.21902545903E+03  0.00000000000E+00 0.  1.
</event>
<event>
 7    1  0.2788485E-009  0.9989539E+02  0.7561462E-02  0.1280516E+00
         -2   -1    0    0    0  501 -0.00000000000E+00  0.00000000000E+00  0.63677169203E+02  0.63677169203E+02  0.00000000000E+00 0.  1.
          2   -1    0    0  501    0  0.00000000000E+00 -0.00000000000E+00 -0.19595929484E+03  0.19595929484E+03  0.00000000000E+00 0. -1.
         25    2    1    2    0    0 -0.27451201635E+02 -0.87453085534E+01 -0.71723333921E+02  0.14704403079E+03  0.12509061304E+03 0.  0.
          5    1    3    3  502    0  0.34993363456E+02  0.14700457614E+02 -0.70527743286E+02  0.80201458298E+02  0.41800000000E+01 0.  1.
         -5    1    3    3    0  502 -0.62444565091E+02 -0.23445766167E+02 -0.11955906350E+01  0.66842572493E+02  0.41800000000E+01 0.  1.
        -11    1    1    2    0    0  0.60879773728E+02  0.72735053469E+01 -0.42131228276E+02  0.74392816355E+02  0.00000000000E+00 0.  1.
         11    1    1    2    0    0 -0.33428572093E+02  0.14718032066E+01 -0.18427563442E+02  0.38199616900E+02  0.00000000000E+00 0. -1.
</event>
<event>
 7    1  0.2788485E-009  0.1048593E+03  0.7561462E-02  0.1270397E+00
         -1   -1    0    0    0  501 -0.00000000000E+00  0.00000000000E+00  0.37113189923E+03  0.37113189923E+03  0.00000000000E+00 0.  1.
          1   -1    0    0  501    0  0.00000000000E+00 -0.00000000000E+00 -0.34319312509E+02  0.34319312509E+02  0.00000000000E+00 0. -1.
         25    2    1    2    0    0  0.45589767578E+02  0.10541555176E+02  0.18581938099E+03  0.22882569906E+03  0.12507120735E+03 0.  0.
          5    1    3    3  502    0  0.63881282316E+02 -0.39531134158E+02  0.13757837161E+03  0.15680819345E+03  0.41800000000E+01 0. -1.
         -5    1    3    3    0  502 -0.18291514738E+02  0.50072689334E+02  0.48241009374E+02  0.72017505608E+02  0.41800000000E+01 0. -1.
        -11    1    1    2    0    0 -0.43106433213E+02 -0.35550181070E+02  0.13678190406E+03  0.14775408366E+03  0.00000000000E+00 0.  1.
         11    1    1    2    0    0 -0.24833343646E+01  0.25008625894E+02  0.14211301676E+02  0.28871429026E+02  0.00000000000E+00 0. -1.
</event>
<event>
 7    1  0.2788485E-009  0.1187508E+03  0.7561462E-02  0.1245172E+00
         -2   -1    0    0    0  501 -0.00000000000E+00  0.00000000000E+00  0.18186262636E+02  0.18186262636E+02  0.00000000000E+00 0.  1.
          2   -1    0    0  501    0  0.00000000000E+00 -0.00000000000E+00 -0.11087469363E+04  0.11087469363E+04  0.00000000000E+00 0. -1.
         25    2    1    2    0    0 -0.49512939396E+02  0.40748886849E+02 -0.85879501699E+03  0.87022282051E+03  0.12508746211E+03 0.  0.
          5    1    3    3  502    0 -0.46827748227E+02  0.78998419289E+02 -0.43113718489E+03  0.44082914246E+03  0.41800000000E+01 0. -1.
         -5    1    3    3    0  502 -0.26851911690E+01 -0.38249532440E+02 -0.42765783211E+03  0.42939367804E+03  0.41800000000E+01 0. -1.
        -11    1    1    2    0    0 -0.99494011449E+01 -0.46228343565E+02 -0.71898717378E+02  0.86055074763E+02  0.00000000000E+00 0.  1.
         11    1    1    2    0    0  0.59462340540E+02  0.54794567156E+01 -0.15986693925E+03  0.17065530362E+03  0.00000000000E+00 0. -1.
</event>
<event>
 7    1  0.2788485E-009  0.9274240E+02  0.7561462E-02  0.1296343E+00
         -1   -1    0    0    0  501 -0.00000000000E+00  0.00000000000E+00  0.52687830876E+02  0.52687830876E+02  0.00000000000E+00 0.  1.
          1   -1    0    0  501    0  0.00000000000E+00 -0.00000000000E+00 -0.37978575799E+03  0.37978575799E+03  0.00000000000E+00 0. -1.
         25    2    1    2    0    0 -0.24557124842E+02 -0.12034333664E+02 -0.30744336063E+03  0.33304225993E+03  0.12509136396E+03 0.  0.
          5    1    3    3  502    0  0.15384761189E+02 -0.38232994183E+02 -0.26734643579E+03  0.27053658135E+03  0.41800000000E+01 0. -1.
         -5    1    3    3    0  502 -0.39941886032E+02  0.26198660519E+02 -0.40096924840E+02  0.62505678577E+02  0.41800000000E+01 0. -1.
        -11    1    1    2    0    0  0.58834438848E+02  0.17542523412E+02 -0.20434557782E+02  0.64705505747E+02  0.00000000000E+00 0. -1.
         11    1    1    2    0    0 -0.34277314005E+02 -0.55081897486E+01  0.77999129710E+00  0.34725823189E+02  0.00000000000E+00 0.  1.
</event>
<event>
 7    1  0.3702874E-009  0.1610182E+03  0.7561462E-02  0.1187552E+00
         -1   -1    0    0    0  501 -0.00000000000E+00  0.00000000000E+00  0.21467333684E+02  0.21467333684E+02  0.00000000000E+00 0.  1.
          1   -1    0    0  501    0  0.00000000000E+00 -0.00000000000E+00 -0.15418142779E+04  0.15418142779E+04  0.00000000000E+00 0. -1.
         25    2    1    2    0    0 -0.12616518659E+03  0.36059387299E+02 -0.10738787334E+04  0.10890738851E+04  0.12509380235E+03 0.  0.
          5    1    3    3  502    0 -0.48833875347E+02  0.78555090055E+02 -0.51510893670E+03  0.52336444150E+03  0.41800000000E+01 0.  1.
         -5    1    3    3    0  502 -0.77331311245E+02 -0.42495702756E+02 -0.55876979672E+03  0.56570944360E+03  0.41800000000E+01 0.  1.
        -11    1    1    2    0    0  0.58392119875E+02  0.98938981907E+01 -0.85109331314E+02  0.10368764228E+03  0.00000000000E+00 0.  1.
         11    1    1    2    0    0  0.67773066718E+02 -0.45953285490E+02 -0.36135887945E+03  0.37052008418E+03  0.00000000000E+00 0. -1.
</event>
<event>
 7    1  0.2788485E-009  0.1157620E+03  0.7561462E-02  0.1250257E+00
          3   -1    0    0  501    0  0.00000000000E+00  0.00000000000E+00  0.24629639153E+03  0.24629639153E+03  0.00000000000E+00 0. -1.
         -3   -1    0    0    0  501 -0.00000000000E+00 -0.00000000000E+00 -0.86312459126E+02  0.86312459126E+02  0.00000000000E+00 0.  1.
         25    2    1    2    0    0 -0.81206573325E+02  0.21754192223E+01  0.27362365967E+02  0.15164825782E+03  0.12509698250E+03 0.  0.
          5    1    3    3  502    0 -0.48240510224E+02 -0.60903440161E+02  0.12194783894E+02  0.78756339455E+02  0.41800000000E+01 0. -1.
         -5    1    3    3    0  502 -0.32966063102E+02  0.63078859384E+02  0.15167582073E+02  0.72891918369E+02  0.41800000000E+01 0. -1.
        -11    1    1    2    0    0  0.38584153032E+02  0.59232184465E+01 -0.24297212175E+01  0.39111698086E+02  0.00000000000E+00 0.  1.
         11    1    1    2    0    0  0.42622420294E+02 -0.80986376688E+01  0.13505128766E+03  0.14184889475E+03  0.00000000000E+00 0. -1.
</event>
<event>
 7    1  0.2788485E-009  0.4616570E+02  0.7561462E-02  0.1467193E+00
          2   -1    0    0  501    0  0.00000000000E+00  0.00000000000E+00  0.98993065514E+02  0.98993065514E+02  0.00000000000E+00 0.  1.
         -2   -1    0    0    0  501 -0.00000000000E+00 -0.00000000000E+00 -0.12581019530E+03  0.12581019530E+03  0.00000000000E+00 0. -1.
         25    2    1    2    0    0 -0.13158722794E+02 -0.10750928149E+02 -0.57386087769E+02  0.13865309772E+03  0.12507111576E+03 0.  0.
          5    1    3    3  502    0 -0.84581513943E+01 -0.58262808166E+01  0.39709885922E+02  0.41229034831E+02  0.41800000000E+01 0. -1.
         -5    1    3    3    0  502 -0.47005713998E+01 -0.49246473324E+01 -0.97095973691E+02  0.97424062889E+02  0.41800000000E+01 0. -1.
        -11    1    1    2    0    0  0.42651471000E+02  0.97105820868E+01  0.35366677078E+02  0.56251624248E+02  0.00000000000E+00 0. -1.
         11    1    1    2    0    0 -0.29492748206E+02  0.10403460622E+01 -0.47977190960E+01  0.29898538847E+02  0.00000000000E+00 0.  1.
</event>
<event>
 7    1  0.2788485E-009  0.1164841E+03  0.7561462E-02  0.1249012E+00
         -2   -1    0    0    0  501 -0.00000000000E+00  0.00000000000E+00  0.11741393041E+04  0.11741393041E+04  0.00000000000E+00 0.  1.
          2   -1    0    0  501    0  0.00000000000E+00 -0.00000000000E+00 -0.16329946327E+02  0.16329946327E+02  0.00000000000E+00 0. -1.
         25    2    1    2    0    0 -0.81879487444E+02 -0.62452254394E+01  0.76267892646E+03  0.77721920004E+03  0.12508911519E+03 0.  0.
          5    1    3    3  502    0 -0.71512634901E+02 -0.53957745223E+02  0.61783596941E+03  0.62431102242E+03  0.41800000000E+01 0. -1.
         -5    1    3    3    0  502 -0.10366852543E+02  0.47712519783E+02  0.14484295705E+03  0.15290817762E+03  0.41800000000E+01 0. -1.
        -11    1    1    2    0    0  0.79333811125E+02  0.18750468788E+02  0.39161963861E+03  0.40001421851E+03  0.00000000000E+00 0.  1.
         11    1    1    2    0    0  0.25456763188E+01 -0.12505243349E+02  0.35107926589E+01  0.13235831830E+02  0.00000000000E+00 0. -1.
</event>
<event>
 7    1  0.2788485E-009  0.1164828E+03  0.7561462E-02  0.1249015E+00
         -2   -1    0    0    0  501 -0.00000000000E+00  0.00000000000E+00  0.12413816228E+02  0.12413816228E+02  0.00000000000E+00 0. -1.
          2   -1    0    0  501    0  0.00000000000E+00 -0.00000000000E+00 -0.19397040487E+04  0.19397040487E+04  0.00000000000E+00 0.  1.
         25    2    1    2    0    0 -0.39299405368E+02  0.91788971846E+02 -0.13281471822E+04  0.13377560439E+04  0.12508651663E+03 0.  0.
          5    1    3    3  502    0 -0.14252552163E+02  0.95639570840E+01 -0.19616301162E+02  0.26398412633E+02  0.41800000000E+01 0. -1.
         -5    1    3    3    0  502 -0.25046853205E+02  0.82225014762E+02 -0.13085308811E+04  0.13113576312E+04  0.41800000000E+01 0. -1.
        -11    1    1    2    0    0  0.65018584097E+02 -0.61355165244E+02 -0.49186130257E+03  0.49991940705E+03  0.00000000000E+00 0.  1.
         11    1    1    2    0    0 -0.25719178729E+02 -0.30433806602E+02 -0.10728174764E+03  0.11444241397E+03  0.00000000000E+00 0. -1.
</event>
<event>
 7    1  0.2788485E-009  0.1238691E+03  0.7561462E-02  0.1236847E+00
         -1   -1    0    0    0  501 -0.00000000000E+00  0.00000000000E+00  0.24248555229E+03  0.24248555229E+03  0.00000000000E+00 0.  1.
          1   -1    0    0  501    0  0.00000000000E+00 -0.00000000000E+00 -0.69784722644E+02  0.69784722644E+02  0.00000000000E+00 0. -1.
         25    2    1    2    0    0 -0.13499181937E+02 -0.66820003331E+02  0.87527838357E+02  0.16719424342E+03  0.12508257986E+03 0.  0.
          5    1    3    3  502    0  0.45886067140E+02 -0.54010734394E+02  0.78149330458E+02  0.10558163116E+03  0.41800000000E+01 0.  1.
         -5    1    3    3    0  502 -0.59385249077E+02 -0.12809268937E+02  0.93785078996E+01  0.61612612256E+02  0.41800000000E+01 0.  1.
        -11    1    1    2    0    0  0.54068139348E+02  0.38254718531E+02  0.60315233118E+02  0.89580770975E+02  0.00000000000E+00 0.  1.
         11    1    1    2    0    0 -0.40568957411E+02  0.28565284800E+02  0.24857758167E+02  0.55495260538E+02  0.00000000000E+00 0. -1.
</event>
<event>
 7    1  0.2788485E-009  0.1491735E+03  0.7561462E-02  0.1201492E+00
          1   -1    0    0  501    0  0.00000000000E+00  0.00000000000E+00  0.31575093724E+03  0.31575093724E+03  0.00000000000E+00 0. -1.
         -1   -1    0    0    0  501 -0.00000000000E+00 -0.00000000000E+00 -0.88167151872E+02  0.88167151872E+02  0.00000000000E+00 0.  1.
         25    2    1    2    0    0 -0.11554699015E+03 -0.10592388888E+02  0.61180299610E+02  0.18126402182E+03  0.12510120268E+03 0.  0.
          5    1    3    3  502    0  0.16728033115E+02  0.12341514671E+02 -0.15809868954E+02  0.26449280380E+02  0.41800000000E+01 0.  1.
         -5    1    3    3    0  502 -0.13227502327E+03 -0.22933903559E+02  0.76990168564E+02  0.15481474144E+03  0.41800000000E+01 0.  1.
        -11    1    1    2    0    0  0.48699572925E+02  0.46167606322E+02  0.10746662823E+03  0.12669716832E+03  0.00000000000E+00 0. -1.
         11    1    1    2    0    0  0.66847417226E+02 -0.35575217434E+02  0.58936857531E+02  0.95956898975E+02  0.00000000000E+00 0.  1.
</event>
<event>
 7    1  0.3428678E-009  0.1972592E+03  0.7561462E-02  0.1152072E+00
          3   -1    0    0  501    0  0.00000000000E+00  0.00000000000E+00  0.46678936654E+03  0.46678936654E+03  0.00000000000E+00 0. -1.
         -3   -1    0    0    0  501 -0.00000000000E+00 -0.00000000000E+00 -0.10200840382E+03  0.10200840382E+03  0.00000000000E+00 0.  1.
         25    2    1    2    0    0 -0.15776582739E+03  0.89784594149E+02  0.12019884752E+03  0.25109177153E+03  0.12509190681E+03 0.  0.
          5    1    3    3  502    0 -0.17141843356E+03  0.93630073696E+02  0.85276019590E+02  0.21316740366E+03  0.41800000000E+01 0. -1.
         -5    1    3    3    0  502  0.13652606173E+02 -0.38454795466E+01  0.34922827929E+02  0.37924367876E+02  0.41800000000E+01 0. -1.
        -11    1    1    2    0    0  0.14194987459E+03 -0.67875830898E+02  0.14308618588E+03  0.21267475615E+03  0.00000000000E+00 0.  1.
         11    1    1    2    0    0  0.15815952799E+02 -0.21908763252E+02  0.10149592932E+03  0.10503124267E+03  0.00000000000E+00 0. -1.
</event>
<event>
 7    1  0.2788485E-009  0.7269729E+02  0.7561462E-02  0.1351154E+00
          1   -1    0    0  501    0  0.00000000000E+00  0.00000000000E+00  0.62470114544E+03  0.62470114544E+03  0.00000000000E+00 0. -1.
         -1   -1    0    0    0  501 -0.00000000000E+00 -0.00000000000E+00 -0.22719632716E+02  0.22719632716E+02  0.00000000000E+00 0.  1.
         25    2    1    2    0    0 -0.13692170907E+02 -0.67102277042E+01  0.53993091323E+03  0.55444168012E+03  0.12509069867E+03 0.  0.
          5    1    3    3  502    0  0.49044387240E+02  0.12824781961E+02  0.13641719216E+03  0.14559172253E+03  0.41800000000E+01 0. -1.
         -5    1    3    3    0  502 -0.62736558147E+02 -0.19535009665E+02  0.40351372107E+03  0.40884995759E+03  0.41800000000E+01 0. -1.
        -11    1    1    2    0    0  0.61559132967E+01 -0.92081947836E+01 -0.12310918471E+02  0.16560339166E+02  0.00000000000E+00 0.  1.
         11    1    1    2    0    0  0.75362576102E+01  0.15918422488E+02  0.74361517960E+02  0.76418758865E+02  0.00000000000E+00 0. -1.
</event>
<event>
 7    1  0.2788485E-009  0.8689748E+02  0.7561462E-02  0.1310544E+00
          3   -1    0    0  501    0  0.00000000000E+00  0.00000000000E+00  0.44678274257E+03  0.44678274257E+03  0.00000000000E+00 0. -1.
         -3   -1    0    0    0  501 -0.00000000000E+00 -0.00000000000E+00 -0.31471509292E+02  0.31471509292E+02  0.00000000000E+00 0.  1.
         25    2    1    2    0    0  0.45032245238E+02 -0.27190957586E+01  0.21503431114E+03  0.25282793862E+03  0.12508762922E+03 0.  0.
          5    1    3    3  502    0 -0.12059148954E+02 -0.31227974106E+01  0.18982192594E+03  0.19027614381E+03  0.41800000000E+01 0.  1.
         -5    1    3    3    0  502  0.57091394192E+02  0.40370165199E+00  0.25212385202E+02  0.62551794805E+02  0.41800000000E+01 0.  1.
        -11    1    1    2    0    0 -0.49799948275E+02  0.41200785031E+02  0.12889155295E+03  0.14418936146E+03  0.00000000000E+00 0. -1.
         11    1    1    2    0    0  0.47677030367E+01 -0.38481689273E+02  0.71385369186E+02  0.81236951785E+02  0.00000000000E+00 0.  1.
</event>
<event>
 7    1  0.2788485E-009  0.1267172E+03  0.7561462E-02  0.1232410E+00
         -1   -1    0    0    0  501 -0.00000000000E+00  0.00000000000E+00  0.89244811815E+02  0.89244811815E+02  0.00000000000E+00 0.  1.
          1   -1    0    0  501    0  0.00000000000E+00 -0.00000000000E+00 -0.23668446947E+03  0.23668446947E+03  0.00000000000E+00 0. -1.
         25    2    1    2    0    0 -0.58580418925E+02 -0.23826354647E+02 -0.15280120793E+03  0.20735421246E+03  0.12509276406E+03 0.  0.
          5    1    3    3  502    0 -0.88004437606E+02 -0.44818113635E+02 -0.84832776419E+02  0.13025942078E+03  0.41800000000E+01 0. -1.
         -5    1    3    3    0  502  0.29424018680E+02  0.20991758988E+02 -0.67968431513E+02  0.77094791672E+02  0.41800000000E+01 0. -1.
        -11    1    1    2    0    0 -0.93839395234E+01  0.45816531330E+02  0.59102588250E+01  0.47139622649E+02  0.00000000000E+00 0.  1.
         11    1    1    2    0    0  0.67964358449E+02 -0.21990176683E+02 -0.54870854911E+00  0.71435446180E+02  0.00000000000E+00 0. -1.
</event>
<event>
 7    1  0.2788485E-009  0.1000082E+03  0.7561462E-02  0.1280279E+00
          1   -1    0    0  501    0  0.00000000000E+00  0.00000000000E+00  0.55454214472E+03  0.55454214472E+03  0.00000000000E+00 0. -1.
         -1   -1    0    0    0  501 -0.00000000000E+00 -0.00000000000E+00 -0.48223953203E+02  0.48223953203E+02  0.00000000000E+00 0.  1.
         25    2    1    2    0    0  0.40812638102E+02 -0.39457313254E+02  0.69838735701E+02  0.15410144024E+03  0.12508898385E+03 0.  0.
          5    1    3    3  502    0 -0.23438119108E+02 -0.88627798354E+01 -0.24877799788E+02  0.35556597363E+02  0.41800000000E+01 0. -1.
         -5    1    3    3    0  502  0.64250757210E+02 -0.30594533419E+02  0.94716535489E+02  0.11854484287E+03  0.41800000000E+01 0. -1.
        -11    1    1    2    0    0 -0.29694537348E+02 -0.24446415138E+02  0.14120362558E+03  0.14634840839E+03  0.00000000000E+00 0.  1.
         11    1    1    2    0    0 -0.11118100754E+02  0.63903728392E+02  0.29527583024E+03  0.30231624930E+03  0.00000000000E+00 0. -1.
</event>
<event>
 7    1  0.2788485E-009  0.1229548E+03  0.7561462E-02  0.1238301E+00
          2   -1    0    0  501    0  0.00000000000E+00  0.00000000000E+00  0.11570495354E+03  0.11570495354E+03  0.00000000000E+00 0. -1.
         -2   -1    0    0    0  501 -0.00000000000E+00 -0.00000000000E+00 -0.18680557578E+03  0.18680557578E+03  0.00000000000E+00 0.  1.
         25    2    1    2    0    0  0.38344452829E+02 -0.63288859909E+02  0.27812769457E+02  0.14797540286E+03  0.12508953935E+03 0.  0.
          5    1    3    3  502    0 -0.36272901530E+02 -0.39045949556E+02 -0.18744141986E+02  0.56649137866E+02  0.41800000000E+01 0. -1.
         -5    1    3    3    0  502  0.74617354359E+02 -0.24242910354E+02  0.46556911443E+02  0.91326264991E+02  0.41800000000E+01 0. -1.
        -11    1    1    2    0    0 -0.62208546424E+02  0.21608236084E+02 -0.34971332931E+02  0.74564155208E+02  0.00000000000E+00 0. -1.
         11    1    1    2    0    0  0.23864093595E+02  0.41680623826E+02 -0.63942058760E+02  0.79970971259E+02  0.00000000000E+00 0.  1.
</event>
<event>
 7    1  0.2788485E-009  0.1073916E+03  0.7561462E-02  0.1265478E+00
          1   -1    0    0  501    0  0.00000000000E+00  0.00000000000E+00  0.36333101201E+02  0.36333101201E+02  0.00000000000E+00 0. -1.
         -1   -1    0    0    0  501 -0.00000000000E+00 -0.00000000000E+00 -0.38546925939E+03  0.38546925939E+03  0.00000000000E+00 0.  1.
         25    2    1    2    0    0  0.15068887489E+02  0.18106367725E+02 -0.12173804280E+03  0.17613395606E+03  0.12509239581E+03 0.  0.
          5    1    3    3  502    0  0.65579021159E+02  0.29739699071E+02 -0.89515874199E+02  0.11495921821E+03  0.41800000000E+01 0. -1.
         -5    1    3    3    0  502 -0.50510133671E+02 -0.11633331347E+02 -0.32222168598E+02  0.61174737849E+02  0.41800000000E+01 0. -1.
        -11    1    1    2    0    0  0.28210837881E+02 -0.34329245586E+02 -0.13879922631E+03  0.14573803107E+03  0.00000000000E+00 0.  1.
         11    1    1    2    0    0 -0.43279725370E+02  0.16222877861E+02 -0.88598889088E+02  0.99930373470E+02  0.00000000000E+00 0. -1.
</event>
<event>
 7    1  0.2788485E-009  0.1109900E+03  0.7561462E-02  0.1258748E+00
         -1   -1    0    0    0  501 -0.00000000000E+00  0.00000000000E+00  0.12063956734E+03  0.12063956734E+03  0.00000000000E+00 0.  1.
          1   -1    0    0  501    0  0.00000000000E+00 -0.00000000000E+00 -0.11916077945E+03  0.11916077945E+03  0.00000000000E+00 0. -1.
         25    2    1    2    0    0 -0.16977785730E+02  0.36089601499E+02  0.28518058718E+02  0.13435684906E+03  0.12509108150E+03 0.  0.
          5    1    3    3  502    0 -0.46920116296E+02 -0.24734604423E+02 -0.12972608413E+02  0.54763664397E+02  0.41800000000E+01 0.  1.
         -5    1    3    3    0  502  0.29942330566E+02  0.60824205922E+02  0.41490667130E+02  0.79593184662E+02  0.41800000000E+01 0.  1.
        -11    1    1    2    0    0  0.28381780529E+02  0.25536523600E+02 -0.29213337786E+01  0.38290647613E+02  0.00000000000E+00 0.  1.
         11    1    1    2    0    0 -0.11403994799E+02 -0.61626125099E+02 -0.24117937045E+02  0.67152850121E+02  0.00000000000E+00 0. -1.
</event>
<event>
 7    1  0.2788485E-009  0.1151358E+03  0.7561462E-02  0.1251344E+00
         -3   -1    0    0    0  501 -0.00000000000E+00  0.00000000000E+00  0.53878924403E+03  0.53878924403E+03  0.00000000000E+00 0.  1.
          3   -1    0    0  501    0  0.00000000000E+00 -0.00000000000E+00 -0.24786295770E+02  0.24786295770E+02  0.00000000000E+00 0. -1.
         25    2    1    2    0    0 -0.67113482876E+01 -0.42751895660E+02  0.30313873195E+03  0.33077730005E+03  0.12509102542E+03 0.  0.
          5    1    3    3  502    0  0.17072775659E+02  0.40925313204E+02  0.11957024042E+03  0.12759653492E+03  0.41800000000E+01 0.  1.
         -5    1    3    3    0  502 -0.23784123946E+02 -0.83677208865E+02  0.18356849152E+03  0.20318076512E+03  0.41800000000E+01 0.  1.
        -11    1    1    2    0    0 -0.41029482148E+02  0.17179426535E+02  0.93614119447E+02  0.10364436531E+03  0.00000000000E+00 0.  1.
         11    1    1    2    0    0  0.47740830436E+02  0.25572469126E+02  0.11725009687E+03  0.12915387444E+03  0.00000000000E+00 0. -1.
</event>
<event>
 7    1  0.2788485E-009  0.1274821E+03  0.7561462E-02  0.1231240E+00
         -1   -1    0    0    0  501 -0.00000000000E+00  0.00000000000E+00  0.32471532406E+02  0.32471532406E+02  0.00000000000E+00 0.  1.
          1   -1    0    0  501    0  0.00000000000E+00 -0.00000000000E+00 -0.53911774492E+03  0.53911774492E+03  0.00000000000E+00 0. -1.
         25    2    1    2    0    0  0.75915118665E+02 -0.36613229380E-01 -0.29978752493E+03  0.33359267784E+03  0.12509359704E+03 0.  0.
          5    1    3    3  502    0  0.61532910703E+02 -0.58906508818E+02 -0.18542225892E+03  0.20409596366E+03  0.41800000000E+01 0. -1.
         -5    1    3    3    0  502  0.14382207962E+02  0.58869895589E+02 -0.11436526601E+03  0.12949671418E+03  0.41800000000E+01 0. -1.
        -11    1    1    2    0    0 -0.87496228611E+02  0.16265574945E+02 -0.19608197546E+03  0.21533299805E+03  0.00000000000E+00 0. -1.
         11    1    1    2    0    0  0.11581109946E+02 -0.16228961715E+02 -0.10776712128E+02  0.22663601440E+02  0.00000000000E+00 0.  1.
</event>
<event>
 7    1  0.2788485E-009  0.1063925E+03  0.7561462E-02  0.1267400E+00
          4   -1    0    0  501    0  0.00000000000E+00  0.00000000000E+00  0.20858379525E+03  0.20858379525E+03  0.00000000000E+00 0. -1.
         -4   -1    0    0    0  501 -0.00000000000E+00 -0.00000000000E+00 -0.56408377138E+02  0.56408377138E+02  0.00000000000E+00 0.  1.
         25    2    1    2    0    0  0.79784352476E+01 -0.19886961031E+02  0.83295861504E+02  0.15180734924E+03  0.12509246217E+03 0.  0.
          5    1    3    3  502    0  0.63205988116E+02  0.27231950589E+01  0.24628114937E+02  0.68017859202E+02  0.41800000000E+01 0.  1.
         -5    1    3    3    0  502 -0.55227552868E+02 -0.22610156090E+02  0.58667746567E+02  0.83789490042E+02  0.41800000000E+01 0.  1.
        -11    1    1    2    0    0 -0.30718895380E+02  0.45759136767E+02  0.38206688907E+02  0.67061913247E+02  0.00000000000E+00 0. -1.
         11    1    1    2    0    0  0.22740460133E+02 -0.25872175736E+02  0.30672867701E+02  0.46122909897E+02  0.00000000000E+00 0.  1.
</event>
<event>
 7    1  0.2788485E-009  0.6892811E+02  0.7561462E-02  0.1363776E+00
          2   -1    0    0  501    0  0.00000000000E+00  0.00000000000E+00  0.55269590211E+03  0.55269590211E+03  0.00000000000E+00 0. -1.
         -2   -1    0    0    0  501 -0.00000000000E+00 -0.00000000000E+00 -0.29677556309E+02  0.29677556309E+02  0.00000000000E+00 0.  1.
         25    2    1    2    0    0 -0.17837885065E+02  0.84953870088E+01  0.42110266108E+03  0.43973400715E+03  0.12509270215E+03 0.  0.
          5    1    3    3  502    0 -0.19190106283E+01  0.43087489906E+02  0.38388802547E+03  0.38632590243E+03  0.41800000000E+01 0. -1.
         -5    1    3    3    0  502 -0.15918874436E+02 -0.34592102897E+02  0.37214635611E+02  0.53408104720E+02  0.41800000000E+01 0. -1.
        -11    1    1    2    0    0  0.35026104083E+02  0.35822017804E+01  0.11337062866E+03  0.11871208692E+03  0.00000000000E+00 0. -1.
         11    1    1    2    0    0 -0.17188219019E+02 -0.12077588789E+02 -0.11454943944E+02  0.23927364350E+02  0.00000000000E+00 0.  1.
</event>
<event>
 7    1  0.2788485E-009  0.1453171E+03  0.7561462E-02  0.1206348E+00
          1   -1    0    0  501    0  0.00000000000E+00  0.00000000000E+00  0.23198220030E+03  0.23198220030E+03  0.00000000000E+00 0. -1.
         -1   -1    0    0    0  501 -0.00000000000E+00 -0.00000000000E+00 -0.12200364201E+03  0.12200364201E+03  0.00000000000E+00 0.  1.
         25    2    1    2    0    0  0.94270830246E+01 -0.11141394384E+02  0.94880299116E+02  0.15768065577E+03  0.12509163633E+03 0.  0.
          5    1    3    3  502    0 -0.47571908243E+02  0.24991847861E+02  0.21864204875E+02  0.58165236768E+02  0.41800000000E+01 0.  1.
         -5    1    3    3    0  502  0.56998991268E+02 -0.36133242245E+02  0.73016094241E+02  0.99515419001E+02  0.41800000000E+01 0.  1.
        -11    1    1    2    0    0 -0.22395077438E+02  0.88188513063E+02 -0.41323332478E+02  0.99931832450E+02  0.00000000000E+00 0.  1.
         11    1    1    2    0    0  0.12967994413E+02 -0.77047118679E+02  0.56421591653E+02  0.96373354100E+02  0.00000000000E+00 0. -1.
</event>
<event>
 7    1  0.2788485E-009  0.1370026E+03  0.7561462E-02  0.1217420E+00
         -2   -1    0    0    0  501 -0.00000000000E+00  0.00000000000E+00  0.11110332686E+03  0.11110332686E+03  0.00000000000E+00 0. -1.
          2   -1    0    0  501    0  0.00000000000E+00 -0.00000000000E+00 -0.17507150393E+03  0.17507150393E+03  0.00000000000E+00 0.  1.
         25    2    1    2    0    0  0.27561954238E+02 -0.81193116548E+02 -0.30361453173E+02  0.15466431126E+03  0.12508895971E+03 0.  0.
          5    1    3    3  502    0  0.61138269461E+02 -0.26479035427E+01 -0.31879155411E+02  0.69127797127E+02  0.41800000000E+01 0. -1.
         -5    1    3    3    0  502 -0.33576315223E+02 -0.78545213005E+02  0.15177022385E+01  0.85536514133E+02  0.41800000000E+01 0. -1.
        -11    1    1    2    0    0 -0.40874499585E+01  0.98118708684E+02 -0.25873728040E+02  0.10155509856E+03  0.00000000000E+00 0.  1.
         11    1    1    2    0    0 -0.23474504280E+02 -0.16925592136E+02 -0.77329958633E+01  0.29955420968E+02  0.00000000000E+00 0. -1.
</event>
<event>
 7    1  0.2788485E-009  0.9887824E+02  0.7561462E-02  0.1282673E+00
          2   -1    0    0  501    0  0.00000000000E+00  0.00000000000E+00  0.12398036753E+03  0.12398036753E+03  0.00000000000E+00 0.  1.
         -2   -1    0    0    0  501 -0.00000000000E+00 -0.00000000000E+00 -0.24038788219E+03  0.24038788219E+03  0.00000000000E+00 0. -1.
         25    2    1    2    0    0 -0.52202757887E+02  0.47475821884E+02 -0.19402918868E+03  0.24140162222E+03  0.12509330741E+03 0.  0.
          5    1    3    3  502    0  0.19535907281E+02  0.49912845989E+02 -0.14426829886E+03  0.15396024917E+03  0.41800000000E+01 0. -1.
         -5    1    3    3    0  502 -0.71738665168E+02 -0.24370241046E+01 -0.49760889819E+02  0.87441373057E+02  0.41800000000E+01 0. -1.
        -11    1    1    2    0    0  0.25979442763E+02 -0.13820704353E+02 -0.51233063075E+01  0.29869576204E+02  0.00000000000E+00 0. -1.
         11    1    1    2    0    0  0.26223315124E+02 -0.33655117531E+02  0.82744980322E+02  0.93097051299E+02  0.00000000000E+00 0.  1.
</event>
<event>
 7    1  0.2788485E-009  0.2169836E+03  0.7561462E-02  0.1136152E+00
         -1   -1    0    0    0  501 -0.00000000000E+00  0.00000000000E+00  0.16810409689E+03  0.16810409689E+03  0.00000000000E+00 0.  1.
          1   -1    0    0  501    0  0.00000000000E+00 -0.00000000000E+00 -0.31095675709E+03  0.31095675709E+03  0.00000000000E+00 0. -1.
         25    2    1    2    0    0  0.14194938230E+03 -0.14138071875E+03 -0.97130251418E+02  0.25538181599E+03  0.12508977348E+03 0.  0.
          5    1    3    3  502    0  0.15707820011E+03 -0.10803920264E+03 -0.10501544425E+03  0.21769645424E+03  0.41800000000E+01 0. -1.
         -5    1    3    3    0  502 -0.15128817809E+02 -0.33341516108E+02  0.78851928286E+01  0.37685361755E+02  0.41800000000E+01 0. -1.
        -11    1    1    2    0    0 -0.51930735251E+02  0.86806430657E+02 -0.59743732300E+02  0.11747966299E+03  0.00000000000E+00 0. -1.
         11    1    1    2    0    0 -0.90018647050E+02  0.54574288092E+02  0.14021323512E+02  0.10619937500E+03  0.00000000000E+00 0.  1.
</event>
<event>
 7    1  0.2788485E-009  0.1211337E+03  0.7561462E-02  0.1241238E+00
          2   -1    0    0  501    0  0.00000000000E+00  0.00000000000E+00  0.54696595277E+02  0.54696595277E+02  0.00000000000E+00 0. -1.
         -2   -1    0    0    0  501 -0.00000000000E+00 -0.00000000000E+00 -0.30837804112E+03  0.30837804112E+03  0.00000000000E+00 0.  1.
         25    2    1    2    0    0 -0.48790748436E+02 -0.48989155333E+02 -0.16406084200E+03  0.21759413469E+03  0.12510304992E+03 0.  0.
          5    1    3    3  502    0 -0.89001981826E+02 -0.36393210133E+02 -0.87360881881E+02  0.12998159330E+03  0.41800000000E+01 0.  1.
         -5    1    3    3    0  502  0.40211233390E+02 -0.12595945200E+02 -0.76699960123E+02  0.87612541392E+02  0.41800000000E+01 0.  1.
        -11    1    1    2    0    0 -0.19373921551E+02 -0.59898899454E+00  0.36925235338E+01  0.19731760036E+02  0.00000000000E+00 0. -1.
         11    1    1    2    0    0  0.68164669987E+02  0.49588144328E+02 -0.93313127374E+02  0.12574874167E+03  0.00000000000E+00 0.  1.
</event>
<event>
 7    1  0.2788485E-009  0.1087529E+03  0.7561462E-02  0.1262897E+00
         -1   -1    0    0    0  501 -0.00000000000E+00  0.00000000000E+00  0.56612603311E+03  0.56612603311E+03  0.00000000000E+00 0.  1.
          1   -1    0    0  501    0  0.00000000000E+00 -0.00000000000E+00 -0.27660528357E+02  0.27660528357E+02  0.00000000000E+00 0. -1.
         25    2    1    2    0    0  0.30360092610E+02  0.38726213933E+02  0.21156764759E+03  0.25065934369E+03  0.12509109562E+03 0.  0.
          5    1    3    3  502    0  0.65457444673E+02 -0.15880594688E+02  0.12860561924E+03  0.14523686877E+03  0.41800000000E+01 0.  1.
         -5    1    3    3    0  502 -0.35097352063E+02  0.54606808621E+02  0.82962028353E+02  0.10542247492E+03  0.41800000000E+01 0.  1.
        -11    1    1    2    0    0 -0.46985881714E+02 -0.48492419590E+01  0.27461652629E+03  0.27864928627E+03  0.00000000000E+00 0.  1.
         11    1    1    2    0    0  0.16625789104E+02 -0.33876971974E+02  0.52281330870E+02  0.64477931504E+02  0.00000000000E+00 0. -1.
</event>
<event>
 7    1  0.2788485E-009  0.1162858E+03  0.7561462E-02  0.1249353E+00
         -2   -1    0    0    0  501 -0.00000000000E+00  0.00000000000E+00  0.33862112068E+02  0.33862112068E+02  0.00000000000E+00 0.  1.
          2   -1    0    0  501    0  0.00000000000E+00 -0.00000000000E+00 -0.45801635866E+03  0.45801635866E+03  0.00000000000E+00 0. -1.
         25    2    1    2    0    0  0.36392761637E+01  0.49264577844E+02 -0.16599271360E+03  0.21363765591E+03  0.12508886478E+03 0.  0.
          5    1    3    3  502    0 -0.59072482329E+02  0.38590568763E+02 -0.84235221530E+02  0.10996288061E+03  0.41800000000E+01 0.  1.
         -5    1    3    3    0  502  0.62711758492E+02  0.10674009081E+02 -0.81757492069E+02  0.10367477529E+03  0.41800000000E+01 0.  1.
        -11    1    1    2    0    0  0.16277461234E+02  0.20160285968E+02 -0.34109212287E+02  0.42834930109E+02  0.00000000000E+00 0. -1.
         11    1    1    2    0    0 -0.19916737398E+02 -0.69424863813E+02 -0.22405232070E+03  0.23540588471E+03  0.00000000000E+00 0.  1.
</event>
<event>
 7    1  0.2788485E-009  0.5279994E+02  0.7561462E-02  0.1430799E+00
          1   -1    0    0  501    0  0.00000000000E+00  0.00000000000E+00  0.18410277083E+03  0.18410277083E+03  0.00000000000E+00 0. -1.
         -1   -1    0    0    0  501 -0.00000000000E+00 -0.00000000000E+00 -0.72653150764E+02  0.72653150764E+02  0.00000000000E+00 0.  1.
         25    2    1    2    0    0  0.31066959115E+02 -0.38848506833E+01  0.93395349445E+02  0.15921776596E+03  0.12508939878E+03 0.  0.
          5    1    3    3  502    0  0.26833008761E+02 -0.15715754733E+02 -0.24978933086E+02  0.40105047116E+02  0.41800000000E+01 0.  1.
         -5    1    3    3    0  502  0.42339503537E+01  0.11830904050E+02  0.11837428253E+03  0.11911271885E+03  0.41800000000E+01 0.  1.
        -11    1    1    2    0    0 -0.26430674024E-01 -0.21121054533E+02 -0.28996317024E+02  0.35873193949E+02  0.00000000000E+00 0.  1.
         11    1    1    2    0    0 -0.31040528441E+02  0.25005905216E+02  0.47050587647E+02  0.61664961684E+02  0.00000000000E+00 0. -1.
</event>
<event>
 7    1  0.2788485E-009  0.9404203E+02  0.7561462E-02  0.1293348E+00
         -1   -1    0    0    0  501 -0.00000000000E+00  0.00000000000E+00  0.11534674402E+03  0.11534674402E+03  0.00000000000E+00 0.  1.
          1   -1    0    0  501    0  0.00000000000E+00 -0.00000000000E+00 -0.12877426714E+03  0.12877426714E+03  0.00000000000E+00 0. -1.
         25    2    1    2    0    0  0.92347417799E+01 -0.39764949244E+02  0.21193070981E+02  0.13328367110E+03  0.12509539991E+03 0.  0.
          5    1    3    3  502    0  0.42469386280E+02 -0.39822546418E+02  0.58848285527E+02  0.82885928141E+02  0.41800000000E+01 0. -1.
         -5    1    3    3    0  502 -0.33234644500E+02  0.57597173838E-01 -0.37655214547E+02  0.50397742956E+02  0.41800000000E+01 0. -1.
        -11    1    1    2    0    0  0.21662310163E+01  0.66822175183E+02 -0.19133597144E+01  0.66884651441E+02  0.00000000000E+00 0.  1.
         11    1    1    2    0    0 -0.11400972796E+02 -0.27057225938E+02 -0.32707234382E+02  0.43952688622E+02  0.00000000000E+00 0. -1.
</event>
<event>
 7    1  0.2788485E-009  0.1128384E+03  0.7561462E-02  0.1255402E+00
         -4   -1    0    0    0  501 -0.00000000000E+00  0.00000000000E+00  0.87664194913E+02  0.87664194913E+02  0.00000000000E+00 0.  1.
          4   -1    0    0  501    0  0.00000000000E+00 -0.00000000000E+00 -0.16957155805E+03  0.16957155805E+03  0.00000000000E+00 0. -1.
         25    2    1    2    0    0  0.40132799378E+02  0.37593516554E+02 -0.58803134700E+02  0.14875997980E+03  0.12509120220E+03 0.  0.
          5    1    3    3  502    0 -0.17189766921E+02 -0.28363965286E+02  0.12711636272E+02  0.35763958257E+02  0.41800000000E+01 0. -1.
         -5    1    3    3    0  502  0.57322566299E+02  0.65957481840E+02 -0.71514770971E+02  0.11299602154E+03  0.41800000000E+01 0. -1.
        -11    1    1    2    0    0  0.91132531250E+01  0.24134130883E+02  0.12869165701E+01  0.25829514325E+02  0.00000000000E+00 0.  1.
         11    1    1    2    0    0 -0.49246052503E+02 -0.61727647437E+02 -0.24391145011E+02  0.82646258839E+02  0.00000000000E+00 0. -1.
</event>
<event>
 7    1  0.2788485E-009  0.1763670E+03  0.7561462E-02  0.1171366E+00
         -2   -1    0    0    0  501 -0.00000000000E+00  0.00000000000E+00  0.10379056642E+03  0.10379056642E+03  0.00000000000E+00 0. -1.
          2   -1    0    0  501    0  0.00000000000E+00 -0.00000000000E+00 -0.40784786569E+03  0.40784786569E+03  0.00000000000E+00 0.  1.
         25    2    1    2    0    0  0.11207135570E+03  0.10141912833E+03 -0.49643351040E+02  0.20238109116E+03  0.12509122831E+03 0.  0.
          5    1    3    3  502    0  0.13945880082E+03  0.85052459517E+02 -0.47338660773E+02  0.17012083705E+03  0.41800000000E+01 0.  1.
         -5    1    3    3    0  502 -0.27387445121E+02  0.16366668813E+02 -0.23046902674E+01  0.32260254114E+02  0.41800000000E+01 0.  1.
        -11    1    1    2    0    0 -0.82037815233E+02 -0.96602604325E+02 -0.24750310801E+03  0.27806483914E+03  0.00000000000E+00 0.  1.
         11    1    1    2    0    0 -0.30033540463E+02 -0.48165240053E+01 -0.69108402121E+01  0.31192501802E+02  0.00000000000E+00 0. -1.
</event>
<event>
 7    1  0.2788485E-009  0.1164175E+03  0.7561462E-02  0.1249127E+00
         -1   -1    0    0    0  501 -0.00000000000E+00  0.00000000000E+00  0.21090740315E+02  0.21090740315E+02  0.00000000000E+00 0.  1.
          1   -1    0    0  501    0  0.00000000000E+00 -0.00000000000E+00 -0.94833470988E+03  0.94833470988E+03  0.00000000000E+00 0. -1.
         25    2    1    2    0    0  0.46754727300E+02 -0.42468771995E+02 -0.71260082990E+03  0.72624800467E+03  0.12508645167E+03 0.  0.
          5    1    3    3  502    0  0.67522779703E+02  0.38936992898E+01 -0.58392409767E+03  0.58784293048E+03  0.41800000000E+01 0. -1.
         -5    1    3    3    0  502 -0.20768052403E+02 -0.46362471285E+02 -0.12867673222E+03  0.13840507418E+03  0.41800000000E+01 0. -1.
        -11    1    1    2    0    0  0.20034827379E+02  0.42855265993E+02 -0.96111956323E+02  0.10712364949E+03  0.00000000000E+00 0. -1.
         11    1    1    2    0    0 -0.66789554680E+02 -0.38649399738E+00 -0.11853118334E+03  0.13605379603E+03  0.00000000000E+00 0.  1.
</event>
<event>
 7    1  0.2788485E-009  0.1041081E+03  0.7561462E-02  0.1271887E+00
          2   -1    0    0  501    0  0.00000000000E+00  0.00000000000E+00  0.40110548104E+03  0.40110548104E+03  0.00000000000E+00 0.  1.
         -2   -1    0    0    0  501 -0.00000000000E+00 -0.00000000000E+00 -0.51938959640E+02  0.51938959640E+02  0.00000000000E+00 0. -1.
         25    2    1    2    0    0 -0.12365881866E+01  0.67537292528E+02  0.30050982663E+03  0.33243816647E+03  0.12508462572E+03 0.  0.
          5    1    3    3  502    0 -0.35166677490E+02  0.43454826542E+02  0.28056047908E+03  0.28610605023E+03  0.41800000000E+01 0. -1.
         -5    1    3    3    0  502  0.33930089303E+02  0.24082465986E+02  0.19949347555E+02  0.46332116247E+02  0.41800000000E+01 0. -1.
        -11    1    1    2    0    0 -0.36026182809E+02 -0.63305582171E+02  0.31183175494E+02  0.79233029827E+02  0.00000000000E+00 0.  1.
         11    1    1    2    0    0  0.37262770995E+02 -0.42317103568E+01  0.17473519276E+02  0.41373244382E+02  0.00000000000E+00 0. -1.
</event>
<event>
 7    1  0.2788485E-009  0.1451195E+03  0.7561462E-02  0.1206602E+00
         -1   -1    0    0    0  501 -0.00000000000E+00  0.00000000000E+00  0.10141275627E+04  0.10141275627E+04  0.00000000000E+00 0.  1.
          1   -1    0    0  501    0  0.00000000000E+00 -0.00000000000E+00 -0.26973359897E+02  0.26973359897E+02  0.00000000000E+00 0. -1.
         25    2    1    2    0    0 -0.58497128138E+02  0.10954006577E+03  0.48866938453E+03  0.51948510406E+03  0.12508423543E+03 0.  0.
          5    1    3    3  502    0 -0.88460662608E+02  0.80903844691E+02  0.25095765645E+03  0.27815092781E+03  0.41800000000E+01 0.  1.
         -5    1    3    3    0  502  0.29963534470E+02  0.28636221078E+02  0.23771172808E+03  0.24133417624E+03  0.41800000000E+01 0.  1.
        -11    1    1    2    0    0  0.38606487651E+02 -0.98692410683E+02  0.48221582436E+03  0.49372335784E+03  0.00000000000E+00 0.  1.
         11    1    1    2    0    0  0.19890640488E+02 -0.10847655085E+02  0.16268993877E+02  0.27892460659E+02  0.00000000000E+00 0. -1.
</event>
<event>
 7    1  0.2788485E-009  0.1283938E+03  0.7561462E-02  0.1229859E+00
          1   -1    0    0  501    0  0.00000000000E+00  0.00000000000E+00  0.43468090970E+03  0.43468090970E+03  0.00000000000E+00 0. -1.
         -1   -1    0    0    0  501 -0.00000000000E+00 -0.00000000000E+00 -0.56955056550E+02  0.56955056550E+02  0.00000000000E+00 0.  1.
         25    2    1    2    0    0 -0.15556008271E+02 -0.10887129477E+03  0.22594455680E+03  0.28070027477E+03  0.12508698289E+03 0.  0.
          5    1    3    3  502    0 -0.14494997041E+02 -0.36627322257E+02 -0.38304273976E+01  0.39797113576E+02  0.41800000000E+01 0. -1.
         -5    1    3    3    0  502 -0.10610112301E+01 -0.72243972508E+02  0.22977498420E+03  0.24090316119E+03  0.41800000000E+01 0. -1.
        -11    1    1    2    0    0 -0.39434313921E+02  0.56213774919E+02  0.56171574518E+02  0.88714707850E+02  0.00000000000E+00 0. -1.
         11    1    1    2    0    0  0.54990322192E+02  0.52657519847E+02  0.95609721829E+02  0.12222098363E+03  0.00000000000E+00 0.  1.
</event>
<event>
 7    1  0.2788485E-009  0.9598076E+02  0.7561462E-02  0.1288982E+00
         -2   -1    0    0    0  501 -0.00000000000E+00  0.00000000000E+00  0.30413567878E+02  0.30413567878E+02  0.00000000000E+00 0. -1.
          2   -1    0    0  501    0  0.00000000000E+00 -0.00000000000E+00 -0.48053689655E+03  0.48053689655E+03  0.00000000000E+00 0.  1.
         25    2    1    2    0    0  0.50794394882E+02  0.20438007146E+02 -0.22239645878E+03  0.26096939062E+03  0.12508818999E+03 0.  0.
          5    1    3    3  502    0 -0.16924879904E+02  0.35075526707E+02 -0.14457534271E+02  0.41752087741E+02  0.41800000000E+01 0. -1.
         -5    1    3    3    0  502  0.67719274786E+02 -0.14637519561E+02 -0.20793892451E+03  0.21921730288E+03  0.41800000000E+01 0. -1.
        -11    1    1    2    0    0 -0.40234648048E+02  0.17593456234E+02 -0.44378800435E+02  0.62432639972E+02  0.00000000000E+00 0. -1.
         11    1    1    2    0    0 -0.10559746835E+02 -0.38031463379E+02 -0.18334806946E+03  0.18754843384E+03  0.00000000000E+00 0.  1.
</event>
<event>
 7    1  0.2788485E-009  0.2329148E+03  0.7561462E-02  0.1124605E+00
          2   -1    0    0  501    0  0.00000000000E+00  0.00000000000E+00  0.47639921038E+02  0.47639921038E+02  0.00000000000E+00 0. -1.
         -2   -1    0    0    0  501 -0.00000000000E+00 -0.00000000000E+00 -0.13180526125E+04  0.13180526125E+04  0.00000000000E+00 0.  1.
         25    2    1    2    0    0 -0.15858078365E+03  0.13510858629E+03 -0.89502509889E+03  0.92742643467E+03  0.12509064339E+03 0.  0.
          5    1    3    3  502    0 -0.96898171721E+02  0.14755803624E+03 -0.58574666410E+03  0.61178366818E+03  0.41800000000E+01 0. -1.
         -5    1    3    3    0  502 -0.61682611926E+02 -0.12449449953E+02 -0.30927843479E+03  0.31564276650E+03  0.41800000000E+01 0. -1.
        -11    1    1    2    0    0  0.66072640834E+01 -0.53075868910E+02 -0.89740673204E+02  0.10447053281E+03  0.00000000000E+00 0. -1.
         11    1    1    2    0    0  0.15197351956E+03 -0.82032717381E+02 -0.28564691937E+03  0.33379556605E+03  0.00000000000E+00 0.  1.
</event>
<event>
 7    1  0.2788485E-009  0.6651519E+02  0.7561462E-02  0.1372361E+00
         -1   -1    0    0    0  501 -0.00000000000E+00  0.00000000000E+00  0.55539886602E+02  0.55539886602E+02  0.00000000000E+00 0.  1.
          1   -1    0    0  501    0  0.00000000000E+00 -0.00000000000E+00 -0.25840686672E+03  0.25840686672E+03  0.00000000000E+00 0. -1.
         25    2    1    2    0    0 -0.26524549720E+02 -0.25630954948E+02 -0.15308067242E+03  0.20110107315E+03  0.12508977482E+03 0.  0.
          5    1    3    3  502    0 -0.22219911391E+02 -0.32623728873E+02 -0.17387960327E+03  0.17835251885E+03  0.41800000000E+01 0. -1.
         -5    1    3    3    0  502 -0.43046383284E+01  0.69927739256E+01  0.20798930850E+02  0.22748554302E+02  0.41800000000E+01 0. -1.
        -11    1    1    2    0    0  0.42659562739E+02 -0.11035666029E+02  0.56770970415E+01  0.44428072754E+02  0.00000000000E+00 0.  1.
         11    1    1    2    0    0 -0.16135013020E+02  0.36666620977E+02 -0.55463404744E+02  0.68417607418E+02  0.00000000000E+00 0. -1.
</event>
<event>
 7    1  0.2788485E-009  0.1144343E+03  0.7561462E-02  0.1252572E+00
          1   -1    0    0  501    0  0.00000000000E+00  0.00000000000E+00  0.12999563681E+03  0.12999563681E+03  0.00000000000E+00 0. -1.
         -1   -1    0    0    0  501 -0.00000000000E+00 -0.00000000000E+00 -0.13662874741E+03  0.13662874741E+03  0.00000000000E+00 0.  1.
         25    2    1    2    0    0 -0.23313380923E+02  0.58166659411E+02 -0.47082546235E+02  0.14763472545E+03  0.12510944010E+03 0.  0.
          5    1    3    3  502    0 -0.13315294158E+02  0.87372094889E+02 -0.66715084783E+02  0.11081315338E+03  0.41800000000E+01 0. -1.
         -5    1    3    3    0  502 -0.99980867659E+01 -0.29205435478E+02  0.19632538548E+02  0.36821572078E+02  0.41800000000E+01 0. -1.
        -11    1    1    2    0    0 -0.14100381964E+02  0.18893648561E+02 -0.14685509933E+01  0.23620909582E+02  0.00000000000E+00 0.  1.
         11    1    1    2    0    0  0.37413762887E+02 -0.77060307972E+02  0.41917986633E+02  0.95368749187E+02  0.00000000000E+00 0. -1.
</event>
<event>
 7    1  0.2788485E-009  0.6295891E+02  0.7561462E-02  0.1385818E+00
         -1   -1    0    0    0  501 -0.00000000000E+00  0.00000000000E+00  0.13602502685E+03  0.13602502685E+03  0.00000000000E+00 0.  1.
          1   -1    0    0  501    0  0.00000000000E+00 -0.00000000000E+00 -0.10262447369E+03  0.10262447369E+03  0.00000000000E+00 0. -1.
         25    2    1    2    0    0 -0.30353339673E+02 -0.19252063249E+02 -0.13635952581E+02  0.13086541836E+03  0.12509137201E+03 0.  0.
          5    1    3    3  502    0 -0.38322871054E+02 -0.10501612114E+02 -0.65926773907E+02  0.77089157608E+02  0.41800000000E+01 0.  1.
         -5    1    3    3    0  502  0.79695313813E+01 -0.87504511353E+01  0.52290821327E+02  0.53776260753E+02  0.41800000000E+01 0.  1.
        -11    1    1    2    0    0 -0.18879318245E+02 -0.34567234236E+01  0.49927442830E+02  0.53489504969E+02  0.00000000000E+00 0.  1.
         11    1    1    2    0    0  0.49232657918E+02  0.22708786672E+02 -0.28909370923E+01  0.54294577216E+02  0.00000000000E+00 0. -1.
</event>
<event>
 7    1  0.2788485E-009  0.1118981E+03  0.7561462E-02  0.1257095E+00
          2   -1    0    0  501    0  0.00000000000E+00  0.00000000000E+00  0.56218176354E+02  0.56218176354E+02  0.00000000000E+00 0. -1.
         -2   -1    0    0    0  501 -0.00000000000E+00 -0.00000000000E+00 -0.48271196444E+03  0.48271196444E+03  0.00000000000E+00 0.  1.
         25    2    1    2    0    0  0.36752987346E+02 -0.71504093951E+02 -0.73328148994E+02  0.16579748785E+03  0.12509265371E+03 0.  0.
          5    1    3    3  502    0  0.28743127780E+01  0.26733073901E+02  0.13446703365E+02  0.30351361510E+02  0.41800000000E+01 0.  1.
         -5    1    3    3    0  502  0.33878674568E+02 -0.98237167851E+02 -0.86774852359E+02  0.13544612634E+03  0.41800000000E+01 0.  1.
        -11    1    1    2    0    0 -0.43815816626E+02  0.36942632367E+02 -0.31870919339E+03  0.32382114481E+03  0.00000000000E+00 0.  1.
         11    1    1    2    0    0  0.70628292793E+01  0.34561461584E+02 -0.34456445695E+02  0.49311508131E+02  0.00000000000E+00 0. -1.
</event>
<event>
 7    1  0.2788485E-009  0.1184759E+03  0.7561462E-02  0.1245633E+00
          1   -1    0    0  501    0  0.00000000000E+00  0.00000000000E+00  0.69937567263E+02  0.69937567263E+02  0.00000000000E+00 0. -1.
         -1   -1    0    0    0  501 -0.00000000000E+00 -0.00000000000E+00 -0.23925064595E+03  0.23925064595E+03  0.00000000000E+00 0.  1.
         25    2    1    2    0    0  0.63700427315E+02  0.22758808623E+02 -0.11351833956E+03  0.18195481419E+03  0.12508170602E+03 0.  0.
          5    1    3    3  502    0  0.67163350922E+02  0.65694723096E+02 -0.98398671020E+02  0.13611202448E+03  0.41800000000E+01 0. -1.
         -5    1    3    3    0  502 -0.34629236073E+01 -0.42935914474E+02 -0.15119668540E+02  0.45842789710E+02  0.41800000000E+01 0. -1.
        -11    1    1    2    0    0 -0.50408222804E+02 -0.48946953228E+02 -0.65745456043E+02  0.96225039085E+02  0.00000000000E+00 0.  1.
         11    1    1    2    0    0 -0.13292204511E+02  0.26188144605E+02  0.99507169191E+01  0.31008359934E+02  0.00000000000E+00 0. -1.
</event>
<event>
 7    1  0.2788485E-009  0.2563010E+03  0.7561462E-02  0.1109386E+00
          2   -1    0    0  501    0  0.00000000000E+00  0.00000000000E+00  0.12364320161E+04  0.12364320161E+04  0.00000000000E+00 0.  1.
         -2   -1    0    0    0  501 -0.00000000000E+00 -0.00000000000E+00 -0.78768404634E+02  0.78768404634E+02  0.00000000000E+00 0. -1.
         25    2    1    2    0    0 -0.13206897336E+03  0.20600732940E+03  0.91607243919E+03  0.95640837259E+03  0.12508808024E+03 0.  0.
          5    1    3    3  502    0 -0.80972631900E+02  0.91671485949E+02  0.24646260254E+03  0.27517542642E+03  0.41800000000E+01 0.  1.
         -5    1    3    3    0  502 -0.51096341458E+02  0.11433584345E+03  0.66960983665E+03  0.68123294617E+03  0.41800000000E+01 0.  1.
        -11    1    1    2    0    0  0.54112504638E+02 -0.17118614462E+03  0.17222583391E+03  0.24878624788E+03  0.00000000000E+00 0. -1.
         11    1    1    2    0    0  0.77956468720E+02 -0.34821184781E+02  0.69365338357E+02  0.11000580026E+03  0.00000000000E+00 0.  1.
</event>
<event>
 7    1  0.2788485E-009  0.8632049E+02  0.7561462E-02  0.1312015E+00
          1   -1    0    0  501    0  0.00000000000E+00  0.00000000000E+00  0.17621749334E+03  0.17621749334E+03  0.00000000000E+00 0. -1.
         -1   -1    0    0    0  501 -0.00000000000E+00 -0.00000000000E+00 -0.78801893949E+02  0.78801893949E+02  0.00000000000E+00 0.  1.
         25    2    1    2    0    0 -0.17480951079E+02  0.47186626108E+02  0.48759004021E+02  0.14337686916E+03  0.12508926733E+03 0.  0.
          5    1    3    3  502    0 -0.39542243071E+02 -0.80848670274E+01  0.69279982566E+02  0.80287872348E+02  0.41800000000E+01 0. -1.
         -5    1    3    3    0  502  0.22061291992E+02  0.55271493135E+02 -0.20520978545E+02  0.63088996808E+02  0.41800000000E+01 0. -1.
        -11    1    1    2    0    0  0.34988140992E+02 -0.20688032992E+02  0.64431246076E+02  0.76181035633E+02  0.00000000000E+00 0. -1.
         11    1    1    2    0    0 -0.17507189914E+02 -0.26498593116E+02 -0.15774650710E+02  0.35461482497E+02  0.00000000000E+00 0.  1.
</event>
<event>
 7    1  0.2788485E-009  0.1056291E+03  0.7561462E-02  0.1268885E+00
          1   -1    0    0  501    0  0.00000000000E+00  0.00000000000E+00  0.40243491573E+02  0.40243491573E+02  0.00000000000E+00 0. -1.
         -1   -1    0    0    0  501 -0.00000000000E+00 -0.00000000000E+00 -0.40262119069E+03  0.40262119069E+03  0.00000000000E+00 0.  1.
         25    2    1    2    0    0 -0.45603239568E+02 -0.44652082227E+02 -0.16923018054E+03  0.21991120027E+03  0.12509443670E+03 0.  0.
          5    1    3    3  502    0  0.15330800877E+02  0.96775230297E+01  0.11277771766E+02  0.21756572421E+02  0.41800000000E+01 0.  1.
         -5    1    3    3    0  502 -0.60934040445E+02 -0.54329605257E+02 -0.18050795231E+03  0.19815462785E+03  0.41800000000E+01 0.  1.
        -11    1    1    2    0    0  0.10779274643E+02  0.68086021573E+02 -0.12964581202E+03  0.14683301968E+03  0.00000000000E+00 0.  1.
         11    1    1    2    0    0  0.34823964926E+02 -0.23433939346E+02 -0.63501706554E+02  0.76120462306E+02  0.00000000000E+00 0. -1.
</event>
<event>
 7    1  0.2788485E-009  0.1038385E+03  0.7561462E-02  0.1272425E+00
         -2   -1    0    0    0  501 -0.00000000000E+00  0.00000000000E+00  0.34009444450E+02  0.34009444450E+02  0.00000000000E+00 0.  1.
          2   -1    0    0  501    0  0.00000000000E+00 -0.00000000000E+00 -0.49328783592E+03  0.49328783592E+03  0.00000000000E+00 0. -1.
         25    2    1    2    0    0  0.30800182968E+02 -0.61289294324E+02 -0.26103945881E+03  0.29748079267E+03  0.12509274192E+03 0.  0.
          5    1    3    3  502    0 -0.44655457441E+01  0.10917452596E+02 -0.18919310807E+03  0.18960653050E+03  0.41800000000E+01 0. -1.
         -5    1    3    3    0  502  0.35265728712E+02 -0.72206746920E+02 -0.71846350745E+02  0.10787426217E+03  0.41800000000E+01 0. -1.
        -11    1    1    2    0    0  0.16627703528E+00 -0.23978427813E+02 -0.27594157240E+02  0.36557217649E+02  0.00000000000E+00 0. -1.
         11    1    1    2    0    0 -0.30966460003E+02  0.85267722137E+02 -0.17064477542E+03  0.19325927005E+03  0.00000000000E+00 0.  1.
</event>
<event>
 7    1  0.2788485E-009  0.1153251E+03  0.7561462E-02  0.1251015E+00
         -1   -1    0    0    0  501 -0.00000000000E+00  0.00000000000E+00  0.15036431089E+03  0.15036431089E+03  0.00000000000E+00 0.  1.
          1   -1    0    0  501    0  0.00000000000E+00 -0.00000000000E+00 -0.14559224335E+03  0.14559224335E+03  0.00000000000E+00 0. -1.
         25    2    1    2    0    0  0.59351494976E+02 -0.35262401015E+02 -0.71976854032E+02  0.15998250033E+03  0.12509075111E+03 0.  0.
          5    1    3    3  502    0  0.50695474156E+02 -0.79050867177E+02 -0.65763046222E+02  0.11472280222E+03  0.41800000000E+01 0.  1.
         -5    1    3    3    0  502  0.86560208200E+01  0.43788466161E+02 -0.62138078109E+01  0.45259698107E+02  0.41800000000E+01 0.  1.
        -11    1    1    2    0    0 -0.48953202358E+02 -0.59489010600E+01  0.12448765504E+01  0.49329049885E+02  0.00000000000E+00 0. -1.
         11    1    1    2    0    0 -0.10398292618E+02  0.41211302075E+02  0.75504045027E+02  0.86645004031E+02  0.00000000000E+00 0.  1.
</event>
<event>
 7    1  0.2788485E-009  0.1285077E+03  0.7561462E-02  0.1229687E+00
         -2   -1    0    0    0  501 -0.00000000000E+00  0.00000000000E+00  0.13965279715E+03  0.13965279715E+03  0.00000000000E+00 0. -1.
          2   -1    0    0  501    0  0.00000000000E+00 -0.00000000000E+00 -0.13709143762E+03  0.13709143762E+03  0.00000000000E+00 0.  1.
         25    2    1    2    0    0  0.62924901132E+02  0.54387150977E+02  0.16172702364E+02  0.15108545254E+03  0.12509097607E+03 0.  0.
          5    1    3    3  502    0 -0.42785227240E+01 -0.35930041613E+02  0.12013392780E+02  0.38354499776E+02  0.41800000000E+01 0. -1.
         -5    1    3    3    0  502  0.67203423856E+02  0.90317192590E+02  0.41593095849E+01  0.11273095277E+03  0.41800000000E+01 0. -1.
        -11    1    1    2    0    0 -0.51853065808E+02  0.58922578396E+00  0.25003783253E+02  0.57569755929E+02  0.00000000000E+00 0. -1.
         11    1    1    2    0    0 -0.11071835324E+02 -0.54976376761E+02 -0.38615126093E+02  0.68089026300E+02  0.00000000000E+00 0.  1.
</event>
<event>
 7    1  0.2788485E-009  0.1016952E+03  0.7561462E-02  0.1276771E+00
          2   -1    0    0  501    0  0.00000000000E+00  0.00000000000E+00  0.76706008126E+03  0.76706008126E+03  0.00000000000E+00 0. -1.
         -2   -1    0    0    0  501 -0.00000000000E+00 -0.00000000000E+00 -0.18852569677E+02  0.18852569677E+02  0.00000000000E+00 0.  1.
         25    2    1    2    0    0 -0.49161659648E+02  0.21567547912E+02  0.42602333818E+03  0.44724688722E+03  0.12510741605E+03 0.  0.
          5    1    3    3  502    0 -0.34647013250E+02 -0.30037099987E+02  0.52322833157E+02  0.69697877818E+02  0.41800000000E+01 0.  1.
         -5    1    3    3    0  502 -0.14514646398E+02  0.51604647899E+02  0.37370050503E+03  0.37754900940E+03  0.41800000000E+01 0.  1.
        -11    1    1    2    0    0  0.53045416291E+02  0.23730601909E+02  0.15984848502E+03  0.17008379059E+03  0.00000000000E+00 0.  1.
         11    1    1    2    0    0 -0.38837566431E+01 -0.45298149821E+02  0.16233568838E+03  0.16858197313E+03  0.00000000000E+00 0. -1.
</event>
<event>
 7    1  0.2788485E-009  0.1320792E+03  0.7561462E-02  0.1224403E+00
          3   -1    0    0  501    0  0.00000000000E+00  0.00000000000E+00  0.23532494120E+03  0.23532494120E+03  0.00000000000E+00 0. -1.
         -3   -1    0    0    0  501 -0.00000000000E+00 -0.00000000000E+00 -0.83610130588E+02  0.83610130588E+02  0.00000000000E+00 0.  1.
         25    2    1    2    0    0 -0.46915195233E+02 -0.72109947151E+02  0.61798175889E+02  0.16392084951E+03  0.12510056090E+03 0.  0.
          5    1    3    3  502    0  0.38127097809E+02  0.54211735763E+00  0.58997725542E+01  0.38810426367E+02  0.41800000000E+01 0. -1.
         -5    1    3    3    0  502 -0.85042293042E+02 -0.72652064508E+02  0.55898403335E+02  0.12511042314E+03  0.41800000000E+01 0. -1.
        -11    1    1    2    0    0  0.27002860681E+02  0.85640156806E+02  0.37459183939E+02  0.97296358637E+02  0.00000000000E+00 0.  1.
         11    1    1    2    0    0  0.19912334552E+02 -0.13530209655E+02  0.52457450784E+02  0.57717863642E+02  0.00000000000E+00 0. -1.
</event>
<event>
 7    1  0.2788485E-009  0.1165958E+03  0.7561462E-02  0.1248821E+00
         -1   -1    0    0    0  501 -0.00000000000E+00  0.00000000000E+00  0.24324766388E+03  0.24324766388E+03  0.00000000000E+00 0.  1.
          1   -1    0    0  501    0  0.00000000000E+00 -0.00000000000E+00 -0.83398467487E+02  0.83398467487E+02  0.00000000000E+00 0. -1.
         25    2    1    2    0    0 -0.41079356711E+02 -0.59279583740E+02  0.20902138299E+02  0.14589843490E+03  0.12509145184E+03 0.  0.
          5    1    3    3  502    0 -0.18575309067E+02  0.36066900341E+02 -0.11928903235E+02  0.42492758672E+02  0.41800000000E+01 0.  1.
         -5    1    3    3    0  502 -0.22504047645E+02 -0.95346484081E+02  0.32831041534E+02  0.10340567622E+03  0.41800000000E+01 0.  1.
        -11    1    1    2    0    0 -0.14359562887E+02  0.17635836994E+01  0.80436578479E+02  0.81727293061E+02  0.00000000000E+00 0.  1.
         11    1    1    2    0    0  0.55438919598E+02  0.57516000040E+02  0.58510479618E+02  0.99020403413E+02  0.00000000000E+00 0. -1.
</event>
<event>
 7    1  0.2788485E-009  0.1048961E+03  0.7561462E-02  0.1270325E+00
          2   -1    0    0  501    0  0.00000000000E+00  0.00000000000E+00  0.23544444748E+03  0.23544444748E+03  0.00000000000E+00 0. -1.
         -2   -1    0    0    0  501 -0.00000000000E+00 -0.00000000000E+00 -0.57780525813E+02  0.57780525813E+02  0.00000000000E+00 0.  1.
         25    2    1    2    0    0 -0.31406640756E+02  0.26444621985E+02  0.12401075210E+03  0.18086504768E+03  0.12509118162E+03 0.  0.
          5    1    3    3  502    0  0.13678172384E+02 -0.42594266094E+02  0.23222544168E+02  0.50577889057E+02  0.41800000000E+01 0.  1.
         -5    1    3    3    0  502 -0.45084813140E+02  0.69038888079E+02  0.10078820793E+03  0.13028715862E+03  0.41800000000E+01 0.  1.
        -11    1    1    2    0    0  0.26330212487E+02  0.21557133581E+02  0.54305030432E+02  0.64086086073E+02  0.00000000000E+00 0. -1.
         11    1    1    2    0    0  0.50764282693E+01 -0.48001755566E+02 -0.65186086983E+00  0.48273839541E+02  0.00000000000E+00 0.  1.
</event>
<event>
 7    1  0.3430965E-009  0.1006292E+03  0.7561462E-02  0.1278978E+00
         -2   -1    0    0    0  501 -0.00000000000E+00  0.00000000000E+00  0.27262528865E+02  0.27262528865E+02  0.00000000000E+00 0.  1.
          2   -1    0    0  501    0  0.00000000000E+00 -0.00000000000E+00 -0.61068135810E+03  0.61068135810E+03  0.00000000000E+00 0. -1.
         25    2    1    2    0    0  0.56245010926E+02 -0.37903455176E+01 -0.42581782254E+03  0.44737436227E+03  0.12508051026E+03 0.  0.
          5    1    3    3  502    0  0.73907646357E+02  0.21036830717E+02 -0.39965559628E+03  0.40699748952E+03  0.41800000000E+01 0.  1.
         -5    1    3    3    0  502 -0.17662635431E+02 -0.24827176234E+02 -0.26162226265E+02  0.40376872753E+02  0.41800000000E+01 0.  1.
        -11    1    1    2    0    0 -0.33100254200E+02  0.39161748944E+02 -0.38300192950E+02  0.64001360833E+02  0.00000000000E+00 0. -1.
         11    1    1    2    0    0 -0.23144756726E+02 -0.35371403426E+02 -0.11930081374E+03  0.12656816387E+03  0.00000000000E+00 0.  1.
</event>
<event>
 7    1  0.2788485E-009  0.1224508E+03  0.7561462E-02  0.1239108E+00
         -3   -1    0    0    0  501 -0.00000000000E+00  0.00000000000E+00  0.13264233117E+04  0.13264233117E+04  0.00000000000E+00 0.  1.
          3   -1    0    0  501    0  0.00000000000E+00 -0.00000000000E+00 -0.16244259991E+02  0.16244259991E+02  0.00000000000E+00 0. -1.
         25    2    1    2    0    0 -0.76772509759E+02 -0.11434093191E+01  0.99741929156E+03  0.10081629098E+04  0.12510748955E+03 0.  0.
          5    1    3    3  502    0 -0.49670731871E+02  0.50960045961E+02  0.30389780831E+03  0.31214653319E+03  0.41800000000E+01 0. -1.
         -5    1    3    3    0  502 -0.27101777887E+02 -0.52103455280E+02  0.69352148325E+03  0.69601637664E+03  0.41800000000E+01 0. -1.
        -11    1    1    2    0    0  0.65406598280E+02 -0.36855033227E+02  0.16093533737E+03  0.17758518910E+03  0.00000000000E+00 0. -1.
         11    1    1    2    0    0  0.11365911479E+02  0.37998442546E+02  0.15182442275E+03  0.15691947274E+03  0.00000000000E+00 0.  1.
</event>
<event>
 7    1  0.2788485E-009  0.1336359E+03  0.7561462E-02  0.1222158E+00
          3   -1    0    0  501    0  0.00000000000E+00  0.00000000000E+00  0.13028121028E+04  0.13028121028E+04  0.00000000000E+00 0. -1.
         -3   -1    0    0    0  501 -0.00000000000E+00 -0.00000000000E+00 -0.35525517798E+02  0.35525517798E+02  0.00000000000E+00 0.  1.
         25    2    1    2    0    0 -0.11777987424E+03 -0.10725856310E+02  0.11038847100E+04  0.11172270567E+04  0.12509076865E+03 0.  0.
          5    1    3    3  502    0 -0.75731963888E+02 -0.93817447997E+01  0.10239756322E+04  0.10268237021E+04  0.41800000000E+01 0. -1.
         -5    1    3    3    0  502 -0.42047910349E+02 -0.13441115107E+01  0.79909077896E+02  0.90403354643E+02  0.41800000000E+01 0. -1.
        -11    1    1    2    0    0  0.80639387576E+02 -0.36478290532E+02  0.89391571877E+02  0.12579439428E+03  0.00000000000E+00 0.  1.
         11    1    1    2    0    0  0.37140486661E+02  0.47204146843E+02  0.74010303098E+02  0.95316169631E+02  0.00000000000E+00 0. -1.
</event>
<event>
 7    1  0.2788485E-009  0.1168490E+03  0.7561462E-02  0.1248388E+00
         -2   -1    0    0    0  501 -0.00000000000E+00  0.00000000000E+00  0.14822356971E+02  0.14822356971E+02  0.00000000000E+00 0.  1.
          2   -1    0    0  501    0  0.00000000000E+00 -0.00000000000E+00 -0.94801023719E+03  0.94801023719E+03  0.00000000000E+00 0. -1.
         25    2    1    2    0    0  0.59059512937E+01 -0.42124555928E+02 -0.60144949341E+03  0.61579063701E+03  0.12508899647E+03 0.  0.
          5    1    3    3  502    0 -0.37713021057E+02  0.29428153903E+02 -0.20282441704E+03  0.20843105514E+03  0.41800000000E+01 0.  1.
         -5    1    3    3    0  502  0.43618972351E+02 -0.71552709831E+02 -0.39862507637E+03  0.40735958188E+03  0.41800000000E+01 0.  1.
        -11    1    1    2    0    0 -0.19160341939E+02  0.69106792511E+02 -0.22512429270E+03  0.23627063854E+03  0.00000000000E+00 0. -1.
         11    1    1    2    0    0  0.13254390645E+02 -0.26982236583E+02 -0.10661409412E+03  0.11077131861E+03  0.00000000000E+00 0.  1.
</event>
<event>
 7    1  0.2788485E-009  0.8174261E+02  0.7561462E-02  0.1324178E+00
         -1   -1    0    0    0  501 -0.00000000000E+00  0.00000000000E+00  0.54258817246E+02  0.54258817246E+02  0.00000000000E+00 0.  1.
          1   -1    0    0  501    0  0.00000000000E+00 -0.00000000000E+00 -0.27004687553E+03  0.27004687553E+03  0.00000000000E+00 0. -1.
         25    2    1    2    0    0  0.15703601615E+02 -0.19912214235E+02 -0.58522340160E+02  0.14041433026E+03  0.12509284738E+03 0.  0.
          5    1    3    3  502    0 -0.33210412014E+02 -0.26858130976E+01 -0.77952453738E+02  0.84877573610E+02  0.41800000000E+01 0. -1.
         -5    1    3    3    0  502  0.48914013629E+02 -0.17226401137E+02  0.19430113577E+02  0.55536756649E+02  0.41800000000E+01 0. -1.
        -11    1    1    2    0    0  0.23818168739E+02 -0.12378188372E+02 -0.11358958621E+03  0.11671811686E+03  0.00000000000E+00 0. -1.
         11    1    1    2    0    0 -0.39521770354E+02  0.32290402607E+02 -0.43676131917E+02  0.67173245653E+02  0.00000000000E+00 0.  1.
</event>
<event>
 7    1  0.3303897E-009  0.8476606E+02  0.7561462E-02  0.1316045E+00
         -1   -1    0    0    0  501 -0.00000000000E+00  0.00000000000E+00  0.40353799425E+02  0.40353799425E+02  0.00000000000E+00 0.  1.
          1   -1    0    0  501    0  0.00000000000E+00 -0.00000000000E+00 -0.32642702989E+03  0.32642702989E+03  0.00000000000E+00 0. -1.
         25    2    1    2    0    0  0.18121645699E+02 -0.15406048024E+02 -0.20969470262E+03  0.24532629901E+03  0.12508950524E+03 0.  0.
          5    1    3    3  502    0 -0.44318016093E+02 -0.30573268146E+02 -0.14188693626E+03  0.15181629147E+03  0.41800000000E+01 0.  1.
         -5    1    3    3    0  502  0.62439661792E+02  0.15167220122E+02 -0.67807766363E+02  0.93510007540E+02  0.41800000000E+01 0.  1.
        -11    1    1    2    0    0  0.85281980271E+01  0.22076361073E+02  0.13654898121E+02  0.27323106019E+02  0.00000000000E+00 0.  1.
         11    1    1    2    0    0 -0.26649843726E+02 -0.66703130493E+01 -0.90033425971E+02  0.94131424290E+02  0.00000000000E+00 0. -1.
</event>
<event>
 7    1  0.2788485E-009  0.1064746E+03  0.7561462E-02  0.1267241E+00
         -2   -1    0    0    0  501 -0.00000000000E+00  0.00000000000E+00  0.38306623461E+03  0.38306623461E+03  0.00000000000E+00 0.  1.
          2   -1    0    0  501    0  0.00000000000E+00 -0.00000000000E+00 -0.50618594186E+02  0.50618594186E+02  0.00000000000E+00 0. -1.
         25    2    1    2    0    0 -0.17903790573E+02 -0.85290829058E+02  0.18497935147E+03  0.23971482460E+03  0.12510301925E+03 0.  0.
          5    1    3    3  502    0 -0.75426989289E+01 -0.69820749786E+02  0.20215146305E+03  0.21404325689E+03  0.41800000000E+01 0. -1.
         -5    1    3    3    0  502 -0.10361091644E+02 -0.15470079272E+02 -0.17172111578E+02  0.25671567712E+02  0.41800000000E+01 0. -1.
        -11    1    1    2    0    0  0.52573188505E+02  0.64022073541E+02  0.11600303032E+03  0.14254637523E+03  0.00000000000E+00 0. -1.
         11    1    1    2    0    0 -0.34669397933E+02  0.21268755517E+02  0.31465258643E+02  0.51423628963E+02  0.00000000000E+00 0.  1.
</event>
<event>
 7    1  0.2788485E-009  0.1226523E+03  0.7561462E-02  0.1238785E+00
         -1   -1    0    0    0  501 -0.00000000000E+00  0.00000000000E+00  0.53898262870E+02  0.53898262870E+02  0.00000000000E+00 0.  1.
          1   -1    0    0  501    0  0.00000000000E+00 -0.00000000000E+00 -0.45022010608E+03  0.45022010608E+03  0.00000000000E+00 0. -1.
         25    2    1    2    0    0 -0.74528877807E+02 -0.19723981806E+02 -0.35280147850E+03  0.38217813803E+03  0.12509059464E+03 0.  0.
          5    1    3    3  502    0  0.22804163029E+02 -0.41091982213E+02 -0.11625447981E+03  0.12546376899E+03  0.41800000000E+01 0.  1.
         -5    1    3    3    0  502 -0.97333040836E+02  0.21368000407E+02 -0.23654699869E+03  0.25671436904E+03  0.41800000000E+01 0.  1.
        -11    1    1    2    0    0  0.26528852410E+02 -0.22247600009E+02  0.12753440256E+02  0.36896964032E+02  0.00000000000E+00 0.  1.
         11    1    1    2    0    0  0.48000025397E+02  0.41971581815E+02 -0.56273804963E+02  0.85043266889E+02  0.00000000000E+00 0. -1.
</event>
<event>
 7    1  0.2788485E-009  0.8744348E+02  0.7561462E-02  0.1309163E+00
         -1   -1    0    0    0  501 -0.00000000000E+00  0.00000000000E+00  0.18436299593E+03  0.18436299593E+03  0.00000000000E+00 0.  1.
          1   -1    0    0  501    0  0.00000000000E+00 -0.00000000000E+00 -0.28333753755E+03  0.28333753755E+03  0.00000000000E+00 0. -1.
         25    2    1    2    0    0 -0.64612627944E+02 -0.47311583399E+02  0.13704163611E+03  0.20208837801E+03  0.12508447100E+03 0.  0.
          5    1    3    3  502    0 -0.44476279067E+02 -0.15413923330E+02  0.15358202191E+03  0.16068801538E+03  0.41800000000E+01 0.  1.
         -5    1    3    3    0  502 -0.20136348876E+02 -0.31897660069E+02 -0.16540385799E+02  0.41400362635E+02  0.41800000000E+01 0.  1.
        -11    1    1    2    0    0  0.45272635734E+02  0.52821354052E+02 -0.23543078268E+03  0.24549411484E+03  0.00000000000E+00 0. -1.
         11    1    1    2    0    0  0.19339992209E+02 -0.55097706535E+01 -0.58539504509E+00  0.20118040627E+02  0.00000000000E+00 0.  1.
</event>
<event>
 7    1  0.2788485E-009  0.1447874E+03  0.7561462E-02  0.1207029E+00
          2   -1    0    0  501    0  0.00000000000E+00  0.00000000000E+00  0.74833085929E+02  0.74833085929E+02  0.00000000000E+00 0. -1.
         -2   -1    0    0    0  501 -0.00000000000E+00 -0.00000000000E+00 -0.37721888012E+03  0.37721888012E+03  0.00000000000E+00 0.  1.
         25    2    1    2    0    0  0.81934318519E+02 -0.95479141858E+02 -0.20128158374E+03  0.26831144285E+03  0.12508898964E+03 0.  0.
          5    1    3    3  502    0  0.63880009238E+02 -0.32568748184E+02 -0.18819501997E+03  0.20143539133E+03  0.41800000000E+01 0. -1.
         -5    1    3    3    0  502  0.18054309282E+02 -0.62910393674E+02 -0.13086563772E+02  0.66876051522E+02  0.41800000000E+01 0. -1.
        -11    1    1    2    0    0  0.56804884680E+01  0.55622994846E+02 -0.48687926510E+02  0.74139730865E+02  0.00000000000E+00 0.  1.
         11    1    1    2    0    0 -0.87614806987E+02  0.39856147012E+02 -0.52416283941E+02  0.10960079233E+03  0.00000000000E+00 0. -1.
</event>
<event>
 7    1  0.2788485E-009  0.1514344E+03  0.7561462E-02  0.1198721E+00
         -3   -1    0    0    0  501 -0.00000000000E+00  0.00000000000E+00  0.30287396228E+02  0.30287396228E+02  0.00000000000E+00 0.  1.
          3   -1    0    0  501    0  0.00000000000E+00 -0.00000000000E+00 -0.84974468157E+03  0.84974468157E+03  0.00000000000E+00 0. -1.
         25    2    1    2    0    0 -0.81212759038E+02 -0.78326307164E+02 -0.34826411001E+03  0.38686682257E+03  0.12509006937E+03 0.  0.
          5    1    3    3  502    0  0.25859560855E+02  0.33541206430E+01 -0.11019212266E+03  0.11331259113E+03  0.41800000000E+01 0. -1.
         -5    1    3    3    0  502 -0.10707231989E+03 -0.81680427807E+02 -0.23807198735E+03  0.27355423144E+03  0.41800000000E+01 0. -1.
        -11    1    1    2    0    0  0.99663082383E+02  0.66117853556E+02 -0.34741563297E+03  0.36742607771E+03  0.00000000000E+00 0.  1.
         11    1    1    2    0    0 -0.18450323345E+02  0.12208453608E+02 -0.12377754236E+03  0.12573917753E+03  0.00000000000E+00 0. -1.
</event>
<event>
 7    1  0.2788485E-009  0.1238966E+03  0.7561462E-02  0.1236804E+00
          1   -1    0    0  501    0  0.00000000000E+00  0.00000000000E+00  0.19617584812E+03  0.19617584812E+03  0.00000000000E+00 0. -1.
         -1   -1    0    0    0  501 -0.00000000000E+00 -0.00000000000E+00 -0.10078429724E+03  0.10078429724E+03  0.00000000000E+00 0.  1.
         25    2    1    2    0    0  0.54604466485E+02  0.68216981770E+02  0.35605852072E+02  0.15668502003E+03  0.12508882619E+03 0.  0.
          5    1    3    3  502    0 -0.45720604353E+01 -0.19790877435E+02 -0.26549755001E+02  0.33688936713E+02  0.41800000000E+01 0.  1.
         -5    1    3    3    0  502  0.59176526920E+02  0.88007859206E+02  0.62155607072E+02  0.12299608332E+03  0.41800000000E+01 0.  1.
        -11    1    1    2    0    0 -0.42417501802E+02 -0.87997107402E+02  0.63831053651E+02  0.11669249668E+03  0.00000000000E+00 0. -1.
         11    1    1    2    0    0 -0.12186964683E+02  0.19780125632E+02 -0.40453548399E+01  0.23582628649E+02  0.00000000000E+00 0.  1.
</event>
<event>
 7    1  0.2788485E-009  0.1162796E+03  0.7561462E-02  0.1249364E+00
         -2   -1    0    0    0  501 -0.00000000000E+00  0.00000000000E+00  0.11614391539E+03  0.11614391539E+03  0.00000000000E+00 0. -1.
          2   -1    0    0  501    0  0.00000000000E+00 -0.00000000000E+00 -0.12317504558E+03  0.12317504558E+03  0.00000000000E+00 0.  1.
         25    2    1    2    0    0 -0.48721321087E+02  0.30439684509E+01  0.15754425471E+02  0.13519657358E+03  0.12508748424E+03 0.  0.
          5    1    3    3  502    0 -0.69768621280E+02  0.45632268983E+02  0.23881285097E+02  0.86820231892E+02  0.41800000000E+01 0. -1.
         -5    1    3    3    0  502  0.21047300193E+02 -0.42588300532E+02 -0.81268596267E+01  0.48376341687E+02  0.41800000000E+01 0. -1.
        -11    1    1    2    0    0  0.53279583565E+02  0.34568576010E+02 -0.11104873553E+02  0.64474946211E+02  0.00000000000E+00 0. -1.
         11    1    1    2    0    0 -0.45582624783E+01 -0.37612544461E+02 -0.11680682100E+02  0.39647441178E+02  0.00000000000E+00 0.  1.
</event>
<event>
 7    1  0.2788485E-009  0.8397054E+02  0.7561462E-02  0.1318147E+00
         -2   -1    0    0    0  501 -0.00000000000E+00  0.00000000000E+00  0.26299269853E+02  0.26299269853E+02  0.00000000000E+00 0.  1.
          2   -1    0    0  501    0  0.00000000000E+00 -0.00000000000E+00 -0.71336745002E+03  0.71336745002E+03  0.00000000000E+00 0. -1.
         25    2    1    2    0    0  0.50143195560E+02  0.13107358410E+02 -0.55227695088E+03  0.56863370834E+03  0.12509324873E+03 0.  0.
          5    1    3    3  502    0  0.37557306026E+02 -0.34536077927E+02 -0.46895032319E+03  0.47173633519E+03  0.41800000000E+01 0.  1.
         -5    1    3    3    0  502  0.12585889534E+02  0.47643436336E+02 -0.83326627686E+02  0.96897373147E+02  0.41800000000E+01 0.  1.
        -11    1    1    2    0    0 -0.29057920678E+02  0.14564174697E+02 -0.70924846578E+00  0.32511243780E+02  0.00000000000E+00 0.  1.
         11    1    1    2    0    0 -0.21085274882E+02 -0.27671533106E+02 -0.13408198082E+03  0.13852176776E+03  0.00000000000E+00 0. -1.
</event>
<event>
 7    1  0.2788485E-009  0.5000907E+03  0.7561462E-02  0.1013755E+00
          2   -1    0    0  501    0  0.00000000000E+00  0.00000000000E+00  0.20350094024E+04  0.20350094024E+04  0.00000000000E+00 0. -1.
         -2   -1    0    0    0  501 -0.00000000000E+00 -0.00000000000E+00 -0.12829617641E+03  0.12829617641E+03  0.00000000000E+00 0.  1.
         25    2    1    2    0    0  0.48491782709E+03 -0.11752315804E+03  0.10227974092E+04  0.11448657204E+04  0.12508391554E+03 0.  0.
          5    1    3    3  502    0  0.98394148017E+02 -0.19459474318E+02  0.11093527782E+03  0.14961346119E+03  0.41800000000E+01 0.  1.
         -5    1    3    3    0  502  0.38652367907E+03 -0.98063683725E+02  0.91186213134E+03  0.99525225924E+03  0.41800000000E+01 0.  1.
        -11    1    1    2    0    0 -0.97371249871E+02  0.52123762421E+01  0.23337553149E+03  0.25292779180E+03  0.00000000000E+00 0. -1.
         11    1    1    2    0    0 -0.38754657722E+03  0.11231078180E+03  0.65054028537E+03  0.76551206660E+03  0.00000000000E+00 0.  1.
</event>
<event>
 7    1  0.2788485E-009  0.2110232E+03  0.7561462E-02  0.1140758E+00
         -1   -1    0    0    0  501 -0.00000000000E+00  0.00000000000E+00  0.35156299376E+03  0.35156299376E+03  0.00000000000E+00 0.  1.
          1   -1    0    0  501    0  0.00000000000E+00 -0.00000000000E+00 -0.15893742522E+03  0.15893742522E+03  0.00000000000E+00 0. -1.
         25    2    1    2    0    0  0.17752842289E+03 -0.91134730896E+02  0.16982851606E+03  0.29036005100E+03  0.12508139046E+03 0.  0.
          5    1    3    3  502    0  0.34777973293E+02 -0.42823547915E+02 -0.94399995779E+01  0.56124412464E+02  0.41800000000E+01 0.  1.
         -5    1    3    3    0  502  0.14275044960E+03 -0.48311182981E+02  0.17926851564E+03  0.23423563854E+03  0.41800000000E+01 0.  1.
        -11    1    1    2    0    0 -0.68780014029E+02  0.81708682200E+02  0.29426124683E+02  0.11078310291E+03  0.00000000000E+00 0.  1.
         11    1    1    2    0    0 -0.10874840886E+03  0.94260486957E+01 -0.66290722033E+01  0.10935726507E+03  0.00000000000E+00 0. -1.
</event>
<event>
 7    1  0.2788485E-009  0.1180089E+03  0.7561462E-02  0.1246418E+00
         -1   -1    0    0    0  501 -0.00000000000E+00  0.00000000000E+00  0.45984690521E+02  0.45984690521E+02  0.00000000000E+00 0.  1.
          1   -1    0    0  501    0  0.00000000000E+00 -0.00000000000E+00 -0.36838087481E+03  0.36838087481E+03  0.00000000000E+00 0. -1.
         25    2    1    2    0    0 -0.53903983999E+02  0.36816201074E+01 -0.25703549149E+03  0.29091982550E+03  0.12509159512E+03 0.  0.
          5    1    3    3  502    0 -0.90045179106E+02 -0.15271155747E+02 -0.14298569382E+03  0.16971659765E+03  0.41800000000E+01 0.  1.
         -5    1    3    3    0  502  0.36141195106E+02  0.18952775854E+02 -0.11404979766E+03  0.12120322786E+03  0.41800000000E+01 0.  1.
        -11    1    1    2    0    0  0.74704154036E+02 -0.19765995346E+02 -0.40432059001E+02  0.87213282230E+02  0.00000000000E+00 0.  1.
         11    1    1    2    0    0 -0.20800170037E+02  0.16084375239E+02 -0.24928633802E+02  0.36232457598E+02  0.00000000000E+00 0. -1.
</event>
<event>
 7    1  0.2788485E-009  0.9050523E+02  0.7561462E-02  0.1301633E+00
          1   -1    0    0  501    0  0.00000000000E+00  0.00000000000E+00  0.23753089514E+03  0.23753089514E+03  0.00000000000E+00 0. -1.
         -1   -1    0    0    0  501 -0.00000000000E+00 -0.00000000000E+00 -0.84554326906E+02  0.84554326906E+02  0.00000000000E+00 0.  1.
         25    2    1    2    0    0  0.25286331914E+02  0.19129919879E+02 -0.11211359667E+02  0.12953365042E+03  0.12509164476E+03 0.  0.
          5    1    3    3  502    0 -0.40709288825E+02  0.99069389216E+01 -0.38831967696E+02  0.57278161201E+02  0.41800000000E+01 0. -1.
         -5    1    3    3    0  502  0.65995620739E+02  0.92229809570E+01  0.27620608029E+02  0.72255489220E+02  0.41800000000E+01 0. -1.
        -11    1    1    2    0    0  0.19521119865E+02  0.64290338896E+01  0.10683194571E+00  0.20552810285E+02  0.00000000000E+00 0.  1.
         11    1    1    2    0    0 -0.44807451779E+02 -0.25558953768E+02  0.16408109595E+03  0.17199876134E+03  0.00000000000E+00 0. -1.
</event>
<event>
 7    1  0.2788485E-009  0.1183833E+03  0.7561462E-02  0.1245788E+00
         -2   -1    0    0    0  501 -0.00000000000E+00  0.00000000000E+00  0.47470621583E+02  0.47470621583E+02  0.00000000000E+00 0.  1.
          2   -1    0    0  501    0  0.00000000000E+00 -0.00000000000E+00 -0.36990864552E+03  0.36990864552E+03  0.00000000000E+00 0. -1.
         25    2    1    2    0    0  0.42409563644E+02 -0.62614686448E+02 -0.18264233614E+03  0.23393434604E+03  0.12509150755E+03 0.  0.
          5    1    3    3  502    0  0.50442415692E+02  0.17102445179E+02 -0.29453047672E+02  0.61007256528E+02  0.41800000000E+01 0. -1.
         -5    1    3    3    0  502 -0.80328520483E+01 -0.79717131627E+02 -0.15318928847E+03  0.17292708951E+03  0.41800000000E+01 0. -1.
        -11    1    1    2    0    0  0.13398677629E+02  0.41217597462E+02 -0.10660437931E+03  0.11507783710E+03  0.00000000000E+00 0. -1.
         11    1    1    2    0    0 -0.55808241273E+02  0.21397088987E+02 -0.33191308493E+02  0.68367083970E+02  0.00000000000E+00 0.  1.
</event>
<event>
 7    1  0.2788485E-009  0.1151969E+03  0.7561462E-02  0.1251238E+00
          2   -1    0    0  501    0  0.00000000000E+00  0.00000000000E+00  0.33713410212E+03  0.33713410212E+03  0.00000000000E+00 0. -1.
         -2   -1    0    0    0  501 -0.00000000000E+00 -0.00000000000E+00 -0.54011439511E+02  0.54011439511E+02  0.00000000000E+00 0.  1.
         25    2    1    2    0    0 -0.41095028075E+02 -0.56496111198E+02  0.21603568128E+03  0.25922252884E+03  0.12507714403E+03 0.  0.
          5    1    3    3  502    0  0.25081240460E+01 -0.76627691844E+02  0.64743369759E+02  0.10043540298E+03  0.41800000000E+01 0. -1.
         -5    1    3    3    0  502 -0.43603152121E+02  0.20131580646E+02  0.15129231152E+03  0.15878712586E+03  0.41800000000E+01 0. -1.
        -11    1    1    2    0    0  0.51002097293E+02  0.31001090178E+01  0.80839880102E+01  0.51731764578E+02  0.00000000000E+00 0.  1.
         11    1    1    2    0    0 -0.99070692180E+01  0.53396002180E+02  0.59002993314E+02  0.80191248209E+02  0.00000000000E+00 0. -1.
</event>
<event>
 7    1  0.2788485E-009  0.8570702E+02  0.7561462E-02  0.1313594E+00
         -1   -1    0    0    0  501 -0.00000000000E+00  0.00000000000E+00  0.26068022157E+02  0.26068022157E+02  0.00000000000E+00 0.  1.
          1   -1    0    0  501    0  0.00000000000E+00 -0.00000000000E+00 -0.51650150184E+03  0.51650150184E+03  0.00000000000E+00 0. -1.
         25    2    1    2    0    0  0.13363500450E+02  0.31940352620E+02 -0.22892789460E+03  0.26316304982E+03  0.12509212844E+03 0.  0.
          5    1    3    3  502    0 -0.17698362835E+02 -0.11983089074E+02  0.56171689728E+01  0.22491141769E+02  0.41800000000E+01 0. -1.
         -5    1    3    3    0  502  0.31061863285E+02  0.43923441694E+02 -0.23454506357E+03  0.24067190805E+03  0.41800000000E+01 0. -1.
        -11    1    1    2    0    0 -0.12170354638E+01 -0.62644932701E+02 -0.20017480138E+03  0.20975180542E+03  0.00000000000E+00 0. -1.
         11    1    1    2    0    0 -0.12146464986E+02  0.30704580081E+02 -0.61330783710E+02  0.69654668761E+02  0.00000000000E+00 0.  1.
</event>
<event>
 7    1  0.2788485E-009  0.1511337E+03  0.7561462E-02  0.1199087E+00
         -2   -1    0    0    0  501 -0.00000000000E+00  0.00000000000E+00  0.10090929485E+03  0.10090929485E+03  0.00000000000E+00 0.  1.
          2   -1    0    0  501    0  0.00000000000E+00 -0.00000000000E+00 -0.34812978693E+03  0.34812978693E+03  0.00000000000E+00 0. -1.
         25    2    1    2    0    0 -0.12717908719E+03  0.21212979819E+02 -0.22754019658E+03  0.28990607447E+03  0.12508589139E+03 0.  0.
          5    1    3    3  502    0 -0.70421544801E+02 -0.37128695788E+02 -0.48823506103E+02  0.93482304054E+02  0.41800000000E+01 0. -1.
         -5    1    3    3    0  502 -0.56757542387E+02  0.58341675607E+02 -0.17871669048E+03  0.19642377042E+03  0.41800000000E+01 0. -1.
        -11    1    1    2    0    0  0.35534512280E+02  0.19759457651E+02 -0.39636609749E+02  0.56782026752E+02  0.00000000000E+00 0.  1.
         11    1    1    2    0    0  0.91644574907E+02 -0.40972437471E+02  0.19956314250E+02  0.10235098056E+03  0.00000000000E+00 0. -1.
</event>
<event>
 7    1  0.2788485E-009  0.1379965E+03  0.7561462E-02  0.1216051E+00
         -2   -1    0    0    0  501 -0.00000000000E+00  0.00000000000E+00  0.61379329367E+02  0.61379329367E+02  0.00000000000E+00 0. -1.
          2   -1    0    0  501    0  0.00000000000E+00 -0.00000000000E+00 -0.37612510686E+03  0.37612510686E+03  0.00000000000E+00 0.  1.
         25    2    1    2    0    0 -0.20191262815E+02  0.92086954310E+02 -0.24096175319E+03  0.28739962573E+03  0.12509310182E+03 0.  0.
          5    1    3    3  502    0 -0.58741091362E+02  0.17826512825E+02 -0.15773750389E+03  0.16931300277E+03  0.41800000000E+01 0.  1.
         -5    1    3    3    0  502  0.38549828547E+02  0.74260441485E+02 -0.83224249295E+02  0.11808662296E+03  0.41800000000E+01 0.  1.
        -11    1    1    2    0    0  0.53273869659E+02 -0.78623775979E+02 -0.55017394090E+02  0.10975753728E+03  0.00000000000E+00 0.  1.
         11    1    1    2    0    0 -0.33082606844E+02 -0.13463178331E+02 -0.18766630217E+02  0.40347273218E+02  0.00000000000E+00 0. -1.
</event>
<event>
 7    1  0.2788485E-009  0.8917915E+02  0.7561462E-02  0.1304852E+00
          1   -1    0    0  501    0  0.00000000000E+00  0.00000000000E+00  0.97560131688E+02  0.97560131688E+02  0.00000000000E+00 0. -1.
         -1   -1    0    0    0  501 -0.00000000000E+00 -0.00000000000E+00 -0.13007819361E+03  0.13007819361E+03  0.00000000000E+00 0.  1.
         25    2    1    2    0    0 -0.16392912448E+02 -0.32776863311E+01 -0.42642623323E+02  0.13321592504E+03  0.12509443854E+03 0.  0.
          5    1    3    3  502    0 -0.18390622153E+02 -0.45771962613E+02 -0.67545762707E+02  0.83744790908E+02  0.41800000000E+01 0.  1.
         -5    1    3    3    0  502  0.19977097046E+01  0.42494276282E+02  0.24903139384E+02  0.49471134128E+02  0.41800000000E+01 0.  1.
        -11    1    1    2    0    0 -0.21963276535E+02 -0.28720740642E+02  0.22983544739E+02  0.42842849905E+02  0.00000000000E+00 0. -1.
         11    1    1    2    0    0  0.38356188984E+02  0.31998426973E+02 -0.12858983334E+02  0.51579550352E+02  0.00000000000E+00 0.  1.
</event>
<event>
 7    1  0.2788485E-009  0.1157434E+03  0.7561462E-02  0.1250289E+00
          1   -1    0    0  501    0  0.00000000000E+00  0.00000000000E+00  0.80142187606E+03  0.80142187606E+03  0.00000000000E+00 0. -1.
         -1   -1    0    0    0  501 -0.00000000000E+00 -0.00000000000E+00 -0.23249263805E+02  0.23249263805E+02  0.00000000000E+00 0.  1.
         25    2    1    2    0    0 -0.61904355896E+02 -0.48022614111E+02  0.47090643594E+03  0.49349563334E+03  0.12508696164E+03 0.  0.
          5    1    3    3  502    0  0.17661078044E+02 -0.43010856099E+02  0.66287160860E+02  0.81075936719E+02  0.41800000000E+01 0.  1.
         -5    1    3    3    0  502 -0.79565433940E+02 -0.50117580122E+01  0.40461927508E+03  0.41241969662E+03  0.41800000000E+01 0.  1.
        -11    1    1    2    0    0  0.23761873856E+02  0.60371292803E+02  0.26537560129E+03  0.27319137872E+03  0.00000000000E+00 0. -1.
         11    1    1    2    0    0  0.38142482040E+02 -0.12348678692E+02  0.41890575020E+02  0.57984127803E+02  0.00000000000E+00 0.  1.
</event>
<event>
 7    1  0.2788485E-009  0.1011564E+03  0.7561462E-02  0.1277883E+00
         -2   -1    0    0    0  501 -0.00000000000E+00  0.00000000000E+00  0.35215198265E+02  0.35215198265E+02  0.00000000000E+00 0.  1.
          2   -1    0    0  501    0  0.00000000000E+00 -0.00000000000E+00 -0.44942062634E+03  0.44942062634E+03  0.00000000000E+00 0. -1.
         25    2    1    2    0    0 -0.35266211236E+02  0.17560898387E+02 -0.12382669937E+03  0.18036954416E+03  0.12509208679E+03 0.  0.
          5    1    3    3  502    0  0.10415793907E+02 -0.43291556890E+02 -0.82092175497E+02  0.93483930910E+02  0.41800000000E+01 0. -1.
         -5    1    3    3    0  502 -0.45682005144E+02  0.60852455277E+02 -0.41734523873E+02  0.86885613252E+02  0.41800000000E+01 0. -1.
        -11    1    1    2    0    0 -0.20271401654E+02  0.58730348018E+01 -0.28061623071E+02  0.35112347574E+02  0.00000000000E+00 0.  1.
         11    1    1    2    0    0  0.55537612890E+02 -0.23433933189E+02 -0.26231710563E+03  0.26915393287E+03  0.00000000000E+00 0. -1.
</event>
<event>
 7    1  0.2788485E-009  0.6916495E+02  0.7561462E-02  0.1362956E+00
          1   -1    0    0  501    0  0.00000000000E+00  0.00000000000E+00  0.13412526103E+03  0.13412526103E+03  0.00000000000E+00 0. -1.
         -1   -1    0    0    0  501 -0.00000000000E+00 -0.00000000000E+00 -0.12067273385E+03  0.12067273385E+03  0.00000000000E+00 0.  1.
         25    2    1    2    0    0  0.26867045983E+02  0.10800474614E+01 -0.53833395669E+02  0.13880803229E+03  0.12508649278E+03 0.  0.
          5    1    3    3  502    0 -0.28129991078E+02 -0.20486963580E+02  0.22908300797E+02  0.41872123426E+02  0.41800000000E+01 0.  1.
         -5    1    3    3    0  502  0.54997037061E+02  0.21567011042E+02 -0.76741696466E+02  0.96935908863E+02  0.41800000000E+01 0.  1.
        -11    1    1    2    0    0 -0.10357775379E+02 -0.17778738125E+02 -0.18118488642E+02  0.27416175349E+02  0.00000000000E+00 0.  1.
         11    1    1    2    0    0 -0.16509270604E+02  0.16698690664E+02  0.85404411482E+02  0.88573787241E+02  0.00000000000E+00 0. -1.
</event>
<event>
 7    1  0.2788485E-009  0.3047971E+03  0.7561462E-02  0.1082867E+00
         -3   -1    0    0    0  501 -0.00000000000E+00  0.00000000000E+00  0.53967891249E+02  0.53967891249E+02  0.00000000000E+00 0.  1.
          3   -1    0    0  501    0  0.00000000000E+00 -0.00000000000E+00 -0.17738581529E+04  0.17738581529E+04  0.00000000000E+00 0. -1.
         25    2    1    2    0    0  0.23168542975E+03  0.17125549974E+03 -0.94081441483E+03  0.99185987722E+03  0.12509064049E+03 0.  0.
          5    1    3    3  502    0  0.24349634549E+03  0.15076448907E+03 -0.90027761773E+03  0.94474211445E+03  0.41800000000E+01 0.  1.
         -5    1    3    3    0  502 -0.11810915744E+02  0.20491010679E+02 -0.40536797103E+02  0.47117762773E+02  0.41800000000E+01 0.  1.
        -11    1    1    2    0    0 -0.22900971548E+03 -0.14132975769E+03 -0.73416393034E+03  0.78193108827E+03  0.00000000000E+00 0. -1.
         11    1    1    2    0    0 -0.26757142655E+01 -0.29925742053E+02 -0.44911916535E+02  0.54035078709E+02  0.00000000000E+00 0.  1.
</event>
<event>
 7    1  0.2788485E-009  0.1304934E+03  0.7561462E-02  0.1226725E+00
          2   -1    0    0  501    0  0.00000000000E+00  0.00000000000E+00  0.47362622510E+03  0.47362622510E+03  0.00000000000E+00 0. -1.
         -2   -1    0    0    0  501 -0.00000000000E+00 -0.00000000000E+00 -0.62875972299E+02  0.62875972299E+02  0.00000000000E+00 0.  1.
         25    2    1    2    0    0 -0.13884971337E+02 -0.10188305221E+03  0.34853342863E+03  0.38431476121E+03  0.12509730634E+03 0.  0.
          5    1    3    3  502    0 -0.44066879360E+02 -0.11500202387E+03  0.30925438952E+03  0.33290104414E+03  0.41800000000E+01 0. -1.
         -5    1    3    3    0  502  0.30181908023E+02  0.13118971664E+02  0.39279039113E+02  0.51413717071E+02  0.41800000000E+01 0. -1.
        -11    1    1    2    0    0  0.15168190523E+02  0.41433046555E+02 -0.21369557496E+02  0.49024782897E+02  0.00000000000E+00 0.  1.
         11    1    1    2    0    0 -0.12832191860E+01  0.60450005651E+02  0.83586381667E+02  0.10316265330E+03  0.00000000000E+00 0. -1.
</event>
<event>
 7    1  0.2788485E-009  0.9468361E+02  0.7561462E-02  0.1291890E+00
          1   -1    0    0  501    0  0.00000000000E+00  0.00000000000E+00  0.65832789819E+03  0.65832789819E+03  0.00000000000E+00 0. -1.
         -1   -1    0    0    0  501 -0.00000000000E+00 -0.00000000000E+00 -0.25244140638E+02  0.25244140638E+02  0.00000000000E+00 0.  1.
         25    2    1    2    0    0  0.22689278341E+01  0.46853161988E+02  0.48426529440E+03  0.50235501949E+03  0.12508926181E+03 0.  0.
          5    1    3    3  502    0  0.20120093472E+02 -0.30872237220E+02  0.59229884230E+02  0.69882506954E+02  0.41800000000E+01 0. -1.
         -5    1    3    3    0  502 -0.17851165638E+02  0.77725399208E+02  0.42503541017E+03  0.43247251253E+03  0.41800000000E+01 0. -1.
        -11    1    1    2    0    0 -0.28089299481E+02 -0.32215837896E+02  0.16835752896E+02  0.45938127217E+02  0.00000000000E+00 0.  1.
         11    1    1    2    0    0  0.25820371646E+02 -0.14637324093E+02  0.13198271026E+03  0.13527889213E+03  0.00000000000E+00 0. -1.
</event>
<event>
 7    1  0.2788485E-009  0.1573828E+03  0.7561462E-02  0.1191684E+00
          1   -1    0    0  501    0  0.00000000000E+00  0.00000000000E+00  0.21686111953E+03  0.21686111953E+03  0.00000000000E+00 0. -1.
         -1   -1    0    0    0  501 -0.00000000000E+00 -0.00000000000E+00 -0.14260204773E+03  0.14260204773E+03  0.00000000000E+00 0.  1.
         25    2    1    2    0    0  0.10395546761E+03  0.86418532338E+02  0.43146006841E+02  0.18916990198E+03  0.12509505158E+03 0.  0.
          5    1    3    3  502    0  0.37752896159E+02  0.69150146042E+02 -0.34053739400E+02  0.85931097009E+02  0.41800000000E+01 0. -1.
         -5    1    3    3    0  502  0.66202571451E+02  0.17268386296E+02  0.77199746241E+02  0.10323880497E+03  0.41800000000E+01 0. -1.
        -11    1    1    2    0    0  0.15890601281E+02 -0.31946376138E+02  0.42095787388E+01  0.35927742910E+02  0.00000000000E+00 0.  1.
         11    1    1    2    0    0 -0.11984606889E+03 -0.54472156200E+02  0.26903486221E+02  0.13436552237E+03  0.00000000000E+00 0. -1.
</event>
<event>
 7    1  0.2788485E-009  0.1134630E+03  0.7561462E-02  0.1254288E+00
         -2   -1    0    0    0  501 -0.00000000000E+00  0.00000000000E+00  0.30228450673E+02  0.30228450673E+02  0.00000000000E+00 0. -1.
          2   -1    0    0  501    0  0.00000000000E+00 -0.00000000000E+00 -0.55485832177E+03  0.55485832177E+03  0.00000000000E+00 0.  1.
         25    2    1    2    0    0  0.47869565794E+02 -0.44119696221E+02 -0.22062475692E+03  0.26183979454E+03  0.12508697659E+03 0.  0.
          5    1    3    3  502    0  0.16990658041E+02 -0.72708349628E+02 -0.20243252012E+03  0.21580450451E+03  0.41800000000E+01 0.  1.
         -5    1    3    3    0  502  0.30878907753E+02  0.28588653407E+02 -0.18192236799E+02  0.46035290022E+02  0.41800000000E+01 0.  1.
        -11    1    1    2    0    0  0.14919963789E+02  0.44634500686E+02 -0.12837133993E+03  0.13672616753E+03  0.00000000000E+00 0.  1.
         11    1    1    2    0    0 -0.62789529584E+02 -0.51480446468E+00 -0.17563377424E+03  0.18652081038E+03  0.00000000000E+00 0. -1.
</event>
<event>
 7    1  0.2788485E-009  0.1114145E+03  0.7561462E-02  0.1257973E+00
          2   -1    0    0  501    0  0.00000000000E+00  0.00000000000E+00  0.48514036641E+03  0.48514036641E+03  0.00000000000E+00 0. -1.
         -2   -1    0    0    0  501 -0.00000000000E+00 -0.00000000000E+00 -0.33314197875E+02  0.33314197875E+02  0.00000000000E+00 0.  1.
         25    2    1    2    0    0  0.38738392322E+02 -0.35961646197E+02  0.16964810730E+03  0.21731007960E+03  0.12509711166E+03 0.  0.
          5    1    3    3  502    0 -0.33508625070E+02  0.23824410600E+02  0.42671680321E+02  0.59403494813E+02  0.41800000000E+01 0.  1.
         -5    1    3    3    0  502  0.72247017392E+02 -0.59786056798E+02  0.12697642698E+03  0.15790658479E+03  0.41800000000E+01 0.  1.
        -11    1    1    2    0    0 -0.23690557390E+00  0.47452443151E+02  0.23229344620E+03  0.23709077509E+03  0.00000000000E+00 0. -1.
         11    1    1    2    0    0 -0.38501486748E+02 -0.11490796954E+02  0.49884615040E+02  0.64053709605E+02  0.00000000000E+00 0.  1.
</event>
<event>
 7    1  0.2788485E-009  0.1640719E+03  0.7561462E-02  0.1184175E+00
          2   -1    0    0  501    0  0.00000000000E+00  0.00000000000E+00  0.10155209563E+03  0.10155209563E+03  0.00000000000E+00 0. -1.
         -2   -1    0    0    0  501 -0.00000000000E+00 -0.00000000000E+00 -0.33464990843E+03  0.33464990843E+03  0.00000000000E+00 0.  1.
         25    2    1    2    0    0  0.24487851804E+02 -0.14121906989E+03 -0.77370615311E+02  0.20536831291E+03  0.12508977274E+03 0.  0.
          5    1    3    3  502    0  0.45590874004E+02 -0.14210582731E+02  0.10961879810E+02  0.49174217462E+02  0.41800000000E+01 0. -1.
         -5    1    3    3    0  502 -0.21103022200E+02 -0.12700848716E+03 -0.88332495121E+02  0.15619409544E+03  0.41800000000E+01 0. -1.
        -11    1    1    2    0    0  0.14804212427E+02  0.30452900019E+02 -0.90034897312E+02  0.96191613767E+02  0.00000000000E+00 0.  1.
         11    1    1    2    0    0 -0.39292064231E+02  0.11076616988E+03 -0.65692300183E+02  0.13464207739E+03  0.00000000000E+00 0. -1.
</event>
<event>
 7    1  0.2788485E-009  0.1340266E+03  0.7561462E-02  0.1221600E+00
          4   -1    0    0  501    0  0.00000000000E+00  0.00000000000E+00  0.45549989233E+03  0.45549989233E+03  0.00000000000E+00 0. -1.
         -4   -1    0    0    0  501 -0.00000000000E+00 -0.00000000000E+00 -0.54620927838E+02  0.54620927838E+02  0.00000000000E+00 0.  1.
         25    2    1    2    0    0 -0.11564252302E+02 -0.11014704025E+03  0.27218210779E+03  0.31936969142E+03  0.12509115712E+03 0.  0.
          5    1    3    3  502    0 -0.57983317473E+02 -0.43043826710E+02  0.19080438408E+03  0.20405543734E+03  0.41800000000E+01 0.  1.
         -5    1    3    3    0  502  0.46419065171E+02 -0.67103213537E+02  0.81377723706E+02  0.11531425408E+03  0.41800000000E+01 0.  1.
        -11    1    1    2    0    0 -0.77259505298E+01  0.14350427282E+02 -0.11436794784E+02  0.19910433187E+02  0.00000000000E+00 0.  1.
         11    1    1    2    0    0  0.19290202832E+02  0.95796612965E+02  0.14013365149E+03  0.17084069556E+03  0.00000000000E+00 0. -1.
</event>
<event>
 7    1  0.3015036E-009  0.9567158E+02  0.7561462E-02  0.1289671E+00
          4   -1    0    0  501    0  0.00000000000E+00  0.00000000000E+00  0.58435179373E+02  0.58435179373E+02  0.00000000000E+00 0. -1.
         -4   -1    0    0    0  501 -0.00000000000E+00 -0.00000000000E+00 -0.26998299698E+03  0.26998299698E+03  0.00000000000E+00 0.  1.
         25    2    1    2    0    0  0.11363648320E+02  0.80965636808E+00 -0.37716050438E+02  0.13114708812E+03  0.12508904914E+03 0.  0.
          5    1    3    3  502    0 -0.43566636943E+02  0.29010141626E+02  0.94286096315E+01  0.53348020125E+02  0.41800000000E+01 0. -1.
         -5    1    3    3    0  502  0.54930285264E+02 -0.28200485258E+02 -0.47144660070E+02  0.77799067996E+02  0.41800000000E+01 0. -1.
        -11    1    1    2    0    0  0.32502987463E+02  0.42915618506E+01 -0.13348876890E+03  0.13745585880E+03  0.00000000000E+00 0.  1.
         11    1    1    2    0    0 -0.43866635783E+02 -0.51012182187E+01 -0.40342998271E+02  0.59815229430E+02  0.00000000000E+00 0. -1.
</event>
<event>
 7    1  0.2788485E-009  0.9415894E+02  0.7561462E-02  0.1293082E+00
         -2   -1    0    0    0  501 -0.00000000000E+00  0.00000000000E+00  0.35050702432E+02  0.35050702432E+02  0.00000000000E+00 0. -1.
          2   -1    0    0  501    0  0.00000000000E+00 -0.00000000000E+00 -0.38088557146E+03  0.38088557146E+03  0.00000000000E+00 0.  1.
         25    2    1    2    0    0  0.99655232649E+01 -0.48252016905E+01 -0.12746158769E+03  0.17893578514E+03  0.12509582184E+03 0.  0.
          5    1    3    3  502    0  0.16051590498E+02  0.53640919547E+02 -0.98252384331E+02  0.11316362151E+03  0.41800000000E+01 0. -1.
         -5    1    3    3    0  502 -0.60860672333E+01 -0.58466121237E+02 -0.29209203358E+02  0.65772163624E+02  0.41800000000E+01 0. -1.
        -11    1    1    2    0    0 -0.41311810259E+02 -0.11592975781E+01 -0.18953437385E+03  0.19398785660E+03  0.00000000000E+00 0.  1.
         11    1    1    2    0    0  0.31346286994E+02  0.59844992686E+01 -0.28838907490E+02  0.43012632156E+02  0.00000000000E+00 0. -1.
</event>
<event>
 7    1  0.2788485E-009  0.1174217E+03  0.7561462E-02  0.1247412E+00
         -1   -1    0    0    0  501 -0.00000000000E+00  0.00000000000E+00  0.19828142696E+03  0.19828142696E+03  0.00000000000E+00 0.  1.
          1   -1    0    0  501    0  0.00000000000E+00 -0.00000000000E+00 -0.79694209328E+02  0.79694209328E+02  0.00000000000E+00 0. -1.
         25    2    1    2    0    0 -0.24353300463E+02  0.57783451569E+02  0.83040905173E+02  0.16271283082E+03  0.12509061861E+03 0.  0.
          5    1    3    3  502    0  0.25728544723E+00  0.93700197276E+02  0.42125804255E+02  0.10281949693E+03  0.41800000000E+01 0.  1.
         -5    1    3    3    0  502 -0.24610585910E+02 -0.35916745708E+02  0.40915100918E+02  0.59893333888E+02  0.41800000000E+01 0.  1.
        -11    1    1    2    0    0  0.17648411527E+02  0.15639776108E+02  0.34175307200E+02  0.41521327633E+02  0.00000000000E+00 0.  1.
         11    1    1    2    0    0  0.67048889359E+01 -0.73423227677E+02  0.13710052609E+01  0.73741477837E+02  0.00000000000E+00 0. -1.
</event>
<event>
 7    1  0.2788485E-009  0.1091566E+03  0.7561462E-02  0.1262140E+00
          1   -1    0    0  501    0  0.00000000000E+00  0.00000000000E+00  0.39341473098E+03  0.39341473098E+03  0.00000000000E+00 0.  1.
         -1   -1    0    0    0  501 -0.00000000000E+00 -0.00000000000E+00 -0.35565160890E+02  0.35565160890E+02  0.00000000000E+00 0. -1.
         25    2    1    2    0    0 -0.39495613544E+02 -0.30945316582E+02  0.23011147204E+03  0.26667674479E+03  0.12509068927E+03 0.  0.
          5    1    3    3  502    0 -0.72087724550E+02 -0.53189774942E+02  0.19076882139E+03  0.21079850048E+03  0.41800000000E+01 0. -1.
         -5    1    3    3    0  502  0.32592111006E+02  0.22244458360E+02  0.39342650648E+02  0.55878244313E+02  0.41800000000E+01 0. -1.
        -11    1    1    2    0    0  0.12608419568E+02 -0.24373564455E+02  0.95278218413E+01  0.29048619198E+02  0.00000000000E+00 0.  1.
         11    1    1    2    0    0  0.26887193976E+02  0.55318881038E+02  0.11821027621E+03  0.13325452788E+03  0.00000000000E+00 0. -1.
</event>
<event>
 7    1  0.2788485E-009  0.1212964E+03  0.7561462E-02  0.1240974E+00
          2   -1    0    0  501    0  0.00000000000E+00  0.00000000000E+00  0.82741069231E+03  0.82741069231E+03  0.00000000000E+00 0. -1.
         -2   -1    0    0    0  501 -0.00000000000E+00 -0.00000000000E+00 -0.21103589949E+02  0.21103589949E+02  0.00000000000E+00 0.  1.
         25    2    1    2    0    0 -0.35963851926E+02 -0.55713759602E+02  0.56249676816E+03  0.58004061837E+03  0.12508830125E+03 0.  0.
          5    1    3    3  502    0 -0.47291327831E+02  0.27769837963E+02  0.17375092202E+03  0.18224842630E+03  0.41800000000E+01 0.  1.
         -5    1    3    3    0  502  0.11327475905E+02 -0.83483597565E+02  0.38874584615E+03  0.39779219207E+03  0.41800000000E+01 0.  1.
        -11    1    1    2    0    0 -0.21568513225E+02  0.36842045125E+02  0.51702382262E+02  0.67049782872E+02  0.00000000000E+00 0.  1.
         11    1    1    2    0    0  0.57532365151E+02  0.18871714477E+02  0.19210795194E+03  0.20142388102E+03  0.00000000000E+00 0. -1.
</event>
<event>
 7    1  0.2788485E-009  0.1056164E+03  0.7561462E-02  0.1268910E+00
          2   -1    0    0  501    0  0.00000000000E+00  0.00000000000E+00  0.11683239308E+03  0.11683239308E+03  0.00000000000E+00 0. -1.
         -2   -1    0    0    0  501 -0.00000000000E+00 -0.00000000000E+00 -0.18730341486E+03  0.18730341486E+03  0.00000000000E+00 0.  1.
         25    2    1    2    0    0 -0.47880220707E+02 -0.84115798977E+02 -0.36275908391E+01  0.15820414392E+03  0.12508960215E+03 0.  0.
          5    1    3    3  502    0  0.80182262358E+01  0.40591704119E+01  0.42754072762E+02  0.43887947709E+02  0.41800000000E+01 0.  1.
         -5    1    3    3    0  502 -0.55898446943E+02 -0.88174969389E+02 -0.46381663601E+02  0.11431619621E+03  0.41800000000E+01 0.  1.
        -11    1    1    2    0    0  0.20973435996E+02  0.33794411649E+02 -0.78214423751E+02  0.87746472060E+02  0.00000000000E+00 0.  1.
         11    1    1    2    0    0  0.26906784711E+02  0.50321387328E+02  0.11370992808E+02  0.58185191961E+02  0.00000000000E+00 0. -1.
</event>
<event>
 7    1  0.2788485E-009  0.9643544E+02  0.7561462E-02  0.1287975E+00
         -2   -1    0    0    0  501 -0.00000000000E+00  0.00000000000E+00  0.14213169063E+02  0.14213169063E+02  0.00000000000E+00 0.  1.
          2   -1    0    0  501    0  0.00000000000E+00 -0.00000000000E+00 -0.88912361612E+03  0.88912361612E+03  0.00000000000E+00 0. -1.
         25    2    1    2    0    0  0.12857521597E+02 -0.16271133807E+02 -0.57076663843E+03  0.58467921850E+03  0.12508064335E+03 0.  0.
          5    1    3    3  502    0 -0.12724458637E+02 -0.55810136191E+02 -0.13974300494E+03  0.15107039080E+03  0.41800000000E+01 0. -1.
         -5    1    3    3    0  502  0.25581980234E+02  0.39539002383E+02 -0.43102363350E+03  0.43360882770E+03  0.41800000000E+01 0. -1.
        -11    1    1    2    0    0 -0.45738869166E+02  0.27598256177E+02 -0.12139457318E+03  0.13262861793E+03  0.00000000000E+00 0. -1.
         11    1    1    2    0    0  0.32881347569E+02 -0.11327122369E+02 -0.18274923544E+03  0.18602894875E+03  0.00000000000E+00 0.  1.
</event>
<event>
 7    1  0.2788485E-009  0.1819876E+03  0.7561462E-02  0.1165893E+00
         -1   -1    0    0    0  501 -0.00000000000E+00  0.00000000000E+00  0.41071632413E+02  0.41071632413E+02  0.00000000000E+00 0.  1.
          1   -1    0    0  501    0  0.00000000000E+00 -0.00000000000E+00 -0.10025834436E+04  0.10025834436E+04  0.00000000000E+00 0. -1.
         25    2    1    2    0    0 -0.13390277758E+03 -0.10502802653E+03 -0.52960005909E+03  0.57016133769E+03  0.12508752216E+03 0.  0.
          5    1    3    3  502    0 -0.12603056168E+03 -0.11621145922E+03 -0.52871972447E+03  0.55583345093E+03  0.41800000000E+01 0.  1.
         -5    1    3    3    0  502 -0.78722159046E+01  0.11183432688E+02 -0.88033462718E+00  0.14327886759E+02  0.41800000000E+01 0.  1.
        -11    1    1    2    0    0  0.83381498065E+02  0.31827319806E+02 -0.30996069886E+03  0.32255400686E+03  0.00000000000E+00 0.  1.
         11    1    1    2    0    0  0.50521279517E+02  0.73200706722E+02 -0.12195105321E+03  0.15093973145E+03  0.00000000000E+00 0. -1.
</event>
<event>
 7    1  0.2788485E-009  0.1393829E+03  0.7561462E-02  0.1214162E+00
         -2   -1    0    0    0  501 -0.00000000000E+00  0.00000000000E+00  0.23612303786E+02  0.23612303786E+02  0.00000000000E+00 0.  1.
          2   -1    0    0  501    0  0.00000000000E+00 -0.00000000000E+00 -0.86253513900E+03  0.86253513900E+03  0.00000000000E+00 0. -1.
         25    2    1    2    0    0  0.21921644823E+01 -0.88449014097E+02 -0.37381143440E+03  0.40399393854E+03  0.12509228678E+03 0.  0.
          5    1    3    3  502    0  0.57375355347E+02 -0.12799782503E+02 -0.16132850184E+03  0.17175600059E+03  0.41800000000E+01 0.  1.
         -5    1    3    3    0  502 -0.55183190865E+02 -0.75649231594E+02 -0.21248293257E+03  0.23223793796E+03  0.41800000000E+01 0.  1.
        -11    1    1    2    0    0 -0.36159731001E+02  0.84490896161E+02 -0.36367731743E+03  0.37510988909E+03  0.00000000000E+00 0.  1.
         11    1    1    2    0    0  0.33967566518E+02  0.39581179355E+01 -0.10143408338E+03  0.10704361515E+03  0.00000000000E+00 0. -1.
</event>
<event>
 7    1  0.2788485E-009  0.7141275E+02  0.7561462E-02  0.1355354E+00
          2   -1    0    0  501    0  0.00000000000E+00  0.00000000000E+00  0.20253822481E+03  0.20253822481E+03  0.00000000000E+00 0. -1.
         -2   -1    0    0    0  501 -0.00000000000E+00 -0.00000000000E+00 -0.65707582965E+02  0.65707582965E+02  0.00000000000E+00 0.  1.
         25    2    1    2    0    0 -0.24858665075E+02  0.28546608648E+02  0.73128005849E+02  0.14976118766E+03  0.12509135061E+03 0.  0.
          5    1    3    3  502    0  0.17974103035E+02  0.24701314885E+02  0.96030412492E+02  0.10085898998E+03  0.41800000000E+01 0.  1.
         -5    1    3    3    0  502 -0.42832768110E+02  0.38452937622E+01 -0.22902406643E+02  0.48902197682E+02  0.41800000000E+01 0.  1.
        -11    1    1    2    0    0 -0.17490563606E+02 -0.18091154058E+02  0.70024035344E+02  0.74408166193E+02  0.00000000000E+00 0. -1.
         11    1    1    2    0    0  0.42349228681E+02 -0.10455454589E+02 -0.63213993432E+01  0.44076453920E+02  0.00000000000E+00 0.  1.
</event>
<event>
 7    1  0.2788485E-009  0.8087900E+02  0.7561462E-02  0.1326575E+00
         -1   -1    0    0    0  501 -0.00000000000E+00  0.00000000000E+00  0.28593657856E+03  0.28593657856E+03  0.00000000000E+00 0.  1.
          1   -1    0    0  501    0  0.00000000000E+00 -0.00000000000E+00 -0.55070533765E+02  0.55070533765E+02  0.00000000000E+00 0. -1.
         25    2    1    2    0    0  0.41640597787E+02  0.48501581518E+02  0.12346690949E+03  0.18702283761E+03  0.12508845372E+03 0.  0.
          5    1    3    3  502    0  0.94079370171E+01  0.36903152613E+02  0.14253573753E+03  0.14759492140E+03  0.41800000000E+01 0. -1.
         -5    1    3    3    0  502  0.32232660770E+02  0.11598428905E+02 -0.19068828040E+02  0.39427916204E+02  0.41800000000E+01 0. -1.
        -11    1    1    2    0    0  0.48598380396E+01 -0.41650869548E+02  0.61826278088E+01  0.42386764992E+02  0.00000000000E+00 0. -1.
         11    1    1    2    0    0 -0.46500435827E+02 -0.68507119707E+01  0.10121650750E+03  0.11159750972E+03  0.00000000000E+00 0.  1.
</event>
<event>
 7    1  0.2788485E-009  0.1378745E+03  0.7561462E-02  0.1216218E+00
         -2   -1    0    0    0  501 -0.00000000000E+00  0.00000000000E+00  0.20770772218E+03  0.20770772218E+03  0.00000000000E+00 0. -1.
          2   -1    0    0  501    0  0.00000000000E+00 -0.00000000000E+00 -0.19434660415E+03  0.19434660415E+03  0.00000000000E+00 0.  1.
         25    2    1    2    0    0  0.90596113572E+02 -0.12875426158E+02  0.14751105247E+03  0.21396358972E+03  0.12508986663E+03 0.  0.
          5    1    3    3  502    0  0.44747584869E+02  0.55887520248E+02  0.77241906049E+02  0.10540182978E+03  0.41800000000E+01 0. -1.
         -5    1    3    3    0  502  0.45848528703E+02 -0.68762946406E+02  0.70269146423E+02  0.10856175994E+03  0.41800000000E+01 0. -1.
        -11    1    1    2    0    0 -0.86611584638E+02  0.38904673257E+02 -0.13067883978E+03  0.16153049050E+03  0.00000000000E+00 0.  1.
         11    1    1    2    0    0 -0.39845289340E+01 -0.26029247099E+02 -0.34710946567E+01  0.26560246111E+02  0.00000000000E+00 0. -1.
</event>
<event>
 7    1  0.2788485E-009  0.6848456E+02  0.7561462E-02  0.1365324E+00
          2   -1    0    0  501    0  0.00000000000E+00  0.00000000000E+00  0.15934657671E+03  0.15934657671E+03  0.00000000000E+00 0. -1.
         -2   -1    0    0    0  501 -0.00000000000E+00 -0.00000000000E+00 -0.80513592793E+02  0.80513592793E+02  0.00000000000E+00 0.  1.
         25    2    1    2    0    0  0.91110974677E+01 -0.30077371246E+02  0.29856738301E+02  0.13238478533E+03  0.12508655486E+03 0.  0.
          5    1    3    3  502    0 -0.17950414906E+02 -0.54592543192E+02 -0.27827043981E+02  0.63987342062E+02  0.41800000000E+01 0. -1.
         -5    1    3    3    0  502  0.27061512373E+02  0.24515171946E+02  0.57683782281E+02  0.68397443269E+02  0.41800000000E+01 0. -1.
        -11    1    1    2    0    0 -0.16026992570E+02  0.53135494367E+01  0.71393902884E+02  0.73363394601E+02  0.00000000000E+00 0. -1.
         11    1    1    2    0    0  0.69158951026E+01  0.24763821809E+02 -0.22417657263E+02  0.34111989576E+02  0.00000000000E+00 0.  1.
</event>
<event>
 7    1  0.2788485E-009  0.1068086E+03  0.7561462E-02  0.1266597E+00
          2   -1    0    0  501    0  0.00000000000E+00  0.00000000000E+00  0.51637377652E+02  0.51637377652E+02  0.00000000000E+00 0. -1.
         -2   -1    0    0    0  501 -0.00000000000E+00 -0.00000000000E+00 -0.27118075937E+03  0.27118075937E+03  0.00000000000E+00 0.  1.
         25    2    1    2    0    0  0.14832290518E+02  0.26569429456E+02 -0.17453053436E+03  0.21687661203E+03  0.12509446829E+03 0.  0.
          5    1    3    3  502    0  0.47259573169E+02  0.59408081635E+02 -0.13918287167E+03  0.15859423567E+03  0.41800000000E+01 0. -1.
         -5    1    3    3    0  502 -0.32427282651E+02 -0.32838652179E+02 -0.35347662691E+02  0.58282376365E+02  0.41800000000E+01 0. -1.
        -11    1    1    2    0    0 -0.48715263837E+02 -0.87057890401E+00 -0.76231942299E+01  0.49315797962E+02  0.00000000000E+00 0. -1.
         11    1    1    2    0    0  0.33882973320E+02 -0.25698850552E+02 -0.37389653127E+02  0.56625727029E+02  0.00000000000E+00 0.  1.
</event>
<event>
 7    1  0.2788485E-009  0.1200567E+03  0.7561462E-02  0.1243004E+00
         -4   -1    0    0    0  501 -0.00000000000E+00  0.00000000000E+00  0.30682912559E+03  0.30682912559E+03  0.00000000000E+00 0.  1.
          4   -1    0    0  501    0  0.00000000000E+00 -0.00000000000E+00 -0.53829297283E+02  0.53829297283E+02  0.00000000000E+00 0. -1.
         25    2    1    2    0    0 -0.20771564336E+02  0.60819896497E+02  0.15618368199E+03  0.21016980489E+03  0.12508991435E+03 0.  0.
          5    1    3    3  502    0  0.23555541382E+02  0.84333495605E+02  0.78950140035E+02  0.11797287410E+03  0.41800000000E+01 0. -1.
         -5    1    3    3    0  502 -0.44327105719E+02 -0.23513599108E+02  0.77233541960E+02  0.92196930795E+02  0.41800000000E+01 0. -1.
        -11    1    1    2    0    0 -0.30617580536E+02 -0.23099909073E+02  0.49508705538E+01  0.38672382345E+02  0.00000000000E+00 0. -1.
         11    1    1    2    0    0  0.51389144872E+02 -0.37719987425E+02  0.91865275759E+02  0.11181623564E+03  0.00000000000E+00 0.  1.
</event>
<event>
 7    1  0.2788485E-009  0.4096286E+02  0.7561462E-02  0.1501243E+00
         -3   -1    0    0    0  501 -0.00000000000E+00  0.00000000000E+00  0.30737916299E+03  0.30737916299E+03  0.00000000000E+00 0.  1.
          3   -1    0    0  501    0  0.00000000000E+00 -0.00000000000E+00 -0.38233811355E+02  0.38233811355E+02  0.00000000000E+00 0. -1.
         25    2    1    2    0    0  0.39950582108E+01 -0.10492544932E+02  0.14350555630E+03  0.19070436797E+03  0.12509299455E+03 0.  0.
          5    1    3    3  502    0 -0.10064895238E+02 -0.11184984398E+02  0.16441426347E+03  0.16515425645E+03  0.41800000000E+01 0.  1.
         -5    1    3    3    0  502  0.14059953449E+02  0.69243946547E+00 -0.20908707167E+02  0.25550111522E+02  0.41800000000E+01 0.  1.
        -11    1    1    2    0    0  0.39596466378E+01 -0.19858016503E+02  0.12159942322E+03  0.12327383887E+03  0.00000000000E+00 0.  1.
         11    1    1    2    0    0 -0.79547048486E+01  0.30350561435E+02  0.40403721178E+01  0.31634767512E+02  0.00000000000E+00 0. -1.
</event>
<event>
 7    1  0.2788485E-009  0.1258644E+03  0.7561462E-02  0.1233725E+00
          1   -1    0    0  501    0  0.00000000000E+00  0.00000000000E+00  0.42669547206E+03  0.42669547206E+03  0.00000000000E+00 0. -1.
         -1   -1    0    0    0  501 -0.00000000000E+00 -0.00000000000E+00 -0.43171277152E+02  0.43171277152E+02  0.00000000000E+00 0.  1.
         25    2    1    2    0    0 -0.64260292203E+02 -0.51473660295E+02  0.21328959823E+03  0.26061404664E+03  0.12509318821E+03 0.  0.
          5    1    3    3  502    0 -0.90737402069E+02 -0.49244229820E+02  0.20931052718E+03  0.23342373378E+03  0.41800000000E+01 0.  1.
         -5    1    3    3    0  502  0.26477109866E+02 -0.22294304743E+01  0.39790710515E+01  0.27190312862E+02  0.41800000000E+01 0.  1.
        -11    1    1    2    0    0  0.86985920790E+02  0.44671285863E+02  0.14131059424E+03  0.17184515775E+03  0.00000000000E+00 0. -1.
         11    1    1    2    0    0 -0.22725628587E+02  0.68023744316E+01  0.28924002444E+02  0.37407544826E+02  0.00000000000E+00 0.  1.
</event>
<event>
 7    1  0.2788485E-009  0.8342089E+02  0.7561462E-02  0.1319614E+00
         -2   -1    0    0    0  501 -0.00000000000E+00  0.00000000000E+00  0.64212539174E+02  0.64212539174E+02  0.00000000000E+00 0.  1.
          2   -1    0    0  501    0  0.00000000000E+00 -0.00000000000E+00 -0.20955616490E+03  0.20955616490E+03  0.00000000000E+00 0. -1.
         25    2    1    2    0    0 -0.22335035603E+02  0.16937098895E+02 -0.45758989879E+02  0.13612034460E+03  0.12509653842E+03 0.  0.
          5    1    3    3  502    0 -0.62693674489E+02  0.63853002636E+01 -0.64434283364E+02  0.90224820050E+02  0.41800000000E+01 0.  1.
         -5    1    3    3    0  502  0.40358638886E+02  0.10551798631E+02  0.18675293485E+02  0.45895524552E+02  0.41800000000E+01 0.  1.
        -11    1    1    2    0    0 -0.17356938228E+02 -0.13369739195E+02 -0.95046351194E+02  0.97538823584E+02  0.00000000000E+00 0. -1.
         11    1    1    2    0    0  0.39691973830E+02 -0.35673596996E+01 -0.45382846553E+01  0.40109535891E+02  0.00000000000E+00 0.  1.
</event>
<event>
 7    1  0.2788485E-009  0.1248956E+03  0.7561462E-02  0.1235233E+00
         -1   -1    0    0    0  501 -0.00000000000E+00  0.00000000000E+00  0.90405268275E+02  0.90405268275E+02  0.00000000000E+00 0.  1.
          1   -1    0    0  501    0  0.00000000000E+00 -0.00000000000E+00 -0.28137454715E+03  0.28137454715E+03  0.00000000000E+00 0. -1.
         25    2    1    2    0    0 -0.15501649872E+02  0.95951861225E+02 -0.32277598023E+02  0.16166615145E+03  0.12508813040E+03 0.  0.
          5    1    3    3  502    0 -0.31029402148E+02  0.11109657560E+03  0.80293825417E+01  0.11570313864E+03  0.41800000000E+01 0. -1.
         -5    1    3    3    0  502  0.15527752277E+02 -0.15144714370E+02 -0.40306980564E+02  0.45963012807E+02  0.41800000000E+01 0. -1.
        -11    1    1    2    0    0  0.36864576398E+02 -0.57925838842E+02 -0.31294176963E+02  0.75456777763E+02  0.00000000000E+00 0.  1.
         11    1    1    2    0    0 -0.21362926527E+02 -0.38026022384E+02 -0.12739750389E+03  0.13465688622E+03  0.00000000000E+00 0. -1.
</event>
<event>
 7    1  0.2788485E-009  0.1437388E+03  0.7561462E-02  0.1208385E+00
         -2   -1    0    0    0  501 -0.00000000000E+00  0.00000000000E+00  0.19443704964E+03  0.19443704964E+03  0.00000000000E+00 0.  1.
          2   -1    0    0  501    0  0.00000000000E+00 -0.00000000000E+00 -0.16184044731E+03  0.16184044731E+03  0.00000000000E+00 0. -1.
         25    2    1    2    0    0 -0.50759086435E+02 -0.10530539902E+03 -0.60202022883E+02  0.18148663253E+03  0.12508957715E+03 0.  0.
          5    1    3    3  502    0 -0.15149866266E+02 -0.10308000695E+03  0.78176532202E+01  0.10456382923E+03  0.41800000000E+01 0. -1.
         -5    1    3    3    0  502 -0.35609220168E+02 -0.22253920651E+01 -0.68019676103E+02  0.76922803303E+02  0.41800000000E+01 0. -1.
        -11    1    1    2    0    0  0.19010562771E+02  0.11302305861E+03  0.64184338411E+02  0.13135921198E+03  0.00000000000E+00 0.  1.
         11    1    1    2    0    0  0.31748523664E+02 -0.77176595959E+01  0.28614286798E+02  0.43431652437E+02  0.00000000000E+00 0. -1.
</event>
<event>
 7    1  0.2788485E-009  0.7835112E+02  0.7561462E-02  0.1333797E+00
         -3   -1    0    0    0  501 -0.00000000000E+00  0.00000000000E+00  0.47504797925E+03  0.47504797925E+03  0.00000000000E+00 0.  1.
          3   -1    0    0  501    0  0.00000000000E+00 -0.00000000000E+00 -0.31987622739E+02  0.31987622739E+02  0.00000000000E+00 0. -1.
         25    2    1    2    0    0  0.42812125979E+02  0.75514618503E+01  0.16520637567E+03  0.21173244466E+03  0.12509028281E+03 0.  0.
          5    1    3    3  502    0  0.62667564565E+02  0.22004892125E+02  0.27862109926E+02  0.72147130889E+02  0.41800000000E+01 0. -1.
         -5    1    3    3    0  502 -0.19855438586E+02 -0.14453430275E+02  0.13734426574E+03  0.13958531377E+03  0.41800000000E+01 0. -1.
        -11    1    1    2    0    0 -0.48870103650E+02 -0.18882583840E+02  0.27754917452E+03  0.28245067407E+03  0.00000000000E+00 0.  1.
         11    1    1    2    0    0  0.60579776712E+01  0.11331121989E+02  0.30480631620E+00  0.12852483258E+02  0.00000000000E+00 0. -1.
</event>
<event>
 7    1  0.2788485E-009  0.1519717E+03  0.7561462E-02  0.1198071E+00
         -1   -1    0    0    0  501 -0.00000000000E+00  0.00000000000E+00  0.53110364498E+03  0.53110364498E+03  0.00000000000E+00 0.  1.
          1   -1    0    0  501    0  0.00000000000E+00 -0.00000000000E+00 -0.58252445921E+02  0.58252445921E+02  0.00000000000E+00 0. -1.
         25    2    1    2    0    0 -0.36850753700E+02  0.11175793492E+03  0.37167149754E+03  0.40943108357E+03  0.12508515516E+03 0.  0.
          5    1    3    3  502    0  0.16296238884E+02 -0.15423894265E+02  0.15758340433E+02  0.27735565782E+02  0.41800000000E+01 0.  1.
         -5    1    3    3    0  502 -0.53146992584E+02  0.12718182919E+03  0.35591315710E+03  0.38169551778E+03  0.41800000000E+01 0.  1.
        -11    1    1    2    0    0  0.24804258085E+02  0.54457085508E+01  0.12377733340E+01  0.25425165557E+02  0.00000000000E+00 0. -1.
         11    1    1    2    0    0  0.12046495614E+02 -0.11720364347E+03  0.99941928190E+02  0.15449984178E+03  0.00000000000E+00 0.  1.
</event>
<event>
 7    1  0.2788485E-009  0.2159000E+03  0.7561462E-02  0.1136977E+00
          2   -1    0    0  501    0  0.00000000000E+00  0.00000000000E+00  0.51206314176E+03  0.51206314176E+03  0.00000000000E+00 0.  1.
         -2   -1    0    0    0  501 -0.00000000000E+00 -0.00000000000E+00 -0.10647451927E+03  0.10647451927E+03  0.00000000000E+00 0. -1.
         25    2    1    2    0    0  0.20109386006E+03 -0.44660858899E+02  0.22253362990E+03  0.32802795429E+03  0.12509112474E+03 0.  0.
          5    1    3    3  502    0  0.90068925408E+02 -0.35426551130E+02  0.23168314492E+02  0.99607705754E+02  0.41800000000E+01 0. -1.
         -5    1    3    3    0  502  0.11102493465E+03 -0.92343077693E+01  0.19936531541E+03  0.22842024854E+03  0.41800000000E+01 0. -1.
        -11    1    1    2    0    0 -0.15591571424E+03  0.70805187688E+02  0.12240038723E+03  0.21048738524E+03  0.00000000000E+00 0. -1.
         11    1    1    2    0    0 -0.45178145821E+02 -0.26144328788E+02  0.60654605363E+02  0.80022321507E+02  0.00000000000E+00 0.  1.
</event>
<event>
 7    1  0.2903678E-009  0.1441500E+03  0.7561462E-02  0.1207851E+00
          2   -1    0    0  501    0  0.00000000000E+00  0.00000000000E+00  0.70064544923E+03  0.70064544923E+03  0.00000000000E+00 0.  1.
         -2   -1    0    0    0  501 -0.00000000000E+00 -0.00000000000E+00 -0.46396330920E+02  0.46396330920E+02  0.00000000000E+00 0. -1.
         25    2    1    2    0    0 -0.74536889090E+02  0.77661805478E+02  0.54173515119E+03  0.56631388572E+03  0.12508932513E+03 0.  0.
          5    1    3    3  502    0 -0.85580623155E+02  0.10418807402E+03  0.46847596818E+03  0.48751041321E+03  0.41800000000E+01 0.  1.
         -5    1    3    3    0  502  0.11043734065E+02 -0.26526268538E+02  0.73259183009E+02  0.78803472511E+02  0.41800000000E+01 0.  1.
        -11    1    1    2    0    0  0.81861765181E+02 -0.50382726999E+02  0.42249881963E+02  0.10499914430E+03  0.00000000000E+00 0. -1.
         11    1    1    2    0    0 -0.73248760913E+01 -0.27279078479E+02  0.70264085164E+02  0.75728750130E+02  0.00000000000E+00 0.  1.
</event>
<event>
 7    1  0.2788485E-009  0.9033895E+02  0.7561462E-02  0.1302033E+00
          1   -1    0    0  501    0  0.00000000000E+00  0.00000000000E+00  0.27323068050E+03  0.27323068050E+03  0.00000000000E+00 0. -1.
         -1   -1    0    0    0  501 -0.00000000000E+00 -0.00000000000E+00 -0.46876282096E+02  0.46876282096E+02  0.00000000000E+00 0.  1.
         25    2    1    2    0    0  0.26536778763E+02 -0.78901666951E+01  0.14572500947E+03  0.19403589393E+03  0.12509074462E+03 0.  0.
          5    1    3    3  502    0 -0.28595945523E+02 -0.23974627260E+02  0.21928705913E+00  0.37550384011E+02  0.41800000000E+01 0. -1.
         -5    1    3    3    0  502  0.55132724286E+02  0.16084460564E+02  0.14550572241E+03  0.15648550992E+03  0.41800000000E+01 0. -1.
        -11    1    1    2    0    0 -0.45241525716E+02  0.31718235470E+02  0.78106214516E+02  0.95673522233E+02  0.00000000000E+00 0. -1.
         11    1    1    2    0    0  0.18704746953E+02 -0.23828068775E+02  0.25231744144E+01  0.30397546434E+02  0.00000000000E+00 0.  1.
</event>
<event>
 7    1  0.2788485E-009  0.1495782E+03  0.7561462E-02  0.1200992E+00
          1   -1    0    0  501    0  0.00000000000E+00  0.00000000000E+00  0.99517718417E+03  0.99517718417E+03  0.00000000000E+00 0. -1.
         -1   -1    0    0    0  501 -0.00000000000E+00 -0.00000000000E+00 -0.32634600507E+02  0.32634600507E+02  0.00000000000E+00 0.  1.
         25    2    1    2    0    0  0.10224153871E+03 -0.81632589586E+02  0.64395947319E+03  0.66891581171E+03  0.12508936056E+03 0.  0.
          5    1    3    3  502    0  0.10693587812E+03 -0.60340499864E+02  0.63173857956E+03  0.64357389883E+03  0.41800000000E+01 0.  1.
         -5    1    3    3    0  502 -0.46943394151E+01 -0.21292089722E+02  0.12220893631E+02  0.25341912880E+02  0.41800000000E+01 0.  1.
        -11    1    1    2    0    0 -0.72748597831E+02  0.60893255372E+01  0.21676852954E+03  0.22873135721E+03  0.00000000000E+00 0.  1.
         11    1    1    2    0    0 -0.29492940878E+02  0.75543264048E+02  0.10181458093E+03  0.13016461576E+03  0.00000000000E+00 0. -1.
</event>
<event>
 7    1  0.2788485E-009  0.1472499E+03  0.7561462E-02  0.1203894E+00
          1   -1    0    0  501    0  0.00000000000E+00  0.00000000000E+00  0.62638395373E+02  0.62638395373E+02  0.00000000000E+00 0. -1.
         -1   -1    0    0    0  501 -0.00000000000E+00 -0.00000000000E+00 -0.57536922147E+03  0.57536922147E+03  0.00000000000E+00 0.  1.
         25    2    1    2    0    0 -0.95386137957E+02 -0.80835477378E+02 -0.11204346685E+03  0.20936702246E+03  0.12509165405E+03 0.  0.
          5    1    3    3  502    0 -0.10855476368E+02  0.25417356559E+02 -0.55670169458E+02  0.62293848405E+02  0.41800000000E+01 0. -1.
         -5    1    3    3    0  502 -0.84530661589E+02 -0.10625283394E+03 -0.56373297391E+02  0.14707317406E+03  0.41800000000E+01 0. -1.
        -11    1    1    2    0    0  0.61432104789E+02  0.27102456343E+02 -0.31428192751E+03  0.32137451143E+03  0.00000000000E+00 0.  1.
         11    1    1    2    0    0  0.33954033169E+02  0.53733021034E+02 -0.86405431745E+02  0.10726608296E+03  0.00000000000E+00 0. -1.
</event>
<event>
 7    1  0.2788485E-009  0.9825102E+02  0.7561462E-02  0.1284017E+00
          2   -1    0    0  501    0  0.00000000000E+00  0.00000000000E+00  0.22936326091E+03  0.22936326091E+03  0.00000000000E+00 0. -1.
         -2   -1    0    0    0  501 -0.00000000000E+00 -0.00000000000E+00 -0.62978000850E+02  0.62978000850E+02  0.00000000000E+00 0.  1.
         25    2    1    2    0    0 -0.21022837781E+02 -0.39586180076E+01  0.35895826605E+02  0.13188534238E+03  0.12509037854E+03 0.  0.
          5    1    3    3  502    0  0.38078368284E+02 -0.24082715516E+02  0.50319022967E+02  0.67671380879E+02  0.41800000000E+01 0.  1.
         -5    1    3    3    0  502 -0.59101206065E+02  0.20124097508E+02 -0.14423196362E+02  0.64213961505E+02  0.41800000000E+01 0.  1.
        -11    1    1    2    0    0  0.27423346710E+02 -0.37652183438E+02  0.93303590870E+02  0.10428464380E+03  0.00000000000E+00 0.  1.
         11    1    1    2    0    0 -0.64005089285E+01  0.41610801446E+02  0.37185842586E+02  0.56171275581E+02  0.00000000000E+00 0. -1.
</event>
<event>
 7    1  0.2788485E-009  0.1378654E+03  0.7561462E-02  0.1216230E+00
          2   -1    0    0  501    0  0.00000000000E+00  0.00000000000E+00  0.28956019103E+03  0.28956019103E+03  0.00000000000E+00 0. -1.
         -2   -1    0    0    0  501 -0.00000000000E+00 -0.00000000000E+00 -0.71090070590E+02  0.71090070590E+02  0.00000000000E+00 0.  1.
         25    2    1    2    0    0  0.82003129043E+02 -0.30639291359E+02  0.11235314671E+03  0.18956760294E+03  0.12509743067E+03 0.  0.
          5    1    3    3  502    0  0.10245379132E+03  0.35128080881E+01  0.46818515452E+02  0.11277661533E+03  0.41800000000E+01 0. -1.
         -5    1    3    3    0  502 -0.20450662273E+02 -0.34152099447E+02  0.65534631256E+02  0.76790987608E+02  0.41800000000E+01 0. -1.
        -11    1    1    2    0    0 -0.23707821936E+02  0.62377271365E+02  0.64078089733E+02  0.92514790102E+02  0.00000000000E+00 0.  1.
         11    1    1    2    0    0 -0.58295307107E+02 -0.31737980005E+02  0.42038883997E+02  0.78567868581E+02  0.00000000000E+00 0. -1.
</event>
<event>
 7    1  0.2788485E-009  0.2380756E+03  0.7561462E-02  0.1121081E+00
         -2   -1    0    0    0  501 -0.00000000000E+00  0.00000000000E+00  0.24582037085E+02  0.24582037085E+02  0.00000000000E+00 0.  1.
          2   -1    0    0  501    0  0.00000000000E+00 -0.00000000000E+00 -0.23454771192E+04  0.23454771192E+04  0.00000000000E+00 0. -1.
         25    2    1    2    0    0 -0.57772754288E+02 -0.20481875877E+03 -0.12776947776E+04  0.13013225554E+04  0.12509209993E+03 0.  0.
          5    1    3    3  502    0 -0.79501610852E+02 -0.59021936434E+02 -0.48329180651E+03  0.49334829254E+03  0.41800000000E+01 0.  1.
         -5    1    3    3    0  502  0.21728856564E+02 -0.14579682234E+03 -0.79440297110E+03  0.80797426289E+03  0.41800000000E+01 0.  1.
        -11    1    1    2    0    0  0.63935575094E+02  0.70704225417E+02 -0.35580569724E+03  0.36835382371E+03  0.00000000000E+00 0. -1.
         11    1    1    2    0    0 -0.61628208055E+01  0.13411453336E+03 -0.68739460726E+03  0.70038277714E+03  0.00000000000E+00 0.  1.
</event>
<event>
 7    1  0.2788485E-009  0.9979740E+02  0.7561462E-02  0.1280723E+00
          2   -1    0    0  501    0  0.00000000000E+00  0.00000000000E+00  0.44081587088E+02  0.44081587088E+02  0.00000000000E+00 0. -1.
         -2   -1    0    0    0  501 -0.00000000000E+00 -0.00000000000E+00 -0.53319903203E+03  0.53319903203E+03  0.00000000000E+00 0.  1.
         25    2    1    2    0    0 -0.56296695515E+02  0.71777130165E+02 -0.33944711218E+03  0.37308614248E+03  0.12509058078E+03 0.  0.
          5    1    3    3  502    0 -0.10175655900E+02  0.20443503656E+02  0.32884771775E+01  0.23447117027E+02  0.41800000000E+01 0. -1.
         -5    1    3    3    0  502 -0.46121039615E+02  0.51333626509E+02 -0.34273558936E+03  0.34963902545E+03  0.41800000000E+01 0. -1.
        -11    1    1    2    0    0  0.49977961988E+02 -0.81526185734E+02 -0.16145334816E+03  0.18764727357E+03  0.00000000000E+00 0.  1.
         11    1    1    2    0    0  0.63187335271E+01  0.97490555685E+01  0.11783015395E+02  0.16547203077E+02  0.00000000000E+00 0. -1.
</event>
<event>
 7    1  0.2788485E-009  0.1558683E+03  0.7561462E-02  0.1193442E+00
          1   -1    0    0  501    0  0.00000000000E+00  0.00000000000E+00  0.22049124508E+04  0.22049124508E+04  0.00000000000E+00 0. -1.
         -1   -1    0    0    0  501 -0.00000000000E+00 -0.00000000000E+00 -0.43601260384E+02  0.43601260384E+02  0.00000000000E+00 0.  1.
         25    2    1    2    0    0  0.48883062836E+02  0.13145205571E+03  0.20210488898E+04  0.20297672833E+04  0.12508961814E+03 0.  0.
          5    1    3    3  502    0 -0.11563583590E+02 -0.18944869728E+01  0.78090867608E+03  0.78100777097E+03  0.41800000000E+01 0. -1.
         -5    1    3    3    0  502  0.60446646426E+02  0.13334654268E+03  0.12401402137E+04  0.12487595123E+04  0.41800000000E+01 0. -1.
        -11    1    1    2    0    0 -0.24315967277E+02 -0.60696941136E+01  0.66844149797E+02  0.71388008891E+02  0.00000000000E+00 0. -1.
         11    1    1    2    0    0 -0.24567095559E+02 -0.12538236160E+03  0.73418150834E+02  0.14735841902E+03  0.00000000000E+00 0.  1.
</event>
<event>
 7    1  0.2788485E-009  0.1127875E+03  0.7561462E-02  0.1255493E+00
          1   -1    0    0  501    0  0.00000000000E+00  0.00000000000E+00  0.61623689298E+02  0.61623689298E+02  0.00000000000E+00 0. -1.
         -1   -1    0    0    0  501 -0.00000000000E+00 -0.00000000000E+00 -0.21912984542E+03  0.21912984542E+03  0.00000000000E+00 0.  1.
         25    2    1    2    0    0 -0.37821713964E+02 -0.41111147202E+02 -0.85059431620E+02  0.16125364584E+03  0.12508806065E+03 0.  0.
          5    1    3    3  502    0  0.40895523977E+02  0.75392660390E+01 -0.12613170042E+02  0.43656029048E+02  0.41800000000E+01 0. -1.
         -5    1    3    3    0  502 -0.78717237941E+02 -0.48650413242E+02 -0.72446261577E+02  0.11759761679E+03  0.41800000000E+01 0. -1.
        -11    1    1    2    0    0  0.22652138049E+02 -0.18743634397E+02 -0.40301703537E+02  0.49886576316E+02  0.00000000000E+00 0.  1.
         11    1    1    2    0    0  0.15169575915E+02  0.59854781599E+02 -0.32145020969E+02  0.69613312569E+02  0.00000000000E+00 0. -1.
</event>
<event>
 7    1  0.2788485E-009  0.1271791E+03  0.7561462E-02  0.1231702E+00
         -2   -1    0    0    0  501 -0.00000000000E+00  0.00000000000E+00  0.16722419407E+02  0.16722419407E+02  0.00000000000E+00 0.  1.
          2   -1    0    0  501    0  0.00000000000E+00 -0.00000000000E+00 -0.11087831142E+04  0.11087831142E+04  0.00000000000E+00 0. -1.
         25    2    1    2    0    0  0.47395582227E+02  0.69088519345E+02 -0.62139527595E+03  0.63937428876E+03  0.12509127638E+03 0.  0.
          5    1    3    3  502    0 -0.34009267671E+01 -0.33536310538E+02 -0.10262013096E+03  0.10809539355E+03  0.41800000000E+01 0.  1.
         -5    1    3    3    0  502  0.50796508994E+02  0.10262482988E+03 -0.51877514499E+03  0.53127889521E+03  0.41800000000E+01 0.  1.
        -11    1    1    2    0    0  0.15537705571E+02 -0.23191881774E+02 -0.41897054246E+02  0.50345276135E+02  0.00000000000E+00 0.  1.
         11    1    1    2    0    0 -0.62933287798E+02 -0.45896637572E+02 -0.42876836461E+03  0.43578596873E+03  0.00000000000E+00 0. -1.
</event>
<event>
 7    1  0.2788485E-009  0.8020284E+02  0.7561462E-02  0.1328477E+00
          2   -1    0    0  501    0  0.00000000000E+00  0.00000000000E+00  0.29951477745E+03  0.29951477745E+03  0.00000000000E+00 0. -1.
         -2   -1    0    0    0  501 -0.00000000000E+00 -0.00000000000E+00 -0.58093467231E+02  0.58093467231E+02  0.00000000000E+00 0.  1.
         25    2    1    2    0    0 -0.69833730227E+02 -0.27503010678E+02  0.15337105130E+03  0.21166875836E+03  0.12509124036E+03 0.  0.
          5    1    3    3  502    0 -0.70079905492E+02 -0.28898798117E+02  0.20384172191E+02  0.78608654500E+02  0.41800000000E+01 0.  1.
         -5    1    3    3    0  502  0.24617526540E+00  0.13957874386E+01  0.13298687910E+03  0.13306010386E+03  0.41800000000E+01 0.  1.
        -11    1    1    2    0    0  0.33841596144E+02 -0.14611102551E+01 -0.11840221113E+02  0.35882855360E+02  0.00000000000E+00 0.  1.
         11    1    1    2    0    0  0.35992134083E+02  0.28964120933E+02  0.99890480037E+02  0.11005663096E+03  0.00000000000E+00 0. -1.
</event>
<event>
 7    1  0.2788485E-009  0.1104364E+03  0.7561462E-02  0.1259764E+00
          4   -1    0    0  501    0  0.00000000000E+00  0.00000000000E+00  0.76013324360E+03  0.76013324360E+03  0.00000000000E+00 0. -1.
         -4   -1    0    0    0  501 -0.00000000000E+00 -0.00000000000E+00 -0.27522884876E+02  0.27522884876E+02  0.00000000000E+00 0.  1.
         25    2    1    2    0    0 -0.56445763289E+02  0.71021263635E+02  0.48579551058E+03  0.50977794145E+03  0.12508448109E+03 0.  0.
          5    1    3    3  502    0 -0.50546278163E+02  0.69217111096E+02  0.14208465632E+03  0.16598631469E+03  0.41800000000E+01 0.  1.
         -5    1    3    3    0  502 -0.58994851265E+01  0.18041525389E+01  0.34371085426E+03  0.34379162676E+03  0.41800000000E+01 0.  1.
        -11    1    1    2    0    0  0.64401521208E+01 -0.76981944961E+02  0.14536931428E+03  0.16462057266E+03  0.00000000000E+00 0. -1.
         11    1    1    2    0    0  0.50005611169E+02  0.59606813256E+01  0.10144553387E+03  0.11325761437E+03  0.00000000000E+00 0.  1.
</event>
<event>
 7    1  0.2788485E-009  0.1560781E+03  0.7561462E-02  0.1193197E+00
         -1   -1    0    0    0  501 -0.00000000000E+00  0.00000000000E+00  0.16688994290E+02  0.16688994290E+02  0.00000000000E+00 0.  1.
          1   -1    0    0  501    0  0.00000000000E+00 -0.00000000000E+00 -0.14868504992E+04  0.14868504992E+04  0.00000000000E+00 0. -1.
         25    2    1    2    0    0 -0.16128432545E+02  0.10609693033E+03 -0.82753914480E+03  0.84379179644E+03  0.12508746784E+03 0.  0.
          5    1    3    3  502    0  0.53627519259E+02  0.35074818573E+02 -0.28092253826E+03  0.28816852469E+03  0.41800000000E+01 0. -1.
         -5    1    3    3    0  502 -0.69755951804E+02  0.71022111756E+02 -0.54661660654E+03  0.55562327175E+03  0.41800000000E+01 0. -1.
        -11    1    1    2    0    0 -0.41828495157E+02 -0.64843633712E+02 -0.29535537616E+03  0.30526892745E+03  0.00000000000E+00 0. -1.
         11    1    1    2    0    0  0.57956927702E+02 -0.41253296618E+02 -0.34726698393E+03  0.35447876957E+03  0.00000000000E+00 0.  1.
</event>
<event>
 7    1  0.2788485E-009  0.2229720E+03  0.7561462E-02  0.1131687E+00
         -2   -1    0    0    0  501 -0.00000000000E+00  0.00000000000E+00  0.40034564707E+02  0.40034564707E+02  0.00000000000E+00 0. -1.
          2   -1    0    0  501    0  0.00000000000E+00 -0.00000000000E+00 -0.12992248209E+04  0.12992248209E+04  0.00000000000E+00 0.  1.
         25    2    1    2    0    0  0.19672078375E+03 -0.14415551731E+01 -0.54430260891E+03  0.59212547497E+03  0.12508438431E+03 0.  0.
          5    1    3    3  502    0  0.78710684372E+02 -0.60020841428E+02 -0.19378477604E+03  0.21764164368E+03  0.41800000000E+01 0.  1.
         -5    1    3    3    0  502  0.11801009938E+03  0.58579286255E+02 -0.35051783287E+03  0.37448383129E+03  0.41800000000E+01 0.  1.
        -11    1    1    2    0    0 -0.18558882534E+02 -0.28882983185E+02 -0.15677631686E+03  0.16049134670E+03  0.00000000000E+00 0.  1.
         11    1    1    2    0    0 -0.17816190122E+03  0.30324538358E+02 -0.55811133040E+03  0.58664256391E+03  0.00000000000E+00 0. -1.
</event>
<event>
 7    1  0.2788485E-009  0.1217163E+03  0.7561462E-02  0.1240292E+00
         -1   -1    0    0    0  501 -0.00000000000E+00  0.00000000000E+00  0.16657365693E+02  0.16657365693E+02  0.00000000000E+00 0.  1.
          1   -1    0    0  501    0  0.00000000000E+00 -0.00000000000E+00 -0.12341979965E+04  0.12341979965E+04  0.00000000000E+00 0. -1.
         25    2    1    2    0    0  0.33905168161E+02 -0.50416579375E+02 -0.97884985736E+03  0.98867848297E+03  0.12508679999E+03 0.  0.
          5    1    3    3  502    0 -0.14927981746E+02  0.34025319317E+02 -0.17698499057E+03  0.18089147653E+03  0.41800000000E+01 0.  1.
         -5    1    3    3    0  502  0.48833149907E+02 -0.84441898692E+02 -0.80186486679E+03  0.80778700644E+03  0.41800000000E+01 0.  1.
        -11    1    1    2    0    0 -0.64622664621E+02  0.28254035133E+02 -0.15912970172E+03  0.17405930384E+03  0.00000000000E+00 0. -1.
         11    1    1    2    0    0  0.30717496461E+02  0.22162544242E+02 -0.79561071687E+02  0.88117575341E+02  0.00000000000E+00 0.  1.
</event>
<event>
 7    1  0.2788485E-009  0.1525745E+03  0.7561462E-02  0.1197345E+00
          2   -1    0    0  501    0  0.00000000000E+00  0.00000000000E+00  0.43065566456E+03  0.43065566456E+03  0.00000000000E+00 0. -1.
         -2   -1    0    0    0  501 -0.00000000000E+00 -0.00000000000E+00 -0.63585644857E+02  0.63585644857E+02  0.00000000000E+00 0.  1.
         25    2    1    2    0    0  0.80459033259E+01 -0.12673378646E+03  0.18880328162E+03  0.25965317772E+03  0.12508758676E+03 0.  0.
          5    1    3    3  502    0  0.45605623805E+01 -0.15182509892E+03  0.15338185778E+03  0.21590536373E+03  0.41800000000E+01 0. -1.
         -5    1    3    3    0  502  0.34853409454E+01  0.25091312460E+02  0.35421423839E+02  0.43747813994E+02  0.41800000000E+01 0. -1.
        -11    1    1    2    0    0  0.24871448907E+01  0.50982150760E+02  0.13287896431E+02  0.52744040207E+02  0.00000000000E+00 0.  1.
         11    1    1    2    0    0 -0.10533048217E+02  0.75751635698E+02  0.16497884165E+03  0.18184409149E+03  0.00000000000E+00 0. -1.
</event>
<event>
 7    1  0.2788485E-009  0.2103470E+03  0.7561462E-02  0.1141292E+00
         -2   -1    0    0    0  501 -0.00000000000E+00  0.00000000000E+00  0.70619592892E+02  0.70619592892E+02  0.00000000000E+00 0.  1.
          2   -1    0    0  501    0  0.00000000000E+00 -0.00000000000E+00 -0.64042563605E+03  0.64042563605E+03  0.00000000000E+00 0. -1.
         25    2    1    2    0    0  0.14840914225E+03 -0.10407433689E+03 -0.28629258086E+03  0.36120198804E+03  0.12508674272E+03 0.  0.
          5    1    3    3  502    0  0.88987368217E+02  0.11827726993E+02 -0.11293837110E+03  0.14433015934E+03  0.41800000000E+01 0.  1.
         -5    1    3    3    0  502  0.59421774036E+02 -0.11590206389E+03 -0.17335420975E+03  0.21687182870E+03  0.41800000000E+01 0.  1.
        -11    1    1    2    0    0 -0.50452677726E+02  0.87728991162E+02 -0.17929285401E+03  0.20588291838E+03  0.00000000000E+00 0.  1.
         11    1    1    2    0    0 -0.97956464528E+02  0.16345345733E+02 -0.10422060829E+03  0.14396032253E+03  0.00000000000E+00 0. -1.
</event>
<event>
 7    1  0.2788485E-009  0.1254197E+03  0.7561462E-02  0.1234415E+00
         -1   -1    0    0    0  501 -0.00000000000E+00  0.00000000000E+00  0.10537811881E+03  0.10537811881E+03  0.00000000000E+00 0.  1.
          1   -1    0    0  501    0  0.00000000000E+00 -0.00000000000E+00 -0.19880816846E+03  0.19880816846E+03  0.00000000000E+00 0. -1.
         25    2    1    2    0    0 -0.76490028481E+02 -0.13565085628E+02  0.77678710269E+01  0.14745348356E+03  0.12508978371E+03 0.  0.
          5    1    3    3  502    0 -0.43921036113E+01  0.41180594530E+02  0.33295546268E+02  0.53302886800E+02  0.41800000000E+01 0.  1.
         -5    1    3    3    0  502 -0.72097924869E+02 -0.54745680157E+02 -0.25527675241E+02  0.94150596756E+02  0.41800000000E+01 0.  1.
        -11    1    1    2    0    0  0.32536924620E+02  0.51242200296E+02 -0.62336893765E+02  0.87007487489E+02  0.00000000000E+00 0. -1.
         11    1    1    2    0    0  0.43953103860E+02 -0.37677114668E+02 -0.38861026913E+02  0.69725316216E+02  0.00000000000E+00 0.  1.
</event>
<event>
 7    1  0.2788485E-009  0.1237850E+03  0.7561462E-02  0.1236980E+00
         -1   -1    0    0    0  501 -0.00000000000E+00  0.00000000000E+00  0.47551082494E+02  0.47551082494E+02  0.00000000000E+00 0.  1.
          1   -1    0    0  501    0  0.00000000000E+00 -0.00000000000E+00 -0.47863175918E+03  0.47863175918E+03  0.00000000000E+00 0. -1.
         25    2    1    2    0    0  0.51891857296E+02 -0.63645824974E+02 -0.34611754830E+03  0.37707901739E+03  0.12509065601E+03 0.  0.
          5    1    3    3  502    0 -0.14595631659E+02 -0.58007519465E+02 -0.26626758667E+03  0.27293553248E+03  0.41800000000E+01 0. -1.
         -5    1    3    3    0  502  0.66487488955E+02 -0.56383055089E+01 -0.79849961633E+02  0.10414348491E+03  0.41800000000E+01 0. -1.
        -11    1    1    2    0    0 -0.74413815995E+02  0.64114605438E+02 -0.78293437333E+02  0.12561035376E+03  0.00000000000E+00 0. -1.
         11    1    1    2    0    0  0.22521958699E+02 -0.46878046458E+00 -0.66696910485E+01  0.23493470528E+02  0.00000000000E+00 0.  1.
</event>
<event>
 7    1  0.2788485E-009  0.1519170E+03  0.7561462E-02  0.1198137E+00
         -1   -1    0    0    0  501 -0.00000000000E+00  0.00000000000E+00  0.20046607100E+03  0.20046607100E+03  0.00000000000E+00 0.  1.
          1   -1    0    0  501    0  0.00000000000E+00 -0.00000000000E+00 -0.14668588051E+03  0.14668588051E+03  0.00000000000E+00 0. -1.
         25    2    1    2    0    0 -0.41590793763E+02  0.12480782792E+03  0.60316483869E+02  0.19129123708E+03  0.12508985219E+03 0.  0.
          5    1    3    3  502    0  0.33821670295E+02  0.52253420125E+02 -0.12642501073E+02  0.63652419669E+02  0.41800000000E+01 0. -1.
         -5    1    3    3    0  502 -0.75412464058E+02  0.72554407798E+02  0.72958984942E+02  0.12763881741E+03  0.41800000000E+01 0. -1.
        -11    1    1    2    0    0 -0.37451322275E+01 -0.43209730123E+02 -0.37682508955E+02  0.57455010868E+02  0.00000000000E+00 0. -1.
         11    1    1    2    0    0  0.45335925990E+02 -0.81598097800E+02  0.31146215571E+02  0.98405703567E+02  0.00000000000E+00 0.  1.
</event>
<event>
 7    1  0.3657765E-009  0.1040150E+03  0.7561462E-02  0.1272073E+00
         -2   -1    0    0    0  501 -0.00000000000E+00  0.00000000000E+00  0.63422683352E+02  0.63422683352E+02  0.00000000000E+00 0. -1.
          2   -1    0    0  501    0  0.00000000000E+00 -0.00000000000E+00 -0.32269865949E+03  0.32269865949E+03  0.00000000000E+00 0.  1.
         25    2    1    2    0    0 -0.86726462425E+02  0.88171380070E+01 -0.18485368210E+03  0.23962067413E+03  0.12509181620E+03 0.  0.
          5    1    3    3  502    0 -0.61993733511E+02 -0.33482120958E+02 -0.29199955957E+02  0.76383147659E+02  0.41800000000E+01 0.  1.
         -5    1    3    3    0  502 -0.24732728914E+02  0.42299258965E+02 -0.15565372614E+03  0.16323752647E+03  0.41800000000E+01 0.  1.
        -11    1    1    2    0    0  0.29956780352E+02  0.35608823379E+01 -0.82496016034E+02  0.87838950549E+02  0.00000000000E+00 0.  1.
         11    1    1    2    0    0  0.56769682073E+02 -0.12378020345E+02  0.80737219947E+01  0.58661718157E+02  0.00000000000E+00 0. -1.
</event>
<event>
 7    1  0.2788485E-009  0.9379826E+02  0.7561462E-02  0.1293906E+00
         -1   -1    0    0    0  501 -0.00000000000E+00  0.00000000000E+00  0.73239196098E+03  0.73239196098E+03  0.00000000000E+00 0.  1.
          1   -1    0    0  501    0  0.00000000000E+00 -0.00000000000E+00 -0.19010586380E+02  0.19010586380E+02  0.00000000000E+00 0. -1.
         25    2    1    2    0    0 -0.39002897913E+02 -0.32274213381E+01  0.48154034738E+03  0.49905995125E+03  0.12509231190E+03 0.  0.
          5    1    3    3  502    0  0.31182635984E+02  0.16189351292E+02  0.49154327709E+02  0.60564611901E+02  0.41800000000E+01 0. -1.
         -5    1    3    3    0  502 -0.70185533896E+02 -0.19416772630E+02  0.43238601967E+03  0.43849533935E+03  0.41800000000E+01 0. -1.
        -11    1    1    2    0    0  0.15594857199E+02 -0.32794033697E+02  0.18602692164E+03  0.18953802730E+03  0.00000000000E+00 0.  1.
         11    1    1    2    0    0  0.23408040713E+02  0.36021455035E+02  0.45814105575E+02  0.62804568803E+02  0.00000000000E+00 0. -1.
</event>
<event>
 7    1  0.2788485E-009  0.6444203E+02  0.7561462E-02  0.1380083E+00
          2   -1    0    0  501    0  0.00000000000E+00  0.00000000000E+00  0.34248925102E+03  0.34248925102E+03  0.00000000000E+00 0. -1.
         -2   -1    0    0    0  501 -0.00000000000E+00 -0.00000000000E+00 -0.20827108852E+02  0.20827108852E+02  0.00000000000E+00 0.  1.
         25    2    1    2    0    0 -0.10126375418E+02  0.15180017783E+02  0.22640974292E+03  0.25930850121E+03  0.12508617306E+03 0.  0.
          5    1    3    3  502    0 -0.12632240588E+02  0.51147007609E+02  0.21479285120E+03  0.22119907599E+03  0.41800000000E+01 0. -1.
         -5    1    3    3    0  502  0.25058651694E+01 -0.35966989826E+02  0.11616891716E+02  0.38109425219E+02  0.41800000000E+01 0. -1.
        -11    1    1    2    0    0  0.40789223628E+00 -0.25534696531E+02  0.44512244924E+02  0.51317901858E+02  0.00000000000E+00 0.  1.
         11    1    1    2    0    0  0.97184831821E+01  0.10354678748E+02  0.50740154330E+02  0.52689956811E+02  0.00000000000E+00 0. -1.
</event>
<event>
 7    1  0.2788485E-009  0.9278567E+02  0.7561462E-02  0.1296243E+00
         -2   -1    0    0    0  501 -0.00000000000E+00  0.00000000000E+00  0.16629848808E+03  0.16629848808E+03  0.00000000000E+00 0.  1.
          2   -1    0    0  501    0  0.00000000000E+00 -0.00000000000E+00 -0.85566968173E+02  0.85566968173E+02  0.00000000000E+00 0. -1.
         25    2    1    2    0    0  0.11155087199E+02  0.86529187953E+01 -0.62054291380E+01  0.12603640099E+03  0.12508940023E+03 0.  0.
          5    1    3    3  502    0 -0.44007820995E+02  0.22212649347E-01 -0.40853417347E+02  0.60192714767E+02  0.41800000000E+01 0. -1.
         -5    1    3    3    0  502  0.55162908194E+02  0.86307061460E+01  0.34647988209E+02  0.65843686227E+02  0.41800000000E+01 0. -1.
        -11    1    1    2    0    0  0.19342365282E+02  0.30273211356E+02  0.15926659157E+02  0.39296983248E+02  0.00000000000E+00 0. -1.
         11    1    1    2    0    0 -0.30497452481E+02 -0.38926130152E+02  0.71010289893E+02  0.86532072015E+02  0.00000000000E+00 0.  1.
</event>
<event>
 7    1  0.2788485E-009  0.1082018E+03  0.7561462E-02  0.1263937E+00
          1   -1    0    0  501    0  0.00000000000E+00  0.00000000000E+00  0.71841011702E+03  0.71841011702E+03  0.00000000000E+00 0. -1.
         -1   -1    0    0    0  501 -0.00000000000E+00 -0.00000000000E+00 -0.16852499358E+02  0.16852499358E+02  0.00000000000E+00 0.  1.
         25    2    1    2    0    0  0.10827932863E+01 -0.16800677125E+02  0.42597064745E+03  0.44427622768E+03  0.12508772444E+03 0.  0.
          5    1    3    3  502    0 -0.29025283780E+02  0.46757958967E+02  0.16642668776E+03  0.17533992307E+03  0.41800000000E+01 0.  1.
         -5    1    3    3    0  502  0.30108077066E+02 -0.63558636093E+02  0.25954395969E+03  0.26893630461E+03  0.41800000000E+01 0.  1.
        -11    1    1    2    0    0  0.43856868708E+02  0.12549781094E+02  0.10406851640E+03  0.11362736485E+03  0.00000000000E+00 0. -1.
         11    1    1    2    0    0 -0.44939661995E+02  0.42508960313E+01  0.17151845382E+03  0.17735902384E+03  0.00000000000E+00 0.  1.
</event>
<event>
 7    1  0.2788485E-009  0.9960187E+02  0.7561462E-02  0.1281135E+00
         -1   -1    0    0    0  501 -0.00000000000E+00  0.00000000000E+00  0.34026227397E+03  0.34026227397E+03  0.00000000000E+00 0.  1.
          1   -1    0    0  501    0  0.00000000000E+00 -0.00000000000E+00 -0.54133046939E+02  0.54133046939E+02  0.00000000000E+00 0. -1.
         25    2    1    2    0    0  0.45635341810E+02 -0.64668914318E+01  0.25466798536E+03  0.28745211239E+03  0.12509408076E+03 0.  0.
          5    1    3    3  502    0  0.78584651463E+02  0.29560158682E+02  0.15227393374E+03  0.17393726951E+03  0.41800000000E+01 0. -1.
         -5    1    3    3    0  502 -0.32949309653E+02 -0.36027050114E+02  0.10239405162E+03  0.11351484288E+03  0.41800000000E+01 0. -1.
        -11    1    1    2    0    0  0.78330649747E+01 -0.75331898837E+01  0.48028519293E+02  0.49242710345E+02  0.00000000000E+00 0.  1.
         11    1    1    2    0    0 -0.53468406785E+02  0.14000081316E+02 -0.16567277631E+02  0.57700498170E+02  0.00000000000E+00 0. -1.
</event>
<event>
 7    1  0.2788485E-009  0.1103286E+03  0.7561462E-02  0.1259963E+00
          2   -1    0    0  501    0  0.00000000000E+00  0.00000000000E+00  0.75795086104E+02  0.75795086104E+02  0.00000000000E+00 0. -1.
         -2   -1    0    0    0  501 -0.00000000000E+00 -0.00000000000E+00 -0.26876229226E+03  0.26876229226E+03  0.00000000000E+00 0.  1.
         25    2    1    2    0    0  0.66716049482E+02  0.39985236906E+02 -0.35594826006E+02  0.15154030832E+03  0.12509045918E+03 0.  0.
          5    1    3    3  502    0 -0.25885076931E+02  0.33191358612E+02  0.16014648196E+02  0.45228805545E+02  0.41800000000E+01 0.  1.
         -5    1    3    3    0  502  0.92601126412E+02  0.67938782942E+01 -0.51609474202E+02  0.10631150278E+03  0.41800000000E+01 0.  1.
        -11    1    1    2    0    0 -0.44697115177E+02 -0.44350952029E+02 -0.42489857353E+02  0.75962010432E+02  0.00000000000E+00 0. -1.
         11    1    1    2    0    0 -0.22018934305E+02  0.43657151227E+01 -0.11488252280E+03  0.11705505961E+03  0.00000000000E+00 0.  1.
</event>
<event>
 7    1  0.2788485E-009  0.6901210E+02  0.7561462E-02  0.1363485E+00
          2   -1    0    0  501    0  0.00000000000E+00  0.00000000000E+00  0.50401147633E+03  0.50401147633E+03  0.00000000000E+00 0. -1.
         -2   -1    0    0    0  501 -0.00000000000E+00 -0.00000000000E+00 -0.24337992017E+02  0.24337992017E+02  0.00000000000E+00 0.  1.
         25    2    1    2    0    0 -0.36482842231E+00  0.12864086198E+02  0.22079263532E+03  0.25408558645E+03  0.12507789420E+03 0.  0.
          5    1    3    3  502    0 -0.29198768883E+02  0.10165127707E+02 -0.16468126229E+00  0.31199318030E+02  0.41800000000E+01 0. -1.
         -5    1    3    3    0  502  0.28833940461E+02  0.26989584915E+01  0.22095731658E+03  0.22288626842E+03  0.41800000000E+01 0. -1.
        -11    1    1    2    0    0  0.30764137067E+02  0.16832575436E+02  0.19088916364E+03  0.19408359158E+03  0.00000000000E+00 0. -1.
         11    1    1    2    0    0 -0.30399308645E+02 -0.29696661634E+02  0.67991685357E+02  0.80180290321E+02  0.00000000000E+00 0.  1.
</event>
<event>
 7    1  0.2788485E-009  0.7967732E+02  0.7561462E-02  0.1329970E+00
          1   -1    0    0  501    0  0.00000000000E+00  0.00000000000E+00  0.92237847034E+02  0.92237847034E+02  0.00000000000E+00 0. -1.
         -1   -1    0    0    0  501 -0.00000000000E+00 -0.00000000000E+00 -0.13456121606E+03  0.13456121606E+03  0.00000000000E+00 0.  1.
         25    2    1    2    0    0 -0.18101631084E+02 -0.14738206046E+02 -0.64940260040E+02  0.14286485939E+03  0.12509295307E+03 0.  0.
          5    1    3    3  502    0  0.27900560554E+01 -0.68577077202E+02 -0.28382863633E+02  0.74388569541E+02  0.41800000000E+01 0. -1.
         -5    1    3    3    0  502 -0.20891687139E+02  0.53838871156E+02 -0.36557396407E+02  0.68476289845E+02  0.41800000000E+01 0. -1.
        -11    1    1    2    0    0  0.18262026719E+02  0.31141047304E+00 -0.26812412442E+02  0.32442318927E+02  0.00000000000E+00 0.  1.
         11    1    1    2    0    0 -0.16039563518E+00  0.14426795573E+02  0.49429303460E+02  0.51491884777E+02  0.00000000000E+00 0. -1.
</event>
<event>
 7    1  0.2788485E-009  0.3198510E+03  0.7561462E-02  0.1075718E+00
          1   -1    0    0  501    0  0.00000000000E+00  0.00000000000E+00  0.93161895413E+03  0.93161895413E+03  0.00000000000E+00 0. -1.
         -1   -1    0    0    0  501 -0.00000000000E+00 -0.00000000000E+00 -0.13717906657E+03  0.13717906657E+03  0.00000000000E+00 0.  1.
         25    2    1    2    0    0 -0.98775981333E+01 -0.30721881495E+03  0.62165441129E+03  0.70468606332E+03  0.12508906250E+03 0.  0.
          5    1    3    3  502    0  0.55427886139E+02 -0.17563845793E+03  0.36801316256E+03  0.41154863465E+03  0.41800000000E+01 0. -1.
         -5    1    3    3    0  502 -0.65305484273E+02 -0.13158035702E+03  0.25364124873E+03  0.29313742867E+03  0.41800000000E+01 0. -1.
        -11    1    1    2    0    0  0.19075739255E+02  0.19725957953E+03  0.61760715941E+02  0.20758037378E+03  0.00000000000E+00 0. -1.
         11    1    1    2    0    0 -0.91981411217E+01  0.10995923542E+03  0.11102476033E+03  0.15653158359E+03  0.00000000000E+00 0.  1.
</event>
<event>
 7    1  0.2788485E-009  0.1328755E+03  0.7561462E-02  0.1223250E+00
         -2   -1    0    0    0  501 -0.00000000000E+00  0.00000000000E+00  0.87272378198E+02  0.87272378198E+02  0.00000000000E+00 0.  1.
          2   -1    0    0  501    0  0.00000000000E+00 -0.00000000000E+00 -0.34024615293E+03  0.34024615293E+03  0.00000000000E+00 0. -1.
         25    2    1    2    0    0  0.74075239795E+02  0.56984374479E+02 -0.25253121560E+03  0.29690653113E+03  0.12508842187E+03 0.  0.
          5    1    3    3  502    0  0.80198899925E+02  0.86830594941E+02 -0.15711736301E+03  0.19665897876E+03  0.41800000000E+01 0.  1.
         -5    1    3    3    0  502 -0.61236601293E+01 -0.29846220462E+02 -0.95413852591E+02  0.10024755237E+03  0.41800000000E+01 0.  1.
        -11    1    1    2    0    0  0.37613852680E+01 -0.35879260808E+02 -0.27699415693E+02  0.45483260712E+02  0.00000000000E+00 0. -1.
         11    1    1    2    0    0 -0.77836625063E+02 -0.21105113671E+02  0.27256856559E+02  0.85128739294E+02  0.00000000000E+00 0.  1.
</event>
<event>
 7    1  0.2788485E-009  0.9812979E+02  0.7561462E-02  0.1284279E+00
          1   -1    0    0  501    0  0.00000000000E+00  0.00000000000E+00  0.49990334488E+03  0.49990334488E+03  0.00000000000E+00 0. -1.
         -1   -1    0    0    0  501 -0.00000000000E+00 -0.00000000000E+00 -0.26934981018E+02  0.26934981018E+02  0.00000000000E+00 0.  1.
         25    2    1    2    0    0 -0.23617806063E+02  0.95314053134E+01  0.18334516772E+03  0.22341010979E+03  0.12509187896E+03 0.  0.
          5    1    3    3  502    0 -0.59627137459E+02  0.36874287392E+02  0.61406676359E+02  0.93291805073E+02  0.41800000000E+01 0.  1.
         -5    1    3    3    0  502  0.36009331396E+02 -0.27342882079E+02  0.12193849136E+03  0.13011830472E+03  0.41800000000E+01 0.  1.
        -11    1    1    2    0    0  0.51394106917E+02 -0.11866171243E+02  0.24650269116E+03  0.25208279790E+03  0.00000000000E+00 0. -1.
         11    1    1    2    0    0 -0.27776300853E+02  0.23347659294E+01  0.43120504981E+02  0.51345418207E+02  0.00000000000E+00 0.  1.
</event>
<event>
 7    1  0.2974747E-009  0.1165641E+03  0.7561462E-02  0.1248875E+00
          1   -1    0    0  501    0  0.00000000000E+00  0.00000000000E+00  0.37815336834E+03  0.37815336834E+03  0.00000000000E+00 0. -1.
         -1   -1    0    0    0  501 -0.00000000000E+00 -0.00000000000E+00 -0.47787197958E+02  0.47787197958E+02  0.00000000000E+00 0.  1.
         25    2    1    2    0    0 -0.79022573248E+02  0.29680875305E+01  0.17423550868E+03  0.22860123156E+03  0.12508850450E+03 0.  0.
          5    1    3    3  502    0 -0.11264504686E+03  0.46719700389E+01  0.12065522535E+03  0.16518441116E+03  0.41800000000E+01 0.  1.
         -5    1    3    3    0  502  0.33622473613E+02 -0.17038825084E+01  0.53580283333E+02  0.63416820399E+02  0.41800000000E+01 0.  1.
        -11    1    1    2    0    0  0.76415754900E+01 -0.12214007175E+02 -0.91490804118E+01  0.17066965741E+02  0.00000000000E+00 0.  1.
         11    1    1    2    0    0  0.71380997758E+02  0.92459196444E+01  0.16527974211E+03  0.18027236900E+03  0.00000000000E+00 0. -1.
</event>
<event>
 7    1  0.2788485E-009  0.1680217E+03  0.7561462E-02  0.1179927E+00
         -2   -1    0    0    0  501 -0.00000000000E+00  0.00000000000E+00  0.34711145735E+02  0.34711145735E+02  0.00000000000E+00 0.  1.
          2   -1    0    0  501    0  0.00000000000E+00 -0.00000000000E+00 -0.10086422628E+04  0.10086422628E+04  0.00000000000E+00 0. -1.
         25    2    1    2    0    0  0.13827986981E+03 -0.25902473274E+02 -0.67219414357E+03  0.69805796734E+03  0.12509076143E+03 0.  0.
          5    1    3    3  502    0  0.16870397619E+01  0.35373355538E+02 -0.87489261068E+02  0.94477317846E+02  0.41800000000E+01 0.  1.
         -5    1    3    3    0  502  0.13659283005E+03 -0.61275828812E+02 -0.58470488250E+03  0.60358064949E+03  0.41800000000E+01 0.  1.
        -11    1    1    2    0    0 -0.87733688723E+02  0.42407592497E+02 -0.11300954399E+03  0.14922051156E+03  0.00000000000E+00 0.  1.
         11    1    1    2    0    0 -0.50546181090E+02 -0.16505119223E+02 -0.18872742946E+03  0.19607492959E+03  0.00000000000E+00 0. -1.
</event>
<event>
 7    1  0.2788485E-009  0.1283891E+03  0.7561462E-02  0.1229866E+00
          2   -1    0    0  501    0  0.00000000000E+00  0.00000000000E+00  0.12647650314E+03  0.12647650314E+03  0.00000000000E+00 0.  1.
         -2   -1    0    0    0  501 -0.00000000000E+00 -0.00000000000E+00 -0.14643429364E+03  0.14643429364E+03  0.00000000000E+00 0. -1.
         25    2    1    2    0    0  0.72646251877E+02 -0.31089463968E+02 -0.34682712606E+02  0.15197111842E+03  0.12509315568E+03 0.  0.
          5    1    3    3  502    0 -0.57070333405E+01 -0.54520319867E+02 -0.42811506785E+02  0.69680219727E+02  0.41800000000E+01 0.  1.
         -5    1    3    3    0  502  0.78353285217E+02  0.23430855900E+02  0.81287941785E+01  0.82290898690E+02  0.41800000000E+01 0.  1.
        -11    1    1    2    0    0  0.13482016973E+02 -0.16661431640E+02  0.47783496699E+01  0.21959069004E+02  0.00000000000E+00 0. -1.
         11    1    1    2    0    0 -0.86128268850E+02  0.47750895608E+02  0.99465724426E+01  0.98980609362E+02  0.00000000000E+00 0.  1.
</event>
<event>
 7    1  0.2788485E-009  0.9689979E+02  0.7561462E-02  0.1286954E+00
         -2   -1    0    0    0  501 -0.00000000000E+00  0.00000000000E+00  0.37431984750E+02  0.37431984750E+02  0.00000000000E+00 0.  1.
          2   -1    0    0  501    0  0.00000000000E+00 -0.00000000000E+00 -0.43386671552E+03  0.43386671552E+03  0.00000000000E+00 0. -1.
         25    2    1    2    0    0  0.16863993394E+02  0.44968367765E+02 -0.21426072539E+03  0.25270879511E+03  0.12509008076E+03 0.  0.
          5    1    3    3  502    0  0.48294045561E+02  0.16333393796E+01 -0.22306413406E+02  0.53385682661E+02  0.41800000000E+01 0. -1.
         -5    1    3    3    0  502 -0.31430052167E+02  0.43335028385E+02 -0.19195431199E+03  0.19932311245E+03  0.41800000000E+01 0. -1.
        -11    1    1    2    0    0  0.20227454147E+02 -0.50219702889E+02 -0.30048815811E+02  0.61920108133E+02  0.00000000000E+00 0.  1.
         11    1    1    2    0    0 -0.37091447541E+02  0.52513351245E+01 -0.15212518956E+03  0.15666979703E+03  0.00000000000E+00 0. -1.
</event>
<event>
 7    1  0.2788485E-009  0.8639870E+02  0.7561462E-02  0.1311815E+00
         -3   -1    0    0    0  501 -0.00000000000E+00  0.00000000000E+00  0.21556227236E+03  0.21556227236E+03  0.00000000000E+00 0.  1.
          3   -1    0    0  501    0  0.00000000000E+00 -0.00000000000E+00 -0.68253165527E+02  0.68253165527E+02  0.00000000000E+00 0. -1.
         25    2    1    2    0    0  0.27336025610E+02 -0.31621503112E+02  0.12332484186E+03  0.18056363416E+03  0.12508809539E+03 0.  0.
          5    1    3    3  502    0  0.41783573335E+02 -0.73622601672E+02  0.63348177161E+02  0.10581407481E+03  0.41800000000E+01 0. -1.
         -5    1    3    3    0  502 -0.14447547726E+02  0.42001098560E+02  0.59976664700E+02  0.74749559357E+02  0.41800000000E+01 0. -1.
        -11    1    1    2    0    0 -0.15567254689E+02  0.26188658943E+02 -0.32940790856E+02  0.44869599709E+02  0.00000000000E+00 0. -1.
         11    1    1    2    0    0 -0.11768770920E+02  0.54328441684E+01  0.56925055830E+02  0.58382204018E+02  0.00000000000E+00 0.  1.
</event>
<event>
 7    1  0.2788485E-009  0.5096232E+03  0.7561462E-02  0.1011297E+00
          1   -1    0    0  501    0  0.00000000000E+00  0.00000000000E+00  0.10209298642E+04  0.10209298642E+04  0.00000000000E+00 0. -1.
         -1   -1    0    0    0  501 -0.00000000000E+00 -0.00000000000E+00 -0.25802524115E+03  0.25802524115E+03  0.00000000000E+00 0.  1.
         25    2    1    2    0    0 -0.16047607807E+03  0.47313015088E+03  0.32788031412E+03  0.61053834983E+03  0.12508742914E+03 0.  0.
          5    1    3    3  502    0 -0.58420233214E+02  0.34722150400E+03  0.20881878686E+03  0.40938790240E+03  0.41800000000E+01 0.  1.
         -5    1    3    3    0  502 -0.10205584486E+03  0.12590864687E+03  0.11906152726E+03  0.20115044743E+03  0.41800000000E+01 0.  1.
        -11    1    1    2    0    0  0.88493122229E+01 -0.12450955299E+03  0.13717068795E+03  0.18546357255E+03  0.00000000000E+00 0. -1.
         11    1    1    2    0    0  0.15162676585E+03 -0.34862059788E+03  0.29785362099E+03  0.48295318295E+03  0.00000000000E+00 0.  1.
</event>
<event>
 7    1  0.2788485E-009  0.1127559E+03  0.7561462E-02  0.1255550E+00
         -2   -1    0    0    0  501 -0.00000000000E+00  0.00000000000E+00  0.41252959804E+02  0.41252959804E+02  0.00000000000E+00 0.  1.
          2   -1    0    0  501    0  0.00000000000E+00 -0.00000000000E+00 -0.44478564524E+03  0.44478564524E+03  0.00000000000E+00 0. -1.
         25    2    1    2    0    0  0.75276920415E+02  0.25343432848E+02 -0.24252939225E+03  0.28421242492E+03  0.12508913637E+03 0.  0.
          5    1    3    3  502    0  0.83380336484E+02 -0.25712670915E+02 -0.10131145134E+03  0.13377183759E+03  0.41800000000E+01 0. -1.
         -5    1    3    3    0  502 -0.81034160692E+01  0.51056103762E+02 -0.14121794091E+03  0.15044058733E+03  0.41800000000E+01 0. -1.
        -11    1    1    2    0    0 -0.78632949663E+01 -0.16530687838E+02  0.77604229714E+01  0.19882635963E+02  0.00000000000E+00 0.  1.
         11    1    1    2    0    0 -0.67413625449E+02 -0.88127450095E+01 -0.16876371616E+03  0.18194354416E+03  0.00000000000E+00 0. -1.
</event>
<event>
 7    1  0.2788485E-009  0.1482797E+03  0.7561462E-02  0.1202603E+00
         -2   -1    0    0    0  501 -0.00000000000E+00  0.00000000000E+00  0.17659963915E+02  0.17659963915E+02  0.00000000000E+00 0.  1.
          2   -1    0    0  501    0  0.00000000000E+00 -0.00000000000E+00 -0.15962332285E+04  0.15962332285E+04  0.00000000000E+00 0. -1.
         25    2    1    2    0    0 -0.10175047825E+03  0.48857860976E+02 -0.11368054006E+04  0.11492235659E+04  0.12509210732E+03 0.  0.
          5    1    3    3  502    0 -0.86970851069E+02  0.89581892956E+02 -0.85374375553E+03  0.86283527802E+03  0.41800000000E+01 0. -1.
         -5    1    3    3    0  502 -0.14779627176E+02 -0.40724031980E+02 -0.28306164502E+03  0.28638828789E+03  0.41800000000E+01 0. -1.
        -11    1    1    2    0    0  0.11403499457E-01  0.10381107409E+02 -0.36412084119E+01  0.11001178109E+02  0.00000000000E+00 0.  1.
         11    1    1    2    0    0  0.10173907475E+03 -0.59238968385E+02 -0.43812665560E+03  0.45366844838E+03  0.00000000000E+00 0. -1.
</event>
<event>
 7    1  0.2788485E-009  0.1361676E+03  0.7561462E-02  0.1218581E+00
          1   -1    0    0  501    0  0.00000000000E+00  0.00000000000E+00  0.33788564573E+03  0.33788564573E+03  0.00000000000E+00 0. -1.
         -1   -1    0    0    0  501 -0.00000000000E+00 -0.00000000000E+00 -0.57843876102E+02  0.57843876102E+02  0.00000000000E+00 0.  1.
         25    2    1    2    0    0  0.55008219625E+02 -0.65387689142E+02  0.14079528668E+03  0.20681437201E+03  0.12508963827E+03 0.  0.
          5    1    3    3  502    0 -0.36826614692E+02 -0.20730922881E+02  0.72078812025E+02  0.83658820552E+02  0.41800000000E+01 0.  1.
         -5    1    3    3    0  502  0.91834834317E+02 -0.44656766261E+02  0.68716474653E+02  0.12315555146E+03  0.41800000000E+01 0.  1.
        -11    1    1    2    0    0 -0.25940774618E+02 -0.22970466012E+02  0.37202077270E+02  0.50838574427E+02  0.00000000000E+00 0.  1.
         11    1    1    2    0    0 -0.29067445007E+02  0.88358155154E+02  0.10204440568E+03  0.13807657539E+03  0.00000000000E+00 0. -1.
</event>
<event>
 7    1  0.2788485E-009  0.9039228E+02  0.7561462E-02  0.1301905E+00
          2   -1    0    0  501    0  0.00000000000E+00  0.00000000000E+00  0.51676164107E+02  0.51676164107E+02  0.00000000000E+00 0. -1.
         -2   -1    0    0    0  501 -0.00000000000E+00 -0.00000000000E+00 -0.33399499445E+03  0.33399499445E+03  0.00000000000E+00 0.  1.
         25    2    1    2    0    0 -0.51027384021E+02 -0.51579404853E+02 -0.18050060221E+03  0.23128595004E+03  0.12509394215E+03 0.  0.
          5    1    3    3  502    0  0.60853349587E+01 -0.24552958301E+02 -0.16380485192E+03  0.16579921886E+03  0.41800000000E+01 0. -1.
         -5    1    3    3    0  502 -0.57112718979E+02 -0.27026446553E+02 -0.16695750284E+02  0.65486731175E+02  0.41800000000E+01 0. -1.
        -11    1    1    2    0    0  0.38410050288E+01 -0.12026714659E+02 -0.66467524171E+02  0.67655945448E+02  0.00000000000E+00 0.  1.
         11    1    1    2    0    0  0.47186378992E+02  0.63606119513E+02 -0.35350703967E+02  0.86729263071E+02  0.00000000000E+00 0. -1.
</event>
<event>
 7    1  0.2788485E-009  0.1012142E+03  0.7561462E-02  0.1277763E+00
         -2   -1    0    0    0  501 -0.00000000000E+00  0.00000000000E+00  0.44162666370E+03  0.44162666370E+03  0.00000000000E+00 0. -1.
          2   -1    0    0  501    0  0.00000000000E+00 -0.00000000000E+00 -0.32535116991E+02  0.32535116991E+02  0.00000000000E+00 0.  1.
         25    2    1    2    0    0  0.30907589010E+02  0.27286569710E+02  0.29075083005E+03  0.31919334097E+03  0.12509399585E+03 0.  0.
          5    1    3    3  502    0 -0.48478527823E+02  0.16986743500E+02  0.11149015750E+03  0.12282607514E+03  0.41800000000E+01 0. -1.
         -5    1    3    3    0  502  0.79386116833E+02  0.10299826209E+02  0.17926067255E+03  0.19636726583E+03  0.41800000000E+01 0. -1.
        -11    1    1    2    0    0  0.16213537932E+02  0.12781702860E+00 -0.74716811176E+01  0.17852763601E+02  0.00000000000E+00 0.  1.
         11    1    1    2    0    0 -0.47121126942E+02 -0.27414386738E+02  0.12581239777E+03  0.13711567612E+03  0.00000000000E+00 0. -1.
</event>
<event>
 7    1  0.2788485E-009  0.1089551E+03  0.7561462E-02  0.1262517E+00
         -2   -1    0    0    0  501 -0.00000000000E+00  0.00000000000E+00  0.37403695098E+03  0.37403695098E+03  0.00000000000E+00 0.  1.
          2   -1    0    0  501    0  0.00000000000E+00 -0.00000000000E+00 -0.35420131737E+02  0.35420131737E+02  0.00000000000E+00 0. -1.
         25    2    1    2    0    0  0.16668788499E+02 -0.40970563266E+01  0.25503636717E+03  0.28457818527E+03  0.12508621256E+03 0.  0.
          5    1    3    3  502    0 -0.37112096254E+02 -0.44830929399E+02  0.10819447920E+03  0.12292533363E+03  0.41800000000E+01 0.  1.
         -5    1    3    3    0  502  0.53780884753E+02  0.40733873072E+02  0.14684188797E+03  0.16165285164E+03  0.41800000000E+01 0.  1.
        -11    1    1    2    0    0 -0.44991953530E+02 -0.24907691558E+02  0.38430651684E+02  0.64199563629E+02  0.00000000000E+00 0.  1.
         11    1    1    2    0    0  0.28323165032E+02  0.29004747885E+02  0.45149800383E+02  0.60679333812E+02  0.00000000000E+00 0. -1.
</event>
<event>
 7    1  0.2788485E-009  0.1126369E+03  0.7561462E-02  0.1255763E+00
          1   -1    0    0  501    0  0.00000000000E+00  0.00000000000E+00  0.58591904172E+03  0.58591904172E+03  0.00000000000E+00 0. -1.
         -1   -1    0    0    0  501 -0.00000000000E+00 -0.00000000000E+00 -0.24200332680E+02  0.24200332680E+02  0.00000000000E+00 0.  1.
         25    2    1    2    0    0 -0.28436262851E+01 -0.20585167205E+02  0.23026272320E+03  0.26287556266E+03  0.12510317513E+03 0.  0.
          5    1    3    3  502    0 -0.30960683215E+02  0.43372234058E+02  0.13038053956E+03  0.14091228508E+03  0.41800000000E+01 0.  1.
         -5    1    3    3    0  502  0.28117056930E+02 -0.63957401263E+02  0.99882183644E+02  0.12196327757E+03  0.41800000000E+01 0.  1.
        -11    1    1    2    0    0 -0.30466207521E+02  0.49232706229E+02  0.21861473730E+03  0.22615139294E+03  0.00000000000E+00 0.  1.
         11    1    1    2    0    0  0.33309833806E+02 -0.28647539024E+02  0.11284124853E+03  0.12109241880E+03  0.00000000000E+00 0. -1.
</event>
<event>
 7    1  0.2788485E-009  0.2297062E+03  0.7561462E-02  0.1126847E+00
         -2   -1    0    0    0  501 -0.00000000000E+00  0.00000000000E+00  0.14070269662E+03  0.14070269662E+03  0.00000000000E+00 0. -1.
          2   -1    0    0  501    0  0.00000000000E+00 -0.00000000000E+00 -0.10308476628E+04  0.10308476628E+04  0.00000000000E+00 0.  1.
         25    2    1    2    0    0  0.21464228698E+03  0.45701953012E+02 -0.89928383475E+03  0.93408733371E+03  0.12509097358E+03 0.  0.
          5    1    3    3  502    0  0.12692151964E+03  0.59268246573E+02 -0.33938062780E+03  0.36717636107E+03  0.41800000000E+01 0. -1.
         -5    1    3    3    0  502  0.87720767343E+02 -0.13566293561E+02 -0.55990320695E+03  0.56691097264E+03  0.41800000000E+01 0. -1.
        -11    1    1    2    0    0 -0.19619407435E+03 -0.62037961781E+02 -0.10375629425E+02  0.20603028224E+03  0.00000000000E+00 0.  1.
         11    1    1    2    0    0 -0.18448212628E+02  0.16336008769E+02  0.19514497986E+02  0.31432743490E+02  0.00000000000E+00 0. -1.
</event>
<event>
 7    1  0.2788485E-009  0.8554406E+02  0.7561462E-02  0.1314016E+00
          1   -1    0    0  501    0  0.00000000000E+00  0.00000000000E+00  0.27420228300E+02  0.27420228300E+02  0.00000000000E+00 0. -1.
         -1   -1    0    0    0  501 -0.00000000000E+00 -0.00000000000E+00 -0.85480365849E+03  0.85480365849E+03  0.00000000000E+00 0.  1.
         25    2    1    2    0    0  0.67220165223E+02 -0.62455096695E+01 -0.68691670400E+03  0.70146923514E+03  0.12508785952E+03 0.  0.
          5    1    3    3  502    0  0.62500658897E+02 -0.11445409350E+02 -0.68985289784E+03  0.69278555326E+03  0.41800000000E+01 0.  1.
         -5    1    3    3    0  502  0.47195063253E+01  0.51998996804E+01  0.29361938328E+01  0.86836818726E+01  0.41800000000E+01 0.  1.
        -11    1    1    2    0    0  0.83589905085E+00  0.27829323234E+02 -0.87593083839E+02  0.91911469879E+02  0.00000000000E+00 0.  1.
         11    1    1    2    0    0 -0.68056064273E+02 -0.21583813565E+02 -0.52873642345E+02  0.88843181771E+02  0.00000000000E+00 0. -1.
</event>
<event>
 7    1  0.2788485E-009  0.1988446E+03  0.7561462E-02  0.1150718E+00
          1   -1    0    0  501    0  0.00000000000E+00  0.00000000000E+00  0.71195077412E+03  0.71195077412E+03  0.00000000000E+00 0. -1.
         -1   -1    0    0    0  501 -0.00000000000E+00 -0.00000000000E+00 -0.96515517560E+02  0.96515517560E+02  0.00000000000E+00 0.  1.
         25    2    1    2    0    0  0.13936648239E+03 -0.10997086136E+03  0.70979089927E+02  0.22848012338E+03  0.12509407983E+03 0.  0.
          5    1    3    3  502    0  0.59871109724E+02 -0.10246855211E+03  0.86646706323E+02  0.14700162607E+03  0.41800000000E+01 0.  1.
         -5    1    3    3    0  502  0.79495372668E+02 -0.75023092488E+01 -0.15667616397E+02  0.81478497306E+02  0.41800000000E+01 0.  1.
        -11    1    1    2    0    0 -0.74233546776E+02  0.11135747530E+03  0.33956103948E+03  0.36498329593E+03  0.00000000000E+00 0. -1.
         11    1    1    2    0    0 -0.65132935616E+02 -0.13866139461E+01  0.20489512715E+03  0.21500287238E+03  0.00000000000E+00 0.  1.
</event>
<event>
 7    1  0.2788485E-009  0.9077457E+02  0.7561462E-02  0.1300987E+00
          1   -1    0    0  501    0  0.00000000000E+00  0.00000000000E+00  0.60725245227E+02  0.60725245227E+02  0.00000000000E+00 0. -1.
         -1   -1    0    0    0  501 -0.00000000000E+00 -0.00000000000E+00 -0.20281944590E+03  0.20281944590E+03  0.00000000000E+00 0.  1.
         25    2    1    2    0    0 -0.27833111105E+02 -0.16359306032E+02 -0.84027192502E+02  0.15411222913E+03  0.12509077152E+03 0.  0.
          5    1    3    3  502    0  0.22987594433E+02 -0.57489225398E+02 -0.53069815232E+02  0.81653647949E+02  0.41800000000E+01 0. -1.
         -5    1    3    3    0  502 -0.50820705538E+02  0.41129919367E+02 -0.30957377271E+02  0.72458581176E+02  0.41800000000E+01 0. -1.
        -11    1    1    2    0    0  0.36325884015E+02  0.23177200130E+02  0.68299749320E+01  0.43627984286E+02  0.00000000000E+00 0. -1.
         11    1    1    2    0    0 -0.84927729100E+01 -0.68178940980E+01 -0.64896983106E+02  0.65804477719E+02  0.00000000000E+00 0.  1.
</event>
<event>
 7    1  0.2788485E-009  0.1363548E+03  0.7561462E-02  0.1218320E+00
         -3   -1    0    0    0  501 -0.00000000000E+00  0.00000000000E+00  0.25179887111E+03  0.25179887111E+03  0.00000000000E+00 0.  1.
          3   -1    0    0  501    0  0.00000000000E+00 -0.00000000000E+00 -0.13232752328E+03  0.13232752328E+03  0.00000000000E+00 0. -1.
         25    2    1    2    0    0  0.12340105107E+03  0.13417559604E+02 -0.17563640723E+02  0.17709623403E+03  0.12508694704E+03 0.  0.
          5    1    3    3  502    0  0.13428569387E+03  0.55262369651E+01 -0.48630465865E+02  0.14298804665E+03  0.41800000000E+01 0.  1.
         -5    1    3    3    0  502 -0.10884642800E+02  0.78913226393E+01  0.31066825142E+02  0.34108187379E+02  0.41800000000E+01 0.  1.
        -11    1    1    2    0    0 -0.60381497085E+02 -0.50237590356E+01  0.53801423175E+01  0.60828523543E+02  0.00000000000E+00 0. -1.
         11    1    1    2    0    0 -0.63019553990E+02 -0.83938005688E+01  0.13165484623E+03  0.14620163682E+03  0.00000000000E+00 0.  1.
</event>
<event>
 7    1  0.2788485E-009  0.1711039E+03  0.7561462E-02  0.1176702E+00
          3   -1    0    0  501    0  0.00000000000E+00  0.00000000000E+00  0.95497188086E+03  0.95497188086E+03  0.00000000000E+00 0. -1.
         -3   -1    0    0    0  501 -0.00000000000E+00 -0.00000000000E+00 -0.40374257143E+02  0.40374257143E+02  0.00000000000E+00 0.  1.
         25    2    1    2    0    0  0.15692175867E+03  0.37513748163E+01  0.58589914484E+03  0.61932881551E+03  0.12510740444E+03 0.  0.
          5    1    3    3  502    0  0.10166917498E+03  0.16934612832E+02  0.52847472465E+03  0.53844814908E+03  0.41800000000E+01 0. -1.
         -5    1    3    3    0  502  0.55252583687E+02 -0.13183238016E+02  0.57424420189E+02  0.80880666434E+02  0.41800000000E+01 0. -1.
        -11    1    1    2    0    0 -0.12739035524E+03  0.36182278444E+02  0.22606248126E+03  0.26199562080E+03  0.00000000000E+00 0.  1.
         11    1    1    2    0    0 -0.29531403427E+02 -0.39933653261E+02  0.10263599762E+03  0.11402170170E+03  0.00000000000E+00 0. -1.
</event>
<event>
 7    1  0.2788485E-009  0.1181236E+03  0.7561462E-02  0.1246225E+00
          1   -1    0    0  501    0  0.00000000000E+00  0.00000000000E+00  0.36110554211E+02  0.36110554211E+02  0.00000000000E+00 0. -1.
         -1   -1    0    0    0  501 -0.00000000000E+00 -0.00000000000E+00 -0.55659273603E+03  0.55659273603E+03  0.00000000000E+00 0.  1.
         25    2    1    2    0    0 -0.48553620895E+02 -0.37129147538E+02 -0.14423998802E+03  0.20047125140E+03  0.12509005073E+03 0.  0.
          5    1    3    3  502    0  0.38544299904E+02 -0.23962664758E+02 -0.77376438937E+02  0.89802327698E+02  0.41800000000E+01 0.  1.
         -5    1    3    3    0  502 -0.87097920799E+02 -0.13166482780E+02 -0.66863549086E+02  0.11066892370E+03  0.41800000000E+01 0.  1.
        -11    1    1    2    0    0  0.26297508078E+02  0.63052129917E+02 -0.17058817360E+03  0.18375923103E+03  0.00000000000E+00 0. -1.
         11    1    1    2    0    0  0.22256112817E+02 -0.25922982379E+02 -0.20565402020E+03  0.20847280781E+03  0.00000000000E+00 0.  1.
</event>
<event>
 7    1  0.2788485E-009  0.1087542E+03  0.7561462E-02  0.1262894E+00
          1   -1    0    0  501    0  0.00000000000E+00  0.00000000000E+00  0.33686891644E+03  0.33686891644E+03  0.00000000000E+00 0. -1.
         -1   -1    0    0    0  501 -0.00000000000E+00 -0.00000000000E+00 -0.53712965551E+02  0.53712965551E+02  0.00000000000E+00 0.  1.
         25    2    1    2    0    0  0.62709646158E+02 -0.45448736086E+02  0.12914179420E+03  0.19576599589E+03  0.12509450349E+03 0.  0.
          5    1    3    3  502    0 -0.15379762446E+02 -0.10517093954E+02  0.10508139032E+03  0.10680223476E+03  0.41800000000E+01 0. -1.
         -5    1    3    3    0  502  0.78089408605E+02 -0.34931642133E+02  0.24060403879E+02  0.88963761123E+02  0.41800000000E+01 0. -1.
        -11    1    1    2    0    0  0.15510268517E+02  0.28921606249E+02  0.19039267604E+02  0.37941025927E+02  0.00000000000E+00 0.  1.
         11    1    1    2    0    0 -0.78219914676E+02  0.16527129837E+02  0.13497488908E+03  0.15687486017E+03  0.00000000000E+00 0. -1.
</event>
<event>
 7    1  0.2788485E-009  0.1225402E+03  0.7561462E-02  0.1238964E+00
         -2   -1    0    0    0  501 -0.00000000000E+00  0.00000000000E+00  0.10606098912E+03  0.10606098912E+03  0.00000000000E+00 0.  1.
          2   -1    0    0  501    0  0.00000000000E+00 -0.00000000000E+00 -0.27016183360E+03  0.27016183360E+03  0.00000000000E+00 0. -1.
         25    2    1    2    0    0  0.79152278808E+01  0.76168810670E+02 -0.20333954511E+03  0.25071711794E+03  0.12509102314E+03 0.  0.
          5    1    3    3  502    0 -0.46046690203E+02  0.66331309433E+02 -0.16474880623E+03  0.18352052158E+03  0.41800000000E+01 0.  1.
         -5    1    3    3    0  502  0.53961918084E+02  0.98375012367E+01 -0.38590738881E+02  0.67196596352E+02  0.41800000000E+01 0.  1.
        -11    1    1    2    0    0  0.33169317152E+02 -0.17252593214E+02  0.38512288272E+02  0.53675431260E+02  0.00000000000E+00 0.  1.
         11    1    1    2    0    0 -0.41084545033E+02 -0.58916217456E+02  0.72641236278E+00  0.71830273526E+02  0.00000000000E+00 0. -1.
</event>
<event>
 7    1  0.2788485E-009  0.1194849E+03  0.7561462E-02  0.1243949E+00
          3   -1    0    0  501    0  0.00000000000E+00  0.00000000000E+00  0.81050401783E+02  0.81050401783E+02  0.00000000000E+00 0. -1.
         -3   -1    0    0    0  501 -0.00000000000E+00 -0.00000000000E+00 -0.22139383779E+03  0.22139383779E+03  0.00000000000E+00 0.  1.
         25    2    1    2    0    0  0.80880701607E+02 -0.84295996553E+01 -0.73079609917E+02  0.16613528607E+03  0.12509019886E+03 0.  0.
          5    1    3    3  502    0 -0.18307033373E+02  0.35155401449E+02 -0.11668195310E+02  0.41529133192E+02  0.41800000000E+01 0.  1.
         -5    1    3    3    0  502  0.99187734980E+02 -0.43585001104E+02 -0.61411414608E+02  0.12460615288E+03  0.41800000000E+01 0.  1.
        -11    1    1    2    0    0 -0.56994275903E+02 -0.13160230175E+02 -0.82141482236E+02  0.10084028088E+03  0.00000000000E+00 0.  1.
         11    1    1    2    0    0 -0.23886425704E+02  0.21589829830E+02  0.14877656147E+02  0.35468672620E+02  0.00000000000E+00 0. -1.
</event>
<event>
 7    1  0.2788485E-009  0.1281132E+03  0.7561462E-02  0.1230283E+00
         -1   -1    0    0    0  501 -0.00000000000E+00  0.00000000000E+00  0.11880694767E+03  0.11880694767E+03  0.00000000000E+00 0.  1.
          1   -1    0    0  501    0  0.00000000000E+00 -0.00000000000E+00 -0.43131670101E+03  0.43131670101E+03  0.00000000000E+00 0. -1.
         25    2    1    2    0    0  0.90229505321E+02 -0.82887342742E+02  0.27630102204E+02  0.17725957501E+03  0.12508340885E+03 0.  0.
          5    1    3    3  502    0  0.11357333203E+02  0.68065434109E+01 -0.38319960343E+02  0.40757941697E+02  0.41800000000E+01 0. -1.
         -5    1    3    3    0  502  0.78872172118E+02 -0.89693886153E+02  0.65950062547E+02  0.13650163332E+03  0.41800000000E+01 0. -1.
        -11    1    1    2    0    0 -0.43922458665E+02  0.46232871743E+02 -0.63512948466E+02  0.90003085656E+02  0.00000000000E+00 0.  1.
         11    1    1    2    0    0 -0.46307046656E+02  0.36654470999E+02 -0.27662690708E+03  0.28286098800E+03  0.00000000000E+00 0. -1.
</event>
<event>
 7    1  0.2788485E-009  0.1464484E+03  0.7561462E-02  0.1204906E+00
          1   -1    0    0  501    0  0.00000000000E+00  0.00000000000E+00  0.10427072818E+04  0.10427072818E+04  0.00000000000E+00 0. -1.
         -1   -1    0    0    0  501 -0.00000000000E+00 -0.00000000000E+00 -0.26295968793E+02  0.26295968793E+02  0.00000000000E+00 0.  1.
         25    2    1    2    0    0  0.91788119987E+02  0.71170880435E+02  0.70412316166E+03  0.72451912463E+03  0.12509269353E+03 0.  0.
          5    1    3    3  502    0 -0.96292651401E+01 -0.27289421433E+02  0.11422000757E+03  0.11790300166E+03  0.41800000000E+01 0. -1.
         -5    1    3    3    0  502  0.10141738513E+03  0.98460301868E+02  0.58990315409E+03  0.60661612298E+03  0.41800000000E+01 0. -1.
        -11    1    1    2    0    0 -0.39775148326E+02 -0.82704556787E+01  0.20863266787E+03  0.21255129490E+03  0.00000000000E+00 0. -1.
         11    1    1    2    0    0 -0.52012971662E+02 -0.62900424757E+02  0.10365548344E+03  0.13193283103E+03  0.00000000000E+00 0.  1.
</event>
<event>
 7    1  0.2788485E-009  0.1504839E+03  0.7561462E-02  0.1199880E+00
          2   -1    0    0  501    0  0.00000000000E+00  0.00000000000E+00  0.15820502260E+04  0.15820502260E+04  0.00000000000E+00 0. -1.
         -2   -1    0    0    0  501 -0.00000000000E+00 -0.00000000000E+00 -0.20982382965E+02  0.20982382965E+02  0.00000000000E+00 0.  1.
         25    2    1    2    0    0 -0.10547707448E+03 -0.18510054129E+02  0.12623900589E+04  0.12730861268E+04  0.12510631435E+03 0.  0.
          5    1    3    3  502    0 -0.33044679783E+02 -0.67490381538E+02  0.48904174935E+03  0.49479915872E+03  0.41800000000E+01 0.  1.
         -5    1    3    3    0  502 -0.72432394696E+02  0.48980327408E+02  0.77334830959E+03  0.77828696804E+03  0.41800000000E+01 0.  1.
        -11    1    1    2    0    0  0.76213945938E+02  0.53078616304E+02  0.17295479759E+03  0.19631420497E+03  0.00000000000E+00 0. -1.
         11    1    1    2    0    0  0.29263128541E+02 -0.34568562174E+02  0.12572298646E+03  0.13363227719E+03  0.00000000000E+00 0.  1.
</event>
<event>
 7    1  0.2788485E-009  0.9953937E+02  0.7561462E-02  0.1281268E+00
          1   -1    0    0  501    0  0.00000000000E+00  0.00000000000E+00  0.17517068044E+02  0.17517068044E+02  0.00000000000E+00 0. -1.
         -1   -1    0    0    0  501 -0.00000000000E+00 -0.00000000000E+00 -0.66785518470E+03  0.66785518470E+03  0.00000000000E+00 0.  1.
         25    2    1    2    0    0 -0.98133144162E+01  0.13186610141E+02 -0.35320682414E+03  0.37506477782E+03  0.12509332161E+03 0.  0.
          5    1    3    3  502    0 -0.35147728882E+02 -0.45451653350E+02 -0.11813331043E+03  0.13143122563E+03  0.41800000000E+01 0. -1.
         -5    1    3    3    0  502  0.25334414466E+02  0.58638263491E+02 -0.23507351371E+03  0.24363355218E+03  0.41800000000E+01 0. -1.
        -11    1    1    2    0    0  0.25396988909E+02  0.25353168450E+02 -0.62909321337E+02  0.72424946718E+02  0.00000000000E+00 0. -1.
         11    1    1    2    0    0 -0.15583674493E+02 -0.38539778591E+02 -0.23422197118E+03  0.23788252821E+03  0.00000000000E+00 0.  1.
</event>
<event>
 7    1  0.2788485E-009  0.8339514E+02  0.7561462E-02  0.1319684E+00
          2   -1    0    0  501    0  0.00000000000E+00  0.00000000000E+00  0.16548178567E+03  0.16548178567E+03  0.00000000000E+00 0. -1.
         -2   -1    0    0    0  501 -0.00000000000E+00 -0.00000000000E+00 -0.74893126572E+02  0.74893126572E+02  0.00000000000E+00 0.  1.
         25    2    1    2    0    0 -0.10155469453E+02 -0.92227001593E+01  0.22251479908E+02  0.12779288337E+03  0.12509077074E+03 0.  0.
          5    1    3    3  502    0 -0.46997466432E+02  0.18631259950E+02 -0.29195135500E+02  0.58529599650E+02  0.41800000000E+01 0. -1.
         -5    1    3    3    0  502  0.36841996979E+02 -0.27853960109E+02  0.51446615408E+02  0.69263283723E+02  0.41800000000E+01 0. -1.
        -11    1    1    2    0    0 -0.13523204557E+02  0.33285365121E+02 -0.47938430055E+00  0.35930800186E+02  0.00000000000E+00 0.  1.
         11    1    1    2    0    0  0.23678674010E+02 -0.24062664962E+02  0.68816563491E+02  0.76651228683E+02  0.00000000000E+00 0. -1.
</event>
<event>
 7    1  0.2788485E-009  0.9963085E+02  0.7561462E-02  0.1281074E+00
          1   -1    0    0  501    0  0.00000000000E+00  0.00000000000E+00  0.11752732979E+03  0.11752732979E+03  0.00000000000E+00 0. -1.
         -1   -1    0    0    0  501 -0.00000000000E+00 -0.00000000000E+00 -0.10078515575E+03  0.10078515575E+03  0.00000000000E+00 0.  1.
         25    2    1    2    0    0  0.28015128750E+01  0.16978901778E+02  0.53807025715E+01  0.12638182430E+03  0.12508909614E+03 0.  0.
          5    1    3    3  502    0 -0.44351223132E+02 -0.32991852659E+02  0.13549358978E+02  0.57066197209E+02  0.41800000000E+01 0.  1.
         -5    1    3    3    0  502  0.47152736007E+02  0.49970754437E+02 -0.81686564067E+01  0.69315627094E+02  0.41800000000E+01 0.  1.
        -11    1    1    2    0    0  0.31130868280E+02  0.88341150157E+01 -0.20850253429E+02  0.38495527221E+02  0.00000000000E+00 0.  1.
         11    1    1    2    0    0 -0.33932381155E+02 -0.25813016794E+02  0.32211724899E+02  0.53435134021E+02  0.00000000000E+00 0. -1.
</event>
<event>
 7    1  0.2788485E-009  0.1676488E+03  0.7561462E-02  0.1180322E+00
         -2   -1    0    0    0  501 -0.00000000000E+00  0.00000000000E+00  0.19320672064E+03  0.19320672064E+03  0.00000000000E+00 0.  1.
          2   -1    0    0  501    0  0.00000000000E+00 -0.00000000000E+00 -0.16446041192E+03  0.16446041192E+03  0.00000000000E+00 0. -1.
         25    2    1    2    0    0  0.13359389811E+03  0.36384218778E+02  0.29588412907E+02  0.18892213357E+03  0.12507980407E+03 0.  0.
          5    1    3    3  502    0  0.15532684230E+03  0.35605264266E+02  0.40148195702E+02  0.16438829885E+03  0.41800000000E+01 0.  1.
         -5    1    3    3    0  502 -0.21732944189E+02  0.77895451163E+00 -0.10559782795E+02  0.24533834718E+02  0.41800000000E+01 0.  1.
        -11    1    1    2    0    0 -0.10122825784E+03  0.48243215651E+01 -0.33813653196E+02  0.10683537526E+03  0.00000000000E+00 0. -1.
         11    1    1    2    0    0 -0.32365640267E+02 -0.41208540343E+02  0.32971549004E+02  0.61909623733E+02  0.00000000000E+00 0.  1.
</event>
<event>
 7    1  0.2788485E-009  0.1051581E+03  0.7561462E-02  0.1269808E+00
         -1   -1    0    0    0  501 -0.00000000000E+00  0.00000000000E+00  0.24414155169E+03  0.24414155169E+03  0.00000000000E+00 0.  1.
          1   -1    0    0  501    0  0.00000000000E+00 -0.00000000000E+00 -0.71694744464E+02  0.71694744464E+02  0.00000000000E+00 0. -1.
         25    2    1    2    0    0 -0.72589249276E+02 -0.25893883403E+01  0.69642172186E+02  0.16053973940E+03  0.12508825580E+03 0.  0.
          5    1    3    3  502    0 -0.63485891778E+02  0.33762392363E+02  0.91893439124E+02  0.11675715887E+03  0.41800000000E+01 0.  1.
         -5    1    3    3    0  502 -0.91033574983E+01 -0.36351780703E+02 -0.22251266938E+02  0.43782580536E+02  0.41800000000E+01 0.  1.
        -11    1    1    2    0    0 -0.68617486209E+01 -0.17358999055E+02  0.60068552552E+02  0.62901903373E+02  0.00000000000E+00 0.  1.
         11    1    1    2    0    0  0.79450997897E+02  0.19948387395E+02  0.42736082488E+02  0.92394653378E+02  0.00000000000E+00 0. -1.
</event>
<event>
 7    1  0.2788485E-009  0.8632978E+02  0.7561462E-02  0.1311991E+00
         -1   -1    0    0    0  501 -0.00000000000E+00  0.00000000000E+00  0.17662130246E+03  0.17662130246E+03  0.00000000000E+00 0.  1.
          1   -1    0    0  501    0  0.00000000000E+00 -0.00000000000E+00 -0.72050524667E+02  0.72050524667E+02  0.00000000000E+00 0. -1.
         25    2    1    2    0    0 -0.16184040190E+02 -0.15062613152E+02  0.36318902500E+02  0.13212106772E+03  0.12509239938E+03 0.  0.
          5    1    3    3  502    0  0.16329977390E+02  0.49878746254E+02  0.48923837130E+01  0.52876888220E+02  0.41800000000E+01 0.  1.
         -5    1    3    3    0  502 -0.32514017579E+02 -0.64941359407E+02  0.31426518787E+02  0.79244179495E+02  0.41800000000E+01 0.  1.
        -11    1    1    2    0    0  0.15798873206E+02  0.29157720148E+02 -0.11850634232E+02  0.35216680288E+02  0.00000000000E+00 0. -1.
         11    1    1    2    0    0  0.38516698379E+00 -0.14095106996E+02  0.80102509520E+02  0.81334079120E+02  0.00000000000E+00 0.  1.
</event>
<event>
 7    1  0.2788485E-009  0.1042347E+03  0.7561462E-02  0.1271635E+00
         -1   -1    0    0    0  501 -0.00000000000E+00  0.00000000000E+00  0.29375775982E+03  0.29375775982E+03  0.00000000000E+00 0.  1.
          1   -1    0    0  501    0  0.00000000000E+00 -0.00000000000E+00 -0.53252473956E+02  0.53252473956E+02  0.00000000000E+00 0. -1.
         25    2    1    2    0    0 -0.67829539773E+01 -0.57191506197E+02  0.11343677993E+03  0.17841612598E+03  0.12509010402E+03 0.  0.
          5    1    3    3  502    0  0.58052660337E+02 -0.32661406517E+02  0.68847047139E+02  0.95886741250E+02  0.41800000000E+01 0.  1.
         -5    1    3    3    0  502 -0.64835614315E+02 -0.24530099680E+02  0.44589732786E+02  0.82529384729E+02  0.41800000000E+01 0.  1.
        -11    1    1    2    0    0 -0.17021526328E+02  0.38230262650E+02  0.42527367207E+01  0.42063893191E+02  0.00000000000E+00 0. -1.
         11    1    1    2    0    0  0.23804480305E+02  0.18961243547E+02  0.12281576922E+03  0.12653021461E+03  0.00000000000E+00 0.  1.
</event>
<event>
 7    1  0.2788485E-009  0.1736379E+03  0.7561462E-02  0.1174106E+00
         -2   -1    0    0    0  501 -0.00000000000E+00  0.00000000000E+00  0.33264156332E+03  0.33264156332E+03  0.00000000000E+00 0.  1.
          2   -1    0    0  501    0  0.00000000000E+00 -0.00000000000E+00 -0.12783165726E+03  0.12783165726E+03  0.00000000000E+00 0. -1.
         25    2    1    2    0    0 -0.12786290916E+03 -0.44663306897E+02 -0.15404207239E+02  0.18501059909E+03  0.12509155708E+03 0.  0.
          5    1    3    3  502    0 -0.15170448189E+03 -0.35117653174E+02 -0.23995390128E+02  0.15760948746E+03  0.41800000000E+01 0. -1.
         -5    1    3    3    0  502  0.23841572726E+02 -0.95456537234E+01  0.85911828886E+01  0.27401111629E+02  0.41800000000E+01 0. -1.
        -11    1    1    2    0    0  0.31024459821E+02 -0.30036462783E+02  0.57936608880E+02  0.72258956900E+02  0.00000000000E+00 0. -1.
         11    1    1    2    0    0  0.96838449341E+02  0.74699769680E+02  0.16227750443E+03  0.20320366459E+03  0.00000000000E+00 0.  1.
</event>
<event>
 7    1  0.2788485E-009  0.1591194E+03  0.7561462E-02  0.1189695E+00
         -1   -1    0    0    0  501 -0.00000000000E+00  0.00000000000E+00  0.65749026013E+02  0.65749026013E+02  0.00000000000E+00 0.  1.
          1   -1    0    0  501    0  0.00000000000E+00 -0.00000000000E+00 -0.50296837299E+03  0.50296837299E+03  0.00000000000E+00 0. -1.
         25    2    1    2    0    0  0.10495290039E+03  0.10405331782E+03 -0.22816458035E+03  0.29924655242E+03  0.12508884505E+03 0.  0.
          5    1    3    3  502    0  0.78218876066E+02  0.18264848054E+02 -0.38162464535E+02  0.89026082396E+02  0.41800000000E+01 0.  1.
         -5    1    3    3    0  502  0.26734024328E+02  0.85788469769E+02 -0.19000211582E+03  0.21022047002E+03  0.41800000000E+01 0.  1.
        -11    1    1    2    0    0 -0.60497780731E+02 -0.62927083087E+02 -0.53107880961E+02  0.10217752336E+03  0.00000000000E+00 0.  1.
         11    1    1    2    0    0 -0.44455119663E+02 -0.41126234736E+02 -0.15594688566E+03  0.16729332323E+03  0.00000000000E+00 0. -1.
</event>
<event>
 7    1  0.2788485E-009  0.1635375E+03  0.7561462E-02  0.1184760E+00
         -3   -1    0    0    0  501 -0.00000000000E+00  0.00000000000E+00  0.11005646194E+04  0.11005646194E+04  0.00000000000E+00 0.  1.
          3   -1    0    0  501    0  0.00000000000E+00 -0.00000000000E+00 -0.35736801444E+02  0.35736801444E+02  0.00000000000E+00 0. -1.
         25    2    1    2    0    0  0.10224169049E+03 -0.10488388871E+03  0.33630030475E+03  0.38755535824E+03  0.12508903765E+03 0.  0.
          5    1    3    3  502    0  0.11243221397E+03 -0.89952290613E+02  0.33943699946E+03  0.36873753041E+03  0.41800000000E+01 0.  1.
         -5    1    3    3    0  502 -0.10190523479E+02 -0.14931598096E+02 -0.31366947187E+01  0.18817827830E+02  0.41800000000E+01 0.  1.
        -11    1    1    2    0    0 -0.23723657319E+02  0.77922933054E+02  0.47609946425E+03  0.48301707554E+03  0.00000000000E+00 0.  1.
         11    1    1    2    0    0 -0.78518033171E+02  0.26960955655E+02  0.25242804899E+03  0.26572898709E+03  0.00000000000E+00 0. -1.
</event>
<event>
 7    1  0.2788485E-009  0.1540307E+03  0.7561462E-02  0.1195606E+00
          1   -1    0    0  501    0  0.00000000000E+00  0.00000000000E+00  0.29057146879E+02  0.29057146879E+02  0.00000000000E+00 0. -1.
         -1   -1    0    0    0  501 -0.00000000000E+00 -0.00000000000E+00 -0.10826065563E+04  0.10826065563E+04  0.00000000000E+00 0.  1.
         25    2    1    2    0    0  0.11223793694E+03  0.21991449333E+02 -0.81692461840E+03  0.83432365733E+03  0.12509658149E+03 0.  0.
          5    1    3    3  502    0 -0.15702818505E+01 -0.35726804759E+02 -0.28628516025E+03  0.28854035375E+03  0.41800000000E+01 0. -1.
         -5    1    3    3    0  502  0.11380821879E+03  0.57718254092E+02 -0.53063945815E+03  0.54578330358E+03  0.41800000000E+01 0. -1.
        -11    1    1    2    0    0 -0.96192597831E+02  0.21029776311E+02 -0.15319606175E+03  0.18211068257E+03  0.00000000000E+00 0. -1.
         11    1    1    2    0    0 -0.16045339104E+02 -0.43021225643E+02 -0.83428729234E+02  0.95229363247E+02  0.00000000000E+00 0.  1.
</event>
<event>
 7    1  0.2788485E-009  0.1076190E+03  0.7561462E-02  0.1265044E+00
          2   -1    0    0  501    0  0.00000000000E+00  0.00000000000E+00  0.27674964190E+03  0.27674964190E+03  0.00000000000E+00 0. -1.
         -2   -1    0    0    0  501 -0.00000000000E+00 -0.00000000000E+00 -0.61091939560E+02  0.61091939560E+02  0.00000000000E+00 0.  1.
         25    2    1    2    0    0  0.21702546505E+02 -0.53864042756E+02  0.17261511383E+03  0.22094006209E+03  0.12508476280E+03 0.  0.
          5    1    3    3  502    0  0.59425899565E+02 -0.62755773492E+02  0.70419385236E+02  0.11156203146E+03  0.41800000000E+01 0.  1.
         -5    1    3    3    0  502 -0.37723353059E+02  0.88917307365E+01  0.10219572860E+03  0.10937803063E+03  0.41800000000E+01 0.  1.
        -11    1    1    2    0    0 -0.15763626616E+02 -0.14313165715E+02 -0.15906458256E+02  0.26577698379E+02  0.00000000000E+00 0.  1.
         11    1    1    2    0    0 -0.59389198897E+01  0.68177208471E+02  0.58949046760E+02  0.90323820990E+02  0.00000000000E+00 0. -1.
</event>
<event>
 7    1  0.2788485E-009  0.1039218E+03  0.7561462E-02  0.1272259E+00
          2   -1    0    0  501    0  0.00000000000E+00  0.00000000000E+00  0.52056230396E+03  0.52056230396E+03  0.00000000000E+00 0. -1.
         -2   -1    0    0    0  501 -0.00000000000E+00 -0.00000000000E+00 -0.50199520645E+02  0.50199520645E+02  0.00000000000E+00 0.  1.
         25    2    1    2    0    0 -0.17330172877E+02  0.28537117776E+01  0.33411442436E+03  0.35719517560E+03  0.12508983309E+03 0.  0.
          5    1    3    3  502    0 -0.39156362744E+01 -0.60311290860E+02  0.13894714509E+03  0.15158022807E+03  0.41800000000E+01 0. -1.
         -5    1    3    3    0  502 -0.13414536603E+02  0.63165002638E+02  0.19516727927E+03  0.20561494753E+03  0.41800000000E+01 0. -1.
        -11    1    1    2    0    0  0.24894100641E+02 -0.38645717390E+02  0.16228143065E+03  0.16866674377E+03  0.00000000000E+00 0. -1.
         11    1    1    2    0    0 -0.75639277639E+01  0.35792005613E+02 -0.26033071691E+02  0.44899905241E+02  0.00000000000E+00 0.  1.
</event>
<event>
 7    1  0.2788485E-009  0.2202839E+03  0.7561462E-02  0.1133672E+00
         -1   -1    0    0    0  501 -0.00000000000E+00  0.00000000000E+00  0.57091900012E+02  0.57091900012E+02  0.00000000000E+00 0.  1.
          1   -1    0    0  501    0  0.00000000000E+00 -0.00000000000E+00 -0.99808127624E+03  0.99808127624E+03  0.00000000000E+00 0. -1.
         25    2    1    2    0    0 -0.15290525957E+03 -0.12866255888E+03 -0.64371217956E+03  0.68552697709E+03  0.12509114172E+03 0.  0.
          5    1    3    3  502    0 -0.16022289527E+02 -0.83084318637E+02 -0.32132818246E+03  0.33230857799E+03  0.41800000000E+01 0. -1.
         -5    1    3    3    0  502 -0.13688297004E+03 -0.45578240242E+02 -0.32238399710E+03  0.35321839909E+03  0.41800000000E+01 0. -1.
        -11    1    1    2    0    0  0.12144276821E+03  0.13260101210E+03 -0.20821950631E+03  0.27511222650E+03  0.00000000000E+00 0.  1.
         11    1    1    2    0    0  0.31462491357E+02 -0.39384532213E+01 -0.89057690354E+02  0.94533972662E+02  0.00000000000E+00 0. -1.
</event>
<event>
 7    1  0.2788485E-009  0.4196911E+03  0.7561462E-02  0.1037167E+00
         -2   -1    0    0    0  501 -0.00000000000E+00  0.00000000000E+00  0.40190389773E+03  0.40190389773E+03  0.00000000000E+00 0.  1.
          2   -1    0    0  501    0  0.00000000000E+00 -0.00000000000E+00 -0.52062228598E+03  0.52062228598E+03  0.00000000000E+00 0. -1.
         25    2    1    2    0    0  0.24093184666E+03  0.33285802479E+03 -0.23023625603E+03  0.48733478601E+03  0.12507533994E+03 0.  0.
          5    1    3    3  502    0  0.12837534194E+03  0.24862501280E+03 -0.19865655525E+03  0.34318584579E+03  0.41800000000E+01 0.  1.
         -5    1    3    3    0  502  0.11255650472E+03  0.84233011994E+02 -0.31579700779E+02  0.14414894022E+03  0.41800000000E+01 0.  1.
        -11    1    1    2    0    0 -0.97083652860E+02 -0.20334049502E+03  0.40075883787E+02  0.22886386572E+03  0.00000000000E+00 0. -1.
         11    1    1    2    0    0 -0.14384819380E+03 -0.12951752977E+03  0.71441983992E+02  0.20632753198E+03  0.00000000000E+00 0.  1.
</event>
<event>
 7    1  0.2788485E-009  0.1346941E+03  0.7561462E-02  0.1220652E+00
         -2   -1    0    0    0  501 -0.00000000000E+00  0.00000000000E+00  0.22235644403E+03  0.22235644403E+03  0.00000000000E+00 0.  1.
          2   -1    0    0  501    0  0.00000000000E+00 -0.00000000000E+00 -0.92087673652E+02  0.92087673652E+02  0.00000000000E+00 0. -1.
         25    2    1    2    0    0  0.82651596991E+02  0.32215123844E+02  0.98578003392E+02  0.18229968580E+03  0.12508577858E+03 0.  0.
          5    1    3    3  502    0  0.18836848044E+02 -0.40252266255E+02  0.67216614886E+02  0.80688397553E+02  0.41800000000E+01 0.  1.
         -5    1    3    3    0  502  0.63814748947E+02  0.72467390099E+02  0.31361388506E+02  0.10161128825E+03  0.41800000000E+01 0.  1.
        -11    1    1    2    0    0  0.11594123992E+02 -0.31805813289E+02  0.52387604799E+01  0.34256066346E+02  0.00000000000E+00 0. -1.
         11    1    1    2    0    0 -0.94245720983E+02 -0.40931055537E+00  0.26452006509E+02  0.97888365535E+02  0.00000000000E+00 0.  1.
</event>
<event>
 7    1  0.2788485E-009  0.8181988E+02  0.7561462E-02  0.1323965E+00
         -4   -1    0    0    0  501 -0.00000000000E+00  0.00000000000E+00  0.14152375946E+03  0.14152375946E+03  0.00000000000E+00 0.  1.
          4   -1    0    0  501    0  0.00000000000E+00 -0.00000000000E+00 -0.95746741890E+02  0.95746741890E+02  0.00000000000E+00 0. -1.
         25    2    1    2    0    0  0.16223477048E+02  0.16026060142E+02 -0.90694638927E+01  0.12747393770E+03  0.12508922338E+03 0.  0.
          5    1    3    3  502    0  0.19070219230E+02 -0.48434408887E+02 -0.29102763333E+02  0.59783011461E+02  0.41800000000E+01 0.  1.
         -5    1    3    3    0  502 -0.28467421812E+01  0.64460469029E+02  0.20033299440E+02  0.67690926238E+02  0.41800000000E+01 0.  1.
        -11    1    1    2    0    0  0.13851460051E+02 -0.48618304242E+01 -0.22042570583E+02  0.26483490301E+02  0.00000000000E+00 0. -1.
         11    1    1    2    0    0 -0.30074937099E+02 -0.11164229718E+02  0.76889052050E+02  0.83313073355E+02  0.00000000000E+00 0.  1.
</event>
<event>
 7    1  0.2788485E-009  0.9707717E+02  0.7561462E-02  0.1286565E+00
         -2   -1    0    0    0  501 -0.00000000000E+00  0.00000000000E+00  0.25110564200E+02  0.25110564200E+02  0.00000000000E+00 0.  1.
          2   -1    0    0  501    0  0.00000000000E+00 -0.00000000000E+00 -0.66782045523E+03  0.66782045523E+03  0.00000000000E+00 0. -1.
         25    2    1    2    0    0  0.57054790703E+01 -0.64530571483E+02 -0.42538543644E+03  0.44810410911E+03  0.12509107050E+03 0.  0.
          5    1    3    3  502    0 -0.18793639782E+02  0.56000139498E+01 -0.31102053655E+03  0.31166617976E+03  0.41800000000E+01 0.  1.
         -5    1    3    3    0  502  0.24499118852E+02 -0.70130585432E+02 -0.11436489989E+03  0.13643792935E+03  0.41800000000E+01 0.  1.
        -11    1    1    2    0    0 -0.38014425573E+02  0.53355039845E+02 -0.80462337119E+02  0.10375955148E+03  0.00000000000E+00 0.  1.
         11    1    1    2    0    0  0.32308946503E+02  0.11175531638E+02 -0.13686211747E+03  0.14106735884E+03  0.00000000000E+00 0. -1.
</event>
<event>
 7    1  0.2788485E-009  0.1171956E+03  0.7561462E-02  0.1247796E+00
          1   -1    0    0  501    0  0.00000000000E+00  0.00000000000E+00  0.42215496841E+03  0.42215496841E+03  0.00000000000E+00 0. -1.
         -1   -1    0    0    0  501 -0.00000000000E+00 -0.00000000000E+00 -0.51123020525E+02  0.51123020525E+02  0.00000000000E+00 0.  1.
         25    2    1    2    0    0  0.64397805400E+02  0.67228733430E+02  0.14233540233E+03  0.21112718763E+03  0.12509413520E+03 0.  0.
          5    1    3    3  502    0  0.86072880398E+02  0.77817323551E+02  0.14581745327E+03  0.18639817237E+03  0.41800000000E+01 0. -1.
         -5    1    3    3    0  502 -0.21675074997E+02 -0.10588590121E+02 -0.34820509399E+01  0.24729015258E+02  0.41800000000E+01 0. -1.
        -11    1    1    2    0    0 -0.41581917769E+02 -0.35236524151E+02  0.35608085556E+02  0.65104564176E+02  0.00000000000E+00 0.  1.
         11    1    1    2    0    0 -0.22815887631E+02 -0.31992209279E+02  0.19308846000E+03  0.19704623713E+03  0.00000000000E+00 0. -1.
</event>
<event>
 7    1  0.2788485E-009  0.1208759E+03  0.7561462E-02  0.1241659E+00
          2   -1    0    0  501    0  0.00000000000E+00  0.00000000000E+00  0.80047155534E+03  0.80047155534E+03  0.00000000000E+00 0.  1.
         -2   -1    0    0    0  501 -0.00000000000E+00 -0.00000000000E+00 -0.19247629488E+02  0.19247629488E+02  0.00000000000E+00 0. -1.
         25    2    1    2    0    0 -0.17187010416E+02 -0.55386714341E+02  0.38044686782E+03  0.40465995688E+03  0.12508708970E+03 0.  0.
          5    1    3    3  502    0 -0.26898775008E+02 -0.93427991146E+02  0.24643940585E+03  0.26495695270E+03  0.41800000000E+01 0. -1.
         -5    1    3    3    0  502  0.97117645917E+01  0.38041276806E+02  0.13400746197E+03  0.13970300418E+03  0.41800000000E+01 0. -1.
        -11    1    1    2    0    0  0.19675626325E+02 -0.20855912000E+02  0.70927119576E+02  0.76503304687E+02  0.00000000000E+00 0. -1.
         11    1    1    2    0    0 -0.24886159094E+01  0.76242626341E+02  0.32984993846E+03  0.33855592327E+03  0.00000000000E+00 0.  1.
</event>
<event>
 7    1  0.2788485E-009  0.1895098E+03  0.7561462E-02  0.1158904E+00
         -1   -1    0    0    0  501 -0.00000000000E+00  0.00000000000E+00  0.13440837877E+03  0.13440837877E+03  0.00000000000E+00 0.  1.
          1   -1    0    0  501    0  0.00000000000E+00 -0.00000000000E+00 -0.44117751376E+03  0.44117751376E+03  0.00000000000E+00 0. -1.
         25    2    1    2    0    0  0.16895479740E+03  0.10833272461E+02  0.35377777480E+01  0.21053061495E+03  0.12509012991E+03 0.  0.
          5    1    3    3  502    0  0.18312457376E+03  0.19561976397E+02  0.21767251087E+02  0.18549546101E+03  0.41800000000E+01 0. -1.
         -5    1    3    3    0  502 -0.14169776356E+02 -0.87287039364E+01 -0.18229473340E+02  0.25035153937E+02  0.41800000000E+01 0. -1.
        -11    1    1    2    0    0 -0.47959432891E+02 -0.27851365449E+02 -0.39891799629E+02  0.68316626368E+02  0.00000000000E+00 0. -1.
         11    1    1    2    0    0 -0.12099536451E+03  0.17018092988E+02 -0.27041511311E+03  0.29673865121E+03  0.00000000000E+00 0.  1.
</event>
<event>
 7    1  0.2788485E-009  0.6718991E+02  0.7561462E-02  0.1369918E+00
          2   -1    0    0  501    0  0.00000000000E+00  0.00000000000E+00  0.79885514506E+02  0.79885514506E+02  0.00000000000E+00 0. -1.
         -2   -1    0    0    0  501 -0.00000000000E+00 -0.00000000000E+00 -0.19538174836E+03  0.19538174836E+03  0.00000000000E+00 0.  1.
         25    2    1    2    0    0  0.35656489477E+02  0.22400278615E+01 -0.84889742463E+01  0.13036836847E+03  0.12508975117E+03 0.  0.
          5    1    3    3  502    0  0.91872079872E+01  0.35652220494E+02 -0.55525189318E+02  0.66753312020E+02  0.41800000000E+01 0.  1.
         -5    1    3    3    0  502  0.26469281490E+02 -0.33412192633E+02  0.47036215072E+02  0.63615056452E+02  0.41800000000E+01 0.  1.
        -11    1    1    2    0    0 -0.28276740501E+02  0.17614274113E+02 -0.11687603754E+03  0.12153125053E+03  0.00000000000E+00 0.  1.
         11    1    1    2    0    0 -0.73797489761E+01 -0.19854301975E+02  0.98687779285E+01  0.23367643862E+02  0.00000000000E+00 0. -1.
</event>
<event>
 7    1  0.2788485E-009  0.1942716E+03  0.7561462E-02  0.1154664E+00
          1   -1    0    0  501    0  0.00000000000E+00  0.00000000000E+00  0.27977993843E+03  0.27977993843E+03  0.00000000000E+00 0. -1.
         -1   -1    0    0    0  501 -0.00000000000E+00 -0.00000000000E+00 -0.14533960029E+03  0.14533960029E+03  0.00000000000E+00 0.  1.
         25    2    1    2    0    0 -0.13381895435E+03  0.11010120725E+03  0.57372799803E+02  0.22128851052E+03  0.12508868193E+03 0.  0.
          5    1    3    3  502    0 -0.12565134113E+03  0.35746313702E+02  0.67659892563E+01  0.13087898793E+03  0.41800000000E+01 0.  1.
         -5    1    3    3    0  502 -0.81676132171E+01  0.74354893548E+02  0.50606810547E+02  0.90409522584E+02  0.41800000000E+01 0.  1.
        -11    1    1    2    0    0  0.11393441519E+02  0.71113232950E+01 -0.64297249257E+01  0.14890359004E+02  0.00000000000E+00 0.  1.
         11    1    1    2    0    0  0.12242551283E+03 -0.11721253054E+03  0.83497263261E+02  0.18894066921E+03  0.00000000000E+00 0. -1.
</event>
<event>
 7    1  0.2788485E-009  0.8685809E+02  0.7561462E-02  0.1310644E+00
         -4   -1    0    0    0  501 -0.00000000000E+00  0.00000000000E+00  0.12882207246E+03  0.12882207246E+03  0.00000000000E+00 0.  1.
          4   -1    0    0  501    0  0.00000000000E+00 -0.00000000000E+00 -0.10294457173E+03  0.10294457173E+03  0.00000000000E+00 0. -1.
         25    2    1    2    0    0  0.13759256112E+02 -0.17627536750E+01 -0.22444459561E+02  0.12783835046E+03  0.12508583315E+03 0.  0.
          5    1    3    3  502    0 -0.11594633191E+02 -0.39509085256E+02  0.35177627554E+02  0.54317043521E+02  0.41800000000E+01 0.  1.
         -5    1    3    3    0  502  0.25353889303E+02  0.37746331581E+02 -0.57622087115E+02  0.73521306939E+02  0.41800000000E+01 0.  1.
        -11    1    1    2    0    0  0.33206316804E+02 -0.15478153342E+02  0.38114920805E+02  0.52867569403E+02  0.00000000000E+00 0. -1.
         11    1    1    2    0    0 -0.46965572916E+02  0.17240907017E+02  0.10207039480E+02  0.51060724329E+02  0.00000000000E+00 0.  1.
</event>
<event>
 7    1  0.2788485E-009  0.1262266E+03  0.7561462E-02  0.1233165E+00
          2   -1    0    0  501    0  0.00000000000E+00  0.00000000000E+00  0.90421443635E+03  0.90421443635E+03  0.00000000000E+00 0. -1.
         -2   -1    0    0    0  501 -0.00000000000E+00 -0.00000000000E+00 -0.23804588385E+02  0.23804588385E+02  0.00000000000E+00 0.  1.
         25    2    1    2    0    0  0.45388715675E+02 -0.70132822468E+02  0.64093634823E+03  0.65834955692E+03  0.12508392510E+03 0.  0.
          5    1    3    3  502    0 -0.38196538066E+02 -0.25563971474E+02  0.11465520229E+03  0.12359522632E+03  0.41800000000E+01 0.  1.
         -5    1    3    3    0  502  0.83585253741E+02 -0.44568850994E+02  0.52628114594E+03  0.53475433060E+03  0.41800000000E+01 0.  1.
        -11    1    1    2    0    0 -0.50891829544E+02  0.10963234747E+02  0.17225379667E+03  0.17994871852E+03  0.00000000000E+00 0. -1.
         11    1    1    2    0    0  0.55031138688E+01  0.59169587721E+02  0.67219703069E+02  0.89720749295E+02  0.00000000000E+00 0.  1.
</event>
<event>
 7    1  0.2788485E-009  0.1324860E+03  0.7561462E-02  0.1223813E+00
         -1   -1    0    0    0  501 -0.00000000000E+00  0.00000000000E+00  0.22161369448E+03  0.22161369448E+03  0.00000000000E+00 0.  1.
          1   -1    0    0  501    0  0.00000000000E+00 -0.00000000000E+00 -0.13072049422E+03  0.13072049422E+03  0.00000000000E+00 0. -1.
         25    2    1    2    0    0  0.12327718206E+03 -0.38848743556E+02  0.66639546868E+02  0.19181809406E+03  0.12508742347E+03 0.  0.
          5    1    3    3  502    0  0.10056336231E+03 -0.21663682083E+02 -0.16106483986E+02  0.10420746704E+03  0.41800000000E+01 0.  1.
         -5    1    3    3    0  502  0.22713819753E+02 -0.17185061473E+02  0.82746030854E+02  0.87610627025E+02  0.41800000000E+01 0.  1.
        -11    1    1    2    0    0 -0.53851378851E+02  0.33887403392E+02  0.55303246905E+02  0.84301697676E+02  0.00000000000E+00 0.  1.
         11    1    1    2    0    0 -0.69425803207E+02  0.49613401644E+01 -0.31049593517E+02  0.76214396965E+02  0.00000000000E+00 0. -1.
</event>
<event>
 7    1  0.2788485E-009  0.1953099E+03  0.7561462E-02  0.1153757E+00
          2   -1    0    0  501    0  0.00000000000E+00  0.00000000000E+00  0.18589123720E+04  0.18589123720E+04  0.00000000000E+00 0. -1.
         -2   -1    0    0    0  501 -0.00000000000E+00 -0.00000000000E+00 -0.25081479421E+02  0.25081479421E+02  0.00000000000E+00 0.  1.
         25    2    1    2    0    0 -0.10541744072E+03  0.14902120869E+03  0.80150424331E+03  0.83149054410E+03  0.12508922985E+03 0.  0.
          5    1    3    3  502    0 -0.49720811246E+02  0.97566281629E+02  0.67580203328E+03  0.68462924198E+03  0.41800000000E+01 0. -1.
         -5    1    3    3    0  502 -0.55696629472E+02  0.51454927065E+02  0.12570221003E+03  0.14686130212E+03  0.41800000000E+01 0. -1.
        -11    1    1    2    0    0  0.60465539096E+02 -0.14828068981E+03  0.80881209832E+03  0.82451213137E+03  0.00000000000E+00 0.  1.
         11    1    1    2    0    0  0.44951901622E+02 -0.74051887989E+00  0.22351455093E+03  0.22799117593E+03  0.00000000000E+00 0. -1.
</event>
<event>
 7    1  0.2788485E-009  0.1570342E+03  0.7561462E-02  0.1192086E+00
         -1   -1    0    0    0  501 -0.00000000000E+00  0.00000000000E+00  0.40840957975E+02  0.40840957975E+02  0.00000000000E+00 0.  1.
          1   -1    0    0  501    0  0.00000000000E+00 -0.00000000000E+00 -0.62231769211E+03  0.62231769211E+03  0.00000000000E+00 0. -1.
         25    2    1    2    0    0  0.11312866750E+03 -0.26096346114E+02 -0.34295047973E+03  0.38306507199E+03  0.12507878773E+03 0.  0.
          5    1    3    3  502    0  0.54205146222E+02  0.50067088142E+02 -0.13656414472E+03  0.15528087202E+03  0.41800000000E+01 0. -1.
         -5    1    3    3    0  502  0.58923521280E+02 -0.76163434256E+02 -0.20638633501E+03  0.22778419997E+03  0.41800000000E+01 0. -1.
        -11    1    1    2    0    0  0.12324647544E+01 -0.20316387923E+02 -0.17056036199E+02  0.26555281178E+02  0.00000000000E+00 0.  1.
         11    1    1    2    0    0 -0.11436113226E+03  0.46412734037E+02 -0.22147021821E+03  0.25353829692E+03  0.00000000000E+00 0. -1.
</event>
<event>
 7    1  0.2788485E-009  0.1513848E+03  0.7561462E-02  0.1198782E+00
          3   -1    0    0  501    0  0.00000000000E+00  0.00000000000E+00  0.13879856380E+03  0.13879856380E+03  0.00000000000E+00 0. -1.
         -3   -1    0    0    0  501 -0.00000000000E+00 -0.00000000000E+00 -0.20918760900E+03  0.20918760900E+03  0.00000000000E+00 0.  1.
         25    2    1    2    0    0 -0.93290483030E+02 -0.84484363459E+02  0.15110029388E+00  0.17745634512E+03  0.12509999879E+03 0.  0.
          5    1    3    3  502    0 -0.99385834751E+02 -0.32791222674E+02  0.39638006059E+02  0.11198862602E+03  0.41800000000E+01 0. -1.
         -5    1    3    3    0  502  0.60953517208E+01 -0.51693140785E+02 -0.39486905765E+02  0.65467719097E+02  0.41800000000E+01 0. -1.
        -11    1    1    2    0    0  0.44124194773E+02 -0.42892227277E+01 -0.50306579040E+02  0.67052918584E+02  0.00000000000E+00 0.  1.
         11    1    1    2    0    0  0.49166288257E+02  0.88773586187E+02 -0.20233566458E+02  0.10347690910E+03  0.00000000000E+00 0. -1.
</event>
<event>
 7    1  0.2788485E-009  0.1225908E+03  0.7561462E-02  0.1238883E+00
          2   -1    0    0  501    0  0.00000000000E+00  0.00000000000E+00  0.46195634105E+03  0.46195634105E+03  0.00000000000E+00 0. -1.
         -2   -1    0    0    0  501 -0.00000000000E+00 -0.00000000000E+00 -0.50264637669E+02  0.50264637669E+02  0.00000000000E+00 0.  1.
         25    2    1    2    0    0 -0.10245834999E+03 -0.88362679750E+01  0.26615309408E+03  0.31154536626E+03  0.12508897888E+03 0.  0.
          5    1    3    3  502    0  0.66649546489E+01  0.20152400170E+01 -0.10874964575E+02  0.13572769331E+02  0.41800000000E+01 0.  1.
         -5    1    3    3    0  502 -0.10912330464E+03 -0.10851507992E+02  0.27702805865E+03  0.29797259693E+03  0.41800000000E+01 0.  1.
        -11    1    1    2    0    0  0.29212339976E+02 -0.32106135422E+02  0.90364755926E+02  0.10024945811E+03  0.00000000000E+00 0.  1.
         11    1    1    2    0    0  0.73246010019E+02  0.40942403397E+02  0.55173853379E+02  0.10042615434E+03  0.00000000000E+00 0. -1.
</event>
<event>
 7    1  0.2788485E-009  0.1388397E+03  0.7561462E-02  0.1214899E+00
         -2   -1    0    0    0  501 -0.00000000000E+00  0.00000000000E+00  0.27219115099E+03  0.27219115099E+03  0.00000000000E+00 0.  1.
          2   -1    0    0  501    0  0.00000000000E+00 -0.00000000000E+00 -0.95103271326E+02  0.95103271326E+02  0.00000000000E+00 0. -1.
         25    2    1    2    0    0  0.78376994241E+02  0.71702108167E+02  0.15392862872E+03  0.22500354181E+03  0.12509366708E+03 0.  0.
          5    1    3    3  502    0  0.67479447815E+02 -0.19385039805E+02  0.49874063480E+02  0.86221518507E+02  0.41800000000E+01 0.  1.
         -5    1    3    3    0  502  0.10897546426E+02  0.91087147973E+02  0.10405456524E+03  0.13878202330E+03  0.41800000000E+01 0.  1.
        -11    1    1    2    0    0 -0.45921854095E+02 -0.11845159065E+02  0.50171938731E+02  0.69038742115E+02  0.00000000000E+00 0.  1.
         11    1    1    2    0    0 -0.32455140146E+02 -0.59856949102E+02 -0.27012687788E+02  0.73252138394E+02  0.00000000000E+00 0. -1.
</event>
<event>
 7    1  0.2788485E-009  0.1228494E+03  0.7561462E-02  0.1238469E+00
          1   -1    0    0  501    0  0.00000000000E+00  0.00000000000E+00  0.22766761982E+03  0.22766761982E+03  0.00000000000E+00 0. -1.
         -1   -1    0    0    0  501 -0.00000000000E+00 -0.00000000000E+00 -0.20943126980E+03  0.20943126980E+03  0.00000000000E+00 0.  1.
         25    2    1    2    0    0 -0.40934800965E+02 -0.98373968626E+02  0.16507588307E+03  0.23291770764E+03  0.12509003048E+03 0.  0.
          5    1    3    3  502    0 -0.14671436149E+02 -0.97742048553E+02  0.42809460229E+02  0.10779091510E+03  0.41800000000E+01 0. -1.
         -5    1    3    3    0  502 -0.26263364816E+02 -0.63192007235E+00  0.12226642284E+03  0.12512679253E+03  0.41800000000E+01 0. -1.
        -11    1    1    2    0    0  0.52564667578E+02  0.94091395844E+02 -0.75061354445E+02  0.13134093795E+03  0.00000000000E+00 0. -1.
         11    1    1    2    0    0 -0.11629866613E+02  0.42825727819E+01 -0.71778178608E+02  0.72840244037E+02  0.00000000000E+00 0.  1.
</event>
<event>
 7    1  0.2788485E-009  0.9175766E+02  0.7561462E-02  0.1298650E+00
         -1   -1    0    0    0  501 -0.00000000000E+00  0.00000000000E+00  0.60350263325E+02  0.60350263325E+02  0.00000000000E+00 0.  1.
          1   -1    0    0  501    0  0.00000000000E+00 -0.00000000000E+00 -0.21571131566E+03  0.21571131566E+03  0.00000000000E+00 0. -1.
         25    2    1    2    0    0 -0.18283296381E+01 -0.17234013571E+02 -0.47769835765E+02  0.13501885176E+03  0.12509108325E+03 0.  0.
          5    1    3    3  502    0 -0.45526602085E+02  0.94278520183E+01  0.19325580185E+02  0.50522335067E+02  0.41800000000E+01 0. -1.
         -5    1    3    3    0  502  0.43698272447E+02 -0.26661865589E+02 -0.67095415950E+02  0.84496516692E+02  0.41800000000E+01 0. -1.
        -11    1    1    2    0    0  0.20778862829E+02  0.46316083555E+02 -0.38464489483E+02  0.63690326483E+02  0.00000000000E+00 0.  1.
         11    1    1    2    0    0 -0.18950533191E+02 -0.29082069984E+02 -0.69126727083E+02  0.77352400739E+02  0.00000000000E+00 0. -1.
</event>
<event>
 7    1  0.2788485E-009  0.1097892E+03  0.7561462E-02  0.1260961E+00
         -1   -1    0    0    0  501 -0.00000000000E+00  0.00000000000E+00  0.34345531610E+02  0.34345531610E+02  0.00000000000E+00 0.  1.
          1   -1    0    0  501    0  0.00000000000E+00 -0.00000000000E+00 -0.40310220936E+03  0.40310220936E+03  0.00000000000E+00 0. -1.
         25    2    1    2    0    0  0.20620244308E+01 -0.44660529016E+02 -0.18189288550E+03  0.22524331225E+03  0.12510281020E+03 0.  0.
          5    1    3    3  502    0 -0.43370310173E+02 -0.57102809391E+02 -0.56997285275E+02  0.91694479515E+02  0.41800000000E+01 0. -1.
         -5    1    3    3    0  502  0.45432334604E+02  0.12442280375E+02 -0.12489560023E+03  0.13354883273E+03  0.41800000000E+01 0. -1.
        -11    1    1    2    0    0 -0.39704219758E+02  0.48435776475E+02 -0.12105944260E+03  0.13630054348E+03  0.00000000000E+00 0. -1.
         11    1    1    2    0    0  0.37642195327E+02 -0.37752474587E+01 -0.65804349643E+02  0.75903885239E+02  0.00000000000E+00 0.  1.
</event>
<event>
 7    1  0.2788485E-009  0.1450221E+03  0.7561462E-02  0.1206727E+00
         -1   -1    0    0    0  501 -0.00000000000E+00  0.00000000000E+00  0.28303004467E+03  0.28303004467E+03  0.00000000000E+00 0.  1.
          1   -1    0    0  501    0  0.00000000000E+00 -0.00000000000E+00 -0.11125459898E+03  0.11125459898E+03  0.00000000000E+00 0. -1.
         25    2    1    2    0    0 -0.44964658855E+02  0.86205352779E+02  0.16229370599E+03  0.22680374498E+03  0.12509000096E+03 0.  0.
          5    1    3    3  502    0 -0.65198932196E+02  0.52365072366E+02  0.30395498253E+02  0.89075026115E+02  0.41800000000E+01 0.  1.
         -5    1    3    3    0  502  0.20234273341E+02  0.33840280413E+02  0.13189820773E+03  0.13772871886E+03  0.41800000000E+01 0.  1.
        -11    1    1    2    0    0  0.93601893873E+02 -0.62580579026E+02  0.61288405070E-01  0.11259505835E+03  0.00000000000E+00 0. -1.
         11    1    1    2    0    0 -0.48637235017E+02 -0.23624773753E+02  0.94204512958E+01  0.54885840320E+02  0.00000000000E+00 0.  1.
</event>
<event>
 7    1  0.2788485E-009  0.1607370E+03  0.7561462E-02  0.1187867E+00
          2   -1    0    0  501    0  0.00000000000E+00  0.00000000000E+00  0.12580030253E+04  0.12580030253E+04  0.00000000000E+00 0. -1.
         -2   -1    0    0    0  501 -0.00000000000E+00 -0.00000000000E+00 -0.27496769299E+02  0.27496769299E+02  0.00000000000E+00 0.  1.
         25    2    1    2    0    0 -0.14149041729E+03 -0.77352142017E+01  0.82089358355E+03  0.84237242004E+03  0.12508256001E+03 0.  0.
          5    1    3    3  502    0 -0.10897623196E+03  0.18595212171E+02  0.29938409905E+03  0.31917066314E+03  0.41800000000E+01 0. -1.
         -5    1    3    3    0  502 -0.32514185324E+02 -0.26330426372E+02  0.52150948450E+03  0.52320175690E+03  0.41800000000E+01 0. -1.
        -11    1    1    2    0    0 -0.29636860978E+01 -0.21256542515E+02  0.60704381222E+02  0.64386690663E+02  0.00000000000E+00 0. -1.
         11    1    1    2    0    0  0.14445410339E+03  0.28991756717E+02  0.34890829119E+03  0.37874068385E+03  0.00000000000E+00 0.  1.
</event>
<event>
 7    1  0.2788485E-009  0.1590464E+03  0.7561462E-02  0.1189778E+00
         -2   -1    0    0    0  501 -0.00000000000E+00  0.00000000000E+00  0.63682491378E+02  0.63682491378E+02  0.00000000000E+00 0. -1.
          2   -1    0    0  501    0  0.00000000000E+00 -0.00000000000E+00 -0.49787123433E+03  0.49787123433E+03  0.00000000000E+00 0.  1.
         25    2    1    2    0    0 -0.88035784435E+02 -0.88195577297E+02 -0.12743195661E+03  0.21774942525E+03  0.12508856636E+03 0.  0.
          5    1    3    3  502    0  0.16943162043E+02  0.17868048562E+02 -0.70000208697E+01  0.25938592707E+02  0.41800000000E+01 0. -1.
         -5    1    3    3    0  502 -0.10497894648E+03 -0.10606362586E+03 -0.12043193574E+03  0.19181083254E+03  0.41800000000E+01 0. -1.
        -11    1    1    2    0    0  0.59605266983E+02  0.97623300885E+01 -0.68304288413E+02  0.91178762640E+02  0.00000000000E+00 0.  1.
         11    1    1    2    0    0  0.28430517452E+02  0.78433247208E+02 -0.23845249793E+03  0.25262553782E+03  0.00000000000E+00 0. -1.
</event>
<event>
 7    1  0.2788485E-009  0.1294700E+03  0.7561462E-02  0.1228244E+00
          2   -1    0    0  501    0  0.00000000000E+00  0.00000000000E+00  0.82838434928E+03  0.82838434928E+03  0.00000000000E+00 0.  1.
         -2   -1    0    0    0  501 -0.00000000000E+00 -0.00000000000E+00 -0.31251398722E+02  0.31251398722E+02  0.00000000000E+00 0. -1.
         25    2    1    2    0    0  0.24412556214E+02 -0.11082321786E+03  0.51730706848E+03  0.54417985778E+03  0.12508939203E+03 0.  0.
          5    1    3    3  502    0  0.74986711331E+00 -0.12160739209E+01 -0.68476218736E+01  0.81488319281E+01  0.41800000000E+01 0.  1.
         -5    1    3    3    0  502  0.23662689100E+02 -0.10960714394E+03  0.52415469036E+03  0.53603102586E+03  0.41800000000E+01 0.  1.
        -11    1    1    2    0    0 -0.36911443714E+02  0.12080406882E+03  0.22160821486E+03  0.25508092562E+03  0.00000000000E+00 0. -1.
         11    1    1    2    0    0  0.12498887500E+02 -0.99808509562E+01  0.58217667216E+02  0.60374964601E+02  0.00000000000E+00 0.  1.
</event>
<event>
 7    1  0.2788485E-009  0.1259161E+03  0.7561462E-02  0.1233644E+00
          1   -1    0    0  501    0  0.00000000000E+00  0.00000000000E+00  0.20376036262E+03  0.20376036262E+03  0.00000000000E+00 0. -1.
         -1   -1    0    0    0  501 -0.00000000000E+00 -0.00000000000E+00 -0.10114231755E+03  0.10114231755E+03  0.00000000000E+00 0.  1.
         25    2    1    2    0    0  0.72335545283E+02 -0.42694324244E+02  0.10206079493E+03  0.18198710135E+03  0.12509061820E+03 0.  0.
          5    1    3    3  502    0  0.46505709839E+01 -0.72227978305E+02  0.71907406162E+02  0.10211099902E+03  0.41800000000E+01 0.  1.
         -5    1    3    3    0  502  0.67684974299E+02  0.29533654062E+02  0.30153388768E+02  0.79876102323E+02  0.41800000000E+01 0.  1.
        -11    1    1    2    0    0 -0.80742810960E+02  0.49363384490E+02 -0.22683040521E+02  0.97317344689E+02  0.00000000000E+00 0.  1.
         11    1    1    2    0    0  0.84072656774E+01 -0.66690602463E+01  0.23240290662E+02  0.25598234135E+02  0.00000000000E+00 0. -1.
</event>
<event>
 7    1  0.2788485E-009  0.2747446E+03  0.7561462E-02  0.1098594E+00
         -2   -1    0    0    0  501 -0.00000000000E+00  0.00000000000E+00  0.16014294598E+03  0.16014294598E+03  0.00000000000E+00 0.  1.
          2   -1    0    0  501    0  0.00000000000E+00 -0.00000000000E+00 -0.67437622860E+03  0.67437622860E+03  0.00000000000E+00 0. -1.
         25    2    1    2    0    0  0.21866084394E+03  0.12946791880E+03 -0.36136313588E+02  0.28553002917E+03  0.12508819979E+03 0.  0.
          5    1    3    3  502    0  0.48876194261E+02  0.99083720100E+02 -0.97437673351E+01  0.11099044714E+03  0.41800000000E+01 0. -1.
         -5    1    3    3    0  502  0.16978464968E+03  0.30384198697E+02 -0.26392546253E+02  0.17453958203E+03  0.41800000000E+01 0. -1.
        -11    1    1    2    0    0 -0.55688201748E+02  0.38751421299E+01 -0.67898309794E+02  0.87899789609E+02  0.00000000000E+00 0.  1.
         11    1    1    2    0    0 -0.16297264219E+03 -0.13334306093E+03 -0.41019865924E+03  0.46108935581E+03  0.00000000000E+00 0. -1.
</event>
<event>
 7    1  0.2788485E-009  0.1318014E+03  0.7561462E-02  0.1224807E+00
         -1   -1    0    0    0  501 -0.00000000000E+00  0.00000000000E+00  0.25199049224E+03  0.25199049224E+03  0.00000000000E+00 0.  1.
          1   -1    0    0  501    0  0.00000000000E+00 -0.00000000000E+00 -0.90439128135E+02  0.90439128135E+02  0.00000000000E+00 0. -1.
         25    2    1    2    0    0 -0.67172034763E+01  0.84754304359E+02  0.51599041164E+02  0.15980669732E+03  0.12508919429E+03 0.  0.
          5    1    3    3  502    0 -0.50658692652E+02 -0.50510364519E+01  0.20189564399E+02  0.54926378190E+02  0.41800000000E+01 0. -1.
         -5    1    3    3    0  502  0.43941489176E+02  0.89805340811E+02  0.31409476765E+02  0.10488031913E+03  0.41800000000E+01 0. -1.
        -11    1    1    2    0    0 -0.25076053019E+02 -0.36482023698E+01 -0.15637905362E+02  0.29776868534E+02  0.00000000000E+00 0.  1.
         11    1    1    2    0    0  0.31793256496E+02 -0.81106101989E+02  0.12559022830E+03  0.15284605452E+03  0.00000000000E+00 0. -1.
</event>
<event>
 7    1  0.2788485E-009  0.5927062E+02  0.7561462E-02  0.1400918E+00
         -1   -1    0    0    0  501 -0.00000000000E+00  0.00000000000E+00  0.84743162970E+02  0.84743162970E+02  0.00000000000E+00 0.  1.
          1   -1    0    0  501    0  0.00000000000E+00 -0.00000000000E+00 -0.15004631529E+03  0.15004631529E+03  0.00000000000E+00 0. -1.
         25    2    1    2    0    0  0.25522192541E+02 -0.46614373413E+01 -0.15520528934E+02  0.12869022908E+03  0.12508867628E+03 0.  0.
          5    1    3    3  502    0  0.33274128019E+02  0.98031861435E+01  0.50010424487E+02  0.61006434180E+02  0.41800000000E+01 0.  1.
         -5    1    3    3    0  502 -0.77519354785E+01 -0.14464623485E+02 -0.65530953420E+02  0.67683794903E+02  0.41800000000E+01 0.  1.
        -11    1    1    2    0    0 -0.16278368318E+02  0.33033878011E+02  0.10959592195E+02  0.38423105453E+02  0.00000000000E+00 0.  1.
         11    1    1    2    0    0 -0.92438242226E+01 -0.28372440669E+02 -0.60742215584E+02  0.67676143728E+02  0.00000000000E+00 0. -1.
</event>
<event>
 7    1  0.2788485E-009  0.8630385E+02  0.7561462E-02  0.1312058E+00
         -1   -1    0    0    0  501 -0.00000000000E+00  0.00000000000E+00  0.22358601084E+03  0.22358601084E+03  0.00000000000E+00 0.  1.
          1   -1    0    0  501    0  0.00000000000E+00 -0.00000000000E+00 -0.89789619610E+02  0.89789619610E+02  0.00000000000E+00 0. -1.
         25    2    1    2    0    0  0.48744412741E+02  0.51587319789E+02  0.14054470282E+03  0.20109163104E+03  0.12509101185E+03 0.  0.
          5    1    3    3  502    0  0.44110480456E+02  0.87616622515E+01  0.15011977762E+03  0.15676709235E+03  0.41800000000E+01 0. -1.
         -5    1    3    3    0  502  0.46339322854E+01  0.42825657538E+02 -0.95750748017E+01  0.44324538683E+02  0.41800000000E+01 0. -1.
        -11    1    1    2    0    0 -0.37206856430E+02 -0.59498555313E+02  0.27436796337E+02  0.75347236465E+02  0.00000000000E+00 0.  1.
         11    1    1    2    0    0 -0.11537556311E+02  0.79112355233E+01 -0.34185107928E+02  0.36936762950E+02  0.00000000000E+00 0. -1.
</event>
<event>
 7    1  0.2788485E-009  0.1190743E+03  0.7561462E-02  0.1244632E+00
         -1   -1    0    0    0  501 -0.00000000000E+00  0.00000000000E+00  0.23678970740E+02  0.23678970740E+02  0.00000000000E+00 0.  1.
          1   -1    0    0  501    0  0.00000000000E+00 -0.00000000000E+00 -0.61312749443E+03  0.61312749443E+03  0.00000000000E+00 0. -1.
         25    2    1    2    0    0  0.14752585041E+02  0.50315263376E+02 -0.36135274016E+03  0.38596978361E+03  0.12509039351E+03 0.  0.
          5    1    3    3  502    0 -0.17119524267E+02  0.85677753786E+02 -0.24709488365E+03  0.26212041037E+03  0.41800000000E+01 0. -1.
         -5    1    3    3    0  502  0.31872109308E+02 -0.35362490410E+02 -0.11425785650E+03  0.12384937324E+03  0.41800000000E+01 0. -1.
        -11    1    1    2    0    0  0.37378346495E+02 -0.24714889721E+02 -0.78922057187E+02  0.90756033800E+02  0.00000000000E+00 0. -1.
         11    1    1    2    0    0 -0.52130931536E+02 -0.25600373654E+02 -0.14917372635E+03  0.16008064776E+03  0.00000000000E+00 0.  1.
</event>
<event>
 7    1  0.2788485E-009  0.1143554E+03  0.7561462E-02  0.1252710E+00
          1   -1    0    0  501    0  0.00000000000E+00  0.00000000000E+00  0.22467946193E+03  0.22467946193E+03  0.00000000000E+00 0. -1.
         -1   -1    0    0    0  501 -0.00000000000E+00 -0.00000000000E+00 -0.90171909275E+02  0.90171909275E+02  0.00000000000E+00 0.  1.
         25    2    1    2    0    0 -0.18603476397E+02 -0.74574539988E+02  0.18321499186E+02  0.14795397221E+03  0.12508896519E+03 0.  0.
          5    1    3    3  502    0  0.29687414508E+02 -0.52990525499E+02  0.56123823065E+02  0.82805158585E+02  0.41800000000E+01 0. -1.
         -5    1    3    3    0  502 -0.48290890905E+02 -0.21584014489E+02 -0.37802323879E+02  0.65148813623E+02  0.41800000000E+01 0. -1.
        -11    1    1    2    0    0  0.51255320201E+02  0.60275930696E+02  0.55953163115E+02  0.96907441060E+02  0.00000000000E+00 0.  1.
         11    1    1    2    0    0 -0.32651843804E+02  0.14298609292E+02  0.60232890352E+02  0.69989957935E+02  0.00000000000E+00 0. -1.
</event>
<event>
 7    1  0.2788485E-009  0.1223613E+03  0.7561462E-02  0.1239252E+00
         -1   -1    0    0    0  501 -0.00000000000E+00  0.00000000000E+00  0.60317319335E+03  0.60317319335E+03  0.00000000000E+00 0.  1.
          1   -1    0    0  501    0  0.00000000000E+00 -0.00000000000E+00 -0.27244014567E+02  0.27244014567E+02  0.00000000000E+00 0. -1.
         25    2    1    2    0    0 -0.36261968541E+02 -0.46999661713E+02  0.22970954354E+03  0.26821072368E+03  0.12508644747E+03 0.  0.
          5    1    3    3  502    0 -0.25130872424E+02 -0.90120628971E+02  0.15954636409E+03  0.18500217082E+03  0.41800000000E+01 0.  1.
         -5    1    3    3    0  502 -0.11131096117E+02  0.43120967259E+02  0.70163179445E+02  0.83208552853E+02  0.41800000000E+01 0.  1.
        -11    1    1    2    0    0  0.57515418173E+02  0.31387082967E+01  0.18046018361E+03  0.18943007334E+03  0.00000000000E+00 0.  1.
         11    1    1    2    0    0 -0.21253449632E+02  0.43860953416E+02  0.16575945164E+03  0.17277641090E+03  0.00000000000E+00 0. -1.
</event>
<event>
 7    1  0.2788485E-009  0.1044856E+03  0.7561462E-02  0.1271136E+00
         -1   -1    0    0    0  501 -0.00000000000E+00  0.00000000000E+00  0.18816138340E+02  0.18816138340E+02  0.00000000000E+00 0.  1.
          1   -1    0    0  501    0  0.00000000000E+00 -0.00000000000E+00 -0.11740798348E+04  0.11740798348E+04  0.00000000000E+00 0. -1.
         25    2    1    2    0    0  0.13250394934E+01  0.38190929264E+02 -0.10145463638E+04  0.10229431021E+04  0.12509181805E+03 0.  0.
          5    1    3    3  502    0  0.37903912453E+02 -0.29703459723E+02 -0.53929178536E+03  0.54145369539E+03  0.41800000000E+01 0. -1.
         -5    1    3    3    0  502 -0.36578872960E+02  0.67894388987E+02 -0.47525457844E+03  0.48148940667E+03  0.41800000000E+01 0. -1.
        -11    1    1    2    0    0  0.29621496125E+02  0.52298391691E+01 -0.95225241010E+02  0.99863060117E+02  0.00000000000E+00 0. -1.
         11    1    1    2    0    0 -0.30946535618E+02 -0.43420768433E+02 -0.45492091643E+02  0.70089810958E+02  0.00000000000E+00 0.  1.
</event>
<event>
 7    1  0.2788485E-009  0.1204967E+03  0.7561462E-02  0.1242280E+00
          3   -1    0    0  501    0  0.00000000000E+00  0.00000000000E+00  0.13138894898E+03  0.13138894898E+03  0.00000000000E+00 0. -1.
         -3   -1    0    0    0  501 -0.00000000000E+00 -0.00000000000E+00 -0.14154417278E+03  0.14154417278E+03  0.00000000000E+00 0.  1.
         25    2    1    2    0    0  0.13068995397E+02  0.87144410008E+02 -0.88410044864E+01  0.15327125862E+03  0.12509583735E+03 0.  0.
          5    1    3    3  502    0  0.65321649004E+02  0.35766225712E+02  0.15027038996E+02  0.76088271312E+02  0.41800000000E+01 0. -1.
         -5    1    3    3    0  502 -0.52252653606E+02  0.51378184296E+02 -0.23868043482E+02  0.77182987310E+02  0.41800000000E+01 0. -1.
        -11    1    1    2    0    0 -0.15907233538E+02 -0.18911309569E+02  0.34586972383E+02  0.42508074140E+02  0.00000000000E+00 0. -1.
         11    1    1    2    0    0  0.28382381407E+01 -0.68233100439E+02 -0.35901191703E+02  0.77153788999E+02  0.00000000000E+00 0.  1.
</event>
<event>
 7    1  0.2788485E-009  0.1286365E+03  0.7561462E-02  0.1229493E+00
          2   -1    0    0  501    0  0.00000000000E+00  0.00000000000E+00  0.12302448197E+04  0.12302448197E+04  0.00000000000E+00 0.  1.
         -2   -1    0    0    0  501 -0.00000000000E+00 -0.00000000000E+00 -0.17076514491E+02  0.17076514491E+02  0.00000000000E+00 0. -1.
         25    2    1    2    0    0  0.20411312892E+01 -0.95526456994E+02  0.71527211003E+03  0.73238738588E+03  0.12509045292E+03 0.  0.
          5    1    3    3  502    0 -0.10421087124E+02  0.12720006871E+02  0.12170082541E+02  0.20880156625E+02  0.41800000000E+01 0.  1.
         -5    1    3    3    0  502  0.12462218414E+02 -0.10824646386E+03  0.70310202749E+03  0.71150722925E+03  0.41800000000E+01 0.  1.
        -11    1    1    2    0    0 -0.38084549159E+02  0.11419191535E+02  0.16013498850E+03  0.16499710713E+03  0.00000000000E+00 0.  1.
         11    1    1    2    0    0  0.36043417870E+02  0.84107265458E+02  0.33776120668E+03  0.34993684118E+03  0.00000000000E+00 0. -1.
</event>
<event>
 7    1  0.2788485E-009  0.6932972E+02  0.7561462E-02  0.1362387E+00
         -1   -1    0    0    0  501 -0.00000000000E+00  0.00000000000E+00  0.85372409216E+02  0.85372409216E+02  0.00000000000E+00 0.  1.
          1   -1    0    0  501    0  0.00000000000E+00 -0.00000000000E+00 -0.16089658570E+03  0.16089658570E+03  0.00000000000E+00 0. -1.
         25    2    1    2    0    0 -0.26027766630E+02 -0.27333444608E+02 -0.69420240466E+02  0.14795483844E+03  0.12508757973E+03 0.  0.
          5    1    3    3  502    0 -0.24415748403E+00 -0.47334299336E+01  0.36242787722E+02  0.36789632149E+02  0.41800000000E+01 0. -1.
         -5    1    3    3    0  502 -0.25783609146E+02 -0.22600014674E+02 -0.10566302819E+03  0.11116520629E+03  0.41800000000E+01 0. -1.
        -11    1    1    2    0    0 -0.32257583480E+02  0.22468886408E+02 -0.63772599905E+01  0.39825519373E+02  0.00000000000E+00 0.  1.
         11    1    1    2    0    0  0.58285350110E+02  0.48645582003E+01  0.27332397450E+00  0.58488637100E+02  0.00000000000E+00 0. -1.
</event>
<event>
 7    1  0.2788485E-009  0.3622124E+03  0.7561462E-02  0.1057711E+00
          1   -1    0    0  501    0  0.00000000000E+00  0.00000000000E+00  0.11414855162E+04  0.11414855162E+04  0.00000000000E+00 0. -1.
         -1   -1    0    0    0  501 -0.00000000000E+00 -0.00000000000E+00 -0.12851315754E+03  0.12851315754E+03  0.00000000000E+00 0.  1.
         25    2    1    2    0    0  0.34837273739E+03 -0.72139365193E+02  0.36416005338E+03  0.52423998952E+03  0.12508944787E+03 0.  0.
          5    1    3    3  502    0  0.23245619935E+02  0.78962363382E+00 -0.77590400629E+01  0.24872825620E+02  0.41800000000E+01 0. -1.
         -5    1    3    3    0  502  0.32512711745E+03 -0.72928988827E+02  0.37191909344E+03  0.49936716390E+03  0.41800000000E+01 0. -1.
        -11    1    1    2    0    0 -0.80273721723E+02 -0.22301922546E+02  0.15558167036E+03  0.17648485006E+03  0.00000000000E+00 0.  1.
         11    1    1    2    0    0 -0.26809901567E+03  0.94441287738E+02  0.49323063490E+03  0.56927383414E+03  0.00000000000E+00 0. -1.
</event>
<event>
 7    1  0.2788485E-009  0.1100248E+03  0.7561462E-02  0.1260524E+00
         -3   -1    0    0    0  501 -0.00000000000E+00  0.00000000000E+00  0.48038963237E+02  0.48038963237E+02  0.00000000000E+00 0.  1.
          3   -1    0    0  501    0  0.00000000000E+00 -0.00000000000E+00 -0.32796229035E+03  0.32796229035E+03  0.00000000000E+00 0. -1.
         25    2    1    2    0    0  0.73999475639E+00  0.63072622830E+02 -0.16068830283E+03  0.21318377540E+03  0.12509151883E+03 0.  0.
          5    1    3    3  502    0  0.43657385919E+02  0.45868448500E+02 -0.22380817474E+02  0.67292312369E+02  0.41800000000E+01 0. -1.
         -5    1    3    3    0  502 -0.42917391163E+02  0.17204174329E+02 -0.13830748536E+03  0.14589146303E+03  0.41800000000E+01 0. -1.
        -11    1    1    2    0    0 -0.11715004868E+02 -0.84914194911E+02 -0.10001725396E+03  0.13172362327E+03  0.00000000000E+00 0. -1.
         11    1    1    2    0    0  0.10975010111E+02  0.21841572081E+02 -0.19217770321E+02  0.31093854924E+02  0.00000000000E+00 0.  1.
</event>
<event>
 7    1  0.2788485E-009  0.1113352E+03  0.7561462E-02  0.1258117E+00
         -2   -1    0    0    0  501 -0.00000000000E+00  0.00000000000E+00  0.25854889267E+02  0.25854889267E+02  0.00000000000E+00 0.  1.
          2   -1    0    0  501    0  0.00000000000E+00 -0.00000000000E+00 -0.60495544335E+03  0.60495544335E+03  0.00000000000E+00 0. -1.
         25    2    1    2    0    0 -0.27303717392E+02  0.61439447442E+02 -0.34239099060E+03  0.37067387276E+03  0.12508889165E+03 0.  0.
          5    1    3    3  502    0 -0.33916739256E+02 -0.28761422365E+02 -0.17219905273E+03  0.17789758508E+03  0.41800000000E+01 0. -1.
         -5    1    3    3    0  502  0.66130218639E+01  0.90200869807E+02 -0.17019193788E+03  0.19277628768E+03  0.41800000000E+01 0. -1.
        -11    1    1    2    0    0  0.44659881865E+02 -0.40721863098E+02 -0.22047412298E+03  0.22860799217E+03  0.00000000000E+00 0. -1.
         11    1    1    2    0    0 -0.17356164473E+02 -0.20717584344E+02 -0.16235440501E+02  0.31528467684E+02  0.00000000000E+00 0.  1.
</event>
<event>
 7    1  0.2788485E-009  0.1141442E+03  0.7561462E-02  0.1253082E+00
          2   -1    0    0  501    0  0.00000000000E+00  0.00000000000E+00  0.12709443239E+03  0.12709443239E+03  0.00000000000E+00 0. -1.
         -2   -1    0    0    0  501 -0.00000000000E+00 -0.00000000000E+00 -0.14716285237E+03  0.14716285237E+03  0.00000000000E+00 0.  1.
         25    2    1    2    0    0 -0.60584934115E+02 -0.86413734552E+01 -0.64266205948E+02  0.15337052135E+03  0.12508862464E+03 0.  0.
          5    1    3    3  502    0 -0.30188256976E+02  0.45270401264E+02  0.11170726861E+02  0.55704556622E+02  0.41800000000E+01 0. -1.
         -5    1    3    3    0  502 -0.30396677139E+02 -0.53911774719E+02 -0.75436932809E+02  0.97665964727E+02  0.41800000000E+01 0. -1.
        -11    1    1    2    0    0  0.79950780245E+02  0.27602063075E+02  0.39617718099E+02  0.93400025349E+02  0.00000000000E+00 0. -1.
         11    1    1    2    0    0 -0.19365846131E+02 -0.18960689620E+02  0.45800678693E+01  0.27486738055E+02  0.00000000000E+00 0.  1.
</event>
<event>
 7    1  0.2788485E-009  0.1350277E+03  0.7561462E-02  0.1220181E+00
         -4   -1    0    0    0  501 -0.00000000000E+00  0.00000000000E+00  0.26711379638E+02  0.26711379638E+02  0.00000000000E+00 0.  1.
          4   -1    0    0  501    0  0.00000000000E+00 -0.00000000000E+00 -0.74847278191E+03  0.74847278191E+03  0.00000000000E+00 0. -1.
         25    2    1    2    0    0  0.81876922690E+02  0.27971223970E+01 -0.28188441219E+03  0.31909235795E+03  0.12509778857E+03 0.  0.
          5    1    3    3  502    0  0.42453746945E+02  0.63821177718E+02 -0.14479993103E+03  0.16389007225E+03  0.41800000000E+01 0.  1.
         -5    1    3    3    0  502  0.39423175745E+02 -0.61024055321E+02 -0.13708448116E+03  0.15520228571E+03  0.41800000000E+01 0.  1.
        -11    1    1    2    0    0 -0.82521875240E+02  0.29932727832E+02 -0.31739736852E+03  0.32931279603E+03  0.00000000000E+00 0.  1.
         11    1    1    2    0    0  0.64495254995E+00 -0.32729850229E+02 -0.12247962157E+03  0.12677900757E+03  0.00000000000E+00 0. -1.
</event>
<event>
 7    1  0.2788485E-009  0.1063911E+03  0.7561462E-02  0.1267403E+00
         -2   -1    0    0    0  501 -0.00000000000E+00  0.00000000000E+00  0.19805115858E+02  0.19805115858E+02  0.00000000000E+00 0.  1.
          2   -1    0    0  501    0  0.00000000000E+00 -0.00000000000E+00 -0.74650036240E+03  0.74650036240E+03  0.00000000000E+00 0. -1.
         25    2    1    2    0    0 -0.46394172225E+02  0.23141475065E+02 -0.45975547849E+03  0.47928054955E+03  0.12508716197E+03 0.  0.
          5    1    3    3  502    0 -0.55627101172E+02 -0.26882889035E+02 -0.37699297323E+03  0.38204481200E+03  0.41800000000E+01 0. -1.
         -5    1    3    3    0  502  0.92329289473E+01  0.50024364100E+02 -0.82762505259E+02  0.97235737552E+02  0.41800000000E+01 0. -1.
        -11    1    1    2    0    0 -0.20813655573E+02  0.11950082487E+02 -0.31013069357E+02  0.39215088941E+02  0.00000000000E+00 0.  1.
         11    1    1    2    0    0  0.67207827798E+02 -0.35091557551E+02 -0.23592669869E+03  0.24780983977E+03  0.00000000000E+00 0. -1.
</event>
<event>
 7    1  0.2788485E-009  0.1456652E+03  0.7561462E-02  0.1205903E+00
          2   -1    0    0  501    0  0.00000000000E+00  0.00000000000E+00  0.28263044816E+03  0.28263044816E+03  0.00000000000E+00 0.  1.
         -2   -1    0    0    0  501 -0.00000000000E+00 -0.00000000000E+00 -0.84413647484E+02  0.84413647484E+02  0.00000000000E+00 0. -1.
         25    2    1    2    0    0 -0.80117515063E+01 -0.10525739612E+03  0.71258998547E+02  0.17851877086E+03  0.12509116306E+03 0.  0.
          5    1    3    3  502    0 -0.17295432622E+02  0.23300968236E+02  0.32696270390E+02  0.43915664719E+02  0.41800000000E+01 0. -1.
         -5    1    3    3    0  502  0.92836811153E+01 -0.12855836435E+03  0.38562728157E+02  0.13460310614E+03  0.41800000000E+01 0. -1.
        -11    1    1    2    0    0  0.25410576530E+02 -0.95015532314E+00  0.50395917297E+02  0.56447751726E+02  0.00000000000E+00 0.  1.
         11    1    1    2    0    0 -0.17398825024E+02  0.10620755144E+03  0.76561884828E+02  0.13207757305E+03  0.00000000000E+00 0. -1.
</event>
<event>
 7    1  0.2788485E-009  0.8905663E+02  0.7561462E-02  0.1305152E+00
          1   -1    0    0  501    0  0.00000000000E+00  0.00000000000E+00  0.52480059528E+03  0.52480059528E+03  0.00000000000E+00 0. -1.
         -1   -1    0    0    0  501 -0.00000000000E+00 -0.00000000000E+00 -0.73930524982E+02  0.73930524982E+02  0.00000000000E+00 0.  1.
         25    2    1    2    0    0 -0.40786678211E+02  0.28426578595E+02  0.47253340682E+03  0.49133089004E+03  0.12508636797E+03 0.  0.
          5    1    3    3  502    0 -0.19830427328E+02 -0.29737688257E+02  0.37752514579E+02  0.52156502067E+02  0.41800000000E+01 0.  1.
         -5    1    3    3    0  502 -0.20956250884E+02  0.58164266852E+02  0.43478089224E+03  0.43917438797E+03  0.41800000000E+01 0.  1.
        -11    1    1    2    0    0  0.31937440512E+02  0.15395406337E+02  0.24532024696E+02  0.43114253774E+02  0.00000000000E+00 0. -1.
         11    1    1    2    0    0  0.88492376989E+01 -0.43821984932E+02 -0.46195361215E+02  0.64285976457E+02  0.00000000000E+00 0.  1.
</event>
<event>
 7    1  0.2788485E-009  0.9718024E+02  0.7561462E-02  0.1286340E+00
         -2   -1    0    0    0  501 -0.00000000000E+00  0.00000000000E+00  0.34103421102E+02  0.34103421102E+02  0.00000000000E+00 0. -1.
          2   -1    0    0  501    0  0.00000000000E+00 -0.00000000000E+00 -0.52130237472E+03  0.52130237472E+03  0.00000000000E+00 0.  1.
         25    2    1    2    0    0 -0.57557464246E+01 -0.60368287182E+02 -0.37481099945E+03  0.39975869114E+03  0.12508503955E+03 0.  0.
          5    1    3    3  502    0  0.30780869454E+02 -0.42997147891E+02 -0.34569207867E+03  0.34973804813E+03  0.41800000000E+01 0. -1.
         -5    1    3    3    0  502 -0.36536615879E+02 -0.17371139291E+02 -0.29118920775E+02  0.50020643011E+02  0.41800000000E+01 0. -1.
        -11    1    1    2    0    0  0.35402962913E+02  0.23380658257E+01 -0.68310572064E+02  0.76975129688E+02  0.00000000000E+00 0.  1.
         11    1    1    2    0    0 -0.29647216488E+02  0.58030221356E+02 -0.44077382106E+02  0.78671974994E+02  0.00000000000E+00 0. -1.
</event>
<event>
 7    1  0.2788485E-009  0.1202302E+03  0.7561462E-02  0.1242718E+00
          2   -1    0    0  501    0  0.00000000000E+00  0.00000000000E+00  0.13022786238E+03  0.13022786238E+03  0.00000000000E+00 0. -1.
         -2   -1    0    0    0  501 -0.00000000000E+00 -0.00000000000E+00 -0.15210533628E+03  0.15210533628E+03  0.00000000000E+00 0.  1.
         25    2    1    2    0    0  0.69096178992E+02 -0.52896432930E+02 -0.41089935969E+00  0.15238413953E+03  0.12509373515E+03 0.  0.
          5    1    3    3  502    0  0.70750383523E+01  0.33927569754E+02 -0.24838257043E+02  0.42843290840E+02  0.41800000000E+01 0.  1.
         -5    1    3    3    0  502  0.62021140640E+02 -0.86824002684E+02  0.24427357683E+02  0.10954084869E+03  0.41800000000E+01 0.  1.
        -11    1    1    2    0    0 -0.23443959880E+02  0.47279640188E+02  0.30177019277E+02  0.60791743877E+02  0.00000000000E+00 0. -1.
         11    1    1    2    0    0 -0.45652219112E+02  0.56167927428E+01 -0.51643593815E+02  0.69157315251E+02  0.00000000000E+00 0.  1.
</event>
<event>
 7    1  0.2788485E-009  0.7535843E+02  0.7561462E-02  0.1342765E+00
         -2   -1    0    0    0  501 -0.00000000000E+00  0.00000000000E+00  0.18943647728E+02  0.18943647728E+02  0.00000000000E+00 0.  1.
          2   -1    0    0  501    0  0.00000000000E+00 -0.00000000000E+00 -0.91891196605E+03  0.91891196605E+03  0.00000000000E+00 0. -1.
         25    2    1    2    0    0 -0.44698701021E+02 -0.39598219220E+02 -0.65332589454E+03  0.66786804617E+03  0.12508800814E+03 0.  0.
          5    1    3    3  502    0  0.88194377436E+01  0.10332667039E+01  0.12011439026E+01  0.98876321164E+01  0.41800000000E+01 0.  1.
         -5    1    3    3    0  502 -0.53518138764E+02 -0.40631485924E+02 -0.65452703845E+03  0.65798041406E+03  0.41800000000E+01 0.  1.
        -11    1    1    2    0    0  0.47363961932E+01  0.32679813479E+02 -0.17671292142E+02  0.37452346040E+02  0.00000000000E+00 0.  1.
         11    1    1    2    0    0  0.39962304827E+02  0.69184057410E+01 -0.22897113164E+03  0.23253522156E+03  0.00000000000E+00 0. -1.
</event>
<event>
 7    1  0.2788485E-009  0.1258625E+03  0.7561462E-02  0.1233728E+00
         -1   -1    0    0    0  501 -0.00000000000E+00  0.00000000000E+00  0.10423617970E+03  0.10423617970E+03  0.00000000000E+00 0.  1.
          1   -1    0    0  501    0  0.00000000000E+00 -0.00000000000E+00 -0.17468577348E+03  0.17468577348E+03  0.00000000000E+00 0. -1.
         25    2    1    2    0    0 -0.37308052373E+02  0.62973253403E+02 -0.74137010923E+02  0.16279318117E+03  0.12509117487E+03 0.  0.
          5    1    3    3  502    0  0.26100007440E+02 -0.24811390387E+02 -0.23265951715E+02  0.43076587498E+02  0.41800000000E+01 0.  1.
         -5    1    3    3    0  502 -0.63408059813E+02  0.87784643789E+02 -0.50871059207E+02  0.11971659367E+03  0.41800000000E+01 0.  1.
        -11    1    1    2    0    0 -0.19922497132E+02 -0.41391587382E+02 -0.20567161358E+02  0.50330681739E+02  0.00000000000E+00 0. -1.
         11    1    1    2    0    0  0.57230549505E+02 -0.21581666021E+02  0.24254578502E+02  0.65798090270E+02  0.00000000000E+00 0.  1.
</event>
<event>
 7    1  0.2788485E-009  0.1749333E+03  0.7561462E-02  0.1172799E+00
         -2   -1    0    0    0  501 -0.00000000000E+00  0.00000000000E+00  0.30566487773E+02  0.30566487773E+02  0.00000000000E+00 0.  1.
          2   -1    0    0  501    0  0.00000000000E+00 -0.00000000000E+00 -0.11387485390E+04  0.11387485390E+04  0.00000000000E+00 0. -1.
         25    2    1    2    0    0  0.13290667978E+03 -0.73378302433E+02 -0.59254099715E+03  0.62433976994E+03  0.12508698662E+03 0.  0.
          5    1    3    3  502    0  0.15118386933E+03 -0.62158707042E+02 -0.56982021632E+03  0.59281769418E+03  0.41800000000E+01 0. -1.
         -5    1    3    3    0  502 -0.18277189547E+02 -0.11219595391E+02 -0.22720780837E+02  0.31522075762E+02  0.41800000000E+01 0. -1.
        -11    1    1    2    0    0 -0.33871170119E+02  0.53759430692E+02 -0.11071154114E+03  0.12764943359E+03  0.00000000000E+00 0.  1.
         11    1    1    2    0    0 -0.99035509665E+02  0.19618871741E+02 -0.40492951289E+03  0.41732582320E+03  0.00000000000E+00 0. -1.
</event>
<event>
 7    1  0.2788485E-009  0.8792797E+02  0.7561462E-02  0.1307948E+00
          2   -1    0    0  501    0  0.00000000000E+00  0.00000000000E+00  0.11913376178E+03  0.11913376178E+03  0.00000000000E+00 0. -1.
         -2   -1    0    0    0  501 -0.00000000000E+00 -0.00000000000E+00 -0.12617819705E+03  0.12617819705E+03  0.00000000000E+00 0.  1.
         25    2    1    2    0    0  0.48615280366E+02 -0.56919506483E+01  0.28230845439E+02  0.13725992910E+03  0.12508982258E+03 0.  0.
          5    1    3    3  502    0 -0.81231980739E+01  0.34762269349E+02 -0.29636394510E+02  0.46585298075E+02  0.41800000000E+01 0.  1.
         -5    1    3    3    0  502  0.56738478440E+02 -0.40454219997E+02  0.57867239949E+02  0.90674631020E+02  0.41800000000E+01 0.  1.
        -11    1    1    2    0    0 -0.14242570645E+01 -0.17475428927E+02  0.23419806247E+02  0.29255878880E+02  0.00000000000E+00 0. -1.
         11    1    1    2    0    0 -0.47191023302E+02  0.23167379575E+02 -0.58695086953E+02  0.78796150851E+02  0.00000000000E+00 0.  1.
</event>
<event>
 7    1  0.2788485E-009  0.1757709E+03  0.7561462E-02  0.1171960E+00
          2   -1    0    0  501    0  0.00000000000E+00  0.00000000000E+00  0.11417198446E+04  0.11417198446E+04  0.00000000000E+00 0. -1.
         -2   -1    0    0    0  501 -0.00000000000E+00 -0.00000000000E+00 -0.36387177648E+02  0.36387177648E+02  0.00000000000E+00 0.  1.
         25    2    1    2    0    0 -0.45700366070E+02  0.14714972769E+03  0.80408930741E+03  0.82822039198E+03  0.12509131698E+03 0.  0.
          5    1    3    3  502    0 -0.54796501234E+02  0.97062929496E+01  0.15710215344E+03  0.16671960798E+03  0.41800000000E+01 0. -1.
         -5    1    3    3    0  502  0.90961351643E+01  0.13744343474E+03  0.64698715397E+03  0.66150078400E+03  0.41800000000E+01 0. -1.
        -11    1    1    2    0    0  0.85792668619E+00 -0.59199227626E+02  0.42303835257E+02  0.72766057108E+02  0.00000000000E+00 0.  1.
         11    1    1    2    0    0  0.44842439384E+02 -0.87950500063E+02  0.25893952430E+03  0.27712057318E+03  0.00000000000E+00 0. -1.
</event>
<event>
 7    1  0.2788485E-009  0.1318891E+03  0.7561462E-02  0.1224679E+00
         -2   -1    0    0    0  501 -0.00000000000E+00  0.00000000000E+00  0.34790140862E+03  0.34790140862E+03  0.00000000000E+00 0. -1.
          2   -1    0    0  501    0  0.00000000000E+00 -0.00000000000E+00 -0.53609080855E+02  0.53609080855E+02  0.00000000000E+00 0.  1.
         25    2    1    2    0    0  0.75471298597E+02  0.28486592926E+02  0.13872237491E+03  0.20346590703E+03  0.12508826937E+03 0.  0.
          5    1    3    3  502    0  0.37896088989E+02  0.75903315021E+02  0.10132373565E+03  0.13221724017E+03  0.41800000000E+01 0. -1.
         -5    1    3    3    0  502  0.37575209608E+02 -0.47416722095E+02  0.37398639263E+02  0.71248666865E+02  0.41800000000E+01 0. -1.
        -11    1    1    2    0    0 -0.28760694374E+02  0.31179059796E+02  0.32174143679E+02  0.53239898874E+02  0.00000000000E+00 0.  1.
         11    1    1    2    0    0 -0.46710604223E+02 -0.59665652722E+02  0.12339580918E+03  0.14480468357E+03  0.00000000000E+00 0. -1.
</event>
<event>
 7    1  0.2788485E-009  0.1374605E+03  0.7561462E-02  0.1216787E+00
          1   -1    0    0  501    0  0.00000000000E+00  0.00000000000E+00  0.55767211819E+03  0.55767211819E+03  0.00000000000E+00 0. -1.
         -1   -1    0    0    0  501 -0.00000000000E+00 -0.00000000000E+00 -0.54505030812E+02  0.54505030812E+02  0.00000000000E+00 0.  1.
         25    2    1    2    0    0 -0.11966096779E+03  0.63769548579E+02  0.24881977297E+03  0.30974934596E+03  0.12509226740E+03 0.  0.
          5    1    3    3  502    0 -0.92411046672E+02  0.33731867242E+02  0.57268178461E+02  0.11390679119E+03  0.41800000000E+01 0. -1.
         -5    1    3    3    0  502 -0.27249921117E+02  0.30037681337E+02  0.19155159451E+03  0.19584255477E+03  0.41800000000E+01 0. -1.
        -11    1    1    2    0    0  0.21131478509E+02 -0.13476221229E+02  0.14404722387E+03  0.14621132181E+03  0.00000000000E+00 0. -1.
         11    1    1    2    0    0  0.98529489280E+02 -0.50293327349E+02  0.11030009054E+03  0.15621648122E+03  0.00000000000E+00 0.  1.
</event>
<event>
 7    1  0.2788485E-009  0.1659959E+03  0.7561462E-02  0.1182089E+00
         -1   -1    0    0    0  501 -0.00000000000E+00  0.00000000000E+00  0.38774438707E+02  0.38774438707E+02  0.00000000000E+00 0.  1.
          1   -1    0    0  501    0  0.00000000000E+00 -0.00000000000E+00 -0.84902308185E+03  0.84902308185E+03  0.00000000000E+00 0. -1.
         25    2    1    2    0    0 -0.59622403664E+00 -0.14483661875E+03 -0.44957194980E+03  0.48861004062E+03  0.12508729804E+03 0.  0.
          5    1    3    3  502    0  0.40733398035E+02 -0.70709784679E+02 -0.10143018401E+03  0.13024837040E+03  0.41800000000E+01 0. -1.
         -5    1    3    3    0  502 -0.41329622072E+02 -0.74126834071E+02 -0.34814176579E+03  0.35836167022E+03  0.41800000000E+01 0. -1.
        -11    1    1    2    0    0  0.33818886770E+02  0.28202659434E+02 -0.55845094574E+02  0.71118082718E+02  0.00000000000E+00 0.  1.
         11    1    1    2    0    0 -0.33222662733E+02  0.11663395932E+03 -0.30483159877E+03  0.32806939722E+03  0.00000000000E+00 0. -1.
</event>
<event>
 7    1  0.2788485E-009  0.1012780E+03  0.7561462E-02  0.1277631E+00
         -3   -1    0    0    0  501 -0.00000000000E+00  0.00000000000E+00  0.21958601781E+03  0.21958601781E+03  0.00000000000E+00 0.  1.
          3   -1    0    0  501    0  0.00000000000E+00 -0.00000000000E+00 -0.75642768288E+02  0.75642768288E+02  0.00000000000E+00 0. -1.
         25    2    1    2    0    0 -0.94776268772E+01  0.34586509548E+02  0.14740653778E+03  0.19662613233E+03  0.12508835469E+03 0.  0.
          5    1    3    3  502    0 -0.29872513763E+02 -0.32847362811E+02  0.10552212470E+03  0.11455875140E+03  0.41800000000E+01 0.  1.
         -5    1    3    3    0  502  0.20394886886E+02  0.67433872359E+02  0.41884413084E+02  0.82067380925E+02  0.41800000000E+01 0.  1.
        -11    1    1    2    0    0 -0.33025376325E+02 -0.70848384215E+00 -0.23645578863E+02  0.40623771742E+02  0.00000000000E+00 0. -1.
         11    1    1    2    0    0  0.42503003202E+02 -0.33878025706E+02  0.20182290598E+02  0.57978882023E+02  0.00000000000E+00 0.  1.
</event>
<event>
 7    1  0.2788485E-009  0.1214482E+03  0.7561462E-02  0.1240727E+00
          1   -1    0    0  501    0  0.00000000000E+00  0.00000000000E+00  0.24285319919E+03  0.24285319919E+03  0.00000000000E+00 0. -1.
         -1   -1    0    0    0  501 -0.00000000000E+00 -0.00000000000E+00 -0.79817603247E+02  0.79817603247E+02  0.00000000000E+00 0.  1.
         25    2    1    2    0    0 -0.32254402487E+02 -0.64847187579E+02  0.32969684310E+02  0.14825431331E+03  0.12508731796E+03 0.  0.
          5    1    3    3  502    0 -0.14024490433E+02  0.37134812382E+02  0.16852793680E+02  0.43326316222E+02  0.41800000000E+01 0.  1.
         -5    1    3    3    0  502 -0.18229912054E+02 -0.10198199996E+03  0.16116890630E+02  0.10492799709E+03  0.41800000000E+01 0.  1.
        -11    1    1    2    0    0 -0.19626285130E+02  0.33084256895E+02  0.98790982802E+02  0.10601611861E+03  0.00000000000E+00 0. -1.
         11    1    1    2    0    0  0.51880687617E+02  0.31762930684E+02  0.31274928831E+02  0.68400370516E+02  0.00000000000E+00 0.  1.
</event>
<event>
 7    1  0.2788485E-009  0.2549116E+03  0.7561462E-02  0.1110240E+00
         -2   -1    0    0    0  501 -0.00000000000E+00  0.00000000000E+00  0.11817116779E+03  0.11817116779E+03  0.00000000000E+00 0.  1.
          2   -1    0    0  501    0  0.00000000000E+00 -0.00000000000E+00 -0.62320562513E+03  0.62320562513E+03  0.00000000000E+00 0. -1.
         25    2    1    2    0    0  0.16188498287E+03  0.17186237122E+03 -0.15322359506E+03  0.30800782642E+03  0.12509168130E+03 0.  0.
          5    1    3    3  502    0  0.75017560503E+02  0.45018578757E+01 -0.22617055642E+02  0.78593286698E+02  0.41800000000E+01 0. -1.
         -5    1    3    3    0  502  0.86867422370E+02  0.16736051334E+03 -0.13060653942E+03  0.22941453972E+03  0.41800000000E+01 0. -1.
        -11    1    1    2    0    0 -0.10566045322E+03 -0.61934618400E+02 -0.22623566410E+03  0.25725979873E+03  0.00000000000E+00 0.  1.
         11    1    1    2    0    0 -0.56224529656E+02 -0.10992775282E+03 -0.12557519818E+03  0.17610916776E+03  0.00000000000E+00 0. -1.
</event>
<event>
 7    1  0.2788485E-009  0.7711760E+02  0.7561462E-02  0.1337436E+00
          3   -1    0    0  501    0  0.00000000000E+00  0.00000000000E+00  0.28342468005E+03  0.28342468005E+03  0.00000000000E+00 0. -1.
         -3   -1    0    0    0  501 -0.00000000000E+00 -0.00000000000E+00 -0.45301686305E+02  0.45301686305E+02  0.00000000000E+00 0.  1.
         25    2    1    2    0    0  0.78443961326E+01  0.24518716261E+02  0.98894443094E+02  0.16152596645E+03  0.12509126654E+03 0.  0.
          5    1    3    3  502    0 -0.43297472175E+02 -0.15488953626E+02  0.82314587264E+02  0.94380837343E+02  0.41800000000E+01 0.  1.
         -5    1    3    3    0  502  0.51141868307E+02  0.40007669887E+02  0.16579855830E+02  0.67145129110E+02  0.41800000000E+01 0.  1.
        -11    1    1    2    0    0 -0.21581551935E+02 -0.15009859365E+02  0.14660074893E+03  0.14893904407E+03  0.00000000000E+00 0. -1.
         11    1    1    2    0    0  0.13737155802E+02 -0.95088568964E+01 -0.73721982858E+01  0.18261355825E+02  0.00000000000E+00 0.  1.
</event>
<event>
 7    1  0.3010260E-009  0.1241739E+03  0.7561462E-02  0.1236366E+00
          2   -1    0    0  501    0  0.00000000000E+00  0.00000000000E+00  0.64194814304E+03  0.64194814304E+03  0.00000000000E+00 0.  1.
         -2   -1    0    0    0  501 -0.00000000000E+00 -0.00000000000E+00 -0.29464231020E+02  0.29464231020E+02  0.00000000000E+00 0. -1.
         25    2    1    2    0    0  0.58793118956E+02 -0.58621369050E+02  0.37468818292E+03  0.40364824124E+03  0.12509025738E+03 0.  0.
          5    1    3    3  502    0  0.80885057462E+02 -0.83661783523E+02  0.28682166990E+03  0.30955747328E+03  0.41800000000E+01 0.  1.
         -5    1    3    3    0  502 -0.22091938506E+02  0.25040414473E+02  0.87866513023E+02  0.94090767957E+02  0.41800000000E+01 0.  1.
        -11    1    1    2    0    0  0.27098847432E+01  0.30505759986E+02  0.13452359609E+02  0.33450124764E+02  0.00000000000E+00 0. -1.
         11    1    1    2    0    0 -0.61503003699E+02  0.28115609064E+02  0.22434336949E+03  0.23431400805E+03  0.00000000000E+00 0.  1.
</event>
<event>
 7    1  0.2788485E-009  0.1104648E+03  0.7561462E-02  0.1259712E+00
          1   -1    0    0  501    0  0.00000000000E+00  0.00000000000E+00  0.14186729539E+03  0.14186729539E+03  0.00000000000E+00 0. -1.
         -1   -1    0    0    0  501 -0.00000000000E+00 -0.00000000000E+00 -0.10005768723E+03  0.10005768723E+03  0.00000000000E+00 0.  1.
         25    2    1    2    0    0 -0.44918322901E+02 -0.39450863610E+01  0.24191893654E+02  0.13515319878E+03  0.12509164634E+03 0.  0.
          5    1    3    3  502    0  0.30466114701E+02 -0.22623944562E+02 -0.22620510152E+02  0.44375521316E+02  0.41800000000E+01 0.  1.
         -5    1    3    3    0  502 -0.75384437601E+02  0.18678858201E+02  0.46812403806E+02  0.90777677467E+02  0.41800000000E+01 0.  1.
        -11    1    1    2    0    0  0.42919346505E+01  0.46176560623E+02  0.35802922664E+01  0.46513588839E+02  0.00000000000E+00 0.  1.
         11    1    1    2    0    0  0.40626388250E+02 -0.42231474262E+02  0.14037422242E+02  0.60258194993E+02  0.00000000000E+00 0. -1.
</event>
<event>
 7    1  0.2788485E-009  0.1062884E+03  0.7561462E-02  0.1267602E+00
          1   -1    0    0  501    0  0.00000000000E+00  0.00000000000E+00  0.11476688950E+03  0.11476688950E+03  0.00000000000E+00 0. -1.
         -1   -1    0    0    0  501 -0.00000000000E+00 -0.00000000000E+00 -0.14977771219E+03  0.14977771219E+03  0.00000000000E+00 0.  1.
         25    2    1    2    0    0  0.71167447162E+01 -0.73438824027E+02 -0.22573048508E+01  0.14524145660E+03  0.12508427703E+03 0.  0.
          5    1    3    3  502    0  0.17478987494E+02 -0.10314123608E+03 -0.23179652539E+02  0.10723058461E+03  0.41800000000E+01 0.  1.
         -5    1    3    3    0  502 -0.10362242778E+02  0.29702412049E+02  0.20922347688E+02  0.38010871994E+02  0.41800000000E+01 0.  1.
        -11    1    1    2    0    0  0.63469935188E+01  0.30232108431E+02 -0.59280061006E+02  0.66846019625E+02  0.00000000000E+00 0.  1.
         11    1    1    2    0    0 -0.13463738235E+02  0.43206715597E+02  0.26526543165E+02  0.52457125466E+02  0.00000000000E+00 0. -1.
</event>
<event>
 7    1  0.2788485E-009  0.1020901E+03  0.7561462E-02  0.1275961E+00
          2   -1    0    0  501    0  0.00000000000E+00  0.00000000000E+00  0.27683631749E+03  0.27683631749E+03  0.00000000000E+00 0. -1.
         -2   -1    0    0    0  501 -0.00000000000E+00 -0.00000000000E+00 -0.11881739129E+03  0.11881739129E+03  0.00000000000E+00 0.  1.
         25    2    1    2    0    0 -0.50904543529E+02 -0.31880270708E+02 -0.60790617826E+02  0.15148922456E+03  0.12508341908E+03 0.  0.
          5    1    3    3  502    0  0.11831992165E+02  0.13906782534E+02  0.27848886177E+02  0.33562292835E+02  0.41800000000E+01 0. -1.
         -5    1    3    3    0  502 -0.62736535695E+02 -0.45787053243E+02 -0.88639504002E+02  0.11792693172E+03  0.41800000000E+01 0. -1.
        -11    1    1    2    0    0  0.54772532368E+01  0.55977885477E+02  0.12785526960E+03  0.13967996968E+03  0.00000000000E+00 0. -1.
         11    1    1    2    0    0  0.45427290293E+02 -0.24097614769E+02  0.90954274424E+02  0.10448451453E+03  0.00000000000E+00 0.  1.
</event>
<event>
 7    1  0.2788485E-009  0.1013542E+03  0.7561462E-02  0.1277474E+00
         -2   -1    0    0    0  501 -0.00000000000E+00  0.00000000000E+00  0.81079042098E+02  0.81079042098E+02  0.00000000000E+00 0. -1.
          2   -1    0    0  501    0  0.00000000000E+00 -0.00000000000E+00 -0.19853452752E+03  0.19853452752E+03  0.00000000000E+00 0.  1.
         25    2    1    2    0    0  0.52760277355E+02 -0.36882921723E+02 -0.66671367095E+02  0.15567756726E+03  0.12508571851E+03 0.  0.
          5    1    3    3  502    0  0.21704901618E+02 -0.56895244823E+02  0.17636696520E+02  0.63535006901E+02  0.41800000000E+01 0. -1.
         -5    1    3    3    0  502  0.31055375737E+02  0.20012323100E+02 -0.84308063616E+02  0.92142560354E+02  0.41800000000E+01 0. -1.
        -11    1    1    2    0    0 -0.83586160624E+01  0.55657668695E+02 -0.50666417369E+02  0.75727989515E+02  0.00000000000E+00 0.  1.
         11    1    1    2    0    0 -0.44401661293E+02 -0.18774746972E+02 -0.11770096132E+00  0.48208012850E+02  0.00000000000E+00 0. -1.
</event>
<event>
 7    1  0.2788485E-009  0.1623512E+03  0.7561462E-02  0.1186068E+00
         -2   -1    0    0    0  501 -0.00000000000E+00  0.00000000000E+00  0.12678584089E+03  0.12678584089E+03  0.00000000000E+00 0.  1.
          2   -1    0    0  501    0  0.00000000000E+00 -0.00000000000E+00 -0.28125978664E+03  0.28125978664E+03  0.00000000000E+00 0. -1.
         25    2    1    2    0    0 -0.12324792063E+02 -0.13986129694E+03 -0.14682084928E+03  0.23857487640E+03  0.12509407253E+03 0.  0.
          5    1    3    3  502    0  0.36041166486E+02 -0.66050100927E+02 -0.10438809110E+02  0.76079055264E+02  0.41800000000E+01 0.  1.
         -5    1    3    3    0  502 -0.48365958549E+02 -0.73811196011E+02 -0.13638204017E+03  0.16249582113E+03  0.41800000000E+01 0.  1.
        -11    1    1    2    0    0 -0.32320810216E+02  0.80307725338E+02  0.22051233403E+02  0.89332090631E+02  0.00000000000E+00 0.  1.
         11    1    1    2    0    0  0.44645602279E+02  0.59553571601E+02 -0.29704329867E+02  0.80138660496E+02  0.00000000000E+00 0. -1.
</event>
<event>
 7    1  0.2788485E-009  0.1108023E+03  0.7561462E-02  0.1259091E+00
         -1   -1    0    0    0  501 -0.00000000000E+00  0.00000000000E+00  0.12499361557E+03  0.12499361557E+03  0.00000000000E+00 0.  1.
          1   -1    0    0  501    0  0.00000000000E+00 -0.00000000000E+00 -0.13947692726E+03  0.13947692726E+03  0.00000000000E+00 0. -1.
         25    2    1    2    0    0 -0.55088787085E+02 -0.46612150403E+02  0.18251437354E+02  0.14555927399E+03  0.12508765027E+03 0.  0.
          5    1    3    3  502    0 -0.25293334976E+02 -0.74363403604E+02 -0.28279488979E+02  0.83587501977E+02  0.41800000000E+01 0. -1.
         -5    1    3    3    0  502 -0.29795452109E+02  0.27751253201E+02  0.46530926333E+02  0.61971772009E+02  0.41800000000E+01 0. -1.
        -11    1    1    2    0    0  0.68798328031E+02  0.19298545228E+02  0.34629696554E+01  0.71537654047E+02  0.00000000000E+00 0.  1.
         11    1    1    2    0    0 -0.13709540946E+02  0.27313605176E+02 -0.36197718696E+02  0.47373614803E+02  0.00000000000E+00 0. -1.
</event>
<event>
 7    1  0.2788485E-009  0.1414700E+03  0.7561462E-02  0.1211364E+00
         -1   -1    0    0    0  501 -0.00000000000E+00  0.00000000000E+00  0.28625823261E+02  0.28625823261E+02  0.00000000000E+00 0.  1.
          1   -1    0    0  501    0  0.00000000000E+00 -0.00000000000E+00 -0.85716651182E+03  0.85716651182E+03  0.00000000000E+00 0. -1.
         25    2    1    2    0    0  0.85755386692E+02 -0.39352041152E+00 -0.61663431284E+03  0.63501156919E+03  0.12509067118E+03 0.  0.
          5    1    3    3  502    0 -0.26669900801E+02 -0.24669166814E+02 -0.14735991976E+03  0.15182973936E+03  0.41800000000E+01 0.  1.
         -5    1    3    3    0  502  0.11242528749E+03  0.24275646403E+02 -0.46927439308E+03  0.48318182983E+03  0.41800000000E+01 0.  1.
        -11    1    1    2    0    0 -0.10851656686E+03  0.37660251736E+00 -0.15254845044E+03  0.18720848497E+03  0.00000000000E+00 0.  1.
         11    1    1    2    0    0  0.22761180172E+02  0.16917894161E-01 -0.59357925271E+02  0.63572280921E+02  0.00000000000E+00 0. -1.
</event>
<event>
 7    1  0.2788485E-009  0.1105498E+03  0.7561462E-02  0.1259555E+00
         -2   -1    0    0    0  501 -0.00000000000E+00  0.00000000000E+00  0.60272541165E+02  0.60272541165E+02  0.00000000000E+00 0. -1.
          2   -1    0    0  501    0  0.00000000000E+00 -0.00000000000E+00 -0.50797493005E+03  0.50797493005E+03  0.00000000000E+00 0.  1.
         25    2    1    2    0    0 -0.54884275740E+02 -0.79150373760E+02 -0.79284493233E+02  0.17666859877E+03  0.12509475422E+03 0.  0.
          5    1    3    3  502    0 -0.16124452201E+02 -0.28712161159E+02  0.33471203465E+02  0.47140004439E+02  0.41800000000E+01 0. -1.
         -5    1    3    3    0  502 -0.38759823539E+02 -0.50438212601E+02 -0.11275569670E+03  0.12952859433E+03  0.41800000000E+01 0. -1.
        -11    1    1    2    0    0 -0.14072873194E+02  0.45113287657E+02 -0.21296537866E+03  0.21814560961E+03  0.00000000000E+00 0.  1.
         11    1    1    2    0    0  0.68957148934E+02  0.34037086103E+02 -0.15545251699E+03  0.17343326283E+03  0.00000000000E+00 0. -1.
</event>
<event>
 7    1  0.2788485E-009  0.1567719E+03  0.7561462E-02  0.1192390E+00
          2   -1    0    0  501    0  0.00000000000E+00  0.00000000000E+00  0.51356127554E+03  0.51356127554E+03  0.00000000000E+00 0. -1.
         -2   -1    0    0    0  501 -0.00000000000E+00 -0.00000000000E+00 -0.63636631926E+02  0.63636631926E+02  0.00000000000E+00 0.  1.
         25    2    1    2    0    0  0.55259615763E+02  0.12129695465E+03  0.32480210615E+03  0.37270639416E+03  0.12508825582E+03 0.  0.
          5    1    3    3  502    0  0.91588799693E+02  0.70248521933E+02  0.24741024376E+03  0.27304333755E+03  0.41800000000E+01 0.  1.
         -5    1    3    3    0  502 -0.36329183930E+02  0.51048432721E+02  0.77391862384E+02  0.99663056603E+02  0.41800000000E+01 0.  1.
        -11    1    1    2    0    0 -0.97364260112E+01 -0.47888246407E+02 -0.41196926426E+01  0.49041349930E+02  0.00000000000E+00 0.  1.
         11    1    1    2    0    0 -0.45523189752E+02 -0.73408708246E+02  0.12924223011E+03  0.15545016338E+03  0.00000000000E+00 0. -1.
</event>
<event>
 7    1  0.2788485E-009  0.1174312E+03  0.7561462E-02  0.1247396E+00
          2   -1    0    0  501    0  0.00000000000E+00  0.00000000000E+00  0.84011143491E+02  0.84011143491E+02  0.00000000000E+00 0. -1.
         -2   -1    0    0    0  501 -0.00000000000E+00 -0.00000000000E+00 -0.28982688734E+03  0.28982688734E+03  0.00000000000E+00 0.  1.
         25    2    1    2    0    0  0.81789320429E+02 -0.44251206797E+02 -0.18859905560E+03  0.24467217789E+03  0.12508880295E+03 0.  0.
          5    1    3    3  502    0  0.96239991982E+02 -0.58883410633E+02 -0.91479681569E+02  0.14531137824E+03  0.41800000000E+01 0. -1.
         -5    1    3    3    0  502 -0.14450671553E+02  0.14632203837E+02 -0.97119374027E+02  0.99360799659E+02  0.41800000000E+01 0. -1.
        -11    1    1    2    0    0 -0.69756446664E+02  0.17915533237E+02 -0.48276101739E+02  0.86703576520E+02  0.00000000000E+00 0.  1.
         11    1    1    2    0    0 -0.12032873765E+02  0.26335673560E+02  0.31059413482E+02  0.42462276420E+02  0.00000000000E+00 0. -1.
</event>
<event>
 7    1  0.2788485E-009  0.1847268E+03  0.7561462E-02  0.1163305E+00
         -1   -1    0    0    0  501 -0.00000000000E+00  0.00000000000E+00  0.70114732401E+03  0.70114732401E+03  0.00000000000E+00 0.  1.
          1   -1    0    0  501    0  0.00000000000E+00 -0.00000000000E+00 -0.71198120725E+02  0.71198120725E+02  0.00000000000E+00 0. -1.
         25    2    1    2    0    0  0.16674225349E+03  0.67440626890E+02  0.45420263247E+03  0.50427778801E+03  0.12507933036E+03 0.  0.
          5    1    3    3  502    0  0.11287876198E+03  0.73733732953E+02  0.41727360357E+03  0.43853507376E+03  0.41800000000E+01 0.  1.
         -5    1    3    3    0  502  0.53863491505E+02 -0.62931060629E+01  0.36929028898E+02  0.65742714246E+02  0.41800000000E+01 0.  1.
        -11    1    1    2    0    0 -0.11801088285E+03 -0.52832768066E+02  0.61857582084E+02  0.14333258636E+03  0.00000000000E+00 0. -1.
         11    1    1    2    0    0 -0.48731370639E+02 -0.14607858824E+02  0.11388898873E+03  0.12473507036E+03  0.00000000000E+00 0.  1.
</event>
<event>
 7    1  0.2788485E-009  0.1181134E+03  0.7561462E-02  0.1246242E+00
          4   -1    0    0  501    0  0.00000000000E+00  0.00000000000E+00  0.86232163928E+02  0.86232163928E+02  0.00000000000E+00 0. -1.
         -4   -1    0    0    0  501 -0.00000000000E+00 -0.00000000000E+00 -0.18582497578E+03  0.18582497578E+03  0.00000000000E+00 0.  1.
         25    2    1    2    0    0 -0.56414312125E+02  0.55694420485E+02 -0.70966650191E+02  0.16421855392E+03  0.12508806869E+03 0.  0.
          5    1    3    3  502    0 -0.95858631308E+02  0.29792556540E+02 -0.52642553725E+02  0.11342479660E+03  0.41800000000E+01 0. -1.
         -5    1    3    3    0  502  0.39444319183E+02  0.25901863945E+02 -0.18324096466E+02  0.50793757322E+02  0.41800000000E+01 0. -1.
        -11    1    1    2    0    0  0.27781670013E+02 -0.23991529436E+01  0.16465507279E+02  0.32383484271E+02  0.00000000000E+00 0. -1.
         11    1    1    2    0    0  0.28632642112E+02 -0.53295267541E+02 -0.45091668939E+02  0.75455101513E+02  0.00000000000E+00 0.  1.
</event>
<event>
 7    1  0.2788485E-009  0.1027274E+03  0.7561462E-02  0.1274663E+00
         -2   -1    0    0    0  501 -0.00000000000E+00  0.00000000000E+00  0.75501942428E+02  0.75501942428E+02  0.00000000000E+00 0. -1.
          2   -1    0    0  501    0  0.00000000000E+00 -0.00000000000E+00 -0.24075294463E+03  0.24075294463E+03  0.00000000000E+00 0.  1.
         25    2    1    2    0    0 -0.62957873867E+02  0.37235069620E+02 -0.12927906230E+03  0.19419278656E+03  0.12509043972E+03 0.  0.
          5    1    3    3  502    0  0.43275931509E+01 -0.13406819183E+02  0.18757203930E+02  0.23828049907E+02  0.41800000000E+01 0.  1.
         -5    1    3    3    0  502 -0.67285467018E+02  0.50641888804E+02 -0.14803626623E+03  0.17036473665E+03  0.41800000000E+01 0.  1.
        -11    1    1    2    0    0  0.51120091611E+02  0.14687029281E+02 -0.42934337600E+02  0.68354443459E+02  0.00000000000E+00 0.  1.
         11    1    1    2    0    0  0.11837782256E+02 -0.51922098902E+02  0.69623977028E+01  0.53707657041E+02  0.00000000000E+00 0. -1.
</event>
<event>
 7    1  0.2788485E-009  0.1149826E+03  0.7561462E-02  0.1251611E+00
          1   -1    0    0  501    0  0.00000000000E+00  0.00000000000E+00  0.10669493391E+03  0.10669493391E+03  0.00000000000E+00 0. -1.
         -1   -1    0    0    0  501 -0.00000000000E+00 -0.00000000000E+00 -0.20057533920E+03  0.20057533920E+03  0.00000000000E+00 0.  1.
         25    2    1    2    0    0 -0.40377331972E+02  0.76179486047E+02 -0.95170671815E+02  0.17927240947E+03  0.12508995560E+03 0.  0.
          5    1    3    3  502    0  0.94215494655E+01 -0.75313516235E+01  0.22860565498E+02  0.26183290597E+02  0.41800000000E+01 0.  1.
         -5    1    3    3    0  502 -0.49798881438E+02  0.83710837670E+02 -0.11803123731E+03  0.15308911887E+03  0.41800000000E+01 0.  1.
        -11    1    1    2    0    0  0.66254651271E+02 -0.51112602959E+02  0.21892758853E+02  0.86495490556E+02  0.00000000000E+00 0. -1.
         11    1    1    2    0    0 -0.25877319299E+02 -0.25066883088E+02 -0.20602492325E+02  0.41502373087E+02  0.00000000000E+00 0.  1.
</event>
<event>
 7    1  0.2788485E-009  0.1166627E+03  0.7561462E-02  0.1248706E+00
          2   -1    0    0  501    0  0.00000000000E+00  0.00000000000E+00  0.10151253655E+04  0.10151253655E+04  0.00000000000E+00 0. -1.
         -2   -1    0    0    0  501 -0.00000000000E+00 -0.00000000000E+00 -0.26233419041E+02  0.26233419041E+02  0.00000000000E+00 0.  1.
         25    2    1    2    0    0  0.92495591744E+02  0.57345825392E+01  0.78687388901E+03  0.80212590657E+03  0.12508850007E+03 0.  0.
          5    1    3    3  502    0  0.25261486244E+02 -0.46726639885E+02  0.14278767553E+03  0.15240509914E+03  0.41800000000E+01 0.  1.
         -5    1    3    3    0  502  0.67234105500E+02  0.52461222424E+02  0.64408621348E+03  0.64972080743E+03  0.41800000000E+01 0.  1.
        -11    1    1    2    0    0 -0.59105193973E+02 -0.12933495893E+02  0.19525216934E+03  0.20441161636E+03  0.00000000000E+00 0. -1.
         11    1    1    2    0    0 -0.33390397772E+02  0.71989133541E+01  0.67658880784E+01  0.34821261584E+02  0.00000000000E+00 0.  1.
</event>
<event>
 7    1  0.2788485E-009  0.1392639E+03  0.7561462E-02  0.1214323E+00
          1   -1    0    0  501    0  0.00000000000E+00  0.00000000000E+00  0.19619985347E+03  0.19619985347E+03  0.00000000000E+00 0. -1.
         -1   -1    0    0    0  501 -0.00000000000E+00 -0.00000000000E+00 -0.10974588535E+03  0.10974588535E+03  0.00000000000E+00 0.  1.
         25    2    1    2    0    0  0.51362863842E+02  0.97710823744E+02  0.46037039227E+02  0.17306548030E+03  0.12508678040E+03 0.  0.
          5    1    3    3  502    0 -0.33762578265E+02 -0.22110792784E+01  0.18822512392E+02  0.38943034491E+02  0.41800000000E+01 0. -1.
         -5    1    3    3    0  502  0.85125442107E+02  0.99921903023E+02  0.27214526836E+02  0.13412244580E+03  0.41800000000E+01 0. -1.
        -11    1    1    2    0    0 -0.14525282388E+02 -0.54102047963E+02  0.49890918776E+02  0.75014126660E+02  0.00000000000E+00 0. -1.
         11    1    1    2    0    0 -0.36837581454E+02 -0.43608775782E+02 -0.94739898908E+01  0.57866131865E+02  0.00000000000E+00 0.  1.
</event>
<event>
 7    1  0.2788485E-009  0.7555889E+02  0.7561462E-02  0.1342149E+00
         -1   -1    0    0    0  501 -0.00000000000E+00  0.00000000000E+00  0.15776112092E+03  0.15776112092E+03  0.00000000000E+00 0.  1.
          1   -1    0    0  501    0  0.00000000000E+00 -0.00000000000E+00 -0.94973464103E+02  0.94973464103E+02  0.00000000000E+00 0. -1.
         25    2    1    2    0    0  0.49895894387E+02 -0.24016917177E+02  0.35117580562E+02  0.14124104649E+03  0.12509746665E+03 0.  0.
          5    1    3    3  502    0 -0.87467193791E+01 -0.12537042588E+02 -0.41246307874E+02  0.44186116032E+02  0.41800000000E+01 0.  1.
         -5    1    3    3    0  502  0.58642613766E+02 -0.11479874589E+02  0.76363888436E+02  0.97054930462E+02  0.41800000000E+01 0.  1.
        -11    1    1    2    0    0 -0.56289607009E+02  0.64306590748E+01  0.54611536682E+02  0.78691125117E+02  0.00000000000E+00 0.  1.
         11    1    1    2    0    0  0.63937126218E+01  0.17586258102E+02 -0.26941460432E+02  0.32802413407E+02  0.00000000000E+00 0. -1.
</event>
<event>
 7    1  0.2788485E-009  0.1279184E+03  0.7561462E-02  0.1230578E+00
         -2   -1    0    0    0  501 -0.00000000000E+00  0.00000000000E+00  0.18628027022E+03  0.18628027022E+03  0.00000000000E+00 0.  1.
          2   -1    0    0  501    0  0.00000000000E+00 -0.00000000000E+00 -0.96358986650E+02  0.96358986650E+02  0.00000000000E+00 0. -1.
         25    2    1    2    0    0 -0.34283055150E+01  0.76428173287E+02  0.34924674773E+02  0.15073474633E+03  0.12509281311E+03 0.  0.
          5    1    3    3  502    0  0.47064286009E+02  0.78034802249E+02  0.39097183119E+01  0.91308464432E+02  0.41800000000E+01 0. -1.
         -5    1    3    3    0  502 -0.50492591524E+02 -0.16066289624E+01  0.31014956461E+02  0.59426281894E+02  0.41800000000E+01 0. -1.
        -11    1    1    2    0    0 -0.38347115934E+02 -0.18701501752E+02  0.13059759715E+01  0.42684341877E+02  0.00000000000E+00 0. -1.
         11    1    1    2    0    0  0.41775421449E+02 -0.57726671535E+02  0.53690632827E+02  0.89220168668E+02  0.00000000000E+00 0.  1.
</event>
<event>
 7    1  0.2788485E-009  0.1064158E+03  0.7561462E-02  0.1267355E+00
          2   -1    0    0  501    0  0.00000000000E+00  0.00000000000E+00  0.94676332435E+03  0.94676332435E+03  0.00000000000E+00 0. -1.
         -2   -1    0    0    0  501 -0.00000000000E+00 -0.00000000000E+00 -0.23193940424E+02  0.23193940424E+02  0.00000000000E+00 0.  1.
         25    2    1    2    0    0 -0.71438625980E+02 -0.47218172777E+02  0.68588234957E+03  0.70243531552E+03  0.12509093459E+03 0.  0.
          5    1    3    3  502    0 -0.54489971817E+02  0.97049740380E+01  0.10738014735E+03  0.12087726004E+03  0.41800000000E+01 0.  1.
         -5    1    3    3    0  502 -0.16948654163E+02 -0.56923146815E+02  0.57850220222E+03  0.58155805548E+03  0.41800000000E+01 0.  1.
        -11    1    1    2    0    0  0.39412769141E+01  0.27057191254E+02  0.16134237206E+03  0.16364286200E+03  0.00000000000E+00 0. -1.
         11    1    1    2    0    0  0.67497349066E+02  0.20160981523E+02  0.76344662292E+02  0.10387908725E+03  0.00000000000E+00 0.  1.
</event>
<event>
 7    1  0.2788485E-009  0.8854627E+02  0.7561462E-02  0.1306411E+00
         -2   -1    0    0    0  501 -0.00000000000E+00  0.00000000000E+00  0.90888070679E+02  0.90888070679E+02  0.00000000000E+00 0.  1.
          2   -1    0    0  501    0  0.00000000000E+00 -0.00000000000E+00 -0.32829751683E+03  0.32829751683E+03  0.00000000000E+00 0. -1.
         25    2    1    2    0    0 -0.32360286789E+02  0.31290294143E+02 -0.28038547773E+03  0.31029813069E+03  0.12507055257E+03 0.  0.
          5    1    3    3  502    0  0.21583411787E+01  0.43902041634E+02 -0.22095691860E+02  0.49373471572E+02  0.41800000000E+01 0.  1.
         -5    1    3    3    0  502 -0.34518627967E+02 -0.12611747491E+02 -0.25828978587E+03  0.26092465912E+03  0.41800000000E+01 0.  1.
        -11    1    1    2    0    0  0.53295509161E+02  0.55447363828E+01  0.39119328977E+02  0.66343630424E+02  0.00000000000E+00 0.  1.
         11    1    1    2    0    0 -0.20935222372E+02 -0.36835030526E+02  0.38567025978E+01  0.42543826398E+02  0.00000000000E+00 0. -1.
</event>
<event>
 7    1  0.2788485E-009  0.1144478E+03  0.7561462E-02  0.1252548E+00
         -2   -1    0    0    0  501 -0.00000000000E+00  0.00000000000E+00  0.67651841644E+02  0.67651841644E+02  0.00000000000E+00 0.  1.
          2   -1    0    0  501    0  0.00000000000E+00 -0.00000000000E+00 -0.29293322724E+03  0.29293322724E+03  0.00000000000E+00 0. -1.
         25    2    1    2    0    0  0.51540266226E+02  0.72671779432E+02 -0.13551337617E+03  0.20480524495E+03  0.12507488424E+03 0.  0.
          5    1    3    3  502    0 -0.18448495123E+02 -0.86959892518E+01  0.10678245324E+02  0.23397959837E+02  0.41800000000E+01 0. -1.
         -5    1    3    3    0  502  0.69988761348E+02  0.81367768684E+02 -0.14619162149E+03  0.18140728511E+03  0.41800000000E+01 0. -1.
        -11    1    1    2    0    0 -0.38568332325E+02 -0.14719838501E+02  0.73625474698E+01  0.41933244676E+02  0.00000000000E+00 0.  1.
         11    1    1    2    0    0 -0.12971933900E+02 -0.57951940931E+02 -0.97130556900E+02  0.11384657927E+03  0.00000000000E+00 0. -1.
</event>
<event>
 7    1  0.2788485E-009  0.9367691E+02  0.7561462E-02  0.1294184E+00
         -4   -1    0    0    0  501 -0.00000000000E+00  0.00000000000E+00  0.10889364867E+03  0.10889364867E+03  0.00000000000E+00 0.  1.
          4   -1    0    0  501    0  0.00000000000E+00 -0.00000000000E+00 -0.14114836019E+03  0.14114836019E+03  0.00000000000E+00 0. -1.
         25    2    1    2    0    0  0.13917104810E+02 -0.50742853138E+02  0.16973123350E+02  0.13677031771E+03  0.12509800134E+03 0.  0.
          5    1    3    3  502    0 -0.35336535649E+02  0.15400943329E+02 -0.22945856990E+02  0.45053796289E+02  0.41800000000E+01 0.  1.
         -5    1    3    3    0  502  0.49253640459E+02 -0.66143796467E+02  0.39918980340E+02  0.91716521417E+02  0.41800000000E+01 0.  1.
        -11    1    1    2    0    0  0.14122279291E+02  0.15446142818E+02  0.21111360882E+02  0.29727288114E+02  0.00000000000E+00 0.  1.
         11    1    1    2    0    0 -0.28039384101E+02  0.35296710320E+02 -0.70339195757E+02  0.83544403043E+02  0.00000000000E+00 0. -1.
</event>
<event>
 7    1  0.2788485E-009  0.1131204E+03  0.7561462E-02  0.1254898E+00
          1   -1    0    0  501    0  0.00000000000E+00  0.00000000000E+00  0.14572764512E+03  0.14572764512E+03  0.00000000000E+00 0. -1.
         -1   -1    0    0    0  501 -0.00000000000E+00 -0.00000000000E+00 -0.89238865147E+02  0.89238865147E+02  0.00000000000E+00 0.  1.
         25    2    1    2    0    0  0.36913769152E+01  0.36330609424E+02  0.33705222686E+02  0.13460039435E+03  0.12509070580E+03 0.  0.
          5    1    3    3  502    0 -0.38909448052E+02  0.65909790418E+02  0.30414092005E+02  0.82465356442E+02  0.41800000000E+01 0. -1.
         -5    1    3    3    0  502  0.42600824967E+02 -0.29579180994E+02  0.32911306816E+01  0.52135037905E+02  0.41800000000E+01 0. -1.
        -11    1    1    2    0    0  0.21314817783E+02 -0.59663438793E+02  0.17753198737E+02  0.65796834658E+02  0.00000000000E+00 0.  1.
         11    1    1    2    0    0 -0.25006194698E+02  0.23332829368E+02  0.50303585463E+01  0.34569281258E+02  0.00000000000E+00 0. -1.
</event>
<event>
 7    1  0.2788485E-009  0.1472628E+03  0.7561462E-02  0.1203877E+00
         -1   -1    0    0    0  501 -0.00000000000E+00  0.00000000000E+00  0.26441288643E+02  0.26441288643E+02  0.00000000000E+00 0.  1.
          1   -1    0    0  501    0  0.00000000000E+00 -0.00000000000E+00 -0.11377173217E+04  0.11377173217E+04  0.00000000000E+00 0. -1.
         25    2    1    2    0    0 -0.13040504544E+03 -0.69033113910E+01 -0.47586531628E+03  0.50906623886E+03  0.12508998649E+03 0.  0.
          5    1    3    3  502    0 -0.11030690501E+02  0.12165929851E+02  0.11198552350E+01  0.16982710555E+02  0.41800000000E+01 0.  1.
         -5    1    3    3    0  502 -0.11937435494E+03 -0.19069241242E+02 -0.47698517151E+03  0.49208352830E+03  0.41800000000E+01 0.  1.
        -11    1    1    2    0    0 -0.88960632538E+00 -0.22134464515E+02 -0.54675978984E+02  0.58993123300E+02  0.00000000000E+00 0.  1.
         11    1    1    2    0    0  0.13129465177E+03  0.29037775906E+02 -0.58073473783E+03  0.59609924822E+03  0.00000000000E+00 0. -1.
</event>
<event>
 7    1  0.2788485E-009  0.1411248E+03  0.7561462E-02  0.1211823E+00
         -1   -1    0    0    0  501 -0.00000000000E+00  0.00000000000E+00  0.19221195788E+03  0.19221195788E+03  0.00000000000E+00 0.  1.
          1   -1    0    0  501    0  0.00000000000E+00 -0.00000000000E+00 -0.11885475119E+03  0.11885475119E+03  0.00000000000E+00 0. -1.
         25    2    1    2    0    0  0.67493495832E+02  0.71586541666E+02  0.45034171530E+01  0.15921222844E+03  0.12509295740E+03 0.  0.
          5    1    3    3  502    0  0.71548186618E+02  0.97886861030E+02 -0.19808384413E+02  0.12292609594E+03  0.41800000000E+01 0.  1.
         -5    1    3    3    0  502 -0.40546907868E+01 -0.26300319365E+02  0.24311801567E+02  0.36286132495E+02  0.41800000000E+01 0.  1.
        -11    1    1    2    0    0 -0.20419556264E+02 -0.83066199477E+02  0.54071621367E+02  0.10119630433E+03  0.00000000000E+00 0.  1.
         11    1    1    2    0    0 -0.47073939567E+02  0.11479657811E+02  0.14782168165E+02  0.50658176294E+02  0.00000000000E+00 0. -1.
</event>
<event>
 7    1  0.2788485E-009  0.8988682E+02  0.7561462E-02  0.1303126E+00
         -3   -1    0    0    0  501 -0.00000000000E+00  0.00000000000E+00  0.86945020499E+02  0.86945020499E+02  0.00000000000E+00 0.  1.
          3   -1    0    0  501    0  0.00000000000E+00 -0.00000000000E+00 -0.15386761081E+03  0.15386761081E+03  0.00000000000E+00 0. -1.
         25    2    1    2    0    0 -0.24889057824E+01  0.11084565906E+02  0.37326873671E+01  0.12566213946E+03  0.12509187858E+03 0.  0.
          5    1    3    3  502    0 -0.25520944005E+02 -0.33987118671E+02 -0.40094157885E+02  0.58578637018E+02  0.41800000000E+01 0.  1.
         -5    1    3    3    0  502  0.23032038222E+02  0.45071684577E+02  0.43826845252E+02  0.67083502443E+02  0.41800000000E+01 0.  1.
        -11    1    1    2    0    0  0.12322207931E+02 -0.47234349883E+02 -0.57541604374E+02  0.75458312008E+02  0.00000000000E+00 0.  1.
         11    1    1    2    0    0 -0.98333021484E+01  0.36149783977E+02 -0.13113673301E+02  0.39692179836E+02  0.00000000000E+00 0. -1.
</event>
<event>
 7    1  0.2788485E-009  0.1247954E+03  0.7561462E-02  0.1235389E+00
         -2   -1    0    0    0  501 -0.00000000000E+00  0.00000000000E+00  0.10245565198E+03  0.10245565198E+03  0.00000000000E+00 0.  1.
          2   -1    0    0  501    0  0.00000000000E+00 -0.00000000000E+00 -0.24783019368E+03  0.24783019368E+03  0.00000000000E+00 0. -1.
         25    2    1    2    0    0  0.86343408355E+02 -0.70610494895E+02 -0.36284976931E+02  0.17147903319E+03  0.12508970028E+03 0.  0.
          5    1    3    3  502    0  0.15901000917E+02 -0.16607878088E+01 -0.66321121445E+02  0.68348837562E+02  0.41800000000E+01 0. -1.
         -5    1    3    3    0  502  0.70442407439E+02 -0.68949707086E+02  0.30036144515E+02  0.10313019563E+03  0.41800000000E+01 0. -1.
        -11    1    1    2    0    0 -0.47558271525E+02 -0.65883196143E+01 -0.67733987973E+02  0.83024624495E+02  0.00000000000E+00 0. -1.
         11    1    1    2    0    0 -0.38785136831E+02  0.77198814509E+02 -0.41355576796E+02  0.95782187972E+02  0.00000000000E+00 0.  1.
</event>
<event>
 7    1  0.2788485E-009  0.9103810E+02  0.7561462E-02  0.1300357E+00
         -2   -1    0    0    0  501 -0.00000000000E+00  0.00000000000E+00  0.40819820296E+02  0.40819820296E+02  0.00000000000E+00 0.  1.
          2   -1    0    0  501    0  0.00000000000E+00 -0.00000000000E+00 -0.35556631750E+03  0.35556631750E+03  0.00000000000E+00 0. -1.
         25    2    1    2    0    0  0.47262791887E+02 -0.68624144947E+01 -0.22057557072E+03  0.25803516882E+03  0.12509077391E+03 0.  0.
          5    1    3    3  502    0 -0.17595254851E+02 -0.51360807246E+02 -0.10312675420E+03  0.11661957532E+03  0.41800000000E+01 0. -1.
         -5    1    3    3    0  502  0.64858046737E+02  0.44498392751E+02 -0.11744881652E+03  0.14141559350E+03  0.41800000000E+01 0. -1.
        -11    1    1    2    0    0 -0.30170758216E+02 -0.67379486571E+00 -0.10987688822E+03  0.11394586090E+03  0.00000000000E+00 0. -1.
         11    1    1    2    0    0 -0.17092033671E+02  0.75362093604E+01  0.15705961735E+02  0.24405108083E+02  0.00000000000E+00 0.  1.
</event>
<event>
 7    1  0.2788485E-009  0.1439172E+03  0.7561462E-02  0.1208153E+00
          2   -1    0    0  501    0  0.00000000000E+00  0.00000000000E+00  0.20364767301E+04  0.20364767301E+04  0.00000000000E+00 0.  1.
         -2   -1    0    0    0  501 -0.00000000000E+00 -0.00000000000E+00 -0.24238361255E+02  0.24238361255E+02  0.00000000000E+00 0. -1.
         25    2    1    2    0    0 -0.10466838983E+03  0.53797165457E+02  0.17548141047E+04  0.17631989401E+04  0.12509337976E+03 0.  0.
          5    1    3    3  502    0 -0.13806567306E+02 -0.33008576927E+02  0.69849695741E+03  0.69942523501E+03  0.41800000000E+01 0.  1.
         -5    1    3    3    0  502 -0.90861822528E+02  0.86805742383E+02  0.10563171473E+04  0.10637737051E+04  0.41800000000E+01 0.  1.
        -11    1    1    2    0    0  0.56399965717E+02 -0.53605109824E+02  0.22817375469E+03  0.24107618352E+03  0.00000000000E+00 0.  1.
         11    1    1    2    0    0  0.48268424117E+02 -0.19205563300E+00  0.29250509524E+02  0.56439967749E+02  0.00000000000E+00 0. -1.
</event>
<event>
 7    1  0.2788485E-009  0.1191494E+03  0.7561462E-02  0.1244507E+00
         -2   -1    0    0    0  501 -0.00000000000E+00  0.00000000000E+00  0.79188364479E+02  0.79188364479E+02  0.00000000000E+00 0. -1.
          2   -1    0    0  501    0  0.00000000000E+00 -0.00000000000E+00 -0.33707974195E+03  0.33707974195E+03  0.00000000000E+00 0.  1.
         25    2    1    2    0    0  0.33767683136E+02 -0.10151074118E+03 -0.63585019339E+02  0.17645088196E+03  0.12508865681E+03 0.  0.
          5    1    3    3  502    0 -0.15983773697E+02 -0.16599814296E+02 -0.73794403168E+02  0.77421710103E+02  0.41800000000E+01 0. -1.
         -5    1    3    3    0  502  0.49751456833E+02 -0.84910926884E+02  0.10209383829E+02  0.99029171861E+02  0.41800000000E+01 0. -1.
        -11    1    1    2    0    0 -0.45002334844E+02  0.87712869321E+02 -0.19841440169E+03  0.22155593512E+03  0.00000000000E+00 0.  1.
         11    1    1    2    0    0  0.11234651709E+02  0.13797871859E+02  0.41080435595E+01  0.18261289350E+02  0.00000000000E+00 0. -1.
</event>
<event>
 7    1  0.2788485E-009  0.1260230E+03  0.7561462E-02  0.1233479E+00
          1   -1    0    0  501    0  0.00000000000E+00  0.00000000000E+00  0.22226230356E+03  0.22226230356E+03  0.00000000000E+00 0. -1.
         -1   -1    0    0    0  501 -0.00000000000E+00 -0.00000000000E+00 -0.75458392350E+02  0.75458392350E+02  0.00000000000E+00 0.  1.
         25    2    1    2    0    0 -0.24610074642E+01  0.73586511034E+02  0.69144786479E+02  0.16077536484E+03  0.12508671104E+03 0.  0.
          5    1    3    3  502    0 -0.21357043990E+02  0.10362772972E+03  0.35463494721E+02  0.11166898205E+03  0.41800000000E+01 0. -1.
         -5    1    3    3    0  502  0.18896036526E+02 -0.30041218682E+02  0.33681291758E+02  0.49106382790E+02  0.41800000000E+01 0. -1.
        -11    1    1    2    0    0 -0.16574095025E+02  0.13440012421E+02  0.27172871893E+02  0.34549956971E+02  0.00000000000E+00 0.  1.
         11    1    1    2    0    0  0.19035102489E+02 -0.87026523454E+02  0.50486252837E+02  0.10239537410E+03  0.00000000000E+00 0. -1.
</event>
<event>
 7    1  0.2788485E-009  0.1173499E+03  0.7561462E-02  0.1247534E+00
         -2   -1    0    0    0  501 -0.00000000000E+00  0.00000000000E+00  0.22533749416E+02  0.22533749416E+02  0.00000000000E+00 0.  1.
          2   -1    0    0  501    0  0.00000000000E+00 -0.00000000000E+00 -0.12981308837E+04  0.12981308837E+04  0.00000000000E+00 0. -1.
         25    2    1    2    0    0  0.42608626213E+02 -0.89339155997E+02 -0.10033881221E+04  0.10159888745E+04  0.12509472281E+03 0.  0.
          5    1    3    3  502    0  0.63786426647E+01 -0.50927231010E+02 -0.88255826620E+03  0.88405929415E+03  0.41800000000E+01 0. -1.
         -5    1    3    3    0  502  0.36229983548E+02 -0.38411924987E+02 -0.12082985594E+03  0.13192958036E+03  0.41800000000E+01 0. -1.
        -11    1    1    2    0    0  0.26058996796E+02  0.22957912531E+02 -0.36649624638E+02  0.50490910548E+02  0.00000000000E+00 0.  1.
         11    1    1    2    0    0 -0.68667623009E+02  0.66381243466E+02 -0.23555938746E+03  0.25418484800E+03  0.00000000000E+00 0. -1.
</event>
<event>
 7    1  0.2788485E-009  0.1070152E+03  0.7561462E-02  0.1266199E+00
         -2   -1    0    0    0  501 -0.00000000000E+00  0.00000000000E+00  0.15997701171E+02  0.15997701171E+02  0.00000000000E+00 0.  1.
          2   -1    0    0  501    0  0.00000000000E+00 -0.00000000000E+00 -0.77589867333E+03  0.77589867333E+03  0.00000000000E+00 0. -1.
         25    2    1    2    0    0 -0.88873535751E+01  0.25929414339E+02 -0.49162069351E+03  0.50802438618E+03  0.12508617464E+03 0.  0.
          5    1    3    3  502    0 -0.45663406796E+02 -0.32431988884E+02 -0.27388362740E+03  0.27958307241E+03  0.41800000000E+01 0.  1.
         -5    1    3    3    0  502  0.36776053221E+02  0.58361403223E+02 -0.21773706611E+03  0.22844131376E+03  0.41800000000E+01 0.  1.
        -11    1    1    2    0    0 -0.10294002218E+02  0.28895126938E+02 -0.56716348493E+02  0.64479756737E+02  0.00000000000E+00 0.  1.
         11    1    1    2    0    0  0.19181355793E+02 -0.54824541277E+02 -0.21156393016E+03  0.21939223158E+03  0.00000000000E+00 0. -1.
</event>
<event>
 7    1  0.2788485E-009  0.1129922E+03  0.7561462E-02  0.1255127E+00
         -2   -1    0    0    0  501 -0.00000000000E+00  0.00000000000E+00  0.41611910569E+02  0.41611910569E+02  0.00000000000E+00 0. -1.
          2   -1    0    0  501    0  0.00000000000E+00 -0.00000000000E+00 -0.47928151137E+03  0.47928151137E+03  0.00000000000E+00 0.  1.
         25    2    1    2    0    0  0.46434303911E+02 -0.75944923785E+02 -0.22659348954E+03  0.27371114937E+03  0.12509759292E+03 0.  0.
          5    1    3    3  502    0  0.51594482524E+01  0.25981553519E+02 -0.11066993510E+03  0.11387259532E+03  0.41800000000E+01 0. -1.
         -5    1    3    3    0  502  0.41274855658E+02 -0.10192647730E+03 -0.11592355444E+03  0.15983855405E+03  0.41800000000E+01 0. -1.
        -11    1    1    2    0    0 -0.31207624357E+02  0.47020848222E+02 -0.31450113934E+02  0.64606390179E+02  0.00000000000E+00 0. -1.
         11    1    1    2    0    0 -0.15226679554E+02  0.28924075562E+02 -0.17962599733E+03  0.18257588240E+03  0.00000000000E+00 0.  1.
</event>
<event>
 7    1  0.2788485E-009  0.9204540E+02  0.7561462E-02  0.1297973E+00
         -2   -1    0    0    0  501 -0.00000000000E+00  0.00000000000E+00  0.23228860183E+03  0.23228860183E+03  0.00000000000E+00 0.  1.
          2   -1    0    0  501    0  0.00000000000E+00 -0.00000000000E+00 -0.57376147058E+02  0.57376147058E+02  0.00000000000E+00 0. -1.
         25    2    1    2    0    0 -0.22187749372E+02 -0.95849765805E+01  0.12958565937E+03  0.18172505643E+03  0.12508950805E+03 0.  0.
          5    1    3    3  502    0 -0.15884579687E+01 -0.65415532505E+02  0.51033917266E+02  0.83088195330E+02  0.41800000000E+01 0. -1.
         -5    1    3    3    0  502 -0.20599291404E+02  0.55830555924E+02  0.78551742104E+02  0.98636861105E+02  0.41800000000E+01 0. -1.
        -11    1    1    2    0    0  0.40133187937E+02  0.63830142446E+01  0.67773699258E+02  0.79023350700E+02  0.00000000000E+00 0.  1.
         11    1    1    2    0    0 -0.17945438564E+02  0.32019623359E+01 -0.22446903852E+02  0.28916341757E+02  0.00000000000E+00 0. -1.
</event>
<event>
 7    1  0.2788485E-009  0.1793311E+03  0.7561462E-02  0.1168452E+00
         -3   -1    0    0    0  501 -0.00000000000E+00  0.00000000000E+00  0.86254594545E+03  0.86254594545E+03  0.00000000000E+00 0.  1.
          3   -1    0    0  501    0  0.00000000000E+00 -0.00000000000E+00 -0.41424422722E+02  0.41424422722E+02  0.00000000000E+00 0. -1.
         25    2    1    2    0    0 -0.78094539307E+02 -0.13200477256E+03  0.34725594362E+03  0.39969700246E+03  0.12508791448E+03 0.  0.
          5    1    3    3  502    0 -0.45491300836E+02  0.10487645206E+02  0.50701573273E+02  0.69047600147E+02  0.41800000000E+01 0.  1.
         -5    1    3    3    0  502 -0.32603238471E+02 -0.14249241777E+03  0.29655437035E+03  0.33064940231E+03  0.41800000000E+01 0.  1.
        -11    1    1    2    0    0 -0.26641270717E+01  0.51352754550E+02  0.22002289093E+03  0.22595193185E+03  0.00000000000E+00 0.  1.
         11    1    1    2    0    0  0.80758666379E+02  0.80652018011E+02  0.25384268818E+03  0.27832143386E+03  0.00000000000E+00 0. -1.
</event>
<event>
 7    1  0.2788485E-009  0.1181819E+03  0.7561462E-02  0.1246127E+00
          1   -1    0    0  501    0  0.00000000000E+00  0.00000000000E+00  0.40290053848E+02  0.40290053848E+02  0.00000000000E+00 0. -1.
         -1   -1    0    0    0  501 -0.00000000000E+00 -0.00000000000E+00 -0.44796269452E+03  0.44796269452E+03  0.00000000000E+00 0.  1.
         25    2    1    2    0    0  0.61452253646E+02  0.38637973026E+02 -0.17846367792E+03  0.22970789106E+03  0.12508860237E+03 0.  0.
          5    1    3    3  502    0 -0.35497276835E+02  0.26176161967E+02 -0.37071979934E+02  0.57767224395E+02  0.41800000000E+01 0. -1.
         -5    1    3    3    0  502  0.96949530481E+02  0.12461811059E+02 -0.14139169798E+03  0.17194066667E+03  0.41800000000E+01 0. -1.
        -11    1    1    2    0    0 -0.30572714540E+02 -0.52203277337E+02 -0.21242528802E+03  0.22087185432E+03  0.00000000000E+00 0.  1.
         11    1    1    2    0    0 -0.30879539106E+02  0.13565304311E+02 -0.16783674732E+02  0.37673002986E+02  0.00000000000E+00 0. -1.
</event>
<event>
 7    1  0.2788485E-009  0.1068537E+03  0.7561462E-02  0.1266510E+00
          2   -1    0    0  501    0  0.00000000000E+00  0.00000000000E+00  0.64627955795E+02  0.64627955795E+02  0.00000000000E+00 0. -1.
         -2   -1    0    0    0  501 -0.00000000000E+00 -0.00000000000E+00 -0.24858737031E+03  0.24858737031E+03  0.00000000000E+00 0.  1.
         25    2    1    2    0    0 -0.55956280418E+02 -0.31976405562E+02 -0.12081701397E+03  0.18546575560E+03  0.12508876770E+03 0.  0.
          5    1    3    3  502    0  0.13651816889E+02 -0.29687953746E+02  0.12306656415E+02  0.35166360262E+02  0.41800000000E+01 0.  1.
         -5    1    3    3    0  502 -0.69608097307E+02 -0.22884518164E+01 -0.13312367039E+03  0.15029939534E+03  0.41800000000E+01 0.  1.
        -11    1    1    2    0    0  0.51396008647E+02 -0.22658349126E+02 -0.29848536308E+02  0.63607276389E+02  0.00000000000E+00 0. -1.
         11    1    1    2    0    0  0.45602717705E+01  0.54634754688E+02 -0.33293864239E+02  0.64142294115E+02  0.00000000000E+00 0.  1.
</event>
<event>
 7    1  0.2788485E-009  0.1082649E+03  0.7561462E-02  0.1263817E+00
         -1   -1    0    0    0  501 -0.00000000000E+00  0.00000000000E+00  0.54848013363E+02  0.54848013363E+02  0.00000000000E+00 0.  1.
          1   -1    0    0  501    0  0.00000000000E+00 -0.00000000000E+00 -0.26379968434E+03  0.26379968434E+03  0.00000000000E+00 0. -1.
         25    2    1    2    0    0 -0.82330040563E+01  0.50384131183E+02 -0.18316075911E+03  0.22759996572E+03  0.12509011825E+03 0.  0.
          5    1    3    3  502    0 -0.64329202260E+02  0.44890103728E+02 -0.10898881081E+03  0.13434805900E+03  0.41800000000E+01 0.  1.
         -5    1    3    3    0  502  0.56096198203E+02  0.54940274554E+01 -0.74171948308E+02  0.93251906717E+02  0.41800000000E+01 0.  1.
        -11    1    1    2    0    0 -0.25340049295E+02 -0.37994590970E+02  0.20373026497E+01  0.45714960826E+02  0.00000000000E+00 0.  1.
         11    1    1    2    0    0  0.33573053351E+02 -0.12389540213E+02 -0.27828214509E+02  0.45332771157E+02  0.00000000000E+00 0. -1.
</event>
<event>
 7    1  0.2788485E-009  0.1294672E+03  0.7561462E-02  0.1228248E+00
         -1   -1    0    0    0  501 -0.00000000000E+00  0.00000000000E+00  0.18516640497E+02  0.18516640497E+02  0.00000000000E+00 0.  1.
          1   -1    0    0  501    0  0.00000000000E+00 -0.00000000000E+00 -0.94641740943E+03  0.94641740943E+03  0.00000000000E+00 0. -1.
         25    2    1    2    0    0 -0.65986011752E+02  0.26326535936E+02 -0.42754697557E+03  0.45109969181E+03  0.12508906982E+03 0.  0.
          5    1    3    3  502    0 -0.90344210575E+02 -0.17799253198E+02 -0.30182413151E+03  0.31558543781E+03  0.41800000000E+01 0.  1.
         -5    1    3    3    0  502  0.24358198823E+02  0.44125789135E+02 -0.12572284407E+03  0.13551425400E+03  0.41800000000E+01 0.  1.
        -11    1    1    2    0    0  0.83595074810E+02  0.10860389906E+01 -0.33262251468E+03  0.34296800621E+03  0.00000000000E+00 0. -1.
         11    1    1    2    0    0 -0.17609063058E+02 -0.27412574927E+02 -0.16773127868E+03  0.17086635190E+03  0.00000000000E+00 0.  1.
</event>
<event>
 7    1  0.2788485E-009  0.1046451E+03  0.7561462E-02  0.1270820E+00
          1   -1    0    0  501    0  0.00000000000E+00  0.00000000000E+00  0.26270430293E+03  0.26270430293E+03  0.00000000000E+00 0. -1.
         -1   -1    0    0    0  501 -0.00000000000E+00 -0.00000000000E+00 -0.55127472668E+02  0.55127472668E+02  0.00000000000E+00 0.  1.
         25    2    1    2    0    0 -0.99963117342E+01 -0.51965374531E+02  0.10664058732E+03  0.17268616748E+03  0.12509185096E+03 0.  0.
          5    1    3    3  502    0  0.51338194670E+02 -0.48466927446E+02  0.37326715998E+02  0.79971303698E+02  0.41800000000E+01 0.  1.
         -5    1    3    3    0  502 -0.61334506404E+02 -0.34984470852E+01  0.69313871322E+02  0.92714863779E+02  0.41800000000E+01 0.  1.
        -11    1    1    2    0    0  0.32318234685E+02  0.40742120539E+02  0.10740915795E+03  0.11933614662E+03  0.00000000000E+00 0. -1.
         11    1    1    2    0    0 -0.22321922951E+02  0.11223253992E+02 -0.64729150040E+01  0.25809461502E+02  0.00000000000E+00 0.  1.
</event>
<event>
 7    1  0.2788485E-009  0.1851972E+03  0.7561462E-02  0.1162866E+00
         -2   -1    0    0    0  501 -0.00000000000E+00  0.00000000000E+00  0.19692496413E+02  0.19692496413E+02  0.00000000000E+00 0.  1.
          2   -1    0    0  501    0  0.00000000000E+00 -0.00000000000E+00 -0.17812533913E+04  0.17812533913E+04  0.00000000000E+00 0. -1.
         25    2    1    2    0    0 -0.10148774005E+03  0.10855545515E+03 -0.94951922866E+03  0.96918460087E+03  0.12509187324E+03 0.  0.
          5    1    3    3  502    0  0.23817666814E+02 -0.29390860400E+01 -0.80011026823E+02  0.83637050955E+02  0.41800000000E+01 0. -1.
         -5    1    3    3    0  502 -0.12530540686E+03  0.11149454119E+03 -0.86950820183E+03  0.88554754991E+03  0.41800000000E+01 0. -1.
        -11    1    1    2    0    0 -0.13872878847E+02 -0.43839073570E+02 -0.16205524909E+03  0.16845244105E+03  0.00000000000E+00 0. -1.
         11    1    1    2    0    0  0.11536061889E+03 -0.64716381579E+02 -0.64998641714E+03  0.66330884579E+03  0.00000000000E+00 0.  1.
</event>
<event>
 7    1  0.2788485E-009  0.7856364E+02  0.7561462E-02  0.1333178E+00
          2   -1    0    0  501    0  0.00000000000E+00  0.00000000000E+00  0.57038336600E+02  0.57038336600E+02  0.00000000000E+00 0.  1.
         -2   -1    0    0    0  501 -0.00000000000E+00 -0.00000000000E+00 -0.32774909566E+03  0.32774909566E+03  0.00000000000E+00 0. -1.
         25    2    1    2    0    0  0.55709259701E+02  0.38389858536E+02 -0.83447504544E+02  0.16488965666E+03  0.12509120674E+03 0.  0.
          5    1    3    3  502    0 -0.78275919303E+01  0.21629785125E+02 -0.95180170801E+02  0.98009469510E+02  0.41800000000E+01 0. -1.
         -5    1    3    3    0  502  0.63536851632E+02  0.16760073412E+02  0.11732666257E+02  0.66880187152E+02  0.41800000000E+01 0. -1.
        -11    1    1    2    0    0 -0.22804391481E+02 -0.19217647589E+02 -0.17829675003E+03  0.18077358580E+03  0.00000000000E+00 0. -1.
         11    1    1    2    0    0 -0.32904868220E+02 -0.19172210948E+02 -0.89665044888E+01  0.39124189806E+02  0.00000000000E+00 0.  1.
</event>
<event>
 7    1  0.2788485E-009  0.6504238E+02  0.7561462E-02  0.1377812E+00
         -2   -1    0    0    0  501 -0.00000000000E+00  0.00000000000E+00  0.61038967599E+02  0.61038967599E+02  0.00000000000E+00 0. -1.
          2   -1    0    0  501    0  0.00000000000E+00 -0.00000000000E+00 -0.21939575747E+03  0.21939575747E+03  0.00000000000E+00 0.  1.
         25    2    1    2    0    0 -0.79607041486E+01 -0.20465848613E+02 -0.11852085052E+03  0.17371285407E+03  0.12508692935E+03 0.  0.
          5    1    3    3  502    0 -0.45756775286E+02  0.12724417888E+02 -0.11335754300E+03  0.12297560022E+03  0.41800000000E+01 0. -1.
         -5    1    3    3    0  502  0.37796071137E+02 -0.33190266502E+02 -0.51633075178E+01  0.50737253851E+02  0.41800000000E+01 0. -1.
        -11    1    1    2    0    0  0.16236687460E+02  0.13389044011E+02 -0.70819619844E+02  0.73880410624E+02  0.00000000000E+00 0.  1.
         11    1    1    2    0    0 -0.82759833112E+01  0.70768046019E+01  0.30983680485E+02  0.32841460375E+02  0.00000000000E+00 0. -1.
</event>
<event>
 7    1  0.2788485E-009  0.1126147E+03  0.7561462E-02  0.1255803E+00
         -2   -1    0    0    0  501 -0.00000000000E+00  0.00000000000E+00  0.55449055546E+02  0.55449055546E+02  0.00000000000E+00 0.  1.
          2   -1    0    0  501    0  0.00000000000E+00 -0.00000000000E+00 -0.35570720155E+03  0.35570720155E+03  0.00000000000E+00 0. -1.
         25    2    1    2    0    0  0.48047003327E+02  0.73763695342E+02 -0.17485835455E+03  0.23232024582E+03  0.12509058789E+03 0.  0.
          5    1    3    3  502    0  0.60622899554E+02  0.76868846078E+02 -0.56353031723E+02  0.11303579978E+03  0.41800000000E+01 0.  1.
         -5    1    3    3    0  502 -0.12575896227E+02 -0.31051507357E+01 -0.11850532283E+03  0.11928444603E+03  0.41800000000E+01 0.  1.
        -11    1    1    2    0    0  0.19160424695E+02 -0.14538655698E+02  0.81206157813E+00  0.24065615056E+02  0.00000000000E+00 0.  1.
         11    1    1    2    0    0 -0.67207428022E+02 -0.59225039644E+02 -0.12621185303E+03  0.15477039622E+03  0.00000000000E+00 0. -1.
</event>
<event>
 7    1  0.2788485E-009  0.1512724E+03  0.7561462E-02  0.1198918E+00
          1   -1    0    0  501    0  0.00000000000E+00  0.00000000000E+00  0.10394408900E+03  0.10394408900E+03  0.00000000000E+00 0. -1.
         -1   -1    0    0    0  501 -0.00000000000E+00 -0.00000000000E+00 -0.29745715574E+03  0.29745715574E+03  0.00000000000E+00 0.  1.
         25    2    1    2    0    0  0.23937343025E+01 -0.12674748913E+03 -0.15912177227E+03  0.23882598853E+03  0.12508980143E+03 0.  0.
          5    1    3    3  502    0  0.53503221982E+02 -0.10522602450E+03 -0.82206636886E+02  0.14391148162E+03  0.41800000000E+01 0. -1.
         -5    1    3    3    0  502 -0.51109487679E+02 -0.21521464630E+02 -0.76915135382E+02  0.94914506907E+02  0.41800000000E+01 0. -1.
        -11    1    1    2    0    0 -0.12658142149E+02  0.73703474323E+02  0.28171194930E+02  0.79912745627E+02  0.00000000000E+00 0. -1.
         11    1    1    2    0    0  0.10264407847E+02  0.53044014809E+02 -0.62562489399E+02  0.82662510580E+02  0.00000000000E+00 0.  1.
</event>
<event>
 7    1  0.2788485E-009  0.4359076E+03  0.7561462E-02  0.1032010E+00
          2   -1    0    0  501    0  0.00000000000E+00  0.00000000000E+00  0.16466474953E+04  0.16466474953E+04  0.00000000000E+00 0.  1.
         -2   -1    0    0    0  501 -0.00000000000E+00 -0.00000000000E+00 -0.12913310789E+03  0.12913310789E+03  0.00000000000E+00 0. -1.
         25    2    1    2    0    0 -0.49969996762E+02  0.43182537157E+03  0.97410218614E+03  0.10740079522E+04  0.12509140725E+03 0.  0.
          5    1    3    3  502    0 -0.49462854091E+02  0.23370728479E+03  0.39169609183E+03  0.45881256484E+03  0.41800000000E+01 0.  1.
         -5    1    3    3    0  502 -0.50714267123E+00  0.19811808678E+03  0.58240609430E+03  0.61519538732E+03  0.41800000000E+01 0.  1.
        -11    1    1    2    0    0  0.49416152018E+02 -0.42069011513E+03  0.54527545279E+03  0.69046900616E+03  0.00000000000E+00 0.  1.
         11    1    1    2    0    0  0.55384474443E+00 -0.11135256442E+02 -0.18632515580E+01  0.11303644828E+02  0.00000000000E+00 0. -1.
</event>
<event>
 7    1  0.2788485E-009  0.8401545E+02  0.7561462E-02  0.1318027E+00
          1   -1    0    0  501    0  0.00000000000E+00  0.00000000000E+00  0.71339299000E+02  0.71339299000E+02  0.00000000000E+00 0. -1.
         -1   -1    0    0    0  501 -0.00000000000E+00 -0.00000000000E+00 -0.21646196103E+03  0.21646196103E+03  0.00000000000E+00 0.  1.
         25    2    1    2    0    0  0.32804349660E+02  0.42413397158E+02 -0.10429360360E+03  0.17146624287E+03  0.12509394501E+03 0.  0.
          5    1    3    3  502    0  0.25807300549E+02  0.19660527201E+00 -0.12214473152E+03  0.12491142163E+03  0.41800000000E+01 0. -1.
         -5    1    3    3    0  502  0.69970491112E+01  0.42216791886E+02  0.17851127917E+02  0.46554821247E+02  0.41800000000E+01 0. -1.
        -11    1    1    2    0    0  0.24705436896E+02  0.39497946455E+01 -0.33909871089E+02  0.42140702975E+02  0.00000000000E+00 0.  1.
         11    1    1    2    0    0 -0.57509786556E+02 -0.46363191803E+02 -0.69191873442E+01  0.74194314185E+02  0.00000000000E+00 0. -1.
</event>
<event>
 7    1  0.2788485E-009  0.8130672E+02  0.7561462E-02  0.1325384E+00
         -2   -1    0    0    0  501 -0.00000000000E+00  0.00000000000E+00  0.46592025636E+02  0.46592025636E+02  0.00000000000E+00 0.  1.
          2   -1    0    0  501    0  0.00000000000E+00 -0.00000000000E+00 -0.37067615279E+03  0.37067615279E+03  0.00000000000E+00 0. -1.
         25    2    1    2    0    0  0.50725296388E+02 -0.12649623698E+02 -0.96275804783E+02  0.16628095456E+03  0.12508899468E+03 0.  0.
          5    1    3    3  502    0  0.41323345159E+01  0.80228988277E+01 -0.11225802700E+03  0.11269773787E+03  0.41800000000E+01 0.  1.
         -5    1    3    3    0  502  0.46592961873E+02 -0.20672522526E+02  0.15982222221E+02  0.53583216689E+02  0.41800000000E+01 0.  1.
        -11    1    1    2    0    0 -0.20262102939E+02  0.49632864064E+02 -0.86386133606E+02  0.10166876654E+03  0.00000000000E+00 0.  1.
         11    1    1    2    0    0 -0.30463193449E+02 -0.36983240365E+02 -0.14142218877E+03  0.14931845733E+03  0.00000000000E+00 0. -1.
</event>
<event>
 7    1  0.2788485E-009  0.1046234E+03  0.7561462E-02  0.1270863E+00
         -1   -1    0    0    0  501 -0.00000000000E+00  0.00000000000E+00  0.13880043993E+02  0.13880043993E+02  0.00000000000E+00 0.  1.
          1   -1    0    0  501    0  0.00000000000E+00 -0.00000000000E+00 -0.10285401825E+04  0.10285401825E+04  0.00000000000E+00 0. -1.
         25    2    1    2    0    0 -0.27628851779E+02  0.42656608484E+02 -0.59579217218E+03  0.61089973076E+03  0.12508888405E+03 0.  0.
          5    1    3    3  502    0 -0.54984383048E+02  0.54290533755E+02 -0.20768268833E+03  0.22163103543E+03  0.41800000000E+01 0. -1.
         -5    1    3    3    0  502  0.27355531270E+02 -0.11633925270E+02 -0.38810948385E+03  0.38926869533E+03  0.41800000000E+01 0. -1.
        -11    1    1    2    0    0 -0.15628552490E+02 -0.54742840272E+02 -0.19259307531E+03  0.20083108044E+03  0.00000000000E+00 0.  1.
         11    1    1    2    0    0  0.43257404268E+02  0.12086231787E+02 -0.22627489103E+03  0.23068941531E+03  0.00000000000E+00 0. -1.
</event>
<event>
 7    1  0.2788485E-009  0.1133689E+03  0.7561462E-02  0.1254455E+00
         -1   -1    0    0    0  501 -0.00000000000E+00  0.00000000000E+00  0.15547391434E+02  0.15547391434E+02  0.00000000000E+00 0.  1.
          1   -1    0    0  501    0  0.00000000000E+00 -0.00000000000E+00 -0.11772359951E+04  0.11772359951E+04  0.00000000000E+00 0. -1.
         25    2    1    2    0    0 -0.61280925569E+02  0.14620420528E+02 -0.87432025012E+03  0.88546679447E+03  0.12508571386E+03 0.  0.
          5    1    3    3  502    0 -0.17268262665E+02 -0.52372198007E+02 -0.47111549763E+03  0.47435042377E+03  0.41800000000E+01 0. -1.
         -5    1    3    3    0  502 -0.44012662904E+02  0.66992618536E+02 -0.40320475249E+03  0.41111637071E+03  0.41800000000E+01 0. -1.
        -11    1    1    2    0    0  0.33559441366E+02  0.25677493637E+02 -0.52419104016E+02  0.67330024879E+02  0.00000000000E+00 0.  1.
         11    1    1    2    0    0  0.27721484203E+02 -0.40297914166E+02 -0.23494924954E+03  0.23998656719E+03  0.00000000000E+00 0. -1.
</event>
<event>
 7    1  0.2788485E-009  0.1630854E+03  0.7561462E-02  0.1185257E+00
         -1   -1    0    0    0  501 -0.00000000000E+00  0.00000000000E+00  0.71185608255E+02  0.71185608255E+02  0.00000000000E+00 0.  1.
          1   -1    0    0  501    0  0.00000000000E+00 -0.00000000000E+00 -0.54481331723E+03  0.54481331723E+03  0.00000000000E+00 0. -1.
         25    2    1    2    0    0 -0.84011753486E+02 -0.99942759336E+02 -0.93384431024E+02  0.20350679653E+03  0.12509130429E+03 0.  0.
          5    1    3    3  502    0 -0.31504398189E+02 -0.10869278761E+03 -0.23665484432E+02  0.11569000275E+03  0.41800000000E+01 0.  1.
         -5    1    3    3    0  502 -0.52507355297E+02  0.87500282746E+01 -0.69718946592E+02  0.87816793776E+02  0.41800000000E+01 0.  1.
        -11    1    1    2    0    0  0.62384609978E+02  0.54798949420E+01 -0.16292489248E+03  0.17454623857E+03  0.00000000000E+00 0.  1.
         11    1    1    2    0    0  0.21627143509E+02  0.94462864394E+02 -0.21731838547E+03  0.23794589038E+03  0.00000000000E+00 0. -1.
</event>
<event>
 7    1  0.2788485E-009  0.1292359E+03  0.7561462E-02  0.1228594E+00
          1   -1    0    0  501    0  0.00000000000E+00  0.00000000000E+00  0.15388765546E+03  0.15388765546E+03  0.00000000000E+00 0. -1.
         -1   -1    0    0    0  501 -0.00000000000E+00 -0.00000000000E+00 -0.13716637150E+03  0.13716637150E+03  0.00000000000E+00 0.  1.
         25    2    1    2    0    0 -0.72777779277E+02 -0.41834393867E+02  0.55470061376E+02  0.16053354992E+03  0.12508945309E+03 0.  0.
          5    1    3    3  502    0 -0.71791018850E+02 -0.77597033433E+02  0.63825756602E+02  0.12355747485E+03  0.41800000000E+01 0.  1.
         -5    1    3    3    0  502 -0.98676042751E+00  0.35762639566E+02 -0.83556952265E+01  0.36976075070E+02  0.41800000000E+01 0.  1.
        -11    1    1    2    0    0  0.40874110830E+02 -0.21172903238E+02 -0.38320169338E+02  0.59895076139E+02  0.00000000000E+00 0.  1.
         11    1    1    2    0    0  0.31903668448E+02  0.63007297104E+02 -0.42860807549E+00  0.70625400910E+02  0.00000000000E+00 0. -1.
</event>
<event>
 7    1  0.2788485E-009  0.1174516E+03  0.7561462E-02  0.1247361E+00
         -3   -1    0    0    0  501 -0.00000000000E+00  0.00000000000E+00  0.19281904890E+03  0.19281904890E+03  0.00000000000E+00 0.  1.
          3   -1    0    0  501    0  0.00000000000E+00 -0.00000000000E+00 -0.97869119418E+02  0.97869119418E+02  0.00000000000E+00 0. -1.
         25    2    1    2    0    0 -0.80429085354E+02  0.14715063613E+02  0.34049199909E+02  0.15326579931E+03  0.12508271806E+03 0.  0.
          5    1    3    3  502    0  0.24793210558E+02  0.99999294252E+01 -0.21087877108E+02  0.34305580293E+02  0.41800000000E+01 0.  1.
         -5    1    3    3    0  502 -0.10522229591E+03  0.47151341882E+01  0.55137077017E+02  0.11896021902E+03  0.41800000000E+01 0.  1.
        -11    1    1    2    0    0 -0.87548719090E+01 -0.97611967829E+01 -0.15202972008E+02  0.20076331902E+02  0.00000000000E+00 0. -1.
         11    1    1    2    0    0  0.89183957263E+02 -0.49538668305E+01  0.76103701585E+02  0.11734603711E+03  0.00000000000E+00 0.  1.
</event>
<event>
 7    1  0.2788485E-009  0.8562932E+02  0.7561462E-02  0.1313795E+00
         -1   -1    0    0    0  501 -0.00000000000E+00  0.00000000000E+00  0.17473424249E+03  0.17473424249E+03  0.00000000000E+00 0.  1.
          1   -1    0    0  501    0  0.00000000000E+00 -0.00000000000E+00 -0.74694551712E+02  0.74694551712E+02  0.00000000000E+00 0. -1.
         25    2    1    2    0    0 -0.27768184329E+02  0.22330491606E+02  0.77699748502E+02  0.15149914591E+03  0.12508004388E+03 0.  0.
          5    1    3    3  502    0 -0.42355649457E+02 -0.25223200383E+02  0.87604978866E+02  0.10060971922E+03  0.41800000000E+01 0. -1.
         -5    1    3    3    0  502  0.14587465128E+02  0.47553691990E+02 -0.99052303638E+01  0.50889426694E+02  0.41800000000E+01 0. -1.
        -11    1    1    2    0    0  0.48087983197E+01  0.21691948840E+02  0.39564921334E+02  0.45376736176E+02  0.00000000000E+00 0.  1.
         11    1    1    2    0    0  0.22959386010E+02 -0.44022440446E+02 -0.17224979055E+02  0.52552912119E+02  0.00000000000E+00 0. -1.
</event>
<event>
 7    1  0.2788485E-009  0.8918023E+02  0.7561462E-02  0.1304849E+00
         -1   -1    0    0    0  501 -0.00000000000E+00  0.00000000000E+00  0.48455325526E+02  0.48455325526E+02  0.00000000000E+00 0.  1.
          1   -1    0    0  501    0  0.00000000000E+00 -0.00000000000E+00 -0.30658984261E+03  0.30658984261E+03  0.00000000000E+00 0. -1.
         25    2    1    2    0    0 -0.43046850816E+02 -0.22049136367E+02 -0.13175511174E+03  0.18800448807E+03  0.12508829795E+03 0.  0.
          5    1    3    3  502    0 -0.27136996196E+02  0.28346824878E+02  0.64435272860E+01  0.39986878937E+02  0.41800000000E+01 0. -1.
         -5    1    3    3    0  502 -0.15909854619E+02 -0.50395961245E+02 -0.13819863903E+03  0.14801760913E+03  0.41800000000E+01 0. -1.
        -11    1    1    2    0    0  0.41678166655E+02 -0.18294506692E+02 -0.13984157537E+02  0.47616333467E+02  0.00000000000E+00 0.  1.
         11    1    1    2    0    0  0.13686841605E+01  0.40343643059E+02 -0.11239524780E+03  0.11942434660E+03  0.00000000000E+00 0. -1.
</event>
<event>
 7    1  0.2788485E-009  0.1075211E+03  0.7561462E-02  0.1265230E+00
         -2   -1    0    0    0  501 -0.00000000000E+00  0.00000000000E+00  0.10023081835E+03  0.10023081835E+03  0.00000000000E+00 0.  1.
          2   -1    0    0  501    0  0.00000000000E+00 -0.00000000000E+00 -0.42517111522E+03  0.42517111522E+03  0.00000000000E+00 0. -1.
         25    2    1    2    0    0  0.41587173637E+02 -0.47778666846E+02 -0.37749802487E+03  0.40270136157E+03  0.12510529092E+03 0.  0.
          5    1    3    3  502    0  0.41792661738E+02  0.36609500060E+02 -0.15321841632E+03  0.16303446742E+03  0.41800000000E+01 0.  1.
         -5    1    3    3    0  502 -0.20548810097E+00 -0.84388166906E+02 -0.22427960855E+03  0.23966689415E+03  0.41800000000E+01 0.  1.
        -11    1    1    2    0    0 -0.13942222349E+02 -0.53576178371E+01  0.60465858006E+02  0.62283301272E+02  0.00000000000E+00 0.  1.
         11    1    1    2    0    0 -0.27644951288E+02  0.53136284683E+02 -0.79081300067E+01  0.60417270725E+02  0.00000000000E+00 0. -1.
</event>
<event>
 7    1  0.2788485E-009  0.1032328E+03  0.7561462E-02  0.1273641E+00
         -2   -1    0    0    0  501 -0.00000000000E+00  0.00000000000E+00  0.23166239879E+03  0.23166239879E+03  0.00000000000E+00 0.  1.
          2   -1    0    0  501    0  0.00000000000E+00 -0.00000000000E+00 -0.65863743355E+02  0.65863743355E+02  0.00000000000E+00 0. -1.
         25    2    1    2    0    0 -0.63463503614E+01 -0.90463336288E+01  0.16435067193E+03  0.20683413709E+03  0.12508838710E+03 0.  0.
          5    1    3    3  502    0 -0.33288072210E+02 -0.59389758584E+02  0.84975036597E+02  0.10896544599E+03  0.41800000000E+01 0. -1.
         -5    1    3    3    0  502  0.26941721848E+02  0.50343424955E+02  0.79375635329E+02  0.97868691093E+02  0.41800000000E+01 0. -1.
        -11    1    1    2    0    0 -0.31518568118E+02  0.24685968528E+02  0.21099476476E+02  0.45254890188E+02  0.00000000000E+00 0.  1.
         11    1    1    2    0    0  0.37864918480E+02 -0.15639634899E+02 -0.19651492971E+02  0.45437114865E+02  0.00000000000E+00 0. -1.
</event>
<event>
 7    1  0.2788485E-009  0.1642177E+03  0.7561462E-02  0.1184016E+00
          2   -1    0    0  501    0  0.00000000000E+00  0.00000000000E+00  0.31471721860E+03  0.31471721860E+03  0.00000000000E+00 0. -1.
         -2   -1    0    0    0  501 -0.00000000000E+00 -0.00000000000E+00 -0.12679286022E+03  0.12679286022E+03  0.00000000000E+00 0.  1.
         25    2    1    2    0    0 -0.94458844632E+02 -0.95074743211E+02  0.20901906086E+03  0.27802363252E+03  0.12508593970E+03 0.  0.
          5    1    3    3  502    0 -0.59674954861E+02  0.13267039007E+02  0.36519649073E+02  0.71332122708E+02  0.41800000000E+01 0. -1.
         -5    1    3    3    0  502 -0.34783889771E+02 -0.10834178222E+03  0.17249941178E+03  0.20669150981E+03  0.41800000000E+01 0. -1.
        -11    1    1    2    0    0  0.81926034224E+02  0.30347964730E+02 -0.38233828422E+02  0.95366134884E+02  0.00000000000E+00 0.  1.
         11    1    1    2    0    0  0.12532810408E+02  0.64726778481E+02  0.17139125954E+02  0.68120311418E+02  0.00000000000E+00 0. -1.
</event>
<event>
 7    1  0.2788485E-009  0.1692980E+03  0.7561462E-02  0.1178582E+00
         -2   -1    0    0    0  501 -0.00000000000E+00  0.00000000000E+00  0.20147154587E+02  0.20147154587E+02  0.00000000000E+00 0.  1.
          2   -1    0    0  501    0  0.00000000000E+00 -0.00000000000E+00 -0.18534754373E+04  0.18534754373E+04  0.00000000000E+00 0. -1.
         25    2    1    2    0    0 -0.88703115566E+01 -0.15258644371E+03 -0.12066283726E+04  0.12226857987E+04  0.12508887873E+03 0.  0.
          5    1    3    3  502    0  0.22368386279E+02 -0.36548005444E+02 -0.91830273072E+02  0.10142175733E+03  0.41800000000E+01 0.  1.
         -5    1    3    3    0  502 -0.31238697835E+02 -0.11603843827E+03 -0.11147980996E+04  0.11212640414E+04  0.41800000000E+01 0.  1.
        -11    1    1    2    0    0  0.45442927276E+02  0.56616998289E+02 -0.28792500021E+03  0.29693660920E+03  0.00000000000E+00 0. -1.
         11    1    1    2    0    0 -0.36572615720E+02  0.95969445423E+02 -0.33877490988E+03  0.35400018396E+03  0.00000000000E+00 0.  1.
</event>
<event>
 7    1  0.2788485E-009  0.9907345E+02  0.7561462E-02  0.1282256E+00
          1   -1    0    0  501    0  0.00000000000E+00  0.00000000000E+00  0.56489632923E+03  0.56489632923E+03  0.00000000000E+00 0. -1.
         -1   -1    0    0    0  501 -0.00000000000E+00 -0.00000000000E+00 -0.21367361097E+02  0.21367361097E+02  0.00000000000E+00 0.  1.
         25    2    1    2    0    0  0.13538473887E+02  0.91237368785E+01  0.38353546869E+03  0.40374893768E+03  0.12508883276E+03 0.  0.
          5    1    3    3  502    0  0.30289637262E+02 -0.51801567195E+02  0.14572594255E+03  0.15765274251E+03  0.41800000000E+01 0.  1.
         -5    1    3    3    0  502 -0.16751163375E+02  0.60925304073E+02  0.23780952614E+03  0.24609619516E+03  0.41800000000E+01 0.  1.
        -11    1    1    2    0    0 -0.22202962593E+02 -0.38280278403E+02  0.13815683701E+03  0.14507123380E+03  0.00000000000E+00 0. -1.
         11    1    1    2    0    0  0.86644887061E+01  0.29156541525E+02  0.21836662434E+02  0.37443518858E+02  0.00000000000E+00 0.  1.
</event>
<event>
 7    1  0.2788485E-009  0.1576818E+03  0.7561462E-02  0.1191339E+00
         -2   -1    0    0    0  501 -0.00000000000E+00  0.00000000000E+00  0.15026045786E+02  0.15026045786E+02  0.00000000000E+00 0.  1.
          2   -1    0    0  501    0  0.00000000000E+00 -0.00000000000E+00 -0.19604687029E+04  0.19604687029E+04  0.00000000000E+00 0. -1.
         25    2    1    2    0    0 -0.45320548775E+02 -0.11248897288E+03 -0.13260100891E+04  0.13374069913E+04  0.12508790088E+03 0.  0.
          5    1    3    3  502    0 -0.49639219536E+02  0.10499792972E+02 -0.41617436333E+03  0.41927660424E+03  0.41800000000E+01 0. -1.
         -5    1    3    3    0  502  0.43186707618E+01 -0.12298876586E+03 -0.90983572575E+03  0.91813038709E+03  0.41800000000E+01 0. -1.
        -11    1    1    2    0    0  0.39934161514E+02  0.13457557854E+02 -0.89121580134E+02  0.98582448563E+02  0.00000000000E+00 0.  1.
         11    1    1    2    0    0  0.53863872607E+01  0.99031415030E+02 -0.53031098788E+03  0.53950530877E+03  0.00000000000E+00 0. -1.
</event>
<event>
 7    1  0.2788485E-009  0.1398949E+03  0.7561462E-02  0.1213470E+00
         -1   -1    0    0    0  501 -0.00000000000E+00  0.00000000000E+00  0.26793104430E+03  0.26793104430E+03  0.00000000000E+00 0.  1.
          1   -1    0    0  501    0  0.00000000000E+00 -0.00000000000E+00 -0.88862021404E+02  0.88862021404E+02  0.00000000000E+00 0. -1.
         25    2    1    2    0    0 -0.24061642816E+02 -0.97697570429E+02  0.14504798127E+03  0.21635801684E+03  0.12509235252E+03 0.  0.
          5    1    3    3  502    0 -0.66865479108E+02 -0.27729246639E+02  0.97341335660E+02  0.12137838129E+03  0.41800000000E+01 0. -1.
         -5    1    3    3    0  502  0.42803836292E+02 -0.69968323789E+02  0.47706645607E+02  0.94979635555E+02  0.41800000000E+01 0. -1.
        -11    1    1    2    0    0 -0.17997483251E+02  0.75460455433E+02 -0.66267013344E+01  0.77859507500E+02  0.00000000000E+00 0.  1.
         11    1    1    2    0    0  0.42059126067E+02  0.22237114996E+02  0.40647742964E+02  0.62575541364E+02  0.00000000000E+00 0. -1.
</event>
<event>
 7    1  0.2788485E-009  0.1711610E+03  0.7561462E-02  0.1176643E+00
         -1   -1    0    0    0  501 -0.00000000000E+00  0.00000000000E+00  0.60959993473E+03  0.60959993473E+03  0.00000000000E+00 0.  1.
          1   -1    0    0  501    0  0.00000000000E+00 -0.00000000000E+00 -0.52355517865E+02  0.52355517865E+02  0.00000000000E+00 0. -1.
         25    2    1    2    0    0  0.87745642525E+02  0.11504008934E+03  0.29823726485E+03  0.35429738180E+03  0.12509056187E+03 0.  0.
          5    1    3    3  502    0 -0.24743414345E+02  0.23476620836E+02  0.11803933649E+03  0.12293960159E+03  0.41800000000E+01 0.  1.
         -5    1    3    3    0  502  0.11248905687E+03  0.91563468506E+02  0.18019792836E+03  0.23135778021E+03  0.41800000000E+01 0.  1.
        -11    1    1    2    0    0 -0.64772737913E+02 -0.24186046374E+02  0.14035659290E+03  0.15646228167E+03  0.00000000000E+00 0. -1.
         11    1    1    2    0    0 -0.22972904612E+02 -0.90854042967E+02  0.11865055912E+03  0.15119578912E+03  0.00000000000E+00 0.  1.
</event>
<event>
 7    1  0.2788485E-009  0.1276518E+03  0.7561462E-02  0.1230982E+00
          2   -1    0    0  501    0  0.00000000000E+00  0.00000000000E+00  0.42606405922E+02  0.42606405922E+02  0.00000000000E+00 0.  1.
         -2   -1    0    0    0  501 -0.00000000000E+00 -0.00000000000E+00 -0.50215105474E+03  0.50215105474E+03  0.00000000000E+00 0. -1.
         25    2    1    2    0    0 -0.38671862495E+02 -0.72237379522E+02 -0.34179060501E+03  0.37307101596E+03  0.12508962119E+03 0.  0.
          5    1    3    3  502    0 -0.75512955468E+02 -0.66438630245E+02 -0.30217587402E+03  0.31850279320E+03  0.41800000000E+01 0. -1.
         -5    1    3    3    0  502  0.36841092973E+02 -0.57987492774E+01 -0.39614730985E+02  0.54568222764E+02  0.41800000000E+01 0. -1.
        -11    1    1    2    0    0  0.44800540145E+02  0.88793094189E+02 -0.11762072906E+03  0.15403226246E+03  0.00000000000E+00 0. -1.
         11    1    1    2    0    0 -0.61286776495E+01 -0.16555714667E+02 -0.13331474693E+00  0.17654182244E+02  0.00000000000E+00 0.  1.
</event>
<event>
 7    1  0.2788485E-009  0.1081351E+03  0.7561462E-02  0.1264063E+00
          1   -1    0    0  501    0  0.00000000000E+00  0.00000000000E+00  0.46613558131E+03  0.46613558131E+03  0.00000000000E+00 0. -1.
         -1   -1    0    0    0  501 -0.00000000000E+00 -0.00000000000E+00 -0.32018882922E+02  0.32018882922E+02  0.00000000000E+00 0.  1.
         25    2    1    2    0    0 -0.13048383670E+02  0.43548647346E+02  0.16985041908E+03  0.21578711580E+03  0.12509264358E+03 0.  0.
          5    1    3    3  502    0  0.49867778018E+02 -0.17795442104E+01  0.38365630101E+02  0.63082137211E+02  0.41800000000E+01 0.  1.
         -5    1    3    3    0  502 -0.62916161688E+02  0.45328191557E+02  0.13148478898E+03  0.15270497859E+03  0.41800000000E+01 0.  1.
        -11    1    1    2    0    0 -0.16948769268E+02 -0.54137043973E+02  0.99296789168E+02  0.11435878912E+03  0.00000000000E+00 0.  1.
         11    1    1    2    0    0  0.29997152938E+02  0.10588396626E+02  0.16496949014E+03  0.16800855932E+03  0.00000000000E+00 0. -1.
</event>
<event>
 7    1  0.3116243E-009  0.1820355E+03  0.7561462E-02  0.1165847E+00
         -1   -1    0    0    0  501 -0.00000000000E+00  0.00000000000E+00  0.23262571911E+03  0.23262571911E+03  0.00000000000E+00 0.  1.
          1   -1    0    0  501    0  0.00000000000E+00 -0.00000000000E+00 -0.15636812146E+03  0.15636812146E+03  0.00000000000E+00 0. -1.
         25    2    1    2    0    0 -0.90174817586E+02 -0.12094305676E+03 -0.33387976763E+01  0.19600276320E+03  0.12508882806E+03 0.  0.
          5    1    3    3  502    0 -0.11834819298E+03 -0.75683254427E+02 -0.14782789247E+02  0.14131614572E+03  0.41800000000E+01 0. -1.
         -5    1    3    3    0  502  0.28173375394E+02 -0.45259802337E+02  0.11443991571E+02  0.54686617483E+02  0.41800000000E+01 0. -1.
        -11    1    1    2    0    0 -0.75461103126E+01  0.46762141356E+02  0.45438036135E+02  0.65637312352E+02  0.00000000000E+00 0.  1.
         11    1    1    2    0    0  0.97720927899E+02  0.74180915407E+02  0.34158359194E+02  0.12735376501E+03  0.00000000000E+00 0. -1.
</event>
<event>
 7    1  0.2788485E-009  0.8687434E+02  0.7561462E-02  0.1310602E+00
         -2   -1    0    0    0  501 -0.00000000000E+00  0.00000000000E+00  0.44977145219E+03  0.44977145219E+03  0.00000000000E+00 0.  1.
          2   -1    0    0  501    0  0.00000000000E+00 -0.00000000000E+00 -0.22658870420E+02  0.22658870420E+02  0.00000000000E+00 0. -1.
         25    2    1    2    0    0  0.37608944506E+01  0.23188252913E+02  0.22054488267E+03  0.25463653534E+03  0.12509148835E+03 0.  0.
          5    1    3    3  502    0 -0.14025778100E+02 -0.38241685691E+02  0.23018748423E+02  0.46973228064E+02  0.41800000000E+01 0. -1.
         -5    1    3    3    0  502  0.17786672550E+02  0.61429938604E+02  0.19752613425E+03  0.20766330727E+03  0.41800000000E+01 0. -1.
        -11    1    1    2    0    0 -0.13249073154E+02  0.20278070517E+02  0.82924548491E+02  0.86389923172E+02  0.00000000000E+00 0.  1.
         11    1    1    2    0    0  0.94881787030E+01 -0.43466323431E+02  0.12364315061E+03  0.13140386410E+03  0.00000000000E+00 0. -1.
</event>
<event>
 7    1  0.2788485E-009  0.1044315E+03  0.7561462E-02  0.1271244E+00
          2   -1    0    0  501    0  0.00000000000E+00  0.00000000000E+00  0.77232940463E+02  0.77232940463E+02  0.00000000000E+00 0. -1.
         -2   -1    0    0    0  501 -0.00000000000E+00 -0.00000000000E+00 -0.26247399131E+03  0.26247399131E+03  0.00000000000E+00 0.  1.
         25    2    1    2    0    0  0.68350166402E+02 -0.26885439614E+02 -0.16560063384E+03  0.22015069011E+03  0.12509270290E+03 0.  0.
          5    1    3    3  502    0  0.27254398435E+02  0.42811751573E+02 -0.22425616922E+02  0.55641971578E+02  0.41800000000E+01 0.  1.
         -5    1    3    3    0  502  0.41095767967E+02 -0.69697191187E+02 -0.14317501692E+03  0.16450871853E+03  0.41800000000E+01 0.  1.
        -11    1    1    2    0    0 -0.27746924823E+02 -0.83256198609E+00 -0.53217199809E+02  0.60022123855E+02  0.00000000000E+00 0.  1.
         11    1    1    2    0    0 -0.40603241579E+02  0.27718001600E+02  0.33576782802E+02  0.59534117805E+02  0.00000000000E+00 0. -1.
</event>
<event>
 7    1  0.2788485E-009  0.1150967E+03  0.7561462E-02  0.1251412E+00
         -1   -1    0    0    0  501 -0.00000000000E+00  0.00000000000E+00  0.46232358439E+02  0.46232358439E+02  0.00000000000E+00 0.  1.
          1   -1    0    0  501    0  0.00000000000E+00 -0.00000000000E+00 -0.31213576775E+03  0.31213576775E+03  0.00000000000E+00 0. -1.
         25    2    1    2    0    0 -0.24844553637E+02  0.43783855687E+02 -0.16116724989E+03  0.21012558730E+03  0.12507438641E+03 0.  0.
          5    1    3    3  502    0  0.44743632252E+02  0.37872298623E+02 -0.10531340097E+03  0.12060136174E+03  0.41800000000E+01 0.  1.
         -5    1    3    3    0  502 -0.69588185889E+02  0.59115570642E+01 -0.55853848922E+02  0.89524225557E+02  0.41800000000E+01 0.  1.
        -11    1    1    2    0    0  0.51093216166E+02 -0.53022627612E+02 -0.57522293777E+02  0.93438375727E+02  0.00000000000E+00 0.  1.
         11    1    1    2    0    0 -0.26248662529E+02  0.92387719253E+01 -0.47213865642E+02  0.54804163164E+02  0.00000000000E+00 0. -1.
</event>
<event>
 7    1  0.2788485E-009  0.8146704E+02  0.7561462E-02  0.1324939E+00
          1   -1    0    0  501    0  0.00000000000E+00  0.00000000000E+00  0.70568250670E+03  0.70568250670E+03  0.00000000000E+00 0. -1.
         -1   -1    0    0    0  501 -0.00000000000E+00 -0.00000000000E+00 -0.26655156818E+02  0.26655156818E+02  0.00000000000E+00 0.  1.
         25    2    1    2    0    0 -0.40011455124E+02  0.13040265392E+02  0.56784904255E+03  0.58298377206E+03  0.12508628341E+03 0.  0.
          5    1    3    3  502    0 -0.59471806363E+01  0.25649937413E+02  0.52886499469E+03  0.52953653628E+03  0.41800000000E+01 0.  1.
         -5    1    3    3    0  502 -0.34064274488E+02 -0.12609672021E+02  0.38984047860E+02  0.53447235779E+02  0.41800000000E+01 0.  1.
        -11    1    1    2    0    0  0.44456423073E+02  0.31794867221E+02  0.62370177016E+02  0.82929645575E+02  0.00000000000E+00 0.  1.
         11    1    1    2    0    0 -0.44449679491E+01 -0.44835132613E+02  0.48808130315E+02  0.66424245885E+02  0.00000000000E+00 0. -1.
</event>
<event>
 7    1  0.2788485E-009  0.2392183E+03  0.7561462E-02  0.1120315E+00
         -1   -1    0    0    0  501 -0.00000000000E+00  0.00000000000E+00  0.17135845936E+03  0.17135845936E+03  0.00000000000E+00 0.  1.
          1   -1    0    0  501    0  0.00000000000E+00 -0.00000000000E+00 -0.38756534759E+03  0.38756534759E+03  0.00000000000E+00 0. -1.
         25    2    1    2    0    0 -0.16185734702E+03 -0.16020004588E+03 -0.16805706717E+03  0.30943807218E+03  0.12508751818E+03 0.  0.
          5    1    3    3  502    0 -0.12225333378E+03 -0.54677154489E+02 -0.42287857333E+02  0.14050339541E+03  0.41800000000E+01 0. -1.
         -5    1    3    3    0  502 -0.39604013237E+02 -0.10552289139E+03 -0.12576920984E+03  0.16893467677E+03  0.41800000000E+01 0. -1.
        -11    1    1    2    0    0  0.68658949295E+02  0.39650965175E+02  0.21200840441E+02  0.82071468812E+02  0.00000000000E+00 0.  1.
         11    1    1    2    0    0  0.93198397725E+02  0.12054908070E+03 -0.69350661498E+02  0.16741426596E+03  0.00000000000E+00 0. -1.
</event>
<event>
 7    1  0.2788485E-009  0.8739063E+02  0.7561462E-02  0.1309297E+00
         -1   -1    0    0    0  501 -0.00000000000E+00  0.00000000000E+00  0.37416051242E+02  0.37416051242E+02  0.00000000000E+00 0.  1.
          1   -1    0    0  501    0  0.00000000000E+00 -0.00000000000E+00 -0.31173597084E+03  0.31173597084E+03  0.00000000000E+00 0. -1.
         25    2    1    2    0    0  0.64085718839E+01  0.11223960896E+02 -0.26843702781E+03  0.29643146573E+03  0.12508448698E+03 0.  0.
          5    1    3    3  502    0  0.27344926502E+02  0.62838160927E+02 -0.16838290010E+03  0.18184238483E+03  0.41800000000E+01 0. -1.
         -5    1    3    3    0  502 -0.20936354618E+02 -0.51614200030E+02 -0.10005412771E+03  0.11458908090E+03  0.41800000000E+01 0. -1.
        -11    1    1    2    0    0 -0.26044448567E+02  0.27185657514E+01 -0.10476596689E+02  0.28203953253E+02  0.00000000000E+00 0.  1.
         11    1    1    2    0    0  0.19635876684E+02 -0.13942526648E+02  0.45937049083E+01  0.24516603093E+02  0.00000000000E+00 0. -1.
</event>
<event>
 7    1  0.2788485E-009  0.2223054E+03  0.7561462E-02  0.1132176E+00
         -3   -1    0    0    0  501 -0.00000000000E+00  0.00000000000E+00  0.62349106218E+03  0.62349106218E+03  0.00000000000E+00 0.  1.
          3   -1    0    0  501    0  0.00000000000E+00 -0.00000000000E+00 -0.15320509030E+03  0.15320509030E+03  0.00000000000E+00 0. -1.
         25    2    1    2    0    0  0.21747876405E+03 -0.11397029118E+02  0.47869293529E+03  0.54057537398E+03  0.12509158073E+03 0.  0.
          5    1    3    3  502    0  0.18881569515E+03 -0.13106685554E+00  0.47255116691E+03  0.50889435216E+03  0.41800000000E+01 0. -1.
         -5    1    3    3    0  502  0.28663068896E+02 -0.11265962262E+02  0.61417683771E+01  0.31681021812E+02  0.41800000000E+01 0. -1.
        -11    1    1    2    0    0 -0.11183748821E+03  0.33485734086E+02  0.31721899914E+02  0.12097601866E+03  0.00000000000E+00 0.  1.
         11    1    1    2    0    0 -0.10564127584E+03 -0.22088704968E+02 -0.40128863331E+02  0.11514475985E+03  0.00000000000E+00 0. -1.
</event>
<event>
 7    1  0.2788485E-009  0.1346939E+03  0.7561462E-02  0.1220652E+00
         -2   -1    0    0    0  501 -0.00000000000E+00  0.00000000000E+00  0.52421267310E+03  0.52421267310E+03  0.00000000000E+00 0.  1.
          2   -1    0    0  501    0  0.00000000000E+00 -0.00000000000E+00 -0.42419767730E+02  0.42419767730E+02  0.00000000000E+00 0. -1.
         25    2    1    2    0    0 -0.33577455292E+02 -0.77140097586E+02  0.15112212830E+03  0.21345633798E+03  0.12509064874E+03 0.  0.
          5    1    3    3  502    0  0.35997038065E+02 -0.69127655240E+02  0.59963657175E+02  0.98425261241E+02  0.41800000000E+01 0. -1.
         -5    1    3    3    0  502 -0.69574493357E+02 -0.80124423457E+01  0.91158471126E+02  0.11503107674E+03  0.41800000000E+01 0. -1.
        -11    1    1    2    0    0  0.49433394845E+02  0.88707474105E+02  0.30038741191E+03  0.31708874739E+03  0.00000000000E+00 0.  1.
         11    1    1    2    0    0 -0.15855939553E+02 -0.11567376519E+02  0.30283365162E+02  0.36087355461E+02  0.00000000000E+00 0. -1.
</event>
<event>
 7    1  0.2788485E-009  0.1220733E+03  0.7561462E-02  0.1239715E+00
         -2   -1    0    0    0  501 -0.00000000000E+00  0.00000000000E+00  0.54672662675E+03  0.54672662675E+03  0.00000000000E+00 0.  1.
          2   -1    0    0  501    0  0.00000000000E+00 -0.00000000000E+00 -0.34234987018E+02  0.34234987018E+02  0.00000000000E+00 0. -1.
         25    2    1    2    0    0 -0.47177483722E+02  0.63408133768E+02  0.33469281767E+03  0.36594150822E+03  0.12509036270E+03 0.  0.
          5    1    3    3  502    0  0.30964961482E+02  0.22672230258E+02  0.30457553139E+02  0.49173100448E+02  0.41800000000E+01 0. -1.
         -5    1    3    3    0  502 -0.78142445205E+02  0.40735903510E+02  0.30423526454E+03  0.31676840777E+03  0.41800000000E+01 0. -1.
        -11    1    1    2    0    0 -0.22534042551E+02 -0.35880859923E+02  0.40589097992E+02  0.58674475356E+02  0.00000000000E+00 0. -1.
         11    1    1    2    0    0  0.69711526273E+02 -0.27527273845E+02  0.13720972406E+03  0.15634563019E+03  0.00000000000E+00 0.  1.
</event>
<event>
 7    1  0.2788485E-009  0.1019712E+03  0.7561462E-02  0.1276205E+00
          3   -1    0    0  501    0  0.00000000000E+00  0.00000000000E+00  0.63434083908E+02  0.63434083908E+02  0.00000000000E+00 0. -1.
         -3   -1    0    0    0  501 -0.00000000000E+00 -0.00000000000E+00 -0.19425305087E+03  0.19425305087E+03  0.00000000000E+00 0.  1.
         25    2    1    2    0    0  0.26979361843E+02 -0.39342929275E+01 -0.64317372590E+02  0.14327114160E+03  0.12508609424E+03 0.  0.
          5    1    3    3  502    0  0.57523508320E+02  0.33269910157E+02 -0.67545924474E+02  0.94846008057E+02  0.41800000000E+01 0.  1.
         -5    1    3    3    0  502 -0.30544146477E+02 -0.37204203084E+02  0.32285518835E+01  0.48425133540E+02  0.41800000000E+01 0.  1.
        -11    1    1    2    0    0  0.19161001756E+02 -0.27278596991E+02 -0.41836522902E+02  0.53493555599E+02  0.00000000000E+00 0.  1.
         11    1    1    2    0    0 -0.46140363599E+02  0.31212889918E+02 -0.24665071466E+02  0.60922437579E+02  0.00000000000E+00 0. -1.
</event>
<event>
 7    1  0.2788485E-009  0.1761726E+03  0.7561462E-02  0.1171559E+00
         -2   -1    0    0    0  501 -0.00000000000E+00  0.00000000000E+00  0.97570926492E+02  0.97570926492E+02  0.00000000000E+00 0.  1.
          2   -1    0    0  501    0  0.00000000000E+00 -0.00000000000E+00 -0.37054725808E+03  0.37054725808E+03  0.00000000000E+00 0. -1.
         25    2    1    2    0    0 -0.10361688199E+03  0.11565681068E+03 -0.16262317171E+03  0.25730590186E+03  0.12508826911E+03 0.  0.
          5    1    3    3  502    0 -0.10400150269E+03  0.26116796958E+02 -0.68408502900E+02  0.12726191620E+03  0.41800000000E+01 0.  1.
         -5    1    3    3    0  502  0.38462069765E+00  0.89540013720E+02 -0.94214668805E+02  0.13004398567E+03  0.41800000000E+01 0.  1.
        -11    1    1    2    0    0  0.49869337571E+02 -0.51269731692E+02  0.84763638964E+00  0.71527999448E+02  0.00000000000E+00 0.  1.
         11    1    1    2    0    0  0.53747544422E+02 -0.64387078986E+02 -0.11120079627E+03  0.13928428326E+03  0.00000000000E+00 0. -1.
</event>
<event>
 7    1  0.2788485E-009  0.1050493E+03  0.7561462E-02  0.1270022E+00
          1   -1    0    0  501    0  0.00000000000E+00  0.00000000000E+00  0.78780367446E+03  0.78780367446E+03  0.00000000000E+00 0. -1.
         -1   -1    0    0    0  501 -0.00000000000E+00 -0.00000000000E+00 -0.16459673290E+02  0.16459673290E+02  0.00000000000E+00 0.  1.
         25    2    1    2    0    0 -0.24619734769E+02 -0.52645281556E+01  0.36790720947E+03  0.38940356009E+03  0.12508225789E+03 0.  0.
          5    1    3    3  502    0 -0.33497668834E+02  0.49630548384E+02  0.27126527839E+03  0.27782658046E+03  0.41800000000E+01 0.  1.
         -5    1    3    3    0  502  0.88779340645E+01 -0.54895076540E+02  0.96641931077E+02  0.11157697963E+03  0.41800000000E+01 0.  1.
        -11    1    1    2    0    0 -0.34619571335E+02  0.56039537574E+01  0.19673741181E+03  0.19983875556E+03  0.00000000000E+00 0. -1.
         11    1    1    2    0    0  0.59239306104E+02 -0.33942560182E+00  0.20669937989E+03  0.21502103210E+03  0.00000000000E+00 0.  1.
</event>
<event>
 7    1  0.4544537E-009  0.1371690E+03  0.7561462E-02  0.1217190E+00
          1   -1    0    0  501    0  0.00000000000E+00  0.00000000000E+00  0.37041337411E+03  0.37041337411E+03  0.00000000000E+00 0. -1.
         -1   -1    0    0    0  501 -0.00000000000E+00 -0.00000000000E+00 -0.67621388616E+02  0.67621388616E+02  0.00000000000E+00 0.  1.
         25    2    1    2    0    0 -0.67661640775E+02 -0.82461464807E+02  0.10335683087E+03  0.19418826821E+03  0.12509379765E+03 0.  0.
          5    1    3    3  502    0  0.10705140637E+02  0.22311673362E+02  0.43558142324E+02  0.50271214099E+02  0.41800000000E+01 0. -1.
         -5    1    3    3    0  502 -0.78366781412E+02 -0.10477313817E+03  0.59798688549E+02  0.14391705411E+03  0.41800000000E+01 0. -1.
        -11    1    1    2    0    0  0.36573854567E+02  0.77111997389E+01  0.11326182253E+02  0.39056265102E+02  0.00000000000E+00 0.  1.
         11    1    1    2    0    0  0.31087786208E+02  0.74750265068E+02  0.18810897236E+03  0.20479022941E+03  0.00000000000E+00 0. -1.
</event>
<event>
 7    1  0.2788485E-009  0.1201605E+03  0.7561462E-02  0.1242833E+00
          2   -1    0    0  501    0  0.00000000000E+00  0.00000000000E+00  0.10698016522E+03  0.10698016522E+03  0.00000000000E+00 0. -1.
         -2   -1    0    0    0  501 -0.00000000000E+00 -0.00000000000E+00 -0.21097226957E+03  0.21097226957E+03  0.00000000000E+00 0.  1.
         25    2    1    2    0    0  0.86886431011E+02  0.36263109526E+01  0.17723286527E+01  0.15236303046E+03  0.12509576282E+03 0.  0.
          5    1    3    3  502    0 -0.17776785917E+02 -0.32527472459E+02  0.16101759810E+02  0.40629910794E+02  0.41800000000E+01 0. -1.
         -5    1    3    3    0  502  0.10466321693E+03  0.36153783412E+02 -0.14329431157E+02  0.11173311966E+03  0.41800000000E+01 0. -1.
        -11    1    1    2    0    0 -0.58160567409E+02  0.12176656663E+02 -0.11675845595E+03  0.13100938747E+03  0.00000000000E+00 0.  1.
         11    1    1    2    0    0 -0.28725863602E+02 -0.15802967615E+02  0.10994022950E+02  0.34580016856E+02  0.00000000000E+00 0. -1.
</event>
<event>
 7    1  0.2788485E-009  0.1189416E+03  0.7561462E-02  0.1244853E+00
         -2   -1    0    0    0  501 -0.00000000000E+00  0.00000000000E+00  0.16079743374E+03  0.16079743374E+03  0.00000000000E+00 0.  1.
          2   -1    0    0  501    0  0.00000000000E+00 -0.00000000000E+00 -0.11998762785E+03  0.11998762785E+03  0.00000000000E+00 0. -1.
         25    2    1    2    0    0 -0.84040548740E+02  0.19483152812E+02  0.35720733004E+02  0.15609798143E+03  0.12509277343E+03 0.  0.
          5    1    3    3  502    0 -0.44869936551E+02 -0.51084160283E+02  0.31820475130E+02  0.75185887475E+02  0.41800000000E+01 0. -1.
         -5    1    3    3    0  502 -0.39170612189E+02  0.70567313095E+02  0.39002578738E+01  0.80912093955E+02  0.41800000000E+01 0. -1.
        -11    1    1    2    0    0  0.37136723177E+02  0.23446790364E+01 -0.41023022500E+02  0.55385215564E+02  0.00000000000E+00 0. -1.
         11    1    1    2    0    0  0.46903825563E+02 -0.21827831848E+02  0.46112095391E+02  0.69301864600E+02  0.00000000000E+00 0.  1.
</event>
<event>
 7    1  0.2788485E-009  0.7567703E+02  0.7561462E-02  0.1341787E+00
         -2   -1    0    0    0  501 -0.00000000000E+00  0.00000000000E+00  0.10869705852E+03  0.10869705852E+03  0.00000000000E+00 0.  1.
          2   -1    0    0  501    0  0.00000000000E+00 -0.00000000000E+00 -0.13375831377E+03  0.13375831377E+03  0.00000000000E+00 0. -1.
         25    2    1    2    0    0 -0.46368685106E+02 -0.22677212088E+02 -0.15787681232E+02  0.13623898189E+03  0.12508996124E+03 0.  0.
          5    1    3    3  502    0 -0.94249281391E+00  0.15757345473E+02 -0.59876436264E+02  0.62063211718E+02  0.41800000000E+01 0.  1.
         -5    1    3    3    0  502 -0.45426192292E+02 -0.38434557561E+02  0.44088755032E+02  0.74175770177E+02  0.41800000000E+01 0.  1.
        -11    1    1    2    0    0  0.58552557722E+02  0.13417079998E+02  0.27738508624E+02  0.66165284796E+02  0.00000000000E+00 0.  1.
         11    1    1    2    0    0 -0.12183872616E+02  0.92601320900E+01 -0.37012082646E+02  0.40051105603E+02  0.00000000000E+00 0. -1.
</event>
<event>
 7    1  0.2788485E-009  0.1919721E+03  0.7561462E-02  0.1156695E+00
          2   -1    0    0  501    0  0.00000000000E+00  0.00000000000E+00  0.13320186144E+04  0.13320186144E+04  0.00000000000E+00 0. -1.
         -2   -1    0    0    0  501 -0.00000000000E+00 -0.00000000000E+00 -0.28953815581E+02  0.28953815581E+02  0.00000000000E+00 0.  1.
         25    2    1    2    0    0  0.12136599576E+03  0.10687951035E+03  0.74119595409E+03  0.76887703795E+03  0.12509005743E+03 0.  0.
          5    1    3    3  502    0  0.74386429232E+02  0.12610674721E+03  0.62627059035E+03  0.64317072173E+03  0.41800000000E+01 0.  1.
         -5    1    3    3    0  502  0.46979566527E+02 -0.19227236857E+02  0.11492536373E+03  0.12570631622E+03  0.41800000000E+01 0.  1.
        -11    1    1    2    0    0 -0.41781239410E+01 -0.60283134543E+02  0.16870496957E+03  0.17920066905E+03  0.00000000000E+00 0. -1.
         11    1    1    2    0    0 -0.11718787182E+03 -0.46596375807E+02  0.39316387520E+03  0.41289472303E+03  0.00000000000E+00 0.  1.
</event>
<event>
 7    1  0.2788485E-009  0.8692746E+02  0.7561462E-02  0.1310468E+00
         -1   -1    0    0    0  501 -0.00000000000E+00  0.00000000000E+00  0.18545795972E+03  0.18545795972E+03  0.00000000000E+00 0.  1.
          1   -1    0    0  501    0  0.00000000000E+00 -0.00000000000E+00 -0.68206951710E+02  0.68206951710E+02  0.00000000000E+00 0. -1.
         25    2    1    2    0    0 -0.29704661740E+02 -0.14682171556E+02  0.76127733904E+02  0.15013205489E+03  0.12508504685E+03 0.  0.
          5    1    3    3  502    0  0.17795491742E+02 -0.27208593556E+02 -0.22575451077E+02  0.39800885430E+02  0.41800000000E+01 0.  1.
         -5    1    3    3    0  502 -0.47500153482E+02  0.12526422000E+02  0.98703184982E+02  0.11033116946E+03  0.41800000000E+01 0.  1.
        -11    1    1    2    0    0 -0.30046227292E+02  0.10686301314E+02  0.27520387760E+02  0.42122969420E+02  0.00000000000E+00 0.  1.
         11    1    1    2    0    0  0.59750889033E+02  0.39958702422E+01  0.13602886347E+02  0.61409887120E+02  0.00000000000E+00 0. -1.
</event>
<event>
 7    1  0.2788485E-009  0.1295584E+03  0.7561462E-02  0.1228112E+00
          1   -1    0    0  501    0  0.00000000000E+00  0.00000000000E+00  0.29933313395E+03  0.29933313395E+03  0.00000000000E+00 0. -1.
         -1   -1    0    0    0  501 -0.00000000000E+00 -0.00000000000E+00 -0.76485806229E+02  0.76485806229E+02  0.00000000000E+00 0.  1.
         25    2    1    2    0    0 -0.84015162507E+02 -0.62499210759E+02  0.11977331777E+03  0.20238515400E+03  0.12509757806E+03 0.  0.
          5    1    3    3  502    0  0.12784453512E+02  0.44000232189E+01  0.75150096475E+02  0.76470987022E+02  0.41800000000E+01 0.  1.
         -5    1    3    3    0  502 -0.96799616019E+02 -0.66899233978E+02  0.44623221295E+02  0.12591416698E+03  0.41800000000E+01 0.  1.
        -11    1    1    2    0    0  0.39616673583E+02 -0.11212593054E+02  0.27547197585E+01  0.41264894883E+02  0.00000000000E+00 0. -1.
         11    1    1    2    0    0  0.44398488924E+02  0.73711803813E+02  0.10031929019E+03  0.13216889129E+03  0.00000000000E+00 0.  1.
</event>
<event>
 7    1  0.2788485E-009  0.1305003E+03  0.7561462E-02  0.1226715E+00
         -2   -1    0    0    0  501 -0.00000000000E+00  0.00000000000E+00  0.15489959328E+03  0.15489959328E+03  0.00000000000E+00 0.  1.
          2   -1    0    0  501    0  0.00000000000E+00 -0.00000000000E+00 -0.16274262693E+03  0.16274262693E+03  0.00000000000E+00 0. -1.
         25    2    1    2    0    0 -0.71313611449E+02  0.62739371533E+02 -0.69656661838E+02  0.17181913593E+03  0.12509158651E+03 0.  0.
          5    1    3    3  502    0  0.10658366384E+02 -0.13859485043E+02  0.20909392038E+02  0.27574647324E+02  0.41800000000E+01 0.  1.
         -5    1    3    3    0  502 -0.81971977833E+02  0.76598856576E+02 -0.90566053875E+02  0.14424448861E+03  0.41800000000E+01 0.  1.
        -11    1    1    2    0    0  0.88934995634E+02 -0.30509502205E+02  0.53438996303E+02  0.10814799813E+03  0.00000000000E+00 0. -1.
         11    1    1    2    0    0 -0.17621384185E+02 -0.32229869329E+02  0.83746318836E+01  0.37675086155E+02  0.00000000000E+00 0.  1.
</event>
<event>
 7    1  0.2788485E-009  0.4216324E+03  0.7561462E-02  0.1036536E+00
         -2   -1    0    0    0  501 -0.00000000000E+00  0.00000000000E+00  0.54754322556E+03  0.54754322556E+03  0.00000000000E+00 0.  1.
          2   -1    0    0  501    0  0.00000000000E+00 -0.00000000000E+00 -0.41291611834E+03  0.41291611834E+03  0.00000000000E+00 0. -1.
         25    2    1    2    0    0 -0.24175658953E+03 -0.33526281815E+03  0.27804749697E+03  0.51361589885E+03  0.12507387883E+03 0.  0.
          5    1    3    3  502    0 -0.24783480440E+03 -0.28377603796E+03  0.26290981402E+03  0.45944528804E+03  0.41800000000E+01 0. -1.
         -5    1    3    3    0  502  0.60782148765E+01 -0.51486780189E+02  0.15137682953E+02  0.54170610809E+02  0.41800000000E+01 0. -1.
        -11    1    1    2    0    0  0.12373306455E+03  0.19751222084E+03 -0.35460323598E+02  0.23575068016E+03  0.00000000000E+00 0.  1.
         11    1    1    2    0    0  0.11802352498E+03  0.13775059730E+03 -0.10796006615E+03  0.21109276489E+03  0.00000000000E+00 0. -1.
</event>
<event>
 7    1  0.2788485E-009  0.1098992E+03  0.7561462E-02  0.1260757E+00
         -1   -1    0    0    0  501 -0.00000000000E+00  0.00000000000E+00  0.76466270352E+02  0.76466270352E+02  0.00000000000E+00 0.  1.
          1   -1    0    0  501    0  0.00000000000E+00 -0.00000000000E+00 -0.19452823589E+03  0.19452823589E+03  0.00000000000E+00 0. -1.
         25    2    1    2    0    0 -0.54690338806E+02 -0.10308074151E+02 -0.63823445439E+02  0.15105595538E+03  0.12508868820E+03 0.  0.
          5    1    3    3  502    0  0.74285432723E+01  0.38105142083E+02  0.12804503495E+02  0.41092734371E+02  0.41800000000E+01 0.  1.
         -5    1    3    3    0  502 -0.62118882078E+02 -0.48413216234E+02 -0.76627948935E+02  0.10996322101E+03  0.41800000000E+01 0.  1.
        -11    1    1    2    0    0  0.34444277311E+02  0.48011250129E+02 -0.12988427797E+02  0.60499484585E+02  0.00000000000E+00 0.  1.
         11    1    1    2    0    0  0.20246061495E+02 -0.37703175978E+02 -0.41250092303E+02  0.59439066277E+02  0.00000000000E+00 0. -1.
</event>
<event>
 7    1  0.2788485E-009  0.1017404E+03  0.7561462E-02  0.1276678E+00
          4   -1    0    0  501    0  0.00000000000E+00  0.00000000000E+00  0.72222759396E+03  0.72222759396E+03  0.00000000000E+00 0. -1.
         -4   -1    0    0    0  501 -0.00000000000E+00 -0.00000000000E+00 -0.19543050346E+02  0.19543050346E+02  0.00000000000E+00 0.  1.
         25    2    1    2    0    0 -0.13374384546E+02  0.37772929543E+02  0.45486290203E+03  0.47344792474E+03  0.12508800673E+03 0.  0.
          5    1    3    3  502    0 -0.46659222983E+02  0.52695201538E+02  0.40732457015E+03  0.41338196042E+03  0.41800000000E+01 0.  1.
         -5    1    3    3    0  502  0.33284838437E+02 -0.14922271995E+02  0.47538331879E+02  0.60065964315E+02  0.41800000000E+01 0.  1.
        -11    1    1    2    0    0 -0.26388422605E+02  0.14866519254E+02  0.12806618552E+03  0.13159905058E+03  0.00000000000E+00 0. -1.
         11    1    1    2    0    0  0.39762807151E+02 -0.52639448798E+02  0.11975545607E+03  0.13672366898E+03  0.00000000000E+00 0.  1.
</event>
<event>
 7    1  0.2788485E-009  0.1251790E+03  0.7561462E-02  0.1234790E+00
          2   -1    0    0  501    0  0.00000000000E+00  0.00000000000E+00  0.67404530112E+02  0.67404530112E+02  0.00000000000E+00 0. -1.
         -2   -1    0    0    0  501 -0.00000000000E+00 -0.00000000000E+00 -0.47114829775E+03  0.47114829775E+03  0.00000000000E+00 0.  1.
         25    2    1    2    0    0  0.83367736480E+02  0.88294970200E+02 -0.10760415618E+03  0.20486919498E+03  0.12508617581E+03 0.  0.
          5    1    3    3  502    0  0.69314060956E+02  0.78356553218E+02 -0.13585936421E+03  0.17152092503E+03  0.41800000000E+01 0.  1.
         -5    1    3    3    0  502  0.14053675524E+02  0.99384169819E+01  0.28255208035E+02  0.33348269954E+02  0.41800000000E+01 0.  1.
        -11    1    1    2    0    0  0.13922843374E+01 -0.17374648891E+02  0.17380665637E+00  0.17431210185E+02  0.00000000000E+00 0. -1.
         11    1    1    2    0    0 -0.84760020817E+02 -0.70920321309E+02 -0.29631341812E+03  0.31625242270E+03  0.00000000000E+00 0.  1.
</event>
<event>
 7    1  0.2788485E-009  0.3464124E+03  0.7561462E-02  0.1064097E+00
         -2   -1    0    0    0  501 -0.00000000000E+00  0.00000000000E+00  0.15800341016E+03  0.15800341016E+03  0.00000000000E+00 0.  1.
          2   -1    0    0  501    0  0.00000000000E+00 -0.00000000000E+00 -0.12980797079E+04  0.12980797079E+04  0.00000000000E+00 0. -1.
         25    2    1    2    0    0 -0.20202942174E+03 -0.27410072337E+03 -0.10217684469E+04  0.10842535549E+04  0.12509164039E+03 0.  0.
          5    1    3    3  502    0 -0.17110826585E+03 -0.23786119439E+03 -0.69868984554E+03  0.75765490766E+03  0.41800000000E+01 0.  1.
         -5    1    3    3    0  502 -0.30921155887E+02 -0.36239528976E+02 -0.32307860132E+03  0.32659864723E+03  0.41800000000E+01 0.  1.
        -11    1    1    2    0    0  0.88662776406E+01  0.71451764586E+02 -0.32649775199E+02  0.79056773032E+02  0.00000000000E+00 0.  1.
         11    1    1    2    0    0  0.19316314410E+03  0.20264895878E+03 -0.85658075729E+02  0.29277279018E+03  0.00000000000E+00 0. -1.
</event>
<event>
 7    1  0.2788485E-009  0.1149339E+03  0.7561462E-02  0.1251696E+00
          1   -1    0    0  501    0  0.00000000000E+00  0.00000000000E+00  0.17526535643E+02  0.17526535643E+02  0.00000000000E+00 0. -1.
         -1   -1    0    0    0  501 -0.00000000000E+00 -0.00000000000E+00 -0.11641441331E+04  0.11641441331E+04  0.00000000000E+00 0.  1.
         25    2    1    2    0    0  0.12433680488E+01 -0.91684987701E+02 -0.56191235646E+03  0.58292392314E+03  0.12508845227E+03 0.  0.
          5    1    3    3  502    0 -0.22768155812E+02 -0.28542130804E+02 -0.32066875916E+02  0.48772933897E+02  0.41800000000E+01 0. -1.
         -5    1    3    3    0  502  0.24011523861E+02 -0.63142856898E+02 -0.52984548054E+03  0.53415098924E+03  0.41800000000E+01 0. -1.
        -11    1    1    2    0    0 -0.32608237034E+02  0.88008837099E+02 -0.49022219712E+03  0.49912589101E+03  0.00000000000E+00 0.  1.
         11    1    1    2    0    0  0.31364868985E+02  0.36761506026E+01 -0.94483043920E+02  0.99620854635E+02  0.00000000000E+00 0. -1.
</event>
<event>
 7    1  0.2788485E-009  0.8160496E+02  0.7561462E-02  0.1324558E+00
         -2   -1    0    0    0  501 -0.00000000000E+00  0.00000000000E+00  0.29890691558E+02  0.29890691558E+02  0.00000000000E+00 0.  1.
          2   -1    0    0  501    0  0.00000000000E+00 -0.00000000000E+00 -0.53805252143E+03  0.53805252143E+03  0.00000000000E+00 0. -1.
         25    2    1    2    0    0  0.78251868416E+02 -0.33745586693E+01 -0.33830322165E+03  0.36909574425E+03  0.12509139096E+03 0.  0.
          5    1    3    3  502    0  0.37783297465E+02 -0.16960119961E+02 -0.31960630181E+03  0.32230557518E+03  0.41800000000E+01 0.  1.
         -5    1    3    3    0  502  0.40468570952E+02  0.13585561292E+02 -0.18696919836E+02  0.46790169072E+02  0.41800000000E+01 0.  1.
        -11    1    1    2    0    0 -0.35590002905E+02 -0.22495285496E+01 -0.14463983212E+03  0.14897110365E+03  0.00000000000E+00 0. -1.
         11    1    1    2    0    0 -0.42661865512E+02  0.56240872189E+01 -0.25218776100E+02  0.49876365083E+02  0.00000000000E+00 0.  1.
</event>
<event>
 7    1  0.2788485E-009  0.1058241E+03  0.7561462E-02  0.1268504E+00
         -2   -1    0    0    0  501 -0.00000000000E+00  0.00000000000E+00  0.11646565589E+02  0.11646565589E+02  0.00000000000E+00 0.  1.
          2   -1    0    0  501    0  0.00000000000E+00 -0.00000000000E+00 -0.15717289742E+04  0.15717289742E+04  0.00000000000E+00 0. -1.
         25    2    1    2    0    0  0.74684487851E+02  0.28127104340E+02 -0.94647767728E+03  0.95803817452E+03  0.12509293952E+03 0.  0.
          5    1    3    3  502    0  0.16017819521E+02 -0.11758563541E+02 -0.72821323901E+03  0.72849627880E+03  0.41800000000E+01 0.  1.
         -5    1    3    3    0  502  0.58666668330E+02  0.39885667882E+02 -0.21826443827E+03  0.22954189572E+03  0.41800000000E+01 0.  1.
        -11    1    1    2    0    0  0.45962726256E+01 -0.39869003695E+02 -0.22556168939E+03  0.22910420969E+03  0.00000000000E+00 0.  1.
         11    1    1    2    0    0 -0.79280760476E+02  0.11741899354E+02 -0.38804304191E+03  0.39623315555E+03  0.00000000000E+00 0. -1.
</event>
<event>
 7    1  0.2788485E-009  0.9788515E+02  0.7561462E-02  0.1284807E+00
          2   -1    0    0  501    0  0.00000000000E+00  0.00000000000E+00  0.51486371747E+02  0.51486371747E+02  0.00000000000E+00 0. -1.
         -2   -1    0    0    0  501 -0.00000000000E+00 -0.00000000000E+00 -0.30794532264E+03  0.30794532264E+03  0.00000000000E+00 0.  1.
         25    2    1    2    0    0  0.58868212126E+01 -0.31848370930E+02 -0.21185699833E+03  0.24815861888E+03  0.12510131490E+03 0.  0.
          5    1    3    3  502    0  0.60970135914E+02  0.70067292749E+01 -0.10743318538E+03  0.12379746948E+03  0.41800000000E+01 0.  1.
         -5    1    3    3    0  502 -0.55083314701E+02 -0.38855100205E+02 -0.10442381295E+03  0.12436114940E+03  0.41800000000E+01 0.  1.
        -11    1    1    2    0    0 -0.31279758071E+02  0.89723270046E+01 -0.64127251984E+02  0.71911267294E+02  0.00000000000E+00 0.  1.
         11    1    1    2    0    0  0.25392936858E+02  0.22876043926E+02  0.19525299421E+02  0.39361808209E+02  0.00000000000E+00 0. -1.
</event>
<event>
 7    1  0.2788485E-009  0.1038723E+03  0.7561462E-02  0.1272357E+00
          1   -1    0    0  501    0  0.00000000000E+00  0.00000000000E+00  0.19637673736E+03  0.19637673736E+03  0.00000000000E+00 0. -1.
         -1   -1    0    0    0  501 -0.00000000000E+00 -0.00000000000E+00 -0.72117046518E+02  0.72117046518E+02  0.00000000000E+00 0.  1.
         25    2    1    2    0    0  0.71855372615E+00  0.23769901235E+02  0.22550963012E+02  0.12931237901E+03  0.12509045091E+03 0.  0.
          5    1    3    3  502    0  0.25924799090E+02 -0.40633053617E+02  0.33938312136E+02  0.59096714669E+02  0.41800000000E+01 0.  1.
         -5    1    3    3    0  502 -0.25206245364E+02  0.64402954852E+02 -0.11387349124E+02  0.70215664342E+02  0.41800000000E+01 0.  1.
        -11    1    1    2    0    0 -0.35301174985E+02 -0.38725459732E+02  0.36465568076E+02  0.63840205528E+02  0.00000000000E+00 0.  1.
         11    1    1    2    0    0  0.34582621259E+02  0.14955558497E+02  0.65243159755E+02  0.75341199339E+02  0.00000000000E+00 0. -1.
</event>
<event>
 7    1  0.2788485E-009  0.8305648E+02  0.7561462E-02  0.1320595E+00
          1   -1    0    0  501    0  0.00000000000E+00  0.00000000000E+00  0.52300630949E+03  0.52300630949E+03  0.00000000000E+00 0. -1.
         -1   -1    0    0    0  501 -0.00000000000E+00 -0.00000000000E+00 -0.39062543615E+02  0.39062543615E+02  0.00000000000E+00 0.  1.
         25    2    1    2    0    0  0.53563427419E+02 -0.28617729795E+02  0.40268727748E+03  0.42601991230E+03  0.12509159453E+03 0.  0.
          5    1    3    3  502    0  0.19641051887E+02 -0.45833214528E+02  0.48216506746E+02  0.69489268208E+02  0.41800000000E+01 0.  1.
         -5    1    3    3    0  502  0.33922375531E+02  0.17215484733E+02  0.35447077073E+03  0.35653064409E+03  0.41800000000E+01 0.  1.
        -11    1    1    2    0    0 -0.25246920547E+02  0.39987040786E+02 -0.20451882821E+01  0.47334482389E+02  0.00000000000E+00 0.  1.
         11    1    1    2    0    0 -0.28316506872E+02 -0.11369310991E+02  0.83301676687E+02  0.88714458420E+02  0.00000000000E+00 0. -1.
</event>
<event>
 7    1  0.2788485E-009  0.1166612E+03  0.7561462E-02  0.1248709E+00
         -2   -1    0    0    0  501 -0.00000000000E+00  0.00000000000E+00  0.18369670225E+02  0.18369670225E+02  0.00000000000E+00 0.  1.
          2   -1    0    0  501    0  0.00000000000E+00 -0.00000000000E+00 -0.89834094377E+03  0.89834094377E+03  0.00000000000E+00 0. -1.
         25    2    1    2    0    0  0.61097754940E+02 -0.27212544109E+02 -0.55406551488E+03  0.57193390002E+03  0.12508530288E+03 0.  0.
          5    1    3    3  502    0  0.23005678464E+01  0.35167606281E+02 -0.54412037353E+02  0.64963030662E+02  0.41800000000E+01 0.  1.
         -5    1    3    3    0  502  0.58797187094E+02 -0.62380150390E+02 -0.49965347753E+03  0.50697086936E+03  0.41800000000E+01 0.  1.
        -11    1    1    2    0    0  0.57546567409E+01  0.42945463072E+02 -0.14209771464E+03  0.14855702400E+03  0.00000000000E+00 0.  1.
         11    1    1    2    0    0 -0.66852411681E+02 -0.15732918963E+02 -0.18380804402E+03  0.19621968997E+03  0.00000000000E+00 0. -1.
</event>
<event>
 7    1  0.2788485E-009  0.1463463E+03  0.7561462E-02  0.1205036E+00
         -1   -1    0    0    0  501 -0.00000000000E+00  0.00000000000E+00  0.50155183983E+02  0.50155183983E+02  0.00000000000E+00 0.  1.
          1   -1    0    0  501    0  0.00000000000E+00 -0.00000000000E+00 -0.55735580196E+03  0.55735580196E+03  0.00000000000E+00 0. -1.
         25    2    1    2    0    0  0.37262086430E+02 -0.11097902183E+03 -0.18215067411E+03  0.25006182017E+03  0.12508892619E+03 0.  0.
          5    1    3    3  502    0 -0.25950262602E+02  0.96151964734E+01 -0.82876452576E+01  0.29189477492E+02  0.41800000000E+01 0. -1.
         -5    1    3    3    0  502  0.63212349031E+02 -0.12059421830E+03 -0.17386302885E+03  0.22087234268E+03  0.41800000000E+01 0. -1.
        -11    1    1    2    0    0 -0.45723251956E+02  0.53465043859E+02 -0.26373576737E+03  0.27295728910E+03  0.00000000000E+00 0. -1.
         11    1    1    2    0    0  0.84611655260E+01  0.57513977970E+02 -0.61314176501E+02  0.84491876675E+02  0.00000000000E+00 0.  1.
</event>
<event>
 7    1  0.2788485E-009  0.7132871E+02  0.7561462E-02  0.1355632E+00
          4   -1    0    0  501    0  0.00000000000E+00  0.00000000000E+00  0.42623421300E+03  0.42623421300E+03  0.00000000000E+00 0. -1.
         -4   -1    0    0    0  501 -0.00000000000E+00 -0.00000000000E+00 -0.38236183289E+02  0.38236183289E+02  0.00000000000E+00 0.  1.
         25    2    1    2    0    0 -0.37897440774E+02 -0.41793187571E+02  0.14993163092E+03  0.20324745082E+03  0.12508855171E+03 0.  0.
          5    1    3    3  502    0 -0.79172829204E+01  0.91853112250E+00 -0.21868622641E+02  0.23648173808E+02  0.41800000000E+01 0. -1.
         -5    1    3    3    0  502 -0.29980157854E+02 -0.42711718693E+02  0.17180025356E+03  0.17959927701E+03  0.41800000000E+01 0. -1.
        -11    1    1    2    0    0  0.37189211085E+02 -0.22508197668E+01  0.28047893712E+02  0.46634621821E+02  0.00000000000E+00 0.  1.
         11    1    1    2    0    0  0.70822968931E+00  0.44044007337E+02  0.21001850507E+03  0.21458832365E+03  0.00000000000E+00 0. -1.
</event>
<event>
 7    1  0.2788485E-009  0.9323334E+02  0.7561462E-02  0.1295205E+00
         -3   -1    0    0    0  501 -0.00000000000E+00  0.00000000000E+00  0.16580672667E+03  0.16580672667E+03  0.00000000000E+00 0.  1.
          3   -1    0    0  501    0  0.00000000000E+00 -0.00000000000E+00 -0.87899715797E+02  0.87899715797E+02  0.00000000000E+00 0. -1.
         25    2    1    2    0    0  0.48399902983E+02  0.14934197387E+02  0.48779896206E+02  0.14350096039E+03  0.12508983372E+03 0.  0.
          5    1    3    3  502    0  0.22154376207E+02 -0.37257550381E+02  0.68954984958E+02  0.81554912765E+02  0.41800000000E+01 0.  1.
         -5    1    3    3    0  502  0.26245526776E+02  0.52191747768E+02 -0.20175088752E+02  0.61946047630E+02  0.41800000000E+01 0.  1.
        -11    1    1    2    0    0 -0.14967631861E+02 -0.39906420671E+02 -0.18864211982E+02  0.46609129020E+02  0.00000000000E+00 0. -1.
         11    1    1    2    0    0 -0.33432271122E+02  0.24972223284E+02  0.47991326645E+02  0.63596353050E+02  0.00000000000E+00 0.  1.
</event>
<event>
 7    1  0.2788485E-009  0.1159152E+03  0.7561462E-02  0.1249992E+00
         -1   -1    0    0    0  501 -0.00000000000E+00  0.00000000000E+00  0.28471708570E+02  0.28471708570E+02  0.00000000000E+00 0.  1.
          1   -1    0    0  501    0  0.00000000000E+00 -0.00000000000E+00 -0.48246641514E+03  0.48246641514E+03  0.00000000000E+00 0. -1.
         25    2    1    2    0    0 -0.14890422737E+02  0.36153444134E+02 -0.22715963899E+03  0.26225575267E+03  0.12509109485E+03 0.  0.
          5    1    3    3  502    0  0.16507429929E+01 -0.46223474613E+02 -0.91926517236E+02  0.10299170612E+03  0.41800000000E+01 0. -1.
         -5    1    3    3    0  502 -0.16541165730E+02  0.82376918746E+02 -0.13523312176E+03  0.15926404656E+03  0.41800000000E+01 0. -1.
        -11    1    1    2    0    0  0.43666573821E+02 -0.52406964450E+02 -0.13902031121E+03  0.15485446884E+03  0.00000000000E+00 0. -1.
         11    1    1    2    0    0 -0.28776151084E+02  0.16253520316E+02 -0.87814756369E+02  0.93827902194E+02  0.00000000000E+00 0.  1.
</event>
<event>
 7    1  0.2788485E-009  0.8859532E+02  0.7561462E-02  0.1306289E+00
         -2   -1    0    0    0  501 -0.00000000000E+00  0.00000000000E+00  0.32826057261E+02  0.32826057261E+02  0.00000000000E+00 0.  1.
          2   -1    0    0  501    0  0.00000000000E+00 -0.00000000000E+00 -0.36636447039E+03  0.36636447039E+03  0.00000000000E+00 0. -1.
         25    2    1    2    0    0  0.17011388118E+01  0.16720057350E+02 -0.20275497506E+03  0.23882925397E+03  0.12508948177E+03 0.  0.
          5    1    3    3  502    0  0.66167477549E+01 -0.33187204016E+02 -0.18069449173E+03  0.18388350552E+03  0.41800000000E+01 0. -1.
         -5    1    3    3    0  502 -0.49156089431E+01  0.49907261366E+02 -0.22060483337E+02  0.54945748456E+02  0.41800000000E+01 0. -1.
        -11    1    1    2    0    0  0.99880547554E+01 -0.53372549819E+02 -0.78461219177E+02  0.95417782550E+02  0.00000000000E+00 0. -1.
         11    1    1    2    0    0 -0.11689193567E+02  0.36652492470E+02 -0.52322218890E+02  0.64943491129E+02  0.00000000000E+00 0.  1.
</event>
<event>
 7    1  0.2788485E-009  0.6357358E+02  0.7561462E-02  0.1383419E+00
         -3   -1    0    0    0  501 -0.00000000000E+00  0.00000000000E+00  0.42640546808E+03  0.42640546808E+03  0.00000000000E+00 0.  1.
          3   -1    0    0  501    0  0.00000000000E+00 -0.00000000000E+00 -0.32641041397E+02  0.32641041397E+02  0.00000000000E+00 0. -1.
         25    2    1    2    0    0 -0.36816279932E+02  0.44579767320E+02  0.32835695779E+03  0.35610191061E+03  0.12508990721E+03 0.  0.
          5    1    3    3  502    0 -0.43747325458E+02  0.32035930193E+02  0.33526881722E+03  0.33965097013E+03  0.41800000000E+01 0. -1.
         -5    1    3    3    0  502  0.69310455263E+01  0.12543837127E+02 -0.69118594269E+01  0.16450940480E+02  0.41800000000E+01 0. -1.
        -11    1    1    2    0    0  0.16716722078E+02 -0.19119255965E+02  0.65771458040E+02  0.70504463961E+02  0.00000000000E+00 0.  1.
         11    1    1    2    0    0  0.20099557854E+02 -0.25460511355E+02 -0.36398915768E+00  0.32440134902E+02  0.00000000000E+00 0. -1.
</event>
<event>
 7    1  0.2788485E-009  0.1566083E+03  0.7561462E-02  0.1192580E+00
          1   -1    0    0  501    0  0.00000000000E+00  0.00000000000E+00  0.92899506411E+03  0.92899506411E+03  0.00000000000E+00 0. -1.
         -1   -1    0    0    0  501 -0.00000000000E+00 -0.00000000000E+00 -0.46661128583E+02  0.46661128583E+02  0.00000000000E+00 0.  1.
         25    2    1    2    0    0 -0.13760683589E+03 -0.54829653821E+01  0.72017129328E+03  0.74381328803E+03  0.12508321868E+03 0.  0.
          5    1    3    3  502    0  0.77209814025E+01  0.20699806115E+01 -0.54639361510E-01  0.90207404912E+01  0.41800000000E+01 0.  1.
         -5    1    3    3    0  502 -0.14532781729E+03 -0.75529459936E+01  0.72022593264E+03  0.73479254754E+03  0.41800000000E+01 0.  1.
        -11    1    1    2    0    0  0.49308150080E+02 -0.36002801587E+02  0.96684766257E+02  0.11434788766E+03  0.00000000000E+00 0. -1.
         11    1    1    2    0    0  0.88298685808E+02  0.41485766969E+02  0.65477875997E+02  0.11749501701E+03  0.00000000000E+00 0.  1.
</event>
<event>
 7    1  0.2788485E-009  0.1002233E+03  0.7561462E-02  0.1279827E+00
         -1   -1    0    0    0  501 -0.00000000000E+00  0.00000000000E+00  0.31763915949E+02  0.31763915949E+02  0.00000000000E+00 0.  1.
          1   -1    0    0  501    0  0.00000000000E+00 -0.00000000000E+00 -0.59081946648E+03  0.59081946648E+03  0.00000000000E+00 0. -1.
         25    2    1    2    0    0 -0.10273752024E+02 -0.37116982389E+02 -0.48041096170E+03  0.49792094134E+03  0.12508937340E+03 0.  0.
          5    1    3    3  502    0  0.33986934058E+02  0.18062596553E+02 -0.32279951401E+03  0.32511285383E+03  0.41800000000E+01 0. -1.
         -5    1    3    3    0  502 -0.44260686082E+02 -0.55179578942E+02 -0.15761144770E+03  0.17280808751E+03  0.41800000000E+01 0. -1.
        -11    1    1    2    0    0  0.38249244845E+02  0.47539810581E+02 -0.71441505397E+02  0.93951727045E+02  0.00000000000E+00 0.  1.
         11    1    1    2    0    0 -0.27975492821E+02 -0.10422828193E+02 -0.72030834283E+01  0.30710714042E+02  0.00000000000E+00 0. -1.
</event>
<event>
 7    1  0.2788485E-009  0.1395482E+03  0.7561462E-02  0.1213938E+00
         -3   -1    0    0    0  501 -0.00000000000E+00  0.00000000000E+00  0.73703162596E+02  0.73703162596E+02  0.00000000000E+00 0.  1.
          3   -1    0    0  501    0  0.00000000000E+00 -0.00000000000E+00 -0.32086566493E+03  0.32086566493E+03  0.00000000000E+00 0. -1.
         25    2    1    2    0    0  0.95000366139E+02 -0.38446967952E+02 -0.86521789697E+02  0.18340191746E+03  0.12508798633E+03 0.  0.
          5    1    3    3  502    0  0.11827338261E+03 -0.23424691365E+01 -0.59512482425E+02  0.13248882278E+03  0.41800000000E+01 0.  1.
         -5    1    3    3    0  502 -0.23273016474E+02 -0.36104498816E+02 -0.27009307273E+02  0.50913094680E+02  0.41800000000E+01 0.  1.
        -11    1    1    2    0    0 -0.15651965844E+02 -0.15174360764E+02 -0.88831502288E+02  0.91467377015E+02  0.00000000000E+00 0. -1.
         11    1    1    2    0    0 -0.79348400295E+02  0.53621328717E+02 -0.71809210353E+02  0.11969953306E+03  0.00000000000E+00 0.  1.
</event>
<event>
 7    1  0.2788485E-009  0.1671633E+03  0.7561462E-02  0.1180839E+00
          2   -1    0    0  501    0  0.00000000000E+00  0.00000000000E+00  0.16818109235E+04  0.16818109235E+04  0.00000000000E+00 0. -1.
         -2   -1    0    0    0  501 -0.00000000000E+00 -0.00000000000E+00 -0.33785256091E+02  0.33785256091E+02  0.00000000000E+00 0.  1.
         25    2    1    2    0    0  0.77353663497E+02  0.12259022124E+03  0.14059249805E+04  0.14189025257E+04  0.12508946811E+03 0.  0.
          5    1    3    3  502    0  0.53751742265E+02  0.27214740063E+01  0.21313828035E+03  0.21986826776E+03  0.41800000000E+01 0. -1.
         -5    1    3    3    0  502  0.23601921232E+02  0.11986874723E+03  0.11927867001E+04  0.11990342579E+04  0.41800000000E+01 0. -1.
        -11    1    1    2    0    0  0.22128661652E+01 -0.51065318367E+02  0.13905120567E+03  0.14814790351E+03  0.00000000000E+00 0. -1.
         11    1    1    2    0    0 -0.79566529662E+02 -0.71524902869E+02  0.10304948123E+03  0.14854575038E+03  0.00000000000E+00 0.  1.
</event>
<event>
 7    1  0.2788485E-009  0.3593299E+03  0.7561462E-02  0.1058850E+00
         -1   -1    0    0    0  501 -0.00000000000E+00  0.00000000000E+00  0.41078006345E+03  0.41078006345E+03  0.00000000000E+00 0.  1.
          1   -1    0    0  501    0  0.00000000000E+00 -0.00000000000E+00 -0.34205044548E+03  0.34205044548E+03  0.00000000000E+00 0. -1.
         25    2    1    2    0    0  0.27429485281E+03 -0.21504066502E+03 -0.48631756897E+02  0.37349046302E+03  0.12509965747E+03 0.  0.
          5    1    3    3  502    0  0.28271159764E+03 -0.21954717292E+03 -0.53568124934E+02  0.36195831941E+03  0.41800000000E+01 0. -1.
         -5    1    3    3    0  502 -0.84167448250E+01  0.45065079074E+01  0.49363680366E+01  0.11532143615E+02  0.41800000000E+01 0. -1.
        -11    1    1    2    0    0 -0.70930099556E+02  0.37120800669E+02 -0.98935376874E+01  0.80665450803E+02  0.00000000000E+00 0.  1.
         11    1    1    2    0    0 -0.20336475326E+03  0.17791986435E+03  0.12725491255E+03  0.29867459511E+03  0.00000000000E+00 0. -1.
</event>
<event>
 7    1  0.2788485E-009  0.7182295E+02  0.7561462E-02  0.1354001E+00
          2   -1    0    0  501    0  0.00000000000E+00  0.00000000000E+00  0.12418729218E+03  0.12418729218E+03  0.00000000000E+00 0. -1.
         -2   -1    0    0    0  501 -0.00000000000E+00 -0.00000000000E+00 -0.13942850618E+03  0.13942850618E+03  0.00000000000E+00 0.  1.
         25    2    1    2    0    0  0.15310330390E+02 -0.58881398394E+02  0.32769365444E+02  0.14291031106E+03  0.12509236748E+03 0.  0.
          5    1    3    3  502    0  0.14946567658E+02 -0.60674834533E+02 -0.37166193045E+02  0.72826051217E+02  0.41800000000E+01 0.  1.
         -5    1    3    3    0  502  0.36376273152E+00  0.17934361387E+01  0.69935558489E+02  0.70084259843E+02  0.41800000000E+01 0.  1.
        -11    1    1    2    0    0 -0.75557243466E+00  0.61636672662E+02  0.85552779475E+01  0.62232170839E+02  0.00000000000E+00 0. -1.
         11    1    1    2    0    0 -0.14554757955E+02 -0.27552742676E+01 -0.56565857397E+02  0.58473316465E+02  0.00000000000E+00 0.  1.
</event>
<event>
 7    1  0.2788485E-009  0.1333838E+03  0.7561462E-02  0.1222519E+00
          2   -1    0    0  501    0  0.00000000000E+00  0.00000000000E+00  0.94262513380E+03  0.94262513380E+03  0.00000000000E+00 0. -1.
         -2   -1    0    0    0  501 -0.00000000000E+00 -0.00000000000E+00 -0.19252183623E+02  0.19252183623E+02  0.00000000000E+00 0.  1.
         25    2    1    2    0    0 -0.82363758957E+00  0.66903157361E+02  0.54651865889E+03  0.56462997982E+03  0.12509060219E+03 0.  0.
          5    1    3    3  502    0  0.18717090469E+02  0.10040342760E+03  0.37060205055E+03  0.38444054159E+03  0.41800000000E+01 0.  1.
         -5    1    3    3    0  502 -0.19540728059E+02 -0.33500270238E+02  0.17591660834E+03  0.18018943823E+03  0.41800000000E+01 0.  1.
        -11    1    1    2    0    0  0.36335506475E+02  0.12607767030E+02  0.10819483139E+03  0.11482746344E+03  0.00000000000E+00 0. -1.
         11    1    1    2    0    0 -0.35511868886E+02 -0.79510924391E+02  0.26865945990E+03  0.28241987417E+03  0.00000000000E+00 0.  1.
</event>
<event>
 7    1  0.2788485E-009  0.8819195E+02  0.7561462E-02  0.1307290E+00
          1   -1    0    0  501    0  0.00000000000E+00  0.00000000000E+00  0.16494093914E+03  0.16494093914E+03  0.00000000000E+00 0. -1.
         -1   -1    0    0    0  501 -0.00000000000E+00 -0.00000000000E+00 -0.86992464164E+02  0.86992464164E+02  0.00000000000E+00 0.  1.
         25    2    1    2    0    0 -0.45653349613E+02 -0.22282303818E+02  0.44714300880E+02  0.14222159214E+03  0.12508750207E+03 0.  0.
          5    1    3    3  502    0  0.11482107379E+02 -0.34718680105E+00  0.73464501081E+02  0.74474590618E+02  0.41800000000E+01 0.  1.
         -5    1    3    3    0  502 -0.57135456992E+02 -0.21935117017E+02 -0.28750200201E+02  0.67747001527E+02  0.41800000000E+01 0.  1.
        -11    1    1    2    0    0  0.31558762214E+02 -0.33061242337E+02  0.49244983503E+01  0.45970119658E+02  0.00000000000E+00 0.  1.
         11    1    1    2    0    0  0.14094587399E+02  0.55343546155E+02  0.28309675750E+02  0.63741691506E+02  0.00000000000E+00 0. -1.
</event>
<event>
 7    1  0.2788485E-009  0.1288231E+03  0.7561462E-02  0.1229212E+00
          3   -1    0    0  501    0  0.00000000000E+00  0.00000000000E+00  0.26662891437E+03  0.26662891437E+03  0.00000000000E+00 0. -1.
         -3   -1    0    0    0  501 -0.00000000000E+00 -0.00000000000E+00 -0.71667742238E+02  0.71667742238E+02  0.00000000000E+00 0.  1.
         25    2    1    2    0    0  0.83862663209E+02 -0.24137172411E+02  0.10387705032E+03  0.18453364637E+03  0.12508667270E+03 0.  0.
          5    1    3    3  502    0  0.11222957583E+03  0.39385871608E+01  0.75464401679E+02  0.13536372660E+03  0.41800000000E+01 0. -1.
         -5    1    3    3    0  502 -0.28366912619E+02 -0.28075759572E+02  0.28412648644E+02  0.49169919768E+02  0.41800000000E+01 0. -1.
        -11    1    1    2    0    0 -0.57128995490E+01  0.26346768122E+02 -0.74604899552E+01  0.27972277743E+02  0.00000000000E+00 0.  1.
         11    1    1    2    0    0 -0.78149763660E+02 -0.22095957110E+01  0.98544611767E+02  0.12579073249E+03  0.00000000000E+00 0. -1.
</event>
<event>
 7    1  0.2788485E-009  0.1569934E+03  0.7561462E-02  0.1192134E+00
         -4   -1    0    0    0  501 -0.00000000000E+00  0.00000000000E+00  0.65970040196E+03  0.65970040196E+03  0.00000000000E+00 0.  1.
          4   -1    0    0  501    0  0.00000000000E+00 -0.00000000000E+00 -0.51263516873E+02  0.51263516873E+02  0.00000000000E+00 0. -1.
         25    2    1    2    0    0 -0.11200751474E+03  0.82093147538E+02  0.22073793395E+03  0.28923680004E+03  0.12509085812E+03 0.  0.
          5    1    3    3  502    0 -0.16034070709E+02  0.68705660507E+02  0.15969089544E+03  0.17463165147E+03  0.41800000000E+01 0.  1.
         -5    1    3    3    0  502 -0.95973444031E+02  0.13387487030E+02  0.61047038504E+02  0.11460514857E+03  0.41800000000E+01 0.  1.
        -11    1    1    2    0    0  0.53252741190E+02 -0.67132020897E+02  0.12128457450E+03  0.14850087773E+03  0.00000000000E+00 0. -1.
         11    1    1    2    0    0  0.58754773550E+02 -0.14961126641E+02  0.26641437664E+03  0.27322624106E+03  0.00000000000E+00 0.  1.
</event>
<event>
 7    1  0.2788485E-009  0.1063360E+03  0.7561462E-02  0.1267510E+00
          1   -1    0    0  501    0  0.00000000000E+00  0.00000000000E+00  0.19711301460E+03  0.19711301460E+03  0.00000000000E+00 0. -1.
         -1   -1    0    0    0  501 -0.00000000000E+00 -0.00000000000E+00 -0.80274296893E+02  0.80274296893E+02  0.00000000000E+00 0.  1.
         25    2    1    2    0    0 -0.36329789718E+02 -0.53790332980E+02  0.64571319484E+02  0.15501418722E+03  0.12508672750E+03 0.  0.
          5    1    3    3  502    0 -0.74712630997E+02 -0.19902328785E+02  0.68648607125E+02  0.10348035360E+03  0.41800000000E+01 0. -1.
         -5    1    3    3    0  502  0.38382841280E+02 -0.33888004195E+02 -0.40772876410E+01  0.51533833620E+02  0.41800000000E+01 0. -1.
        -11    1    1    2    0    0 -0.55178130554E+01  0.39145695515E+02 -0.14600074660E+02  0.42142542855E+02  0.00000000000E+00 0.  1.
         11    1    1    2    0    0  0.41847602773E+02  0.14644637465E+02  0.66867472878E+02  0.80230581410E+02  0.00000000000E+00 0. -1.
</event>
<event>
 7    1  0.2788485E-009  0.1091712E+03  0.7561462E-02  0.1262112E+00
         -1   -1    0    0    0  501 -0.00000000000E+00  0.00000000000E+00  0.40534447329E+03  0.40534447329E+03  0.00000000000E+00 0.  1.
          1   -1    0    0  501    0  0.00000000000E+00 -0.00000000000E+00 -0.40811463728E+02  0.40811463728E+02  0.00000000000E+00 0. -1.
         25    2    1    2    0    0  0.11049313477E+01  0.58003303980E+02  0.15231412103E+03  0.20545132714E+03  0.12508018314E+03 0.  0.
          5    1    3    3  502    0  0.12004742832E+01 -0.32226099445E+02  0.90057276008E+02  0.95748357615E+02  0.41800000000E+01 0.  1.
         -5    1    3    3    0  502 -0.95542935583E-01  0.90229403426E+02  0.62256845025E+02  0.10970296953E+03  0.41800000000E+01 0.  1.
        -11    1    1    2    0    0 -0.16620115750E+02  0.14068485687E+02  0.12325641720E+03  0.12516507067E+03  0.00000000000E+00 0.  1.
         11    1    1    2    0    0  0.15515184403E+02 -0.72071789667E+02  0.88962471337E+02  0.11553953920E+03  0.00000000000E+00 0. -1.
</event>
<event>
 7    1  0.2788485E-009  0.1106444E+03  0.7561462E-02  0.1259381E+00
          2   -1    0    0  501    0  0.00000000000E+00  0.00000000000E+00  0.15317699586E+03  0.15317699586E+03  0.00000000000E+00 0. -1.
         -2   -1    0    0    0  501 -0.00000000000E+00 -0.00000000000E+00 -0.89903818128E+02  0.89903818128E+02  0.00000000000E+00 0.  1.
         25    2    1    2    0    0 -0.41619063755E+02  0.75933390344E+01  0.17311949771E+02  0.13318219869E+03  0.12509192291E+03 0.  0.
          5    1    3    3  502    0 -0.85928639560E+02 -0.26380968767E+01  0.69262468742E+01  0.86348919782E+02  0.41800000000E+01 0.  1.
         -5    1    3    3    0  502  0.44309575805E+02  0.10231435911E+02  0.10385702896E+02  0.46833278910E+02  0.41800000000E+01 0.  1.
        -11    1    1    2    0    0  0.17871366015E+02  0.35840355724E+02  0.45201111203E+02  0.60390870797E+02  0.00000000000E+00 0. -1.
         11    1    1    2    0    0  0.23747697740E+02 -0.43433694758E+02  0.76011676248E+00  0.49507744503E+02  0.00000000000E+00 0.  1.
</event>
<event>
 7    1  0.2788485E-009  0.7391472E+02  0.7561462E-02  0.1347265E+00
          2   -1    0    0  501    0  0.00000000000E+00  0.00000000000E+00  0.11888623896E+03  0.11888623896E+03  0.00000000000E+00 0. -1.
         -2   -1    0    0    0  501 -0.00000000000E+00 -0.00000000000E+00 -0.10175968089E+03  0.10175968089E+03  0.00000000000E+00 0.  1.
         25    2    1    2    0    0  0.16316012173E+02  0.48152724492E+01  0.10189772538E+02  0.12665183636E+03  0.12508979610E+03 0.  0.
          5    1    3    3  502    0  0.47338237839E+01 -0.27814435560E+02 -0.49725750866E+02  0.57325165611E+02  0.41800000000E+01 0.  1.
         -5    1    3    3    0  502  0.11582188389E+02  0.32629708009E+02  0.59915523404E+02  0.69326670750E+02  0.41800000000E+01 0.  1.
        -11    1    1    2    0    0  0.19582891194E+02  0.29080028894E+02 -0.17184886342E+02  0.39044308505E+02  0.00000000000E+00 0.  1.
         11    1    1    2    0    0 -0.35898903367E+02 -0.33895301344E+02  0.24121671874E+02  0.54949774978E+02  0.00000000000E+00 0. -1.
</event>
<event>
 7    1  0.2788485E-009  0.1023711E+03  0.7561462E-02  0.1275387E+00
         -2   -1    0    0    0  501 -0.00000000000E+00  0.00000000000E+00  0.57865770072E+02  0.57865770072E+02  0.00000000000E+00 0.  1.
          2   -1    0    0  501    0  0.00000000000E+00 -0.00000000000E+00 -0.22788002599E+03  0.22788002599E+03  0.00000000000E+00 0. -1.
         25    2    1    2    0    0  0.36929830730E+02 -0.86900475954E+01 -0.96063776688E+02  0.16222161906E+03  0.12509306605E+03 0.  0.
          5    1    3    3  502    0  0.61506834326E+02 -0.36277180394E+02 -0.15069937581E+02  0.73100614942E+02  0.41800000000E+01 0. -1.
         -5    1    3    3    0  502 -0.24577003596E+02  0.27587132798E+02 -0.80993839107E+02  0.89121004118E+02  0.41800000000E+01 0. -1.
        -11    1    1    2    0    0  0.26535062638E+02 -0.12212738758E+02 -0.37094457431E+02  0.47215032662E+02  0.00000000000E+00 0. -1.
         11    1    1    2    0    0 -0.63464893368E+02  0.20902786353E+02 -0.36856021802E+02  0.76309144345E+02  0.00000000000E+00 0.  1.
</event>
<event>
 7    1  0.2788485E-009  0.9357398E+02  0.7561462E-02  0.1294421E+00
          1   -1    0    0  501    0  0.00000000000E+00  0.00000000000E+00  0.24548831784E+03  0.24548831784E+03  0.00000000000E+00 0. -1.
         -1   -1    0    0    0  501 -0.00000000000E+00 -0.00000000000E+00 -0.55307166693E+02  0.55307166693E+02  0.00000000000E+00 0.  1.
         25    2    1    2    0    0 -0.51687788540E+01 -0.19319934521E+02  0.11988468662E+03  0.17440733005E+03  0.12508238303E+03 0.  0.
          5    1    3    3  502    0  0.46956314236E+02  0.23498675357E+02  0.80442486754E+02  0.96153779256E+02  0.41800000000E+01 0. -1.
         -5    1    3    3    0  502 -0.52125093090E+02 -0.42818609878E+02  0.39442199871E+02  0.78253550796E+02  0.41800000000E+01 0. -1.
        -11    1    1    2    0    0 -0.29061989344E+02  0.38236662975E+01  0.81960442560E+02  0.87044435740E+02  0.00000000000E+00 0. -1.
         11    1    1    2    0    0  0.34230768198E+02  0.15496268223E+02 -0.11663978042E+02  0.39343718737E+02  0.00000000000E+00 0.  1.
</event>
<event>
 7    1  0.2788485E-009  0.1289486E+03  0.7561462E-02  0.1229024E+00
         -1   -1    0    0    0  501 -0.00000000000E+00  0.00000000000E+00  0.26814668908E+02  0.26814668908E+02  0.00000000000E+00 0.  1.
          1   -1    0    0  501    0  0.00000000000E+00 -0.00000000000E+00 -0.79047433980E+03  0.79047433980E+03  0.00000000000E+00 0. -1.
         25    2    1    2    0    0 -0.24622707834E+02 -0.71970577211E+02 -0.24960714468E+03  0.28937577486E+03  0.12509424717E+03 0.  0.
          5    1    3    3  502    0  0.24406242750E+02 -0.84439468250E+02 -0.11024879561E+03  0.14106012128E+03  0.41800000000E+01 0. -1.
         -5    1    3    3    0  502 -0.49028950584E+02  0.12468891039E+02 -0.13935834908E+03  0.14831565358E+03  0.41800000000E+01 0. -1.
        -11    1    1    2    0    0  0.40971885074E+02  0.87483359891E+02 -0.44130704169E+03  0.45175650373E+03  0.00000000000E+00 0. -1.
         11    1    1    2    0    0 -0.16349177240E+02 -0.15512782680E+02 -0.72745484524E+02  0.76156730113E+02  0.00000000000E+00 0.  1.
</event>
<event>
 7    1  0.2788485E-009  0.7440183E+02  0.7561462E-02  0.1345733E+00
          1   -1    0    0  501    0  0.00000000000E+00  0.00000000000E+00  0.26578743601E+03  0.26578743601E+03  0.00000000000E+00 0. -1.
         -1   -1    0    0    0  501 -0.00000000000E+00 -0.00000000000E+00 -0.51824626774E+02  0.51824626774E+02  0.00000000000E+00 0.  1.
         25    2    1    2    0    0  0.71353438896E+01 -0.40293518433E+02  0.15003915322E+03  0.19958462310E+03  0.12509114085E+03 0.  0.
          5    1    3    3  502    0 -0.36823281569E+02 -0.36366994813E+02  0.10237388370E+02  0.52922480080E+02  0.41800000000E+01 0. -1.
         -5    1    3    3    0  502  0.43958625458E+02 -0.39265236206E+01  0.13980176485E+03  0.14666214302E+03  0.41800000000E+01 0. -1.
        -11    1    1    2    0    0  0.13124645834E+02  0.12249511896E+02 -0.20225411554E+02  0.27043929863E+02  0.00000000000E+00 0.  1.
         11    1    1    2    0    0 -0.20259989723E+02  0.28044006537E+02  0.84149067568E+02  0.90983509818E+02  0.00000000000E+00 0. -1.
</event>
<event>
 7    1  0.2788485E-009  0.1243668E+03  0.7561462E-02  0.1236062E+00
         -1   -1    0    0    0  501 -0.00000000000E+00  0.00000000000E+00  0.36115568646E+02  0.36115568646E+02  0.00000000000E+00 0.  1.
          1   -1    0    0  501    0  0.00000000000E+00 -0.00000000000E+00 -0.44165169406E+03  0.44165169406E+03  0.00000000000E+00 0. -1.
         25    2    1    2    0    0  0.14049882102E+02  0.61500896405E+02 -0.21344851759E+03  0.25531706360E+03  0.12508706511E+03 0.  0.
          5    1    3    3  502    0 -0.55579941961E+02  0.27743083550E+02 -0.10399024218E+03  0.12120334774E+03  0.41800000000E+01 0.  1.
         -5    1    3    3    0  502  0.69629824063E+02  0.33757812856E+02 -0.10945827541E+03  0.13411371587E+03  0.41800000000E+01 0.  1.
        -11    1    1    2    0    0 -0.38830890880E+02  0.39143231667E+01 -0.44935498472E+02  0.59517720347E+02  0.00000000000E+00 0.  1.
         11    1    1    2    0    0  0.24781008778E+02 -0.65415219572E+02 -0.14715210935E+03  0.16293247876E+03  0.00000000000E+00 0. -1.
</event>
<event>
 7    1  0.2788485E-009  0.9951066E+02  0.7561462E-02  0.1281328E+00
          1   -1    0    0  501    0  0.00000000000E+00  0.00000000000E+00  0.23410817281E+03  0.23410817281E+03  0.00000000000E+00 0. -1.
         -1   -1    0    0    0  501 -0.00000000000E+00 -0.00000000000E+00 -0.65132530663E+02  0.65132530663E+02  0.00000000000E+00 0.  1.
         25    2    1    2    0    0 -0.85555276966E+01 -0.54274390931E+02  0.12213666398E+03  0.18325867865E+03  0.12508985589E+03 0.  0.
          5    1    3    3  502    0 -0.38504527172E+02  0.28677410528E+02  0.39179858059E+02  0.62108986184E+02  0.41800000000E+01 0.  1.
         -5    1    3    3    0  502  0.29948999475E+02 -0.82951801459E+02  0.82956805924E+02  0.12114969246E+03  0.41800000000E+01 0.  1.
        -11    1    1    2    0    0 -0.10342037745E+02  0.99427374380E+01 -0.25383715394E+02  0.29157310913E+02  0.00000000000E+00 0.  1.
         11    1    1    2    0    0  0.18897565442E+02  0.44331653493E+02  0.72222693553E+02  0.86824713908E+02  0.00000000000E+00 0. -1.
</event>
<event>
 7    1  0.2788485E-009  0.8539644E+02  0.7561462E-02  0.1314399E+00
          1   -1    0    0  501    0  0.00000000000E+00  0.00000000000E+00  0.86788673240E+03  0.86788673240E+03  0.00000000000E+00 0. -1.
         -1   -1    0    0    0  501 -0.00000000000E+00 -0.00000000000E+00 -0.17982244996E+02  0.17982244996E+02  0.00000000000E+00 0.  1.
         25    2    1    2    0    0  0.13184201110E+02  0.51980171734E+02  0.58991571782E+03  0.60541159841E+03  0.12508752117E+03 0.  0.
          5    1    3    3  502    0  0.26959608385E+02  0.20180688554E+02  0.32773087506E+02  0.47176565574E+02  0.41800000000E+01 0. -1.
         -5    1    3    3    0  502 -0.13775407275E+02  0.31799483180E+02  0.55714263031E+03  0.55823503284E+03  0.41800000000E+01 0. -1.
        -11    1    1    2    0    0  0.15881433071E+02 -0.67263741044E+02  0.14110978725E+03  0.15712607305E+03  0.00000000000E+00 0.  1.
         11    1    1    2    0    0 -0.29065634180E+02  0.15283569310E+02  0.11887898234E+03  0.12333130593E+03  0.00000000000E+00 0. -1.
</event>
<event>
 7    1  0.2788485E-009  0.1195900E+03  0.7561462E-02  0.1243775E+00
         -4   -1    0    0    0  501 -0.00000000000E+00  0.00000000000E+00  0.31790053952E+02  0.31790053952E+02  0.00000000000E+00 0.  1.
          4   -1    0    0  501    0  0.00000000000E+00 -0.00000000000E+00 -0.71621994043E+03  0.71621994043E+03  0.00000000000E+00 0. -1.
         25    2    1    2    0    0  0.21075181972E+02 -0.99866948326E+02 -0.41968478573E+03  0.44966472401E+03  0.12508186912E+03 0.  0.
          5    1    3    3  502    0 -0.30832057161E+02 -0.28924363232E+02 -0.28903306372E+03  0.29213835568E+03  0.41800000000E+01 0. -1.
         -5    1    3    3    0  502  0.51907239133E+02 -0.70942585094E+02 -0.13065172201E+03  0.15752636833E+03  0.41800000000E+01 0. -1.
        -11    1    1    2    0    0 -0.31983827966E+02  0.75704734954E+02 -0.25830465297E+03  0.27106358274E+03  0.00000000000E+00 0. -1.
         11    1    1    2    0    0  0.10908645993E+02  0.24162213372E+02 -0.64404477860E+01  0.27281687634E+02  0.00000000000E+00 0.  1.
</event>
<event>
 7    1  0.2788485E-009  0.1081276E+03  0.7561462E-02  0.1264077E+00
         -2   -1    0    0    0  501 -0.00000000000E+00  0.00000000000E+00  0.12082244754E+03  0.12082244754E+03  0.00000000000E+00 0. -1.
          2   -1    0    0  501    0  0.00000000000E+00 -0.00000000000E+00 -0.22807102058E+03  0.22807102058E+03  0.00000000000E+00 0.  1.
         25    2    1    2    0    0  0.53770442641E+02 -0.48113930158E+02  0.51522846897E+02  0.15332883101E+03  0.12509562698E+03 0.  0.
          5    1    3    3  502    0  0.76304232560E+02 -0.51963249187E+02 -0.46599024062E+01  0.92529466998E+02  0.41800000000E+01 0. -1.
         -5    1    3    3    0  502 -0.22533789919E+02  0.38493190288E+01  0.56182749303E+02  0.60799364012E+02  0.41800000000E+01 0. -1.
        -11    1    1    2    0    0 -0.16048826795E+02  0.59159957143E+02 -0.47479133080E+02  0.77535369017E+02  0.00000000000E+00 0. -1.
         11    1    1    2    0    0 -0.37721615845E+02 -0.11046026985E+02 -0.11129228685E+03  0.11802926809E+03  0.00000000000E+00 0.  1.
</event>
<event>
 7    1  0.2788485E-009  0.1043173E+03  0.7561462E-02  0.1271470E+00
         -1   -1    0    0    0  501 -0.00000000000E+00  0.00000000000E+00  0.21539178294E+03  0.21539178294E+03  0.00000000000E+00 0.  1.
          1   -1    0    0  501    0  0.00000000000E+00 -0.00000000000E+00 -0.61217391270E+02  0.61217391270E+02  0.00000000000E+00 0. -1.
         25    2    1    2    0    0 -0.89816580263E+01 -0.21953378076E+02  0.12807759752E+03  0.18059849694E+03  0.12509726263E+03 0.  0.
          5    1    3    3  502    0  0.26704987138E+02 -0.65165842327E+02  0.62685750666E+02  0.94375415659E+02  0.41800000000E+01 0. -1.
         -5    1    3    3    0  502 -0.35686645164E+02  0.43212464251E+02  0.65391846855E+02  0.86223081276E+02  0.41800000000E+01 0. -1.
        -11    1    1    2    0    0  0.25940280952E+02 -0.22480653477E+02 -0.10614710613E+02  0.35929793181E+02  0.00000000000E+00 0. -1.
         11    1    1    2    0    0 -0.16958622926E+02  0.44434031554E+02  0.36711504764E+02  0.60080884095E+02  0.00000000000E+00 0.  1.
</event>
<event>
 7    1  0.2788485E-009  0.1165187E+03  0.7561462E-02  0.1248953E+00
          2   -1    0    0  501    0  0.00000000000E+00  0.00000000000E+00  0.21438137827E+03  0.21438137827E+03  0.00000000000E+00 0. -1.
         -2   -1    0    0    0  501 -0.00000000000E+00 -0.00000000000E+00 -0.88139172826E+02  0.88139172826E+02  0.00000000000E+00 0.  1.
         25    2    1    2    0    0  0.71107150227E+02  0.45771492556E+02  0.71706823745E+02  0.16715517010E+03  0.12509087087E+03 0.  0.
          5    1    3    3  502    0  0.10049986458E+03  0.54399152729E+02  0.73909526780E+02  0.13616013053E+03  0.41800000000E+01 0.  1.
         -5    1    3    3    0  502 -0.29392714352E+02 -0.86276601724E+01 -0.22027030351E+01  0.30995039566E+02  0.41800000000E+01 0.  1.
        -11    1    1    2    0    0 -0.56732800461E+02 -0.46527660296E+02  0.78474349102E+02  0.10743210548E+03  0.00000000000E+00 0. -1.
         11    1    1    2    0    0 -0.14374349766E+02  0.75616773989E+00 -0.23938967402E+02  0.27933275517E+02  0.00000000000E+00 0.  1.
</event>
<event>
 7    1  0.2788485E-009  0.1142188E+03  0.7561462E-02  0.1252951E+00
          2   -1    0    0  501    0  0.00000000000E+00  0.00000000000E+00  0.14067299583E+04  0.14067299583E+04  0.00000000000E+00 0. -1.
         -2   -1    0    0    0  501 -0.00000000000E+00 -0.00000000000E+00 -0.12289551040E+02  0.12289551040E+02  0.00000000000E+00 0.  1.
         25    2    1    2    0    0  0.69903030860E+01 -0.43000242157E+02  0.10357808125E+04  0.10442159093E+04  0.12508832279E+03 0.  0.
          5    1    3    3  502    0  0.50910197569E+02  0.92785339519E+01  0.67592165206E+03  0.67791259875E+03  0.41800000000E+01 0. -1.
         -5    1    3    3    0  502 -0.43919894483E+02 -0.52278776109E+02  0.35985916040E+03  0.36630331051E+03  0.41800000000E+01 0. -1.
        -11    1    1    2    0    0 -0.72764037262E+01 -0.32149766026E+02  0.90648873254E+02  0.96456061131E+02  0.00000000000E+00 0.  1.
         11    1    1    2    0    0  0.28610064022E+00  0.75150008184E+02  0.26801072155E+03  0.27834753896E+03  0.00000000000E+00 0. -1.
</event>
<event>
 7    1  0.2788485E-009  0.1064138E+03  0.7561462E-02  0.1267359E+00
          2   -1    0    0  501    0  0.00000000000E+00  0.00000000000E+00  0.20131370204E+02  0.20131370204E+02  0.00000000000E+00 0. -1.
         -2   -1    0    0    0  501 -0.00000000000E+00 -0.00000000000E+00 -0.67707041497E+03  0.67707041497E+03  0.00000000000E+00 0.  1.
         25    2    1    2    0    0  0.34098253280E+02 -0.22009851117E+02 -0.38470555142E+03  0.40656478070E+03  0.12509770256E+03 0.  0.
          5    1    3    3  502    0 -0.39080327314E+02 -0.26431225193E+02 -0.23613242250E+03  0.24083578431E+03  0.41800000000E+01 0.  1.
         -5    1    3    3    0  502  0.73178580594E+02  0.44213740763E+01 -0.14857312892E+03  0.16572899639E+03  0.41800000000E+01 0.  1.
        -11    1    1    2    0    0 -0.16923253796E+02  0.53527432967E+02 -0.22141314376E+03  0.22841926982E+03  0.00000000000E+00 0. -1.
         11    1    1    2    0    0 -0.17174999485E+02 -0.31517581850E+02 -0.50820349588E+02  0.62217734652E+02  0.00000000000E+00 0.  1.
</event>
<event>
 7    1  0.2788485E-009  0.9386324E+02  0.7561462E-02  0.1293757E+00
          2   -1    0    0  501    0  0.00000000000E+00  0.00000000000E+00  0.13070015178E+04  0.13070015178E+04  0.00000000000E+00 0. -1.
         -2   -1    0    0    0  501 -0.00000000000E+00 -0.00000000000E+00 -0.17680141273E+02  0.17680141273E+02  0.00000000000E+00 0.  1.
         25    2    1    2    0    0  0.72430202070E+02  0.24847772339E+02  0.10161058901E+04  0.10266365472E+04  0.12509146343E+03 0.  0.
          5    1    3    3  502    0  0.33070661350E+01  0.24985428873E+01 -0.17824822373E+01  0.61505321646E+01  0.41800000000E+01 0.  1.
         -5    1    3    3    0  502  0.69123135935E+02  0.22349229452E+02  0.10178883723E+04  0.10204860150E+04  0.41800000000E+01 0.  1.
        -11    1    1    2    0    0  0.16531861310E+02 -0.86168771354E+01  0.10894422082E+03  0.11052780763E+03  0.00000000000E+00 0. -1.
         11    1    1    2    0    0 -0.88962063380E+02 -0.16230895204E+02  0.16427126563E+03  0.18751730425E+03  0.00000000000E+00 0.  1.
</event>
<event>
 7    1  0.2788485E-009  0.1759573E+03  0.7561462E-02  0.1171774E+00
          2   -1    0    0  501    0  0.00000000000E+00  0.00000000000E+00  0.32512795324E+03  0.32512795324E+03  0.00000000000E+00 0. -1.
         -2   -1    0    0    0  501 -0.00000000000E+00 -0.00000000000E+00 -0.11053374860E+03  0.11053374860E+03  0.00000000000E+00 0.  1.
         25    2    1    2    0    0 -0.61133798096E+02 -0.13979236932E+03  0.14343746474E+03  0.24392789191E+03  0.12508901779E+03 0.  0.
          5    1    3    3  502    0  0.30286099388E+02 -0.24808453806E+02  0.68398765041E+02  0.78921294056E+02  0.41800000000E+01 0.  1.
         -5    1    3    3    0  502 -0.91419897483E+02 -0.11498391551E+03  0.75038699701E+02  0.16500659786E+03  0.41800000000E+01 0.  1.
        -11    1    1    2    0    0  0.74940587656E+02  0.11849669771E+03  0.29997259789E+02  0.14337850133E+03  0.00000000000E+00 0.  1.
         11    1    1    2    0    0 -0.13806789561E+02  0.21295671607E+02  0.41159480113E+02  0.48355308605E+02  0.00000000000E+00 0. -1.
</event>
<event>
 7    1  0.2788485E-009  0.2494497E+03  0.7561462E-02  0.1113653E+00
          2   -1    0    0  501    0  0.00000000000E+00  0.00000000000E+00  0.97897493940E+03  0.97897493940E+03  0.00000000000E+00 0.  1.
         -2   -1    0    0    0  501 -0.00000000000E+00 -0.00000000000E+00 -0.74315101897E+02  0.74315101897E+02  0.00000000000E+00 0. -1.
         25    2    1    2    0    0 -0.19133691818E+03  0.14833952176E+03  0.55730683551E+03  0.62036530135E+03  0.12509103982E+03 0.  0.
          5    1    3    3  502    0 -0.27689535461E+02  0.40820988012E+02  0.30053587540E+02  0.57911604712E+02  0.41800000000E+01 0. -1.
         -5    1    3    3    0  502 -0.16364738272E+03  0.10751853375E+03  0.52725324797E+03  0.56245369664E+03  0.41800000000E+01 0. -1.
        -11    1    1    2    0    0  0.17954586251E+03 -0.15732362002E+03  0.34218378134E+03  0.41722557254E+03  0.00000000000E+00 0.  1.
         11    1    1    2    0    0  0.11791055666E+02  0.89840982614E+01  0.51692206547E+01  0.15699167413E+02  0.00000000000E+00 0. -1.
</event>
<event>
 7    1  0.2788485E-009  0.1638824E+03  0.7561462E-02  0.1184382E+00
          1   -1    0    0  501    0  0.00000000000E+00  0.00000000000E+00  0.59357610785E+03  0.59357610785E+03  0.00000000000E+00 0. -1.
         -1   -1    0    0    0  501 -0.00000000000E+00 -0.00000000000E+00 -0.73723318296E+02  0.73723318296E+02  0.00000000000E+00 0.  1.
         25    2    1    2    0    0  0.79587153576E+02 -0.12179747877E+03  0.10635434973E+03  0.21937898937E+03  0.12508857831E+03 0.  0.
          5    1    3    3  502    0 -0.25978446375E+02 -0.42758947254E+02  0.62868416673E+02  0.80455686320E+02  0.41800000000E+01 0. -1.
         -5    1    3    3    0  502  0.10556559995E+03 -0.79038531514E+02  0.43485933053E+02  0.13892330305E+03  0.41800000000E+01 0. -1.
        -11    1    1    2    0    0 -0.19091032949E+02  0.34034059964E+02  0.28191339515E+02  0.48140797670E+02  0.00000000000E+00 0.  1.
         11    1    1    2    0    0 -0.60496120627E+02  0.87763418803E+02  0.38530710032E+03  0.39977963911E+03  0.00000000000E+00 0. -1.
</event>
<event>
 7    1  0.2788485E-009  0.1604371E+03  0.7561462E-02  0.1188204E+00
          1   -1    0    0  501    0  0.00000000000E+00  0.00000000000E+00  0.13245767531E+04  0.13245767531E+04  0.00000000000E+00 0. -1.
         -1   -1    0    0    0  501 -0.00000000000E+00 -0.00000000000E+00 -0.34124194668E+02  0.34124194668E+02  0.00000000000E+00 0.  1.
         25    2    1    2    0    0  0.73495740334E+02 -0.10209929619E+03  0.10960249503E+04  0.11102900814E+04  0.12508989952E+03 0.  0.
          5    1    3    3  502    0  0.96837718629E+02 -0.36452742049E+02  0.76574157445E+03  0.77271209218E+03  0.41800000000E+01 0. -1.
         -5    1    3    3    0  502 -0.23341978294E+02 -0.65646554144E+02  0.33028337589E+03  0.33757798922E+03  0.41800000000E+01 0. -1.
        -11    1    1    2    0    0 -0.88836180991E+02  0.96563822137E+02  0.14125614840E+03  0.19279454935E+03  0.00000000000E+00 0.  1.
         11    1    1    2    0    0  0.15340440657E+02  0.55354740554E+01  0.53171459717E+02  0.55616317039E+02  0.00000000000E+00 0. -1.
</event>
<event>
 7    1  0.2788485E-009  0.1323858E+03  0.7561462E-02  0.1223958E+00
         -2   -1    0    0    0  501 -0.00000000000E+00  0.00000000000E+00  0.69373387114E+02  0.69373387114E+02  0.00000000000E+00 0.  1.
          2   -1    0    0  501    0  0.00000000000E+00 -0.00000000000E+00 -0.45777458153E+03  0.45777458153E+03  0.00000000000E+00 0. -1.
         25    2    1    2    0    0 -0.11793880874E+03  0.35661655943E+02 -0.30686771583E+03  0.35354992328E+03  0.12509371257E+03 0.  0.
          5    1    3    3  502    0 -0.43054972926E+02  0.42389766733E+02 -0.31888984961E+02  0.68447080136E+02  0.41800000000E+01 0.  1.
         -5    1    3    3    0  502 -0.74883835810E+02 -0.67281107897E+01 -0.27497873087E+03  0.28510284315E+03  0.41800000000E+01 0.  1.
        -11    1    1    2    0    0  0.26433383849E+02  0.78599769384E+01  0.16889180701E+02  0.32338018553E+02  0.00000000000E+00 0. -1.
         11    1    1    2    0    0  0.91505424886E+02 -0.43521632882E+02 -0.98422659287E+02  0.14126002681E+03  0.00000000000E+00 0.  1.
</event>
<event>
 7    1  0.2788485E-009  0.1067098E+03  0.7561462E-02  0.1266787E+00
          1   -1    0    0  501    0  0.00000000000E+00  0.00000000000E+00  0.14972891464E+03  0.14972891464E+03  0.00000000000E+00 0. -1.
         -1   -1    0    0    0  501 -0.00000000000E+00 -0.00000000000E+00 -0.83462034079E+02  0.83462034079E+02  0.00000000000E+00 0.  1.
         25    2    1    2    0    0  0.20480261928E+02  0.20321942513E+02  0.53265189949E+02  0.13898596802E+03  0.12508995312E+03 0.  0.
          5    1    3    3  502    0  0.28873580176E+02 -0.45520020799E+02  0.46532406722E+00  0.54068889874E+02  0.41800000000E+01 0. -1.
         -5    1    3    3    0  502 -0.83933182487E+01  0.65841963312E+02  0.52799865882E+02  0.84917078148E+02  0.41800000000E+01 0. -1.
        -11    1    1    2    0    0 -0.89582830247E+01 -0.55299275990E+02  0.12388573408E+02  0.57373665656E+02  0.00000000000E+00 0.  1.
         11    1    1    2    0    0 -0.11521978903E+02  0.34977333477E+02  0.61311720381E+00  0.36831315041E+02  0.00000000000E+00 0. -1.
</event>
<event>
 7    1  0.2788485E-009  0.9982800E+02  0.7561462E-02  0.1280658E+00
         -2   -1    0    0    0  501 -0.00000000000E+00  0.00000000000E+00  0.20476662496E+02  0.20476662496E+02  0.00000000000E+00 0.  1.
          2   -1    0    0  501    0  0.00000000000E+00 -0.00000000000E+00 -0.59946984812E+03  0.59946984812E+03  0.00000000000E+00 0. -1.
         25    2    1    2    0    0  0.14502588842E+01  0.95418884767E+01 -0.36353021498E+03  0.38457123915E+03  0.12509064670E+03 0.  0.
          5    1    3    3  502    0  0.43122403151E+02  0.46596573476E+02 -0.25064231054E+03  0.25859200016E+03  0.41800000000E+01 0.  1.
         -5    1    3    3    0  502 -0.41672144267E+02 -0.37054684999E+02 -0.11288790445E+03  0.12597923900E+03  0.41800000000E+01 0.  1.
        -11    1    1    2    0    0 -0.27457334882E+01  0.35221109784E+02 -0.36114482041E+02  0.50520505143E+02  0.00000000000E+00 0.  1.
         11    1    1    2    0    0  0.12954746039E+01 -0.44762998261E+02 -0.17934848860E+03  0.18485476632E+03  0.00000000000E+00 0. -1.
</event>
<event>
 7    1  0.2788485E-009  0.9129155E+02  0.7561462E-02  0.1299754E+00
         -2   -1    0    0    0  501 -0.00000000000E+00  0.00000000000E+00  0.12642397305E+03  0.12642397305E+03  0.00000000000E+00 0. -1.
          2   -1    0    0  501    0  0.00000000000E+00 -0.00000000000E+00 -0.14100762861E+03  0.14100762861E+03  0.00000000000E+00 0.  1.
         25    2    1    2    0    0  0.79139752938E+02 -0.69306440013E+01 -0.63553417945E+01  0.14831940122E+03  0.12508844906E+03 0.  0.
          5    1    3    3  502    0  0.21910936710E+02 -0.32196953505E+02  0.50343966458E+02  0.63786521470E+02  0.41800000000E+01 0.  1.
         -5    1    3    3    0  502  0.57228816228E+02  0.25266309503E+02 -0.56699308252E+02  0.84532879751E+02  0.41800000000E+01 0.  1.
        -11    1    1    2    0    0 -0.66843415854E+02  0.11045653082E+02  0.33382597576E+02  0.75527786383E+02  0.00000000000E+00 0. -1.
         11    1    1    2    0    0 -0.12296337084E+02 -0.41150090810E+01 -0.41610911339E+02  0.43584414048E+02  0.00000000000E+00 0.  1.
</event>
<event>
 7    1  0.2788485E-009  0.7374092E+02  0.7561462E-02  0.1347815E+00
          1   -1    0    0  501    0  0.00000000000E+00  0.00000000000E+00  0.41848175441E+02  0.41848175441E+02  0.00000000000E+00 0. -1.
         -1   -1    0    0    0  501 -0.00000000000E+00 -0.00000000000E+00 -0.33010034721E+03  0.33010034721E+03  0.00000000000E+00 0.  1.
         25    2    1    2    0    0  0.30828752344E+02 -0.32665743420E+02 -0.14580940807E+03  0.19729581763E+03  0.12509114041E+03 0.  0.
          5    1    3    3  502    0 -0.53443637647E+01 -0.31467456079E+02  0.12735674787E+02  0.34618388588E+02  0.41800000000E+01 0. -1.
         -5    1    3    3    0  502  0.36173116109E+02 -0.11982873408E+01 -0.15854508286E+03  0.16267742905E+03  0.41800000000E+01 0. -1.
        -11    1    1    2    0    0  0.15946387805E+02 -0.71076550480E+01  0.21243575138E+01  0.17587465399E+02  0.00000000000E+00 0. -1.
         11    1    1    2    0    0 -0.46775140149E+02  0.39773398468E+02 -0.14456712121E+03  0.15706523962E+03  0.00000000000E+00 0.  1.
</event>
<event>
 7    1  0.2788485E-009  0.1044957E+03  0.7561462E-02  0.1271116E+00
          2   -1    0    0  501    0  0.00000000000E+00  0.00000000000E+00  0.10217409687E+04  0.10217409687E+04  0.00000000000E+00 0. -1.
         -2   -1    0    0    0  501 -0.00000000000E+00 -0.00000000000E+00 -0.10997295590E+02  0.10997295590E+02  0.00000000000E+00 0.  1.
         25    2    1    2    0    0 -0.99169554868E+01  0.64369018722E+01  0.67989056800E+03  0.69140328179E+03  0.12509010311E+03 0.  0.
          5    1    3    3  502    0  0.43099843973E+02  0.43065737406E+02  0.32899964754E+03  0.33461992585E+03  0.41800000000E+01 0.  1.
         -5    1    3    3    0  502 -0.53016799460E+02 -0.36628835534E+02  0.35089092046E+03  0.35678335594E+03  0.41800000000E+01 0.  1.
        -11    1    1    2    0    0  0.28785642437E+02 -0.37333510556E+02  0.16673483989E+03  0.17327120665E+03  0.00000000000E+00 0.  1.
         11    1    1    2    0    0 -0.18868686950E+02  0.30896608684E+02  0.16411826525E+03  0.16806377589E+03  0.00000000000E+00 0. -1.
</event>
<event>
 7    1  0.2788485E-009  0.1140128E+03  0.7561462E-02  0.1253314E+00
         -1   -1    0    0    0  501 -0.00000000000E+00  0.00000000000E+00  0.37190164685E+03  0.37190164685E+03  0.00000000000E+00 0.  1.
          1   -1    0    0  501    0  0.00000000000E+00 -0.00000000000E+00 -0.12929434974E+03  0.12929434974E+03  0.00000000000E+00 0. -1.
         25    2    1    2    0    0 -0.82641675786E+02  0.57301000306E+02 -0.58227470125E+02  0.17073629272E+03  0.12508953659E+03 0.  0.
          5    1    3    3  502    0 -0.19410674423E+02  0.14360034927E+02  0.39570229794E+02  0.46543102289E+02  0.41800000000E+01 0.  1.
         -5    1    3    3    0  502 -0.63231001362E+02  0.42940965379E+02 -0.97797699919E+02  0.12419319044E+03  0.41800000000E+01 0.  1.
        -11    1    1    2    0    0 -0.11214168706E+02 -0.25533229753E+02  0.25313349059E+02  0.37662568180E+02  0.00000000000E+00 0. -1.
         11    1    1    2    0    0  0.93855844491E+02 -0.31767770554E+02  0.27552141817E+03  0.29279713568E+03  0.00000000000E+00 0.  1.
</event>
<event>
 7    1  0.2827935E-009  0.9267061E+02  0.7561462E-02  0.1296510E+00
         -2   -1    0    0    0  501 -0.00000000000E+00  0.00000000000E+00  0.13064115275E+03  0.13064115275E+03  0.00000000000E+00 0.  1.
          2   -1    0    0  501    0  0.00000000000E+00 -0.00000000000E+00 -0.15622387435E+03  0.15622387435E+03  0.00000000000E+00 0. -1.
         25    2    1    2    0    0 -0.62874747830E+02 -0.60561801320E+02  0.17837497388E+02  0.15357777580E+03  0.12508793392E+03 0.  0.
          5    1    3    3  502    0 -0.44642981506E+02 -0.29129499465E+02 -0.52098610858E+02  0.74654277775E+02  0.41800000000E+01 0. -1.
         -5    1    3    3    0  502 -0.18231766325E+02 -0.31432301855E+02  0.69936108245E+02  0.78923498020E+02  0.41800000000E+01 0. -1.
        -11    1    1    2    0    0  0.13350462701E+02  0.39106971905E+02  0.23324475987E+02  0.47451251680E+02  0.00000000000E+00 0.  1.
         11    1    1    2    0    0  0.49524285129E+02  0.21454829415E+02 -0.66744694975E+02  0.85835999616E+02  0.00000000000E+00 0. -1.
</event>
<event>
 7    1  0.2788485E-009  0.1163797E+03  0.7561462E-02  0.1249192E+00
         -2   -1    0    0    0  501 -0.00000000000E+00  0.00000000000E+00  0.60618938662E+02  0.60618938662E+02  0.00000000000E+00 0. -1.
          2   -1    0    0  501    0  0.00000000000E+00 -0.00000000000E+00 -0.36602018600E+03  0.36602018600E+03  0.00000000000E+00 0.  1.
         25    2    1    2    0    0 -0.98485490666E+02  0.31157378437E+02 -0.20203403676E+03  0.25910421430E+03  0.12508823987E+03 0.  0.
          5    1    3    3  502    0 -0.76987985635E+02  0.25636675405E+02 -0.21719949344E+03  0.23189972274E+03  0.41800000000E+01 0. -1.
         -5    1    3    3    0  502 -0.21497505030E+02  0.55207030312E+01  0.15165456677E+02  0.27204491554E+02  0.41800000000E+01 0. -1.
        -11    1    1    2    0    0  0.56971049117E+00  0.18930610294E+02 -0.40984004189E+01  0.19377550468E+02  0.00000000000E+00 0.  1.
         11    1    1    2    0    0  0.97915780174E+02 -0.50087988730E+02 -0.99268810162E+02  0.14815735990E+03  0.00000000000E+00 0. -1.
</event>
<event>
 7    1  0.2788485E-009  0.1025563E+03  0.7561462E-02  0.1275010E+00
         -2   -1    0    0    0  501 -0.00000000000E+00  0.00000000000E+00  0.23439656074E+02  0.23439656074E+02  0.00000000000E+00 0.  1.
          2   -1    0    0  501    0  0.00000000000E+00 -0.00000000000E+00 -0.54540396042E+03  0.54540396042E+03  0.00000000000E+00 0. -1.
         25    2    1    2    0    0 -0.19095424640E+01  0.21336689213E+01 -0.38017606723E+03  0.40023607639E+03  0.12508747280E+03 0.  0.
          5    1    3    3  502    0  0.58282465197E+02 -0.14826250507E+02 -0.22354469451E+03  0.23153048676E+03  0.41800000000E+01 0. -1.
         -5    1    3    3    0  502 -0.60192007661E+02  0.16959919428E+02 -0.15663137272E+03  0.16870558963E+03  0.41800000000E+01 0. -1.
        -11    1    1    2    0    0 -0.30178852841E+02  0.25728037230E+02 -0.32251428222E+02  0.51116041326E+02  0.00000000000E+00 0.  1.
         11    1    1    2    0    0  0.32088395305E+02 -0.27861706151E+02 -0.10953680889E+03  0.11749149878E+03  0.00000000000E+00 0. -1.
</event>
<event>
 7    1  0.2788485E-009  0.1186723E+03  0.7561462E-02  0.1245304E+00
          1   -1    0    0  501    0  0.00000000000E+00  0.00000000000E+00  0.56461674538E+03  0.56461674538E+03  0.00000000000E+00 0. -1.
         -1   -1    0    0    0  501 -0.00000000000E+00 -0.00000000000E+00 -0.33277067157E+02  0.33277067157E+02  0.00000000000E+00 0.  1.
         25    2    1    2    0    0 -0.11564042482E+02 -0.82675038344E+02  0.31117636379E+03  0.34561160132E+03  0.12509100904E+03 0.  0.
          5    1    3    3  502    0 -0.33426437504E+02 -0.37043580272E+01  0.22144841999E+03  0.22402661473E+03  0.41800000000E+01 0.  1.
         -5    1    3    3    0  502  0.21862395023E+02 -0.78970680317E+02  0.89727943805E+02  0.12158498659E+03  0.41800000000E+01 0.  1.
        -11    1    1    2    0    0 -0.19222610360E+02 -0.11450509965E+02  0.25853101875E+02  0.34190726873E+02  0.00000000000E+00 0. -1.
         11    1    1    2    0    0  0.30786652841E+02  0.94125548309E+02  0.19431021255E+03  0.21809148434E+03  0.00000000000E+00 0.  1.
</event>
<event>
 7    1  0.2788485E-009  0.9384003E+02  0.7561462E-02  0.1293810E+00
          1   -1    0    0  501    0  0.00000000000E+00  0.00000000000E+00  0.63072566152E+02  0.63072566152E+02  0.00000000000E+00 0. -1.
         -1   -1    0    0    0  501 -0.00000000000E+00 -0.00000000000E+00 -0.18243992488E+03  0.18243992488E+03  0.00000000000E+00 0.  1.
         25    2    1    2    0    0 -0.79661287000E+00 -0.20897207745E+01 -0.58606159326E+02  0.13815832561E+03  0.12509212405E+03 0.  0.
          5    1    3    3  502    0  0.60075001374E+02  0.65628599153E+01 -0.14251829990E+02  0.62230731784E+02  0.41800000000E+01 0.  1.
         -5    1    3    3    0  502 -0.60871614244E+02 -0.86525806899E+01 -0.44354329336E+02  0.75927593825E+02  0.41800000000E+01 0.  1.
        -11    1    1    2    0    0  0.12314093722E+02  0.31538309826E+02  0.51537010256E+01  0.34247080535E+02  0.00000000000E+00 0. -1.
         11    1    1    2    0    0 -0.11517480852E+02 -0.29448589052E+02 -0.65914900429E+02  0.73107084888E+02  0.00000000000E+00 0.  1.
</event>
<event>
 7    1  0.2788485E-009  0.9221543E+02  0.7561462E-02  0.1297574E+00
          2   -1    0    0  501    0  0.00000000000E+00  0.00000000000E+00  0.21827783078E+02  0.21827783078E+02  0.00000000000E+00 0. -1.
         -2   -1    0    0    0  501 -0.00000000000E+00 -0.00000000000E+00 -0.78970968206E+03  0.78970968206E+03  0.00000000000E+00 0.  1.
         25    2    1    2    0    0  0.41330998564E+02 -0.97147417115E+01 -0.60888587538E+03  0.62305170938E+03  0.12509514649E+03 0.  0.
          5    1    3    3  502    0  0.16625155474E+02 -0.43050290386E+02 -0.79446804003E+02  0.91972769683E+02  0.41800000000E+01 0.  1.
         -5    1    3    3    0  502  0.24705843090E+02  0.33335548674E+02 -0.52943907138E+03  0.53107893970E+03  0.41800000000E+01 0.  1.
        -11    1    1    2    0    0 -0.59707683686E+02 -0.18685520476E+02 -0.12858891079E+03  0.14300092358E+03  0.00000000000E+00 0.  1.
         11    1    1    2    0    0  0.18376685122E+02  0.28400262188E+02 -0.30407112800E+02  0.45484832167E+02  0.00000000000E+00 0. -1.
</event>
<event>
 7    1  0.2788485E-009  0.3277416E+03  0.7561462E-02  0.1072141E+00
         -2   -1    0    0    0  501 -0.00000000000E+00  0.00000000000E+00  0.46739877854E+02  0.46739877854E+02  0.00000000000E+00 0.  1.
          2   -1    0    0  501    0  0.00000000000E+00 -0.00000000000E+00 -0.24357208767E+04  0.24357208767E+04  0.00000000000E+00 0. -1.
         25    2    1    2    0    0 -0.27994086198E+03  0.13911400994E+03 -0.97690817055E+03  0.10333034419E+04  0.12508731109E+03 0.  0.
          5    1    3    3  502    0 -0.18026720991E+03  0.26558739145E+02 -0.45472501248E+03  0.48989176659E+03  0.41800000000E+01 0.  1.
         -5    1    3    3    0  502 -0.99673652075E+02  0.11255527080E+03 -0.52218315806E+03  0.54341167532E+03  0.41800000000E+01 0.  1.
        -11    1    1    2    0    0  0.12739155104E+03 -0.10826445842E+03 -0.82760411809E+03  0.84432125196E+03  0.00000000000E+00 0. -1.
         11    1    1    2    0    0  0.15254931095E+03 -0.30849551528E+02 -0.58446871020E+03  0.60483606069E+03  0.00000000000E+00 0.  1.
</event>
<event>
 7    1  0.2788485E-009  0.1932953E+03  0.7561462E-02  0.1155522E+00
         -2   -1    0    0    0  501 -0.00000000000E+00  0.00000000000E+00  0.97255343199E+02  0.97255343199E+02  0.00000000000E+00 0.  1.
          2   -1    0    0  501    0  0.00000000000E+00 -0.00000000000E+00 -0.61373525677E+03  0.61373525677E+03  0.00000000000E+00 0. -1.
         25    2    1    2    0    0  0.71460036858E+02 -0.16586040243E+03 -0.44543769724E+03  0.49666716932E+03  0.12508926810E+03 0.  0.
          5    1    3    3  502    0  0.30369566041E+02 -0.12749965919E+03 -0.40909502054E+03  0.42959827963E+03  0.41800000000E+01 0. -1.
         -5    1    3    3    0  502  0.41090470818E+02 -0.38360743244E+02 -0.36342676708E+02  0.67068889693E+02  0.41800000000E+01 0. -1.
        -11    1    1    2    0    0  0.11399024039E+02  0.76027496568E+02 -0.94106456658E+01  0.77451134500E+02  0.00000000000E+00 0.  1.
         11    1    1    2    0    0 -0.82859060897E+02  0.89832905867E+02 -0.61631570657E+02  0.13687229614E+03  0.00000000000E+00 0. -1.
</event>
<event>
 7    1  0.2788485E-009  0.3042198E+03  0.7561462E-02  0.1083150E+00
         -2   -1    0    0    0  501 -0.00000000000E+00  0.00000000000E+00  0.96383600059E+02  0.96383600059E+02  0.00000000000E+00 0. -1.
          2   -1    0    0  501    0  0.00000000000E+00 -0.00000000000E+00 -0.16069551635E+04  0.16069551635E+04  0.00000000000E+00 0.  1.
         25    2    1    2    0    0 -0.27827246446E+03  0.89104502172E+02 -0.12841439784E+04  0.13228940454E+04  0.12509085234E+03 0.  0.
          5    1    3    3  502    0 -0.26658357855E+03  0.45000085549E+02 -0.10459654512E+04  0.10803485593E+04  0.41800000000E+01 0.  1.
         -5    1    3    3    0  502 -0.11688885914E+02  0.44104416623E+02 -0.23817852722E+03  0.24254548615E+03  0.41800000000E+01 0.  1.
        -11    1    1    2    0    0  0.11167533084E+03 -0.33156193680E+02 -0.14706945048E+03  0.18761699274E+03  0.00000000000E+00 0.  1.
         11    1    1    2    0    0  0.16659713362E+03 -0.55948308492E+02 -0.79358134498E+02  0.19282772535E+03  0.00000000000E+00 0. -1.
</event>
<event>
 7    1  0.2788485E-009  0.8189468E+02  0.7561462E-02  0.1323759E+00
         -2   -1    0    0    0  501 -0.00000000000E+00  0.00000000000E+00  0.18208166610E+02  0.18208166610E+02  0.00000000000E+00 0.  1.
          2   -1    0    0  501    0  0.00000000000E+00 -0.00000000000E+00 -0.76607286278E+03  0.76607286278E+03  0.00000000000E+00 0. -1.
         25    2    1    2    0    0 -0.39479998930E+02  0.26002775985E+02 -0.40241571462E+03  0.42405152347E+03  0.12508586055E+03 0.  0.
          5    1    3    3  502    0 -0.23265769766E+02  0.40127070367E+02 -0.39920400173E+03  0.40191141464E+03  0.41800000000E+01 0. -1.
         -5    1    3    3    0  502 -0.16214229164E+02 -0.14124294382E+02 -0.32117128831E+01  0.22140108826E+02  0.41800000000E+01 0. -1.
        -11    1    1    2    0    0  0.29126960594E+02 -0.56248705654E+02 -0.28381814760E+03  0.29080068368E+03  0.00000000000E+00 0. -1.
         11    1    1    2    0    0  0.10353038336E+02  0.30245929669E+02 -0.61630833954E+02  0.69428822244E+02  0.00000000000E+00 0.  1.
</event>
<event>
 7    1  0.2788485E-009  0.8925945E+02  0.7561462E-02  0.1304655E+00
         -3   -1    0    0    0  501 -0.00000000000E+00  0.00000000000E+00  0.84042866243E+03  0.84042866243E+03  0.00000000000E+00 0. -1.
          3   -1    0    0  501    0  0.00000000000E+00 -0.00000000000E+00 -0.21105019836E+02  0.21105019836E+02  0.00000000000E+00 0.  1.
         25    2    1    2    0    0  0.62831287055E+02 -0.29626847303E+02  0.32974894954E+03  0.35945221277E+03  0.12508398309E+03 0.  0.
          5    1    3    3  502    0  0.34419120421E+02 -0.20542906364E+02  0.32670170431E+03  0.32917801089E+03  0.41800000000E+01 0.  1.
         -5    1    3    3    0  502  0.28412166634E+02 -0.90839409391E+01  0.30472452277E+01  0.30274201877E+02  0.41800000000E+01 0.  1.
        -11    1    1    2    0    0 -0.66042669329E+02 -0.11336481508E+02  0.35880364426E+03  0.36500713023E+03  0.00000000000E+00 0. -1.
         11    1    1    2    0    0  0.32113822737E+01  0.40963328811E+02  0.13077104879E+03  0.13707433926E+03  0.00000000000E+00 0.  1.
</event>
<event>
 7    1  0.2788485E-009  0.2546206E+03  0.7561462E-02  0.1110419E+00
          1   -1    0    0  501    0  0.00000000000E+00  0.00000000000E+00  0.25758637183E+03  0.25758637183E+03  0.00000000000E+00 0. -1.
         -1   -1    0    0    0  501 -0.00000000000E+00 -0.00000000000E+00 -0.35692452393E+03  0.35692452393E+03  0.00000000000E+00 0.  1.
         25    2    1    2    0    0  0.90540970688E+02 -0.21937213478E+03 -0.20677277046E+03  0.33870992615E+03  0.12509050556E+03 0.  0.
          5    1    3    3  502    0  0.25224201844E+02 -0.17970305504E+03 -0.18491834650E+03  0.25911718511E+03  0.41800000000E+01 0.  1.
         -5    1    3    3    0  502  0.65316768843E+02 -0.39669079746E+02 -0.21854423958E+02  0.79592741042E+02  0.41800000000E+01 0.  1.
        -11    1    1    2    0    0 -0.44728629829E+02  0.19345693294E+03  0.67458524472E+02  0.20970667074E+03  0.00000000000E+00 0.  1.
         11    1    1    2    0    0 -0.45812340859E+02  0.25915201846E+02  0.39976093881E+02  0.66094298874E+02  0.00000000000E+00 0. -1.
</event>
<event>
 7    1  0.2788485E-009  0.1043646E+03  0.7561462E-02  0.1271377E+00
         -2   -1    0    0    0  501 -0.00000000000E+00  0.00000000000E+00  0.62091740822E+02  0.62091740822E+02  0.00000000000E+00 0.  1.
          2   -1    0    0  501    0  0.00000000000E+00 -0.00000000000E+00 -0.33847683068E+03  0.33847683068E+03  0.00000000000E+00 0. -1.
         25    2    1    2    0    0 -0.62653058548E+02 -0.36779964825E+02 -0.66999878885E+02  0.15941692360E+03  0.12508637097E+03 0.  0.
          5    1    3    3  502    0  0.23062509879E+02  0.14346193856E+02  0.13972298707E+02  0.30828398778E+02  0.41800000000E+01 0.  1.
         -5    1    3    3    0  502 -0.85715568427E+02 -0.51126158682E+02 -0.80972177592E+02  0.12858852482E+03  0.41800000000E+01 0.  1.
        -11    1    1    2    0    0  0.17363030511E+02  0.31223798265E+02 -0.10700685805E+02  0.37294839902E+02  0.00000000000E+00 0.  1.
         11    1    1    2    0    0  0.45290028037E+02  0.55561665609E+01 -0.19868452517E+03  0.20385680800E+03  0.00000000000E+00 0. -1.
</event>
<event>
 7    1  0.2788485E-009  0.1834157E+03  0.7561462E-02  0.1164538E+00
         -1   -1    0    0    0  501 -0.00000000000E+00  0.00000000000E+00  0.62572018689E+02  0.62572018689E+02  0.00000000000E+00 0.  1.
          1   -1    0    0  501    0  0.00000000000E+00 -0.00000000000E+00 -0.56012644240E+03  0.56012644240E+03  0.00000000000E+00 0. -1.
         25    2    1    2    0    0  0.53174763805E+02 -0.14343582653E+03 -0.27306976070E+03  0.33707022653E+03  0.12509137288E+03 0.  0.
          5    1    3    3  502    0  0.67430727397E+02 -0.16067740078E+03 -0.24899122015E+03  0.30393787232E+03  0.41800000000E+01 0. -1.
         -5    1    3    3    0  502 -0.14255963591E+02  0.17241574254E+02 -0.24078540544E+02  0.33132354208E+02  0.41800000000E+01 0. -1.
        -11    1    1    2    0    0 -0.39883338533E+02  0.18216777450E+02 -0.96946156473E+02  0.10640060586E+03  0.00000000000E+00 0. -1.
         11    1    1    2    0    0 -0.13291425272E+02  0.12521904907E+03 -0.12753850654E+03  0.17922762870E+03  0.00000000000E+00 0.  1.
</event>
<event>
 7    1  0.2788485E-009  0.1400596E+03  0.7561462E-02  0.1213249E+00
          2   -1    0    0  501    0  0.00000000000E+00  0.00000000000E+00  0.30970793975E+03  0.30970793975E+03  0.00000000000E+00 0. -1.
         -2   -1    0    0    0  501 -0.00000000000E+00 -0.00000000000E+00 -0.10021654552E+03  0.10021654552E+03  0.00000000000E+00 0.  1.
         25    2    1    2    0    0  0.98039294037E+02 -0.97374898539E+02  0.11621852766E+03  0.21965383435E+03  0.12508991458E+03 0.  0.
          5    1    3    3  502    0  0.96684249191E+02 -0.91349477623E+02  0.34342520109E+02  0.13743890348E+03  0.41800000000E+01 0. -1.
         -5    1    3    3    0  502  0.13550448463E+01 -0.60254209157E+01  0.81876007553E+02  0.82214930862E+02  0.41800000000E+01 0. -1.
        -11    1    1    2    0    0 -0.38097656850E+02  0.51706660566E+02  0.95258912467E+02  0.11488807862E+03  0.00000000000E+00 0. -1.
         11    1    1    2    0    0 -0.59941637187E+02  0.45668237973E+02 -0.19860459047E+01  0.75382572300E+02  0.00000000000E+00 0.  1.
</event>
<event>
 7    1  0.2788485E-009  0.1083760E+03  0.7561462E-02  0.1263607E+00
         -1   -1    0    0    0  501 -0.00000000000E+00  0.00000000000E+00  0.10105674521E+03  0.10105674521E+03  0.00000000000E+00 0.  1.
          1   -1    0    0  501    0  0.00000000000E+00 -0.00000000000E+00 -0.19211032851E+03  0.19211032851E+03  0.00000000000E+00 0. -1.
         25    2    1    2    0    0  0.43910941490E+01  0.76887589233E+02 -0.85891207038E+01  0.14714465336E+03  0.12508714135E+03 0.  0.
          5    1    3    3  502    0 -0.30945593978E+02 -0.23694959147E+01 -0.43427710898E+02  0.53541411743E+02  0.41800000000E+01 0. -1.
         -5    1    3    3    0  502  0.35336688127E+02  0.79257085147E+02  0.34838590195E+02  0.93603241614E+02  0.41800000000E+01 0. -1.
        -11    1    1    2    0    0  0.27730529034E+02 -0.23973504161E+02  0.69126377234E+01  0.37302757305E+02  0.00000000000E+00 0.  1.
         11    1    1    2    0    0 -0.32121623183E+02 -0.52914085072E+02 -0.89377100314E+02  0.10871966306E+03  0.00000000000E+00 0. -1.
</event>
<event>
 7    1  0.2788485E-009  0.8796781E+02  0.7561462E-02  0.1307849E+00
          4   -1    0    0  501    0  0.00000000000E+00  0.00000000000E+00  0.18353959027E+03  0.18353959027E+03  0.00000000000E+00 0. -1.
         -4   -1    0    0    0  501 -0.00000000000E+00 -0.00000000000E+00 -0.78807636617E+02  0.78807636617E+02  0.00000000000E+00 0.  1.
         25    2    1    2    0    0 -0.19547136036E+02  0.46278553538E+02  0.69636785842E+02  0.15172562687E+03  0.12509032281E+03 0.  0.
          5    1    3    3  502    0 -0.33856324826E+01  0.84138084627E+02  0.19163593885E+02  0.86460369665E+02  0.41800000000E+01 0.  1.
         -5    1    3    3    0  502 -0.16161503553E+02 -0.37859531089E+02  0.50473191957E+02  0.65265257202E+02  0.41800000000E+01 0.  1.
        -11    1    1    2    0    0  0.12398732673E+02 -0.27981552269E+02 -0.29861358034E+02  0.42759753775E+02  0.00000000000E+00 0.  1.
         11    1    1    2    0    0  0.71484033632E+01 -0.18297001269E+02  0.64956525842E+02  0.67861846243E+02  0.00000000000E+00 0. -1.
</event>
<event>
 7    1  0.2788485E-009  0.1685530E+03  0.7561462E-02  0.1179365E+00
          2   -1    0    0  501    0  0.00000000000E+00  0.00000000000E+00  0.56781842814E+03  0.56781842814E+03  0.00000000000E+00 0. -1.
         -2   -1    0    0    0  501 -0.00000000000E+00 -0.00000000000E+00 -0.53871413724E+02  0.53871413724E+02  0.00000000000E+00 0.  1.
         25    2    1    2    0    0  0.80138753585E+02 -0.10255079369E+03  0.34939722440E+03  0.39327488150E+03  0.12509127423E+03 0.  0.
          5    1    3    3  502    0  0.77591308261E+02  0.10924198016E+00  0.14647914391E+03  0.16581325355E+03  0.41800000000E+01 0.  1.
         -5    1    3    3    0  502  0.25474453246E+01 -0.10266003567E+03  0.20291808049E+03  0.22746162795E+03  0.41800000000E+01 0.  1.
        -11    1    1    2    0    0  0.17775699783E+02  0.29582417200E+02  0.23013930472E+02  0.41481753892E+02  0.00000000000E+00 0.  1.
         11    1    1    2    0    0 -0.97914453369E+02  0.72968376486E+02  0.14153585955E+03  0.18693320648E+03  0.00000000000E+00 0. -1.
</event>
<event>
 7    1  0.2788485E-009  0.1152775E+03  0.7561462E-02  0.1251097E+00
         -2   -1    0    0    0  501 -0.00000000000E+00  0.00000000000E+00  0.32960953951E+03  0.32960953951E+03  0.00000000000E+00 0.  1.
          2   -1    0    0  501    0  0.00000000000E+00 -0.00000000000E+00 -0.44957878271E+02  0.44957878271E+02  0.00000000000E+00 0. -1.
         25    2    1    2    0    0 -0.46225343101E+02 -0.18269542581E+02  0.19251802579E+03  0.23490654896E+03  0.12508931993E+03 0.  0.
          5    1    3    3  502    0  0.38872576536E+01  0.47891063921E+02  0.47071327882E+02  0.67393227287E+02  0.41800000000E+01 0. -1.
         -5    1    3    3    0  502 -0.50112600755E+02 -0.66160606502E+02  0.14544669790E+03  0.16751332167E+03  0.41800000000E+01 0. -1.
        -11    1    1    2    0    0  0.48204347151E+02  0.48820197206E+02  0.83057013217E+02  0.10772900345E+03  0.00000000000E+00 0.  1.
         11    1    1    2    0    0 -0.19790040492E+01 -0.30550654625E+02  0.90766222386E+01  0.31931865375E+02  0.00000000000E+00 0. -1.
</event>
<event>
 7    1  0.2788485E-009  0.7812547E+02  0.7561462E-02  0.1334457E+00
          2   -1    0    0  501    0  0.00000000000E+00  0.00000000000E+00  0.20895722160E+03  0.20895722160E+03  0.00000000000E+00 0. -1.
         -2   -1    0    0    0  501 -0.00000000000E+00 -0.00000000000E+00 -0.95478786090E+02  0.95478786090E+02  0.00000000000E+00 0.  1.
         25    2    1    2    0    0  0.44665979795E+02 -0.22667797329E+02  0.14128986175E+03  0.19523660779E+03  0.12508248959E+03 0.  0.
          5    1    3    3  502    0  0.49145011220E+02 -0.91750056905E+01 -0.29332165986E+01  0.50254243770E+02  0.41800000000E+01 0. -1.
         -5    1    3    3    0  502 -0.44790314249E+01 -0.13492791639E+02  0.14422307835E+03  0.14498236402E+03  0.41800000000E+01 0. -1.
        -11    1    1    2    0    0 -0.11577051198E+02  0.48135929788E+02 -0.42180721360E+02  0.65040826452E+02  0.00000000000E+00 0.  1.
         11    1    1    2    0    0 -0.33088928597E+02 -0.25468132459E+02  0.14369295120E+02  0.44158573448E+02  0.00000000000E+00 0. -1.
</event>
<event>
 7    1  0.2788485E-009  0.1616812E+03  0.7561462E-02  0.1186812E+00
         -1   -1    0    0    0  501 -0.00000000000E+00  0.00000000000E+00  0.13906478797E+03  0.13906478797E+03  0.00000000000E+00 0. -1.
          1   -1    0    0  501    0  0.00000000000E+00 -0.00000000000E+00 -0.28494356326E+03  0.28494356326E+03  0.00000000000E+00 0.  1.
         25    2    1    2    0    0 -0.11006730151E+03  0.11393769730E+02 -0.80931617067E+02  0.18558658929E+03  0.12509127321E+03 0.  0.
          5    1    3    3  502    0 -0.38077495533E+02 -0.43861278138E+02 -0.74434931737E+02  0.94507877178E+02  0.41800000000E+01 0. -1.
         -5    1    3    3    0  502 -0.71989805976E+02  0.55255047868E+02 -0.64966853304E+01  0.91078712110E+02  0.41800000000E+01 0. -1.
        -11    1    1    2    0    0  0.48997972125E+02  0.61857945151E+02  0.46614596712E+02  0.91652208251E+02  0.00000000000E+00 0.  1.
         11    1    1    2    0    0  0.61069329384E+02 -0.73251714881E+02 -0.11156175494E+03  0.14676955369E+03  0.00000000000E+00 0. -1.
</event>
<event>
 7    1  0.2788485E-009  0.1462729E+03  0.7561462E-02  0.1205129E+00
         -1   -1    0    0    0  501 -0.00000000000E+00  0.00000000000E+00  0.33840187851E+02  0.33840187851E+02  0.00000000000E+00 0.  1.
          1   -1    0    0  501    0  0.00000000000E+00 -0.00000000000E+00 -0.72485533560E+03  0.72485533560E+03  0.00000000000E+00 0. -1.
         25    2    1    2    0    0 -0.89009114770E+01 -0.10830617253E+03 -0.30343646713E+03  0.34573023683E+03  0.12508498646E+03 0.  0.
          5    1    3    3  502    0 -0.47029716112E+02 -0.13534821103E+02 -0.17392253741E+03  0.18072494847E+03  0.41800000000E+01 0.  1.
         -5    1    3    3    0  502  0.38128804635E+02 -0.94771351428E+02 -0.12951392973E+03  0.16500528836E+03  0.41800000000E+01 0.  1.
        -11    1    1    2    0    0 -0.40786695616E+02  0.52192041978E+02 -0.15356239019E+03  0.16723926413E+03  0.00000000000E+00 0.  1.
         11    1    1    2    0    0  0.49687607093E+02  0.56114130553E+02 -0.23401629043E+03  0.24572602249E+03  0.00000000000E+00 0. -1.
</event>
<event>
 7    1  0.2788485E-009  0.3968684E+03  0.7561462E-02  0.1044869E+00
         -2   -1    0    0    0  501 -0.00000000000E+00  0.00000000000E+00  0.24098281570E+03  0.24098281570E+03  0.00000000000E+00 0.  1.
          2   -1    0    0  501    0  0.00000000000E+00 -0.00000000000E+00 -0.73533850685E+03  0.73533850685E+03  0.00000000000E+00 0. -1.
         25    2    1    2    0    0 -0.57756220841E+02  0.38611542937E+03 -0.38126537894E+03  0.55984935169E+03  0.12508837504E+03 0.  0.
          5    1    3    3  502    0 -0.66291588763E+01  0.31697123695E+03 -0.25431394059E+03  0.40645757907E+03  0.41800000000E+01 0.  1.
         -5    1    3    3    0  502 -0.51127061965E+02  0.69144192413E+02 -0.12695143835E+03  0.15339177263E+03  0.41800000000E+01 0.  1.
        -11    1    1    2    0    0  0.29159944377E+02 -0.23223357332E+03 -0.11311136604E+03  0.25995560402E+03  0.00000000000E+00 0. -1.
         11    1    1    2    0    0  0.28596276464E+02 -0.15388185605E+03  0.21053830726E-01  0.15651636685E+03  0.00000000000E+00 0.  1.
</event>
<event>
 7    1  0.2788485E-009  0.1001556E+03  0.7561462E-02  0.1279969E+00
         -2   -1    0    0    0  501 -0.00000000000E+00  0.00000000000E+00  0.33159654242E+03  0.33159654242E+03  0.00000000000E+00 0.  1.
          2   -1    0    0  501    0  0.00000000000E+00 -0.00000000000E+00 -0.58193627781E+02  0.58193627781E+02  0.00000000000E+00 0. -1.
         25    2    1    2    0    0 -0.30078190608E+02 -0.81427446412E+02  0.14809583800E+03  0.21240889532E+03  0.12510009991E+03 0.  0.
          5    1    3    3  502    0  0.15950439752E+02 -0.47538304710E+02 -0.34033751475E+01  0.50431758896E+02  0.41800000000E+01 0. -1.
         -5    1    3    3    0  502 -0.46028630360E+02 -0.33889141701E+02  0.15149921315E+03  0.16197713642E+03  0.41800000000E+01 0. -1.
        -11    1    1    2    0    0  0.33982747632E+02  0.46802065999E+02  0.12310097201E+02  0.59133738352E+02  0.00000000000E+00 0. -1.
         11    1    1    2    0    0 -0.39045570239E+01  0.34625380413E+02  0.11299697944E+03  0.11824753653E+03  0.00000000000E+00 0.  1.
</event>
<event>
 7    1  0.2788485E-009  0.1474692E+03  0.7561462E-02  0.1203618E+00
         -2   -1    0    0    0  501 -0.00000000000E+00  0.00000000000E+00  0.27153222212E+03  0.27153222212E+03  0.00000000000E+00 0.  1.
          2   -1    0    0  501    0  0.00000000000E+00 -0.00000000000E+00 -0.11356254399E+03  0.11356254399E+03  0.00000000000E+00 0. -1.
         25    2    1    2    0    0 -0.67308725799E+02  0.92992435137E+02 -0.32635440674E+01  0.16981397137E+03  0.12509227231E+03 0.  0.
          5    1    3    3  502    0  0.21993793431E+02 -0.30272718995E+01  0.26968550322E+02  0.35180483668E+02  0.41800000000E+01 0.  1.
         -5    1    3    3    0  502 -0.89302519230E+02  0.96019707036E+02 -0.30232094389E+02  0.13463348770E+03  0.41800000000E+01 0.  1.
        -11    1    1    2    0    0  0.68246193623E+02 -0.24285382916E+02  0.98265038163E+02  0.12207923858E+03  0.00000000000E+00 0.  1.
         11    1    1    2    0    0 -0.93746782476E+00 -0.68707052221E+02  0.62968184028E+02  0.93201556160E+02  0.00000000000E+00 0. -1.
</event>
<event>
 7    1  0.2788485E-009  0.1349972E+03  0.7561462E-02  0.1220224E+00
          2   -1    0    0  501    0  0.00000000000E+00  0.00000000000E+00  0.81754183087E+02  0.81754183087E+02  0.00000000000E+00 0. -1.
         -2   -1    0    0    0  501 -0.00000000000E+00 -0.00000000000E+00 -0.28936428918E+03  0.28936428918E+03  0.00000000000E+00 0.  1.
         25    2    1    2    0    0  0.53832911945E+02 -0.72933344422E+02 -0.40849397191E+02  0.15979245177E+03  0.12509076406E+03 0.  0.
          5    1    3    3  502    0 -0.19147495499E+02 -0.77224085891E+02 -0.32673316097E+02  0.86111578840E+02  0.41800000000E+01 0.  1.
         -5    1    3    3    0  502  0.72980407444E+02  0.42907414686E+01 -0.81760810947E+01  0.73680872925E+02  0.41800000000E+01 0.  1.
        -11    1    1    2    0    0 -0.43510172297E+02  0.88384718332E+02 -0.16562539484E+03  0.19270901625E+03  0.00000000000E+00 0.  1.
         11    1    1    2    0    0 -0.10322739648E+02 -0.15451373910E+02 -0.11353140689E+01  0.18617004259E+02  0.00000000000E+00 0. -1.
</event>
<event>
 7    1  0.2788485E-009  0.9928084E+02  0.7561462E-02  0.1281816E+00
         -1   -1    0    0    0  501 -0.00000000000E+00  0.00000000000E+00  0.42799359154E+02  0.42799359154E+02  0.00000000000E+00 0.  1.
          1   -1    0    0  501    0  0.00000000000E+00 -0.00000000000E+00 -0.43663898800E+03  0.43663898800E+03  0.00000000000E+00 0. -1.
         25    2    1    2    0    0  0.54468100798E+02  0.43183764963E+02 -0.29724804502E+03  0.32990205504E+03  0.12508938439E+03 0.  0.
          5    1    3    3  502    0  0.22788180521E+02  0.76767553767E+02 -0.10485107051E+03  0.13199915860E+03  0.41800000000E+01 0. -1.
         -5    1    3    3    0  502  0.31679920277E+02 -0.33583788804E+02 -0.19239697451E+03  0.19790289644E+03  0.41800000000E+01 0. -1.
        -11    1    1    2    0    0 -0.59990336716E+01 -0.14511450035E+02 -0.91671919179E+02  0.93007050018E+02  0.00000000000E+00 0. -1.
         11    1    1    2    0    0 -0.48469067127E+02 -0.28672314928E+02 -0.49196646417E+01  0.56529242094E+02  0.00000000000E+00 0.  1.
</event>
<event>
 7    1  0.2788485E-009  0.8611772E+02  0.7561462E-02  0.1312535E+00
         -2   -1    0    0    0  501 -0.00000000000E+00  0.00000000000E+00  0.25299106386E+03  0.25299106386E+03  0.00000000000E+00 0.  1.
          2   -1    0    0  501    0  0.00000000000E+00 -0.00000000000E+00 -0.42806578626E+02  0.42806578626E+02  0.00000000000E+00 0. -1.
         25    2    1    2    0    0  0.33696726923E+02 -0.20706577008E+02  0.16228767014E+03  0.20868342737E+03  0.12508898130E+03 0.  0.
          5    1    3    3  502    0 -0.37609847649E+02 -0.36703431259E+02  0.40049697081E+02  0.66204932918E+02  0.41800000000E+01 0.  1.
         -5    1    3    3    0  502  0.71306574572E+02  0.15996854251E+02  0.12223797306E+03  0.14247849445E+03  0.41800000000E+01 0.  1.
        -11    1    1    2    0    0 -0.20236427884E+02  0.25025381747E+02 -0.48132256677E+01  0.32541510205E+02  0.00000000000E+00 0. -1.
         11    1    1    2    0    0 -0.13460299039E+02 -0.43188047389E+01  0.52710040764E+02  0.54572704917E+02  0.00000000000E+00 0.  1.
</event>
<event>
 7    1  0.2788485E-009  0.1452293E+03  0.7561462E-02  0.1206461E+00
          2   -1    0    0  501    0  0.00000000000E+00  0.00000000000E+00  0.39924466415E+03  0.39924466415E+03  0.00000000000E+00 0. -1.
         -2   -1    0    0    0  501 -0.00000000000E+00 -0.00000000000E+00 -0.71357279496E+02  0.71357279496E+02  0.00000000000E+00 0.  1.
         25    2    1    2    0    0 -0.11316672270E+03 -0.32938907267E+02  0.10418673218E+03  0.20098683028E+03  0.12509657088E+03 0.  0.
          5    1    3    3  502    0  0.87121191163E+01 -0.22569252057E+02  0.69599958596E+02  0.73803108298E+02  0.41800000000E+01 0.  1.
         -5    1    3    3    0  502 -0.12187884181E+03 -0.10369655211E+02  0.34586773584E+02  0.12718372199E+03  0.41800000000E+01 0.  1.
        -11    1    1    2    0    0  0.19142719191E+02  0.44828235328E+02  0.11787219262E+03  0.12755339342E+03  0.00000000000E+00 0. -1.
         11    1    1    2    0    0  0.94024003506E+02 -0.11889328061E+02  0.10582845985E+03  0.14206171994E+03  0.00000000000E+00 0.  1.
</event>
<event>
 7    1  0.2788485E-009  0.1369083E+03  0.7561462E-02  0.1217551E+00
         -1   -1    0    0    0  501 -0.00000000000E+00  0.00000000000E+00  0.37446291251E+02  0.37446291251E+02  0.00000000000E+00 0.  1.
          1   -1    0    0  501    0  0.00000000000E+00 -0.00000000000E+00 -0.63610061712E+03  0.63610061712E+03  0.00000000000E+00 0. -1.
         25    2    1    2    0    0  0.74327641849E+02 -0.36901280224E+02 -0.46189208631E+03  0.48567335060E+03  0.12509197120E+03 0.  0.
          5    1    3    3  502    0 -0.33282578273E+02 -0.18594119438E+02 -0.84631882703E+02  0.92916625337E+02  0.41800000000E+01 0.  1.
         -5    1    3    3    0  502  0.10761022012E+03 -0.18307160786E+02 -0.37726020361E+03  0.39275672526E+03  0.41800000000E+01 0.  1.
        -11    1    1    2    0    0 -0.32668055910E+02 -0.31987931791E+02 -0.68313752874E+02  0.82202180561E+02  0.00000000000E+00 0.  1.
         11    1    1    2    0    0 -0.41659585939E+02  0.68889212015E+02 -0.68448486683E+02  0.10567137721E+03  0.00000000000E+00 0. -1.
</event>
<event>
 7    1  0.2788485E-009  0.1200762E+03  0.7561462E-02  0.1242971E+00
          2   -1    0    0  501    0  0.00000000000E+00  0.00000000000E+00  0.51316191516E+03  0.51316191516E+03  0.00000000000E+00 0. -1.
         -2   -1    0    0    0  501 -0.00000000000E+00 -0.00000000000E+00 -0.52007406176E+02  0.52007406176E+02  0.00000000000E+00 0.  1.
         25    2    1    2    0    0  0.26515923466E+01  0.10493061077E+03  0.35612354733E+03  0.39177610191E+03  0.12508824505E+03 0.  0.
          5    1    3    3  502    0 -0.14116631019E+02  0.93040977059E+02  0.35849663075E+03  0.37066589989E+03  0.41800000000E+01 0. -1.
         -5    1    3    3    0  502  0.16768223366E+02  0.11889633708E+02 -0.23730834193E+01  0.21110202024E+02  0.41800000000E+01 0. -1.
        -11    1    1    2    0    0  0.32174384540E+02 -0.40373499053E+02  0.81285095096E+02  0.96293702448E+02  0.00000000000E+00 0.  1.
         11    1    1    2    0    0 -0.34825976886E+02 -0.64557111715E+02  0.23745866559E+02  0.77099516974E+02  0.00000000000E+00 0. -1.
</event>
<event>
 7    1  0.2788485E-009  0.1131121E+03  0.7561462E-02  0.1254913E+00
         -2   -1    0    0    0  501 -0.00000000000E+00  0.00000000000E+00  0.20665731304E+03  0.20665731304E+03  0.00000000000E+00 0.  1.
          2   -1    0    0  501    0  0.00000000000E+00 -0.00000000000E+00 -0.70562309280E+02  0.70562309280E+02  0.00000000000E+00 0. -1.
         25    2    1    2    0    0  0.51794728337E+02  0.56130042794E+01  0.86129376778E+02  0.16056380929E+03  0.12509303581E+03 0.  0.
          5    1    3    3  502    0  0.82727749201E+02 -0.29801544921E+02  0.51183785594E+02  0.10182958743E+03  0.41800000000E+01 0. -1.
         -5    1    3    3    0  502 -0.30933020864E+02  0.35414549201E+02  0.34945591185E+02  0.58734221865E+02  0.41800000000E+01 0. -1.
        -11    1    1    2    0    0 -0.53719123971E+02  0.25744402406E+02  0.59126228734E+02  0.83931099479E+02  0.00000000000E+00 0.  1.
         11    1    1    2    0    0  0.19243956338E+01 -0.31357406685E+02 -0.91606017507E+01  0.32724713551E+02  0.00000000000E+00 0. -1.
</event>
<event>
 7    1  0.2788485E-009  0.1549933E+03  0.7561462E-02  0.1194468E+00
          2   -1    0    0  501    0  0.00000000000E+00  0.00000000000E+00  0.84712587333E+03  0.84712587333E+03  0.00000000000E+00 0.  1.
         -2   -1    0    0    0  501 -0.00000000000E+00 -0.00000000000E+00 -0.32378998413E+02  0.32378998413E+02  0.00000000000E+00 0. -1.
         25    2    1    2    0    0  0.13093681186E+02 -0.12078079506E+03  0.49905223784E+03  0.52864264818E+03  0.12510183230E+03 0.  0.
          5    1    3    3  502    0 -0.14410763266E+02  0.23233574683E+02  0.83893279733E+02  0.88334726325E+02  0.41800000000E+01 0.  1.
         -5    1    3    3    0  502  0.27504444452E+02 -0.14401436975E+03  0.41515895810E+03  0.44030792186E+03  0.41800000000E+01 0.  1.
        -11    1    1    2    0    0  0.10543894731E+02  0.10850681770E+03  0.30166345910E+03  0.32075807981E+03  0.00000000000E+00 0.  1.
         11    1    1    2    0    0 -0.23637575917E+02  0.12273977361E+02  0.14031177976E+02  0.30104143749E+02  0.00000000000E+00 0. -1.
</event>
<event>
 7    1  0.2788485E-009  0.1169803E+03  0.7561462E-02  0.1248163E+00
          1   -1    0    0  501    0  0.00000000000E+00  0.00000000000E+00  0.34675863341E+03  0.34675863341E+03  0.00000000000E+00 0. -1.
         -1   -1    0    0    0  501 -0.00000000000E+00 -0.00000000000E+00 -0.43176315733E+02  0.43176315733E+02  0.00000000000E+00 0.  1.
         25    2    1    2    0    0  0.32616385459E+02  0.47107650701E+02  0.17137732273E+03  0.21977518994E+03  0.12509191825E+03 0.  0.
          5    1    3    3  502    0 -0.27747749197E+02 -0.27428197746E+02  0.32533235621E+02  0.50971829838E+02  0.41800000000E+01 0.  1.
         -5    1    3    3    0  502  0.60364134656E+02  0.74535848447E+02  0.13884408711E+03  0.16880336010E+03  0.41800000000E+01 0.  1.
        -11    1    1    2    0    0 -0.59479335360E+02 -0.36806522077E+02  0.12002149430E+03  0.13891605558E+03  0.00000000000E+00 0. -1.
         11    1    1    2    0    0  0.26862949901E+02 -0.10301128624E+02  0.12183500643E+02  0.31243703625E+02  0.00000000000E+00 0.  1.
</event>
<event>
 7    1  0.2788485E-009  0.1401790E+03  0.7561462E-02  0.1213088E+00
         -1   -1    0    0    0  501 -0.00000000000E+00  0.00000000000E+00  0.16536851673E+03  0.16536851673E+03  0.00000000000E+00 0.  1.
          1   -1    0    0  501    0  0.00000000000E+00 -0.00000000000E+00 -0.19669350851E+03  0.19669350851E+03  0.00000000000E+00 0. -1.
         25    2    1    2    0    0 -0.77671689247E+02  0.10368456636E+03  0.45690072580E+02  0.18579457897E+03  0.12509461311E+03 0.  0.
          5    1    3    3  502    0  0.74661230679E+01  0.26260199717E+02  0.63523390526E+02  0.69267846991E+02  0.41800000000E+01 0. -1.
         -5    1    3    3    0  502 -0.85137812315E+02  0.77424366642E+02 -0.17833317946E+02  0.11652673197E+03  0.41800000000E+01 0. -1.
        -11    1    1    2    0    0  0.30162437016E+02 -0.77887055109E+02 -0.87755439526E+02  0.12114942479E+03  0.00000000000E+00 0. -1.
         11    1    1    2    0    0  0.47509252231E+02 -0.25797511250E+02  0.10740375161E+02  0.55118021489E+02  0.00000000000E+00 0.  1.
</event>
<event>
 7    1  0.2788485E-009  0.1198165E+03  0.7561462E-02  0.1243400E+00
          1   -1    0    0  501    0  0.00000000000E+00  0.00000000000E+00  0.70024970971E+03  0.70024970971E+03  0.00000000000E+00 0. -1.
         -1   -1    0    0    0  501 -0.00000000000E+00 -0.00000000000E+00 -0.22866519935E+02  0.22866519935E+02  0.00000000000E+00 0.  1.
         25    2    1    2    0    0  0.52373914802E+02 -0.39510170453E+02  0.33842034093E+03  0.36671555239E+03  0.12509152127E+03 0.  0.
          5    1    3    3  502    0  0.80222619935E+02 -0.58295846630E+02  0.18865234784E+03  0.21316954573E+03  0.41800000000E+01 0.  1.
         -5    1    3    3    0  502 -0.27848705133E+02  0.18785676178E+02  0.14976799309E+03  0.15354600666E+03  0.41800000000E+01 0.  1.
        -11    1    1    2    0    0 -0.75201847438E+02  0.24042003780E+02  0.20605979858E+03  0.22066711671E+03  0.00000000000E+00 0.  1.
         11    1    1    2    0    0  0.22827932636E+02  0.15468166672E+02  0.13290305027E+03  0.13573356055E+03  0.00000000000E+00 0. -1.
</event>
<event>
 7    1  0.2788485E-009  0.3785266E+03  0.7561462E-02  0.1051480E+00
         -2   -1    0    0    0  501 -0.00000000000E+00  0.00000000000E+00  0.20684687833E+03  0.20684687833E+03  0.00000000000E+00 0.  1.
          2   -1    0    0  501    0  0.00000000000E+00 -0.00000000000E+00 -0.73482224530E+03  0.73482224530E+03  0.00000000000E+00 0. -1.
         25    2    1    2    0    0 -0.34741429488E+03 -0.11550894626E+03 -0.17320923847E+03  0.42389682652E+03  0.12509224712E+03 0.  0.
          5    1    3    3  502    0 -0.21527932689E+03 -0.63240615269E+01 -0.98667627352E+02  0.23693449607E+03  0.41800000000E+01 0. -1.
         -5    1    3    3    0  502 -0.13213496799E+03 -0.10918488473E+03 -0.74541611122E+02  0.18696233045E+03  0.41800000000E+01 0. -1.
        -11    1    1    2    0    0  0.23047631885E+03  0.48914262089E+02 -0.27170084669E+03  0.35962937683E+03  0.00000000000E+00 0. -1.
         11    1    1    2    0    0  0.11693797603E+03  0.66594684168E+02 -0.83065281801E+02  0.15814292029E+03  0.00000000000E+00 0.  1.
</event>
<event>
 7    1  0.2788485E-009  0.1549474E+03  0.7561462E-02  0.1194522E+00
         -2   -1    0    0    0  501 -0.00000000000E+00  0.00000000000E+00  0.17713176847E+02  0.17713176847E+02  0.00000000000E+00 0.  1.
          2   -1    0    0  501    0  0.00000000000E+00 -0.00000000000E+00 -0.16359902830E+04  0.16359902830E+04  0.00000000000E+00 0. -1.
         25    2    1    2    0    0 -0.11488193164E+03  0.41186713518E+02 -0.10761461225E+04  0.10902442344E+04  0.12509120651E+03 0.  0.
          5    1    3    3  502    0 -0.65100359608E+02 -0.32450132246E+02 -0.69691999384E+03  0.70071821592E+03  0.41800000000E+01 0. -1.
         -5    1    3    3    0  502 -0.49781572030E+02  0.73636845765E+02 -0.37922612869E+03  0.38952601845E+03  0.41800000000E+01 0. -1.
        -11    1    1    2    0    0  0.81694754132E+02  0.14745264505E+02 -0.22740320827E+03  0.24208195887E+03  0.00000000000E+00 0.  1.
         11    1    1    2    0    0  0.33187177506E+02 -0.55931978023E+02 -0.31472777538E+03  0.32137726664E+03  0.00000000000E+00 0. -1.
</event>
<event>
 7    1  0.2788485E-009  0.1254577E+03  0.7561462E-02  0.1234356E+00
         -1   -1    0    0    0  501 -0.00000000000E+00  0.00000000000E+00  0.28583116702E+03  0.28583116702E+03  0.00000000000E+00 0.  1.
          1   -1    0    0  501    0  0.00000000000E+00 -0.00000000000E+00 -0.67979382378E+02  0.67979382378E+02  0.00000000000E+00 0. -1.
         25    2    1    2    0    0  0.10364622757E+01 -0.89787336135E+02  0.13020093724E+03  0.20164935915E+03  0.12508932810E+03 0.  0.
          5    1    3    3  502    0 -0.13165979341E+02 -0.11955399925E+03  0.10772229359E+03  0.16151800731E+03  0.41800000000E+01 0. -1.
         -5    1    3    3    0  502  0.14202441617E+02  0.29766663112E+02  0.22478643650E+02  0.40131351847E+02  0.41800000000E+01 0. -1.
        -11    1    1    2    0    0 -0.19274083755E+02  0.48173623174E+02 -0.17085516089E+01  0.51914424035E+02  0.00000000000E+00 0. -1.
         11    1    1    2    0    0  0.18237621479E+02  0.41613712962E+02  0.89359399009E+02  0.10024676621E+03  0.00000000000E+00 0.  1.
</event>
<event>
 7    1  0.4229700E-009  0.1180490E+03  0.7561462E-02  0.1246351E+00
          1   -1    0    0  501    0  0.00000000000E+00  0.00000000000E+00  0.13345812098E+03  0.13345812098E+03  0.00000000000E+00 0. -1.
         -1   -1    0    0    0  501 -0.00000000000E+00 -0.00000000000E+00 -0.15637955026E+03  0.15637955026E+03  0.00000000000E+00 0.  1.
         25    2    1    2    0    0 -0.89653028108E+02  0.30016571860E+02 -0.19472651320E+02  0.15800623328E+03  0.12509246808E+03 0.  0.
          5    1    3    3  502    0 -0.81197351562E+02  0.49320574368E+02  0.33515418346E+02  0.10082799524E+03  0.41800000000E+01 0.  1.
         -5    1    3    3    0  502 -0.84556765459E+01 -0.19304002508E+02 -0.52988069665E+02  0.57178238041E+02  0.41800000000E+01 0.  1.
        -11    1    1    2    0    0  0.91330762663E+02 -0.18991057320E+01 -0.26846475843E+02  0.95213696895E+02  0.00000000000E+00 0.  1.
         11    1    1    2    0    0 -0.16777345549E+01 -0.28117466128E+02  0.23397697878E+02  0.36617741065E+02  0.00000000000E+00 0. -1.
</event>
<event>
 7    1  0.2788485E-009  0.1012040E+03  0.7561462E-02  0.1277784E+00
         -3   -1    0    0    0  501 -0.00000000000E+00  0.00000000000E+00  0.42120026030E+03  0.42120026030E+03  0.00000000000E+00 0.  1.
          3   -1    0    0  501    0  0.00000000000E+00 -0.00000000000E+00 -0.41893286751E+02  0.41893286751E+02  0.00000000000E+00 0. -1.
         25    2    1    2    0    0 -0.64840231604E+02  0.83420896459E+01  0.14066220845E+03  0.19927063365E+03  0.12509629274E+03 0.  0.
          5    1    3    3  502    0 -0.21878707697E+02  0.39006022439E+02 -0.41239560819E+01  0.45106840399E+02  0.41800000000E+01 0. -1.
         -5    1    3    3    0  502 -0.42961523907E+02 -0.30663932793E+02  0.14478616453E+03  0.15416379325E+03  0.41800000000E+01 0. -1.
        -11    1    1    2    0    0  0.79821139945E+02  0.10458240419E+02  0.21708802137E+03  0.23153401088E+03  0.00000000000E+00 0. -1.
         11    1    1    2    0    0 -0.14980908342E+02 -0.18800330065E+02  0.21556743732E+02  0.32288902515E+02  0.00000000000E+00 0.  1.
</event>
<event>
 7    1  0.2788485E-009  0.1113005E+03  0.7561462E-02  0.1258180E+00
         -1   -1    0    0    0  501 -0.00000000000E+00  0.00000000000E+00  0.84812930960E+02  0.84812930960E+02  0.00000000000E+00 0.  1.
          1   -1    0    0  501    0  0.00000000000E+00 -0.00000000000E+00 -0.26838497186E+03  0.26838497186E+03  0.00000000000E+00 0. -1.
         25    2    1    2    0    0 -0.12896613135E+02 -0.10222478685E+03 -0.12112243118E+03  0.20232349949E+03  0.12509166813E+03 0.  0.
          5    1    3    3  502    0  0.17469981622E+02 -0.77730215650E+02 -0.52086091085E+01  0.79948662851E+02  0.41800000000E+01 0.  1.
         -5    1    3    3    0  502 -0.30366594757E+02 -0.24494571197E+02 -0.11591382207E+03  0.12237483664E+03  0.41800000000E+01 0.  1.
        -11    1    1    2    0    0  0.31206238941E+01  0.65705407761E+02  0.12475247703E+02  0.66952003015E+02  0.00000000000E+00 0.  1.
         11    1    1    2    0    0  0.97759892410E+01  0.36519379086E+02 -0.74924857420E+02  0.83922400310E+02  0.00000000000E+00 0. -1.
</event>
<event>
 7    1  0.2788485E-009  0.1330619E+03  0.7561462E-02  0.1222982E+00
          1   -1    0    0  501    0  0.00000000000E+00  0.00000000000E+00  0.98213050826E+02  0.98213050826E+02  0.00000000000E+00 0. -1.
         -1   -1    0    0    0  501 -0.00000000000E+00 -0.00000000000E+00 -0.20826757250E+03  0.20826757250E+03  0.00000000000E+00 0.  1.
         25    2    1    2    0    0  0.71624906183E+02  0.38274223377E+02 -0.10641606712E+03  0.18321964791E+03  0.12510002670E+03 0.  0.
          5    1    3    3  502    0  0.10318017884E+03  0.15470033017E+02 -0.97928918416E+02  0.14315382178E+03  0.41800000000E+01 0.  1.
         -5    1    3    3    0  502 -0.31555272660E+02  0.22804190360E+02 -0.84871486997E+01  0.40065826132E+02  0.41800000000E+01 0.  1.
        -11    1    1    2    0    0 -0.62677653107E+02  0.18282730239E+02  0.44066982067E+01  0.65438256495E+02  0.00000000000E+00 0. -1.
         11    1    1    2    0    0 -0.89472530758E+01 -0.56556953616E+02 -0.80451527618E+01  0.57822718916E+02  0.00000000000E+00 0.  1.
</event>
<event>
 7    1  0.2788485E-009  0.8104301E+02  0.7561462E-02  0.1326117E+00
          2   -1    0    0  501    0  0.00000000000E+00  0.00000000000E+00  0.71290201287E+02  0.71290201287E+02  0.00000000000E+00 0. -1.
         -2   -1    0    0    0  501 -0.00000000000E+00 -0.00000000000E+00 -0.19789670507E+03  0.19789670507E+03  0.00000000000E+00 0.  1.
         25    2    1    2    0    0 -0.29182761106E+01 -0.20390825579E+02 -0.26371250900E+02  0.12948588970E+03  0.12508737208E+03 0.  0.
          5    1    3    3  502    0  0.20407689958E+02 -0.65586374517E+02  0.59630738640E+01  0.69072983008E+02  0.41800000000E+01 0. -1.
         -5    1    3    3    0  502 -0.23325966068E+02  0.45195548939E+02 -0.32334324764E+02  0.60412906691E+02  0.41800000000E+01 0. -1.
        -11    1    1    2    0    0  0.19156809857E+02  0.17083180228E+02 -0.11480238264E+03  0.11763675221E+03  0.00000000000E+00 0.  1.
         11    1    1    2    0    0 -0.16238533746E+02  0.33076453506E+01  0.14567129761E+02  0.22064264444E+02  0.00000000000E+00 0. -1.
</event>
<event>
 7    1  0.2788485E-009  0.9505657E+02  0.7561462E-02  0.1291049E+00
          3   -1    0    0  501    0  0.00000000000E+00  0.00000000000E+00  0.57632106498E+03  0.57632106498E+03  0.00000000000E+00 0. -1.
         -3   -1    0    0    0  501 -0.00000000000E+00 -0.00000000000E+00 -0.24997452653E+02  0.24997452653E+02  0.00000000000E+00 0.  1.
         25    2    1    2    0    0 -0.19292703249E+02 -0.51126816438E+02  0.32001835151E+03  0.34791516398E+03  0.12508819395E+03 0.  0.
          5    1    3    3  502    0  0.25935991411E+02 -0.27500990834E+02  0.28095153989E+03  0.28351405665E+03  0.41800000000E+01 0. -1.
         -5    1    3    3    0  502 -0.45228694660E+02 -0.23625825604E+02  0.39066811621E+02  0.64401107338E+02  0.41800000000E+01 0. -1.
        -11    1    1    2    0    0  0.21162936249E+01  0.73022650803E+02  0.19035751697E+03  0.20389401780E+03  0.00000000000E+00 0. -1.
         11    1    1    2    0    0  0.17176409624E+02 -0.21895834365E+02  0.40947743840E+02  0.49509335844E+02  0.00000000000E+00 0.  1.
</event>
<event>
 7    1  0.2788485E-009  0.1430524E+03  0.7561462E-02  0.1209280E+00
          1   -1    0    0  501    0  0.00000000000E+00  0.00000000000E+00  0.86986832087E+02  0.86986832087E+02  0.00000000000E+00 0. -1.
         -1   -1    0    0    0  501 -0.00000000000E+00 -0.00000000000E+00 -0.38548593081E+03  0.38548593081E+03  0.00000000000E+00 0.  1.
         25    2    1    2    0    0  0.53158965161E+02 -0.11822024902E+03 -0.67045722596E+02  0.19220870774E+03  0.12508859083E+03 0.  0.
          5    1    3    3  502    0  0.28017350381E+02 -0.10751065286E+03 -0.99761552550E+02  0.14937654490E+03  0.41800000000E+01 0. -1.
         -5    1    3    3    0  502  0.25141614780E+02 -0.10709596170E+02  0.32715829953E+02  0.42832162838E+02  0.41800000000E+01 0. -1.
        -11    1    1    2    0    0 -0.63609787059E+02  0.57754796457E+02 -0.82272652881E+02  0.11895634046E+03  0.00000000000E+00 0.  1.
         11    1    1    2    0    0  0.10450821898E+02  0.60465452568E+02 -0.14918072325E+03  0.16130771470E+03  0.00000000000E+00 0. -1.
</event>
<event>
 7    1  0.2788485E-009  0.7467057E+02  0.7561462E-02  0.1344894E+00
         -1   -1    0    0    0  501 -0.00000000000E+00  0.00000000000E+00  0.45426197349E+03  0.45426197349E+03  0.00000000000E+00 0.  1.
          1   -1    0    0  501    0  0.00000000000E+00 -0.00000000000E+00 -0.23019630437E+02  0.23019630437E+02  0.00000000000E+00 0. -1.
         25    2    1    2    0    0  0.82640286762E+01 -0.19622727420E+01  0.22142676153E+03  0.25446111835E+03  0.12509398606E+03 0.  0.
          5    1    3    3  502    0 -0.25275939457E+02 -0.30157343251E+02  0.20287112898E+03  0.20669423273E+03  0.41800000000E+01 0.  1.
         -5    1    3    3    0  502  0.33539968134E+02  0.28195070509E+02  0.18555632546E+02  0.47766885628E+02  0.41800000000E+01 0.  1.
        -11    1    1    2    0    0  0.27550100560E+02  0.95272653861E+01  0.14911104560E+03  0.15193380383E+03  0.00000000000E+00 0.  1.
         11    1    1    2    0    0 -0.35814129236E+02 -0.75649926441E+01  0.60704535927E+02  0.70886681744E+02  0.00000000000E+00 0. -1.
</event>
<event>
 7    1  0.2788485E-009  0.1391338E+03  0.7561462E-02  0.1214499E+00
          2   -1    0    0  501    0  0.00000000000E+00  0.00000000000E+00  0.18719707188E+03  0.18719707188E+03  0.00000000000E+00 0.  1.
         -2   -1    0    0    0  501 -0.00000000000E+00 -0.00000000000E+00 -0.12787116145E+03  0.12787116145E+03  0.00000000000E+00 0. -1.
         25    2    1    2    0    0  0.49180854863E+02  0.90200250137E+02  0.74226650314E+02  0.17807867674E+03  0.12509027892E+03 0.  0.
          5    1    3    3  502    0  0.56102183364E+02 -0.12769793465E+02  0.35692284625E+02  0.67837557334E+02  0.41800000000E+01 0. -1.
         -5    1    3    3    0  502 -0.69213285011E+01  0.10297004360E+03  0.38534365690E+02  0.11024111940E+03  0.41800000000E+01 0. -1.
        -11    1    1    2    0    0 -0.58882044520E+02 -0.54277155754E+02  0.23559361281E+02  0.83475435354E+02  0.00000000000E+00 0.  1.
         11    1    1    2    0    0  0.97011896575E+01 -0.35923094383E+02 -0.38460101160E+02  0.53514121240E+02  0.00000000000E+00 0. -1.
</event>
<event>
 7    1  0.2788485E-009  0.1077249E+03  0.7561462E-02  0.1264842E+00
         -4   -1    0    0    0  501 -0.00000000000E+00  0.00000000000E+00  0.30273753323E+03  0.30273753323E+03  0.00000000000E+00 0.  1.
          4   -1    0    0  501    0  0.00000000000E+00 -0.00000000000E+00 -0.50668311931E+02  0.50668311931E+02  0.00000000000E+00 0. -1.
         25    2    1    2    0    0 -0.27283767234E+02  0.45565614907E+02  0.18298603530E+03  0.22792980344E+03  0.12508987555E+03 0.  0.
          5    1    3    3  502    0 -0.62929191978E+02  0.16472556493E+02  0.37316588934E+02  0.75109443681E+02  0.41800000000E+01 0.  1.
         -5    1    3    3    0  502  0.35645424743E+02  0.29093058414E+02  0.14566944636E+03  0.15282035976E+03  0.41800000000E+01 0.  1.
        -11    1    1    2    0    0  0.56540716898E+02 -0.90262462222E+01  0.30861168081E+02  0.65044119516E+02  0.00000000000E+00 0. -1.
         11    1    1    2    0    0 -0.29256949664E+02 -0.36539368685E+02  0.38222017917E+02  0.60431922203E+02  0.00000000000E+00 0.  1.
</event>
<event>
 7    1  0.2788485E-009  0.1001105E+03  0.7561462E-02  0.1280064E+00
         -1   -1    0    0    0  501 -0.00000000000E+00  0.00000000000E+00  0.75333469945E+02  0.75333469945E+02  0.00000000000E+00 0. -1.
          1   -1    0    0  501    0  0.00000000000E+00 -0.00000000000E+00 -0.28127990254E+03  0.28127990254E+03  0.00000000000E+00 0.  1.
         25    2    1    2    0    0  0.15078485397E+02  0.58682365275E+02 -0.20410325023E+03  0.24693529414E+03  0.12509165448E+03 0.  0.
          5    1    3    3  502    0 -0.25776523102E+02  0.46182554697E+02 -0.19624950724E+03  0.20329436538E+03  0.41800000000E+01 0. -1.
         -5    1    3    3    0  502  0.40855008499E+02  0.12499810577E+02 -0.78537429869E+01  0.43640928758E+02  0.41800000000E+01 0. -1.
        -11    1    1    2    0    0 -0.25057955092E+02  0.15449599439E+02  0.14948429707E+02  0.33015856598E+02  0.00000000000E+00 0. -1.
         11    1    1    2    0    0  0.99794696943E+01 -0.74131964714E+02 -0.16791612072E+02  0.76662221750E+02  0.00000000000E+00 0.  1.
</event>
<event>
 7    1  0.2788485E-009  0.1178434E+03  0.7561462E-02  0.1246698E+00
         -2   -1    0    0    0  501 -0.00000000000E+00  0.00000000000E+00  0.22870879729E+02  0.22870879729E+02  0.00000000000E+00 0.  1.
          2   -1    0    0  501    0  0.00000000000E+00 -0.00000000000E+00 -0.84795335443E+03  0.84795335443E+03  0.00000000000E+00 0. -1.
         25    2    1    2    0    0 -0.87090715403E+02  0.11235106028E+02 -0.42310242521E+03  0.44985955242E+03  0.12508770670E+03 0.  0.
          5    1    3    3  502    0  0.64249496710E+01  0.15178508634E+02 -0.26881631633E+03  0.26935358068E+03  0.41800000000E+01 0. -1.
         -5    1    3    3    0  502 -0.93515665074E+02 -0.39434026056E+01 -0.15428610889E+03  0.18050597174E+03  0.41800000000E+01 0. -1.
        -11    1    1    2    0    0  0.89113448818E+02  0.21923337194E+02 -0.29394986955E+03  0.30794214600E+03  0.00000000000E+00 0. -1.
         11    1    1    2    0    0 -0.20227334156E+01 -0.33158443222E+02 -0.10803017994E+03  0.11302253574E+03  0.00000000000E+00 0.  1.
</event>
<event>
 7    1  0.2788485E-009  0.1076783E+03  0.7561462E-02  0.1264931E+00
         -3   -1    0    0    0  501 -0.00000000000E+00  0.00000000000E+00  0.38176999464E+03  0.38176999464E+03  0.00000000000E+00 0.  1.
          3   -1    0    0  501    0  0.00000000000E+00 -0.00000000000E+00 -0.31328224708E+02  0.31328224708E+02  0.00000000000E+00 0. -1.
         25    2    1    2    0    0  0.16151622591E+02 -0.26836203819E+01  0.22143161299E+03  0.25484227623E+03  0.12507817473E+03 0.  0.
          5    1    3    3  502    0  0.28759473584E+01 -0.63155845079E+02  0.98142735037E+02  0.11681780978E+03  0.41800000000E+01 0.  1.
         -5    1    3    3    0  502  0.13275675232E+02  0.60472224697E+02  0.12328887795E+03  0.13802446645E+03  0.41800000000E+01 0.  1.
        -11    1    1    2    0    0 -0.34341700157E+02 -0.34419752895E+02  0.84731128774E+02  0.97690511015E+02  0.00000000000E+00 0.  1.
         11    1    1    2    0    0  0.18190077566E+02  0.37103373277E+02  0.44279028173E+02  0.60565432107E+02  0.00000000000E+00 0. -1.
</event>
<event>
 7    1  0.2788485E-009  0.1394713E+03  0.7561462E-02  0.1214042E+00
          1   -1    0    0  501    0  0.00000000000E+00  0.00000000000E+00  0.26715751935E+03  0.26715751935E+03  0.00000000000E+00 0. -1.
         -1   -1    0    0    0  501 -0.00000000000E+00 -0.00000000000E+00 -0.10301005238E+03  0.10301005238E+03  0.00000000000E+00 0.  1.
         25    2    1    2    0    0  0.11197128670E+03  0.40106753390E+02  0.43004651953E+02  0.17788598395E+03  0.12509157639E+03 0.  0.
          5    1    3    3  502    0  0.63919476982E+02 -0.20591093721E+02 -0.27884891668E+02  0.72833592947E+02  0.41800000000E+01 0.  1.
         -5    1    3    3    0  502  0.48051809717E+02  0.60697847111E+02  0.70889543621E+02  0.10505239100E+03  0.41800000000E+01 0.  1.
        -11    1    1    2    0    0 -0.86155689784E+02  0.32859916825E+00  0.33640170329E+02  0.92490928848E+02  0.00000000000E+00 0.  1.
         11    1    1    2    0    0 -0.25815596915E+02 -0.40435352558E+02  0.87502644689E+02  0.99790658922E+02  0.00000000000E+00 0. -1.
</event>
<event>
 7    1  0.2788485E-009  0.1486625E+03  0.7561462E-02  0.1202126E+00
         -1   -1    0    0    0  501 -0.00000000000E+00  0.00000000000E+00  0.94492684175E+02  0.94492684175E+02  0.00000000000E+00 0.  1.
          1   -1    0    0  501    0  0.00000000000E+00 -0.00000000000E+00 -0.31231255721E+03  0.31231255721E+03  0.00000000000E+00 0. -1.
         25    2    1    2    0    0  0.11275691063E+03  0.61708768910E+02 -0.15441688661E+03  0.23667463952E+03  0.12509283380E+03 0.  0.
          5    1    3    3  502    0  0.51507577094E+02 -0.10460730203E+02  0.31445507057E+01  0.52818727490E+02  0.41800000000E+01 0.  1.
         -5    1    3    3    0  502  0.61249333538E+02  0.72169499113E+02 -0.15756143731E+03  0.18385591203E+03  0.41800000000E+01 0.  1.
        -11    1    1    2    0    0 -0.98558431943E+02 -0.79827756179E+02 -0.31315934868E+02  0.13064043379E+03  0.00000000000E+00 0.  1.
         11    1    1    2    0    0 -0.14198478690E+02  0.18118987268E+02 -0.32087051558E+02  0.39490168073E+02  0.00000000000E+00 0. -1.
</event>
<event>
 7    1  0.2788485E-009  0.7968664E+02  0.7561462E-02  0.1329943E+00
          1   -1    0    0  501    0  0.00000000000E+00  0.00000000000E+00  0.32297004282E+03  0.32297004282E+03  0.00000000000E+00 0. -1.
         -1   -1    0    0    0  501 -0.00000000000E+00 -0.00000000000E+00 -0.41571011795E+02  0.41571011795E+02  0.00000000000E+00 0.  1.
         25    2    1    2    0    0  0.18929362864E+02 -0.98615936780E+01  0.21503342278E+03  0.24968219961E+03  0.12508499544E+03 0.  0.
          5    1    3    3  502    0  0.35640443543E+02  0.50427844811E+02  0.13049604909E+03  0.14442956753E+03  0.41800000000E+01 0. -1.
         -5    1    3    3    0  502 -0.16711080679E+02 -0.60289438489E+02  0.84537373682E+02  0.10525263208E+03  0.41800000000E+01 0. -1.
        -11    1    1    2    0    0 -0.21226278578E+02 -0.32445459122E+01  0.87383552698E+02  0.89983149881E+02  0.00000000000E+00 0. -1.
         11    1    1    2    0    0  0.22969157134E+01  0.13106139590E+02 -0.21017944445E+02  0.24875705125E+02  0.00000000000E+00 0.  1.
</event>
<event>
 7    1  0.2788485E-009  0.1198320E+03  0.7561462E-02  0.1243374E+00
         -2   -1    0    0    0  501 -0.00000000000E+00  0.00000000000E+00  0.25594671215E+02  0.25594671215E+02  0.00000000000E+00 0.  1.
          2   -1    0    0  501    0  0.00000000000E+00 -0.00000000000E+00 -0.58405334273E+03  0.58405334273E+03  0.00000000000E+00 0. -1.
         25    2    1    2    0    0 -0.51558940293E+02  0.24817905232E+02 -0.32274747041E+03  0.35083952993E+03  0.12509273905E+03 0.  0.
          5    1    3    3  502    0  0.11386852151E+02  0.59558694098E+02 -0.10305522379E+03  0.11964426436E+03  0.41800000000E+01 0.  1.
         -5    1    3    3    0  502 -0.62945792444E+02 -0.34740788866E+02 -0.21969224662E+03  0.23119526557E+03  0.41800000000E+01 0.  1.
        -11    1    1    2    0    0  0.52653928640E+02  0.24119385673E+02 -0.12604873714E+03  0.13871721270E+03  0.00000000000E+00 0. -1.
         11    1    1    2    0    0 -0.10949883463E+01 -0.48937290905E+02 -0.10966246397E+03  0.12009127131E+03  0.00000000000E+00 0.  1.
</event>
<event>
 7    1  0.2788485E-009  0.7855589E+02  0.7561462E-02  0.1333200E+00
         -2   -1    0    0    0  501 -0.00000000000E+00  0.00000000000E+00  0.18001851386E+02  0.18001851386E+02  0.00000000000E+00 0.  1.
          2   -1    0    0  501    0  0.00000000000E+00 -0.00000000000E+00 -0.66899449895E+03  0.66899449895E+03  0.00000000000E+00 0. -1.
         25    2    1    2    0    0  0.13888193024E+01  0.19851760605E+02 -0.38640894358E+03  0.40663958833E+03  0.12509141419E+03 0.  0.
          5    1    3    3  502    0  0.76625354323E+01  0.53483581390E+02 -0.70823532903E+02  0.89177649332E+02  0.41800000000E+01 0. -1.
         -5    1    3    3    0  502 -0.62737161299E+01 -0.33631820785E+02 -0.31558541067E+03  0.31746193900E+03  0.41800000000E+01 0. -1.
        -11    1    1    2    0    0  0.23357089637E+01  0.24166294530E+02 -0.18994669915E+02  0.30826333107E+02  0.00000000000E+00 0.  1.
         11    1    1    2    0    0 -0.37245282661E+01 -0.44018055135E+02 -0.24558903408E+03  0.24953042890E+03  0.00000000000E+00 0. -1.
</event>
<event>
 7    1  0.2788485E-009  0.6316203E+02  0.7561462E-02  0.1385022E+00
          1   -1    0    0  501    0  0.00000000000E+00  0.00000000000E+00  0.11299382920E+03  0.11299382920E+03  0.00000000000E+00 0. -1.
         -1   -1    0    0    0  501 -0.00000000000E+00 -0.00000000000E+00 -0.10357750408E+03  0.10357750408E+03  0.00000000000E+00 0.  1.
         25    2    1    2    0    0  0.20686891095E+02  0.21638270086E+01  0.51246719588E+01  0.12691188342E+03  0.12509090406E+03 0.  0.
          5    1    3    3  502    0  0.44702430281E+01  0.31095322696E+02 -0.51900099693E+02  0.60811141368E+02  0.41800000000E+01 0. -1.
         -5    1    3    3    0  502  0.16216648067E+02 -0.28931495687E+02  0.57024771652E+02  0.66100742047E+02  0.41800000000E+01 0. -1.
        -11    1    1    2    0    0  0.20236084050E+02 -0.11224289111E+01  0.33651330292E+02  0.39283214925E+02  0.00000000000E+00 0. -1.
         11    1    1    2    0    0 -0.40922975146E+02 -0.10413980975E+01 -0.29359677133E+02  0.50376234934E+02  0.00000000000E+00 0.  1.
</event>
<event>
 7    1  0.2788485E-009  0.1673680E+03  0.7561462E-02  0.1180621E+00
         -1   -1    0    0    0  501 -0.00000000000E+00  0.00000000000E+00  0.70576797920E+02  0.70576797920E+02  0.00000000000E+00 0.  1.
          1   -1    0    0  501    0  0.00000000000E+00 -0.00000000000E+00 -0.51260261305E+03  0.51260261305E+03  0.00000000000E+00 0. -1.
         25    2    1    2    0    0  0.13604128058E+03 -0.74293763601E+02 -0.25777619452E+03  0.32576559182E+03  0.12509141065E+03 0.  0.
          5    1    3    3  502    0  0.12108456172E+03 -0.84443425081E+02 -0.13029862119E+03  0.19694508425E+03  0.41800000000E+01 0. -1.
         -5    1    3    3    0  502  0.14956718855E+02  0.10149661481E+02 -0.12747757333E+03  0.12882050757E+03  0.41800000000E+01 0. -1.
        -11    1    1    2    0    0 -0.74979921798E+02  0.76876081526E+02 -0.71030953985E+02  0.12875293009E+03  0.00000000000E+00 0.  1.
         11    1    1    2    0    0 -0.61061358777E+02 -0.25823179253E+01 -0.11321866663E+03  0.12866088906E+03  0.00000000000E+00 0. -1.
</event>
<event>
 7    1  0.2788485E-009  0.1075037E+03  0.7561462E-02  0.1265264E+00
         -1   -1    0    0    0  501 -0.00000000000E+00  0.00000000000E+00  0.25746571581E+02  0.25746571581E+02  0.00000000000E+00 0.  1.
          1   -1    0    0  501    0  0.00000000000E+00 -0.00000000000E+00 -0.94789385623E+03  0.94789385623E+03  0.00000000000E+00 0. -1.
         25    2    1    2    0    0 -0.10411302297E+02  0.76061507847E+02 -0.78971775806E+03  0.80324087719E+03  0.12509205093E+03 0.  0.
          5    1    3    3  502    0 -0.79247989049E+01  0.93018389694E+02 -0.77397840349E+03  0.77959942581E+03  0.41800000000E+01 0. -1.
         -5    1    3    3    0  502 -0.24865033920E+01 -0.16956881847E+02 -0.15739354574E+02  0.23641451383E+02  0.41800000000E+01 0. -1.
        -11    1    1    2    0    0 -0.15990944395E+02 -0.75847407788E+02 -0.78327598864E+02  0.11019869470E+03  0.00000000000E+00 0.  1.
         11    1    1    2    0    0  0.26402246692E+02 -0.21410005937E+00 -0.54101927724E+02  0.60200855913E+02  0.00000000000E+00 0. -1.
</event>
<event>
 7    1  0.2788485E-009  0.1410405E+03  0.7561462E-02  0.1211936E+00
          4   -1    0    0  501    0  0.00000000000E+00  0.00000000000E+00  0.98840983036E+02  0.98840983036E+02  0.00000000000E+00 0. -1.
         -4   -1    0    0    0  501 -0.00000000000E+00 -0.00000000000E+00 -0.20775467992E+03  0.20775467992E+03  0.00000000000E+00 0.  1.
         25    2    1    2    0    0 -0.85772425678E+02 -0.34740988240E+02 -0.47286212380E+02  0.16262927360E+03  0.12509376275E+03 0.  0.
          5    1    3    3  502    0 -0.51279099842E+02  0.42928286303E+02 -0.39010592467E+01  0.67119851823E+02  0.41800000000E+01 0. -1.
         -5    1    3    3    0  502 -0.34493325836E+02 -0.77669274544E+02 -0.43385153134E+02  0.95509421775E+02  0.41800000000E+01 0. -1.
        -11    1    1    2    0    0  0.44186400651E+02  0.64972761089E+02 -0.40279782549E+02  0.88296990709E+02  0.00000000000E+00 0.  1.
         11    1    1    2    0    0  0.41586025027E+02 -0.30231772848E+02 -0.21347701952E+02  0.55669398647E+02  0.00000000000E+00 0. -1.
</event>
<event>
 7    1  0.2788485E-009  0.1434438E+03  0.7561462E-02  0.1208769E+00
         -2   -1    0    0    0  501 -0.00000000000E+00  0.00000000000E+00  0.23354730531E+02  0.23354730531E+02  0.00000000000E+00 0.  1.
          2   -1    0    0  501    0  0.00000000000E+00 -0.00000000000E+00 -0.12974911355E+04  0.12974911355E+04  0.00000000000E+00 0. -1.
         25    2    1    2    0    0 -0.10055869624E+03 -0.66731201590E+02 -0.91501284579E+03  0.93137546891E+03  0.12508657586E+03 0.  0.
          5    1    3    3  502    0 -0.11719002449E+03 -0.79688946798E+02 -0.63961616232E+03  0.65514131116E+03  0.41800000000E+01 0.  1.
         -5    1    3    3    0  502  0.16631328251E+02  0.12957745208E+02 -0.27539668347E+03  0.27623415775E+03  0.41800000000E+01 0.  1.
        -11    1    1    2    0    0  0.94663040934E+02  0.52582030772E+02 -0.35809275027E+03  0.37410744323E+03  0.00000000000E+00 0. -1.
         11    1    1    2    0    0  0.58956553102E+01  0.14149170818E+02 -0.10308089338E+01  0.15362953929E+02  0.00000000000E+00 0.  1.
</event>
<event>
 7    1  0.2788485E-009  0.1802917E+03  0.7561462E-02  0.1167521E+00
          1   -1    0    0  501    0  0.00000000000E+00  0.00000000000E+00  0.12934854037E+03  0.12934854037E+03  0.00000000000E+00 0. -1.
         -1   -1    0    0    0  501 -0.00000000000E+00 -0.00000000000E+00 -0.36879477861E+03  0.36879477861E+03  0.00000000000E+00 0.  1.
         25    2    1    2    0    0 -0.13773671526E+03 -0.82710354773E+02 -0.23782236882E+03  0.31307783412E+03  0.12508335455E+03 0.  0.
          5    1    3    3  502    0 -0.27406990526E+02 -0.73989484439E+02 -0.45587408613E+02  0.91221001756E+02  0.41800000000E+01 0. -1.
         -5    1    3    3    0  502 -0.11032972474E+03 -0.87208703340E+01 -0.19223496021E+03  0.22185683236E+03  0.41800000000E+01 0. -1.
        -11    1    1    2    0    0  0.48291532784E+02  0.62734928230E+02 -0.36276436217E+02  0.87084574887E+02  0.00000000000E+00 0.  1.
         11    1    1    2    0    0  0.89445182479E+02  0.19975426543E+02  0.34652566793E+02  0.97980909976E+02  0.00000000000E+00 0. -1.
</event>
<event>
 7    1  0.2788485E-009  0.1095680E+03  0.7561462E-02  0.1261372E+00
          1   -1    0    0  501    0  0.00000000000E+00  0.00000000000E+00  0.20699052294E+02  0.20699052294E+02  0.00000000000E+00 0.  1.
         -1   -1    0    0    0  501 -0.00000000000E+00 -0.00000000000E+00 -0.80110268865E+03  0.80110268865E+03  0.00000000000E+00 0. -1.
         25    2    1    2    0    0 -0.48404047860E+02 -0.97422001325E+01 -0.29022646930E+03  0.31986942507E+03  0.12508870173E+03 0.  0.
          5    1    3    3  502    0  0.15590178165E+02 -0.42692249034E+02 -0.19588078985E+03  0.20112791456E+03  0.41800000000E+01 0. -1.
         -5    1    3    3    0  502 -0.63994226025E+02  0.32950048902E+02 -0.94345679446E+02  0.11874151051E+03  0.41800000000E+01 0. -1.
        -11    1    1    2    0    0  0.61527529069E+02  0.36536946784E+02 -0.41366473494E+03  0.41980840660E+03  0.00000000000E+00 0. -1.
         11    1    1    2    0    0 -0.13123481209E+02 -0.26794746652E+02 -0.76512432113E+02  0.82123909278E+02  0.00000000000E+00 0.  1.
</event>
<event>
 7    1  0.2788485E-009  0.7192150E+02  0.7561462E-02  0.1353678E+00
          2   -1    0    0  501    0  0.00000000000E+00  0.00000000000E+00  0.52236274586E+02  0.52236274586E+02  0.00000000000E+00 0. -1.
         -2   -1    0    0    0  501 -0.00000000000E+00 -0.00000000000E+00 -0.25170092250E+03  0.25170092250E+03  0.00000000000E+00 0.  1.
         25    2    1    2    0    0  0.18961082274E+02 -0.25885127338E+02 -0.15821628360E+03  0.20422351620E+03  0.12508113254E+03 0.  0.
          5    1    3    3  502    0  0.92465450748E+00  0.30152955058E+02 -0.13878840820E+03  0.14209064127E+03  0.41800000000E+01 0.  1.
         -5    1    3    3    0  502  0.18036427766E+02 -0.56038082397E+02 -0.19427875394E+02  0.62132874934E+02  0.41800000000E+01 0.  1.
        -11    1    1    2    0    0 -0.57593389034E+01  0.36795565158E+02 -0.62294905584E+02  0.72579190279E+02  0.00000000000E+00 0.  1.
         11    1    1    2    0    0 -0.13201743370E+02 -0.10910437820E+02  0.21046541263E+02  0.27134490608E+02  0.00000000000E+00 0. -1.
</event>
<event>
 7    1  0.2788485E-009  0.9639283E+02  0.7561462E-02  0.1288070E+00
          1   -1    0    0  501    0  0.00000000000E+00  0.00000000000E+00  0.16150630927E+03  0.16150630927E+03  0.00000000000E+00 0. -1.
         -1   -1    0    0    0  501 -0.00000000000E+00 -0.00000000000E+00 -0.11583627294E+03  0.11583627294E+03  0.00000000000E+00 0.  1.
         25    2    1    2    0    0 -0.10260840111E+02 -0.41939385961E+02  0.96236029013E+02  0.16362363985E+03  0.12508846990E+03 0.  0.
          5    1    3    3  502    0  0.73077635390E+01 -0.73496535759E+02  0.10282616280E+03  0.12667216084E+03  0.41800000000E+01 0.  1.
         -5    1    3    3    0  502 -0.17568603650E+02  0.31557149798E+02 -0.65901337840E+01  0.36951479008E+02  0.41800000000E+01 0.  1.
        -11    1    1    2    0    0  0.36849925370E+02  0.53754547901E+01  0.96028547456E+01  0.38458124411E+02  0.00000000000E+00 0. -1.
         11    1    1    2    0    0 -0.26589085259E+02  0.36563931171E+02 -0.60168847430E+02  0.75260817951E+02  0.00000000000E+00 0.  1.
</event>
<event>
 7    1  0.2788485E-009  0.1194571E+03  0.7561462E-02  0.1243995E+00
         -1   -1    0    0    0  501 -0.00000000000E+00  0.00000000000E+00  0.22399410588E+03  0.22399410588E+03  0.00000000000E+00 0.  1.
          1   -1    0    0  501    0  0.00000000000E+00 -0.00000000000E+00 -0.10580154624E+03  0.10580154624E+03  0.00000000000E+00 0. -1.
         25    2    1    2    0    0  0.10492446161E+02  0.62873435031E+02 -0.31883062334E+02  0.14396766860E+03  0.12508796776E+03 0.  0.
          5    1    3    3  502    0  0.17755505722E+02 -0.35975427856E+02 -0.16494116862E+02  0.43577720041E+02  0.41800000000E+01 0.  1.
         -5    1    3    3    0  502 -0.72630595612E+01  0.98848862888E+02 -0.15388945472E+02  0.10038994856E+03  0.41800000000E+01 0.  1.
        -11    1    1    2    0    0  0.20844896445E+02 -0.64709606061E+02  0.60841336417E+02  0.91233278146E+02  0.00000000000E+00 0. -1.
         11    1    1    2    0    0 -0.31337342606E+02  0.18361710299E+01  0.89234285561E+02  0.94594705376E+02  0.00000000000E+00 0.  1.
</event>
<event>
 7    1  0.2788485E-009  0.3283304E+03  0.7561462E-02  0.1071878E+00
          2   -1    0    0  501    0  0.00000000000E+00  0.00000000000E+00  0.15581500157E+04  0.15581500157E+04  0.00000000000E+00 0.  1.
         -2   -1    0    0    0  501 -0.00000000000E+00 -0.00000000000E+00 -0.78916350233E+02  0.78916350233E+02  0.00000000000E+00 0. -1.
         25    2    1    2    0    0 -0.23389997281E+03 -0.21545315798E+03  0.52106404666E+03  0.62312420281E+03  0.12508705307E+03 0.  0.
          5    1    3    3  502    0 -0.24087953195E+03 -0.17925595610E+03  0.42708260994E+03  0.52208493066E+03  0.41800000000E+01 0.  1.
         -5    1    3    3    0  502  0.69795591368E+01 -0.36197201879E+02  0.93981436714E+02  0.10103927215E+03  0.41800000000E+01 0.  1.
        -11    1    1    2    0    0  0.90693929989E+02  0.10263686679E+03  0.55193969791E+03  0.56868017856E+03  0.00000000000E+00 0.  1.
         11    1    1    2    0    0  0.14320604282E+03  0.11281629119E+03  0.40622992089E+03  0.44526198455E+03  0.00000000000E+00 0. -1.
</event>
<event>
 7    1  0.2788485E-009  0.1013670E+03  0.7561462E-02  0.1277447E+00
         -2   -1    0    0    0  501 -0.00000000000E+00  0.00000000000E+00  0.13203882461E+03  0.13203882461E+03  0.00000000000E+00 0. -1.
          2   -1    0    0  501    0  0.00000000000E+00 -0.00000000000E+00 -0.13152951591E+03  0.13152951591E+03  0.00000000000E+00 0.  1.
         25    2    1    2    0    0 -0.40722257646E+02  0.10423780506E+02  0.60312302424E+02  0.14509714444E+03  0.12509456437E+03 0.  0.
          5    1    3    3  502    0 -0.18351546879E+02  0.54626479130E+02 -0.10349382483E+02  0.58697645718E+02  0.41800000000E+01 0. -1.
         -5    1    3    3    0  502 -0.22370710767E+02 -0.44202698625E+02  0.70661684907E+02  0.86399498724E+02  0.41800000000E+01 0. -1.
        -11    1    1    2    0    0  0.33795211420E+02  0.35372430951E+02 -0.52187379219E+02  0.71532144775E+02  0.00000000000E+00 0.  1.
         11    1    1    2    0    0  0.69270462261E+01 -0.45796211457E+02 -0.76156145109E+01  0.46939051307E+02  0.00000000000E+00 0. -1.
</event>
<event>
 7    1  0.2788485E-009  0.1602322E+03  0.7561462E-02  0.1188435E+00
          2   -1    0    0  501    0  0.00000000000E+00  0.00000000000E+00  0.58851337314E+03  0.58851337314E+03  0.00000000000E+00 0. -1.
         -2   -1    0    0    0  501 -0.00000000000E+00 -0.00000000000E+00 -0.60429675748E+02  0.60429675748E+02  0.00000000000E+00 0.  1.
         25    2    1    2    0    0 -0.14608552947E+03 -0.49084081140E+02  0.27804350725E+03  0.34162193518E+03  0.12508847161E+03 0.  0.
          5    1    3    3  502    0 -0.13164246735E+03 -0.61458899714E+02  0.28582129324E+03  0.32065280232E+03  0.41800000000E+01 0.  1.
         -5    1    3    3    0  502 -0.14443062114E+02  0.12374818574E+02 -0.77777859887E+01  0.20969132859E+02  0.41800000000E+01 0.  1.
        -11    1    1    2    0    0  0.10037676833E+03  0.44207897548E+02  0.93352292148E+02  0.14402945627E+03  0.00000000000E+00 0.  1.
         11    1    1    2    0    0  0.45708761141E+02  0.48761835920E+01  0.15668789799E+03  0.16329165744E+03  0.00000000000E+00 0. -1.
</event>
<event>
 7    1  0.2788485E-009  0.1520585E+03  0.7561462E-02  0.1197966E+00
          1   -1    0    0  501    0  0.00000000000E+00  0.00000000000E+00  0.53766563023E+02  0.53766563023E+02  0.00000000000E+00 0. -1.
         -1   -1    0    0    0  501 -0.00000000000E+00 -0.00000000000E+00 -0.58547817252E+03  0.58547817252E+03  0.00000000000E+00 0.  1.
         25    2    1    2    0    0  0.20629927158E+02 -0.13431156216E+03 -0.22193533865E+03  0.28873318142E+03  0.12508543434E+03 0.  0.
          5    1    3    3  502    0  0.37016309484E+02 -0.34532379172E+02 -0.71451385932E+01  0.51295397304E+02  0.41800000000E+01 0. -1.
         -5    1    3    3    0  502 -0.16386382327E+02 -0.99779182990E+02 -0.21479020006E+03  0.23743778411E+03  0.41800000000E+01 0. -1.
        -11    1    1    2    0    0 -0.85764276242E+00  0.13223571826E+03 -0.20560043739E+03  0.24445564135E+03  0.00000000000E+00 0. -1.
         11    1    1    2    0    0 -0.19772284395E+02  0.20758439064E+01 -0.10417583346E+03  0.10605591278E+03  0.00000000000E+00 0.  1.
</event>
<event>
 7    1  0.2788485E-009  0.1089000E+03  0.7561462E-02  0.1262621E+00
          2   -1    0    0  501    0  0.00000000000E+00  0.00000000000E+00  0.13214486275E+04  0.13214486275E+04  0.00000000000E+00 0. -1.
         -2   -1    0    0    0  501 -0.00000000000E+00 -0.00000000000E+00 -0.11172283918E+02  0.11172283918E+02  0.00000000000E+00 0.  1.
         25    2    1    2    0    0 -0.10622728583E+02 -0.86377530119E+01  0.10164575723E+04  0.10242171211E+04  0.12508901586E+03 0.  0.
          5    1    3    3  502    0  0.33062400620E+02  0.44285849065E+02  0.53756389279E+03  0.54041351759E+03  0.41800000000E+01 0.  1.
         -5    1    3    3    0  502 -0.43685129203E+02 -0.52923602077E+02  0.47889367947E+03  0.48380360355E+03  0.41800000000E+01 0.  1.
        -11    1    1    2    0    0  0.32090694371E+02 -0.33464482616E+02  0.13854393162E+03  0.14609621916E+03  0.00000000000E+00 0.  1.
         11    1    1    2    0    0 -0.21467965788E+02  0.42102235628E+02  0.15527483965E+03  0.16230757108E+03  0.00000000000E+00 0. -1.
</event>
<event>
 7    1  0.2788485E-009  0.1468212E+03  0.7561462E-02  0.1204434E+00
          1   -1    0    0  501    0  0.00000000000E+00  0.00000000000E+00  0.86164031439E+02  0.86164031439E+02  0.00000000000E+00 0. -1.
         -1   -1    0    0    0  501 -0.00000000000E+00 -0.00000000000E+00 -0.64880351719E+03  0.64880351719E+03  0.00000000000E+00 0.  1.
         25    2    1    2    0    0  0.39162675381E+02  0.11736382098E+03 -0.55351668543E+03  0.58080608683E+03  0.12508800035E+03 0.  0.
          5    1    3    3  502    0 -0.14412647855E+02  0.70813433982E+02 -0.44647305076E+03  0.45230291211E+03  0.41800000000E+01 0.  1.
         -5    1    3    3    0  502  0.53575323236E+02  0.46550386994E+02 -0.10704363467E+03  0.12850317472E+03  0.41800000000E+01 0.  1.
        -11    1    1    2    0    0 -0.66343322059E+02 -0.79400307611E+02 -0.21884679196E+02  0.10575814112E+03  0.00000000000E+00 0.  1.
         11    1    1    2    0    0  0.27180646679E+02 -0.37963513365E+02  0.12761878866E+02  0.48403320682E+02  0.00000000000E+00 0. -1.
</event>
<event>
 7    1  0.2788485E-009  0.7249547E+02  0.7561462E-02  0.1351807E+00
          2   -1    0    0  501    0  0.00000000000E+00  0.00000000000E+00  0.26675943714E+02  0.26675943714E+02  0.00000000000E+00 0. -1.
         -2   -1    0    0    0  501 -0.00000000000E+00 -0.00000000000E+00 -0.50479926301E+03  0.50479926301E+03  0.00000000000E+00 0.  1.
         25    2    1    2    0    0 -0.70413881831E+01  0.60474704960E+01 -0.36691726750E+03  0.38776657566E+03  0.12509389660E+03 0.  0.
          5    1    3    3  502    0  0.35274644893E+02  0.26413204325E+02 -0.31311902330E+03  0.31623243522E+03  0.41800000000E+01 0.  1.
         -5    1    3    3    0  502 -0.42316033076E+02 -0.20365733829E+02 -0.53798244200E+02  0.71534140441E+02  0.41800000000E+01 0.  1.
        -11    1    1    2    0    0 -0.33486114505E+00 -0.29239413938E+02  0.63713554806E+00  0.29248271763E+02  0.00000000000E+00 0. -1.
         11    1    1    2    0    0  0.73762493281E+01  0.23191943442E+02 -0.11184318735E+03  0.11446035930E+03  0.00000000000E+00 0.  1.
</event>
<event>
 7    1  0.2788485E-009  0.1042910E+03  0.7561462E-02  0.1271523E+00
          2   -1    0    0  501    0  0.00000000000E+00  0.00000000000E+00  0.98403678879E+02  0.98403678879E+02  0.00000000000E+00 0. -1.
         -2   -1    0    0    0  501 -0.00000000000E+00 -0.00000000000E+00 -0.12770291858E+03  0.12770291858E+03  0.00000000000E+00 0.  1.
         25    2    1    2    0    0  0.10598409599E+02 -0.16251554379E+02  0.46844213631E+01  0.12667013520E+03  0.12508772938E+03 0.  0.
          5    1    3    3  502    0 -0.50987896644E+02 -0.20180346744E+02  0.26546655721E+02  0.61067252508E+02  0.41800000000E+01 0.  1.
         -5    1    3    3    0  502  0.61586306244E+02  0.39287923656E+01 -0.21862234357E+02  0.65602882690E+02  0.41800000000E+01 0.  1.
        -11    1    1    2    0    0 -0.49738332325E+02  0.17068316564E+02 -0.10006967279E+02  0.53529137177E+02  0.00000000000E+00 0. -1.
         11    1    1    2    0    0  0.39139922726E+02 -0.81676218542E+00 -0.23976693784E+02  0.45907325083E+02  0.00000000000E+00 0.  1.
</event>
<event>
 7    1  0.2788485E-009  0.1887164E+03  0.7561462E-02  0.1159624E+00
         -2   -1    0    0    0  501 -0.00000000000E+00  0.00000000000E+00  0.52479750192E+03  0.52479750192E+03  0.00000000000E+00 0.  1.
          2   -1    0    0  501    0  0.00000000000E+00 -0.00000000000E+00 -0.82420946642E+02  0.82420946642E+02  0.00000000000E+00 0. -1.
         25    2    1    2    0    0 -0.14763695909E+03  0.63953946369E+02  0.35084980796E+03  0.40574506263E+03  0.12508672654E+03 0.  0.
          5    1    3    3  502    0 -0.99099867821E+02  0.97453174642E+02  0.19879281718E+03  0.24259835452E+03  0.41800000000E+01 0. -1.
         -5    1    3    3    0  502 -0.48537091273E+02 -0.33499228273E+02  0.15205699078E+03  0.16314670812E+03  0.41800000000E+01 0. -1.
        -11    1    1    2    0    0  0.84243619962E+02 -0.77459643791E+02  0.53548896298E+02  0.12635057663E+03  0.00000000000E+00 0. -1.
         11    1    1    2    0    0  0.63393339132E+02  0.13505697422E+02  0.37977851017E+02  0.75122809299E+02  0.00000000000E+00 0.  1.
</event>
<event>
 7    1  0.2788485E-009  0.1437084E+03  0.7561462E-02  0.1208424E+00
          2   -1    0    0  501    0  0.00000000000E+00  0.00000000000E+00  0.75646488211E+03  0.75646488211E+03  0.00000000000E+00 0. -1.
         -2   -1    0    0    0  501 -0.00000000000E+00 -0.00000000000E+00 -0.50125526715E+02  0.50125526715E+02  0.00000000000E+00 0.  1.
         25    2    1    2    0    0  0.79929232983E+02  0.10183094035E+03  0.57284626826E+03  0.60046425906E+03  0.12508499769E+03 0.  0.
          5    1    3    3  502    0  0.39268334977E+02  0.39724035366E+02  0.59331061544E+02  0.81594413912E+02  0.41800000000E+01 0. -1.
         -5    1    3    3    0  502  0.40660898006E+02  0.62106904987E+02  0.51351520672E+03  0.51886984515E+03  0.41800000000E+01 0. -1.
        -11    1    1    2    0    0  0.17459775415E+01 -0.69006189156E+02  0.59601187111E+02  0.91198706594E+02  0.00000000000E+00 0. -1.
         11    1    1    2    0    0 -0.81675210525E+02 -0.32824751198E+02  0.73891900026E+02  0.11492744318E+03  0.00000000000E+00 0.  1.
</event>
<event>
 7    1  0.2788485E-009  0.1456801E+03  0.7561462E-02  0.1205884E+00
          1   -1    0    0  501    0  0.00000000000E+00  0.00000000000E+00  0.48005510696E+03  0.48005510696E+03  0.00000000000E+00 0. -1.
         -1   -1    0    0    0  501 -0.00000000000E+00 -0.00000000000E+00 -0.68496916033E+02  0.68496916033E+02  0.00000000000E+00 0.  1.
         25    2    1    2    0    0 -0.43604760024E+02 -0.13464773624E+03  0.16537815548E+03  0.25105620450E+03  0.12509154862E+03 0.  0.
          5    1    3    3  502    0 -0.40990213620E+02 -0.13545411788E+03  0.74398414304E+02  0.15993940139E+03  0.41800000000E+01 0. -1.
         -5    1    3    3    0  502 -0.26145464039E+01  0.80638164955E+00  0.90979741180E+02  0.91116803113E+02  0.41800000000E+01 0. -1.
        -11    1    1    2    0    0  0.26804597103E+02  0.11845100036E+03  0.24578967190E+03  0.27415632169E+03  0.00000000000E+00 0. -1.
         11    1    1    2    0    0  0.16800162921E+02  0.16196735875E+02  0.39036354241E+00  0.23339496800E+02  0.00000000000E+00 0.  1.
</event>
<event>
 7    1  0.2788485E-009  0.1028495E+03  0.7561462E-02  0.1274415E+00
         -2   -1    0    0    0  501 -0.00000000000E+00  0.00000000000E+00  0.32954188389E+02  0.32954188389E+02  0.00000000000E+00 0.  1.
          2   -1    0    0  501    0  0.00000000000E+00 -0.00000000000E+00 -0.53822701683E+03  0.53822701683E+03  0.00000000000E+00 0. -1.
         25    2    1    2    0    0  0.57205049924E+02 -0.29628672954E+02 -0.18713868994E+03  0.23413208783E+03  0.12508664709E+03 0.  0.
          5    1    3    3  502    0  0.41036693386E+02  0.19510580575E+02 -0.63850485404E+01  0.46075093090E+02  0.41800000000E+01 0.  1.
         -5    1    3    3    0  502  0.16168356538E+02 -0.49139253529E+02 -0.18075364140E+03  0.18805699474E+03  0.41800000000E+01 0.  1.
        -11    1    1    2    0    0 -0.40925049406E+02  0.60632056387E+02 -0.24943123053E+03  0.25993661669E+03  0.00000000000E+00 0. -1.
         11    1    1    2    0    0 -0.16280000519E+02 -0.31003383433E+02 -0.68702907970E+02  0.77112500703E+02  0.00000000000E+00 0.  1.
</event>
<event>
 7    1  0.2788485E-009  0.9664441E+02  0.7561462E-02  0.1287515E+00
          1   -1    0    0  501    0  0.00000000000E+00  0.00000000000E+00  0.59279639225E+03  0.59279639225E+03  0.00000000000E+00 0. -1.
         -1   -1    0    0    0  501 -0.00000000000E+00 -0.00000000000E+00 -0.25796947490E+02  0.25796947490E+02  0.00000000000E+00 0.  1.
         25    2    1    2    0    0  0.23805449199E+01  0.44632519980E+02  0.41370348382E+03  0.43450650952E+03  0.12509038914E+03 0.  0.
          5    1    3    3  502    0  0.44888774508E+02  0.50814826831E+02  0.12208533400E+03  0.13971202482E+03  0.41800000000E+01 0.  1.
         -5    1    3    3    0  502 -0.42508229588E+02 -0.61823068513E+01  0.29161814982E+03  0.29479448470E+03  0.41800000000E+01 0.  1.
        -11    1    1    2    0    0  0.28800639706E+02 -0.41974548467E+02  0.14194600526E+03  0.15079790442E+03  0.00000000000E+00 0. -1.
         11    1    1    2    0    0 -0.31181184626E+02 -0.26579715126E+01  0.11349955673E+02  0.33288925802E+02  0.00000000000E+00 0.  1.
</event>
<event>
 7    1  0.2788485E-009  0.1301165E+03  0.7561462E-02  0.1227283E+00
          2   -1    0    0  501    0  0.00000000000E+00  0.00000000000E+00  0.21759795347E+03  0.21759795347E+03  0.00000000000E+00 0. -1.
         -2   -1    0    0    0  501 -0.00000000000E+00 -0.00000000000E+00 -0.92711069914E+02  0.92711069914E+02  0.00000000000E+00 0.  1.
         25    2    1    2    0    0 -0.70729866926E+02 -0.46170020604E+02  0.89658655742E+02  0.17555945499E+03  0.12509221722E+03 0.  0.
          5    1    3    3  502    0 -0.40343941625E+02 -0.83863022316E+02  0.86070399565E+02  0.12683148749E+03  0.41800000000E+01 0.  1.
         -5    1    3    3    0  502 -0.30385925300E+02  0.37693001712E+02  0.35882561775E+01  0.48727967501E+02  0.41800000000E+01 0.  1.
        -11    1    1    2    0    0  0.75211410563E+02  0.32015947539E+01 -0.53631384089E+01  0.75470323581E+02  0.00000000000E+00 0.  1.
         11    1    1    2    0    0 -0.44815436378E+01  0.42968425850E+02  0.40591366220E+02  0.59279244808E+02  0.00000000000E+00 0. -1.
</event>
<event>
 7    1  0.2788485E-009  0.1780078E+03  0.7561462E-02  0.1169745E+00
          2   -1    0    0  501    0  0.00000000000E+00  0.00000000000E+00  0.17939840540E+03  0.17939840540E+03  0.00000000000E+00 0. -1.
         -2   -1    0    0    0  501 -0.00000000000E+00 -0.00000000000E+00 -0.23185863312E+03  0.23185863312E+03  0.00000000000E+00 0.  1.
         25    2    1    2    0    0 -0.44453328094E+02  0.14784491215E+03  0.49876320905E+02  0.20486346815E+03  0.12508867563E+03 0.  0.
          5    1    3    3  502    0 -0.18503113114E+02 -0.13153156791E+02  0.33818424619E+02  0.40945438967E+02  0.41800000000E+01 0. -1.
         -5    1    3    3    0  502 -0.25950214980E+02  0.16099806894E+03  0.16057896287E+02  0.16391802919E+03  0.41800000000E+01 0. -1.
        -11    1    1    2    0    0  0.47035006686E+02 -0.39483187602E+02 -0.70344164174E+02  0.93378345404E+02  0.00000000000E+00 0.  1.
         11    1    1    2    0    0 -0.25816785917E+01 -0.10836172455E+03 -0.31992384446E+02  0.11301522496E+03  0.00000000000E+00 0. -1.
</event>
<event>
 7    1  0.2788485E-009  0.6975621E+02  0.7561462E-02  0.1360924E+00
          1   -1    0    0  501    0  0.00000000000E+00  0.00000000000E+00  0.41055995408E+03  0.41055995408E+03  0.00000000000E+00 0. -1.
         -1   -1    0    0    0  501 -0.00000000000E+00 -0.00000000000E+00 -0.33405165839E+02  0.33405165839E+02  0.00000000000E+00 0.  1.
         25    2    1    2    0    0 -0.32755082722E+02 -0.18702530161E+02  0.25916462451E+03  0.29023577808E+03  0.12509126349E+03 0.  0.
          5    1    3    3  502    0  0.86206011596E+00 -0.21432155889E+02  0.25506975153E+03  0.25600416208E+03  0.41800000000E+01 0. -1.
         -5    1    3    3    0  502 -0.33617142838E+02  0.27296257281E+01  0.40948729757E+01  0.34231615999E+02  0.41800000000E+01 0. -1.
        -11    1    1    2    0    0  0.57138407269E+02  0.11983917853E+02  0.11406090989E+03  0.12813392617E+03  0.00000000000E+00 0. -1.
         11    1    1    2    0    0 -0.24383324547E+02  0.67186123079E+01  0.39292538419E+01  0.25595415665E+02  0.00000000000E+00 0.  1.
</event>
<event>
 7    1  0.2788485E-009  0.7469655E+02  0.7561462E-02  0.1344813E+00
         -1   -1    0    0    0  501 -0.00000000000E+00  0.00000000000E+00  0.18991337792E+03  0.18991337792E+03  0.00000000000E+00 0.  1.
          1   -1    0    0  501    0  0.00000000000E+00 -0.00000000000E+00 -0.62262596132E+02  0.62262596132E+02  0.00000000000E+00 0. -1.
         25    2    1    2    0    0  0.19909569982E+02 -0.72527289393E+01  0.15054486444E+03  0.19687828358E+03  0.12509320238E+03 0.  0.
          5    1    3    3  502    0 -0.46598986832E+02  0.87246618662E+01  0.10302318814E+03  0.11348495492E+03  0.41800000000E+01 0. -1.
         -5    1    3    3    0  502  0.66508556814E+02 -0.15977390806E+02  0.47521676303E+02  0.83393328661E+02  0.41800000000E+01 0. -1.
        -11    1    1    2    0    0 -0.18906371816E+01  0.13928534679E+02 -0.31309415243E+02  0.34319936919E+02  0.00000000000E+00 0. -1.
         11    1    1    2    0    0 -0.18018932801E+02 -0.66758057400E+01  0.84153325888E+01  0.20977753553E+02  0.00000000000E+00 0.  1.
</event>
<event>
 7    1  0.2788485E-009  0.1578529E+03  0.7561462E-02  0.1191142E+00
         -1   -1    0    0    0  501 -0.00000000000E+00  0.00000000000E+00  0.35332519268E+03  0.35332519268E+03  0.00000000000E+00 0.  1.
          1   -1    0    0  501    0  0.00000000000E+00 -0.00000000000E+00 -0.88779204457E+02  0.88779204457E+02  0.00000000000E+00 0. -1.
         25    2    1    2    0    0 -0.13667082229E+03 -0.31083015654E+01  0.11288534183E+03  0.21697674976E+03  0.12508890572E+03 0.  0.
          5    1    3    3  502    0 -0.14263238383E+03 -0.35664462525E+01  0.46397256289E+02  0.15008962072E+03  0.41800000000E+01 0. -1.
         -5    1    3    3    0  502  0.59615615471E+01  0.45814468704E+00  0.66488085543E+02  0.66887129044E+02  0.41800000000E+01 0. -1.
        -11    1    1    2    0    0  0.91179431419E+02 -0.43078832810E+02  0.10228452926E+03  0.14363704075E+03  0.00000000000E+00 0.  1.
         11    1    1    2    0    0  0.45491390867E+02  0.46187134375E+02  0.49376117135E+02  0.81490606625E+02  0.00000000000E+00 0. -1.
</event>
<event>
 7    1  0.2788485E-009  0.2449276E+03  0.7561462E-02  0.1116553E+00
         -1   -1    0    0    0  501 -0.00000000000E+00  0.00000000000E+00  0.26127424026E+03  0.26127424026E+03  0.00000000000E+00 0.  1.
          1   -1    0    0  501    0  0.00000000000E+00 -0.00000000000E+00 -0.26739972875E+03  0.26739972875E+03  0.00000000000E+00 0. -1.
         25    2    1    2    0    0  0.21577803279E+03 -0.86524955136E+02  0.57633460238E+02  0.27020725415E+03  0.12507444647E+03 0.  0.
          5    1    3    3  502    0  0.22074545441E+03 -0.71543671838E+02  0.24635963914E+02  0.23339120751E+03  0.41800000000E+01 0. -1.
         -5    1    3    3    0  502 -0.49674216189E+01 -0.14981283298E+02  0.32997496324E+02  0.36816046643E+02  0.41800000000E+01 0. -1.
        -11    1    1    2    0    0 -0.12193289572E+03  0.13793436699E+02 -0.66767111370E+02  0.13969873699E+03  0.00000000000E+00 0. -1.
         11    1    1    2    0    0 -0.93845137072E+02  0.72731518437E+02  0.30081626388E+01  0.11876797788E+03  0.00000000000E+00 0.  1.
</event>
<event>
 7    1  0.2788485E-009  0.9340203E+02  0.7561462E-02  0.1294816E+00
         -1   -1    0    0    0  501 -0.00000000000E+00  0.00000000000E+00  0.29167358323E+02  0.29167358323E+02  0.00000000000E+00 0.  1.
          1   -1    0    0  501    0  0.00000000000E+00 -0.00000000000E+00 -0.55112508312E+03  0.55112508312E+03  0.00000000000E+00 0. -1.
         25    2    1    2    0    0 -0.34606711541E+02  0.28147415454E+02 -0.40599387885E+03  0.42716241053E+03  0.12508714493E+03 0.  0.
          5    1    3    3  502    0 -0.25691385811E+02 -0.33835391258E+02 -0.30697801899E+03  0.30993202085E+03  0.41800000000E+01 0.  1.
         -5    1    3    3    0  502 -0.89153257297E+01  0.61982806711E+02 -0.99015859863E+02  0.11723038968E+03  0.41800000000E+01 0.  1.
        -11    1    1    2    0    0  0.37690879797E+02  0.13167766912E+02 -0.12749587810E+02  0.41911150003E+02  0.00000000000E+00 0.  1.
         11    1    1    2    0    0 -0.30841682557E+01 -0.41315182366E+02 -0.10321425814E+03  0.11121888091E+03  0.00000000000E+00 0. -1.
</event>
<event>
 7    1  0.2788485E-009  0.1799266E+03  0.7561462E-02  0.1167874E+00
         -3   -1    0    0    0  501 -0.00000000000E+00  0.00000000000E+00  0.67766636486E+03  0.67766636486E+03  0.00000000000E+00 0.  1.
          3   -1    0    0  501    0  0.00000000000E+00 -0.00000000000E+00 -0.49485483704E+02  0.49485483704E+02  0.00000000000E+00 0. -1.
         25    2    1    2    0    0 -0.10730424619E+01 -0.14511516194E+03  0.38610992607E+03  0.43103245021E+03  0.12509411049E+03 0.  0.
          5    1    3    3  502    0 -0.46547787004E+02 -0.85310826936E+01  0.90808722684E+02  0.10248498603E+03  0.41800000000E+01 0. -1.
         -5    1    3    3    0  502  0.45474744542E+02 -0.13658407925E+03  0.29530120338E+03  0.32854746417E+03  0.41800000000E+01 0. -1.
        -11    1    1    2    0    0  0.43114171693E+02  0.78407272252E+02  0.10469724348E+03  0.13772452554E+03  0.00000000000E+00 0.  1.
         11    1    1    2    0    0 -0.42041129231E+02  0.66707889687E+02  0.13737371161E+03  0.15839487282E+03  0.00000000000E+00 0. -1.
</event>
<event>
 7    1  0.2788485E-009  0.9328017E+02  0.7561462E-02  0.1295097E+00
          1   -1    0    0  501    0  0.00000000000E+00  0.00000000000E+00  0.82765773999E+02  0.82765773999E+02  0.00000000000E+00 0.  1.
         -1   -1    0    0    0  501 -0.00000000000E+00 -0.00000000000E+00 -0.22496142096E+03  0.22496142096E+03  0.00000000000E+00 0. -1.
         25    2    1    2    0    0  0.31935204502E+02 -0.56587082332E+02 -0.93929159976E+01  0.14127176091E+03  0.12509008109E+03 0.  0.
          5    1    3    3  502    0  0.60375201474E+02 -0.11224482053E+02  0.35692753052E+02  0.71151942847E+02  0.41800000000E+01 0.  1.
         -5    1    3    3    0  502 -0.28439996972E+02 -0.45362600279E+02 -0.45085669050E+02  0.70119818065E+02  0.41800000000E+01 0.  1.
        -11    1    1    2    0    0 -0.50954819776E+01  0.38738874692E+02 -0.11189428411E+02  0.40643174792E+02  0.00000000000E+00 0.  1.
         11    1    1    2    0    0 -0.26839722524E+02  0.17848207639E+02 -0.12161330256E+03  0.12581225926E+03  0.00000000000E+00 0. -1.
</event>
<event>
 7    1  0.2788485E-009  0.8469682E+02  0.7561462E-02  0.1316227E+00
         -1   -1    0    0    0  501 -0.00000000000E+00  0.00000000000E+00  0.13821529356E+04  0.13821529356E+04  0.00000000000E+00 0.  1.
          1   -1    0    0  501    0  0.00000000000E+00 -0.00000000000E+00 -0.14259193168E+02  0.14259193168E+02  0.00000000000E+00 0. -1.
         25    2    1    2    0    0  0.69707608119E+01 -0.57603817613E+02  0.10817733936E+04  0.10905270513E+04  0.12509509731E+03 0.  0.
          5    1    3    3  502    0 -0.15753727344E+02 -0.73195627440E+02  0.10200361082E+04  0.10227887925E+04  0.41800000000E+01 0.  1.
         -5    1    3    3    0  502  0.22724488156E+02  0.15591809827E+02  0.61737285396E+02  0.67738258789E+02  0.41800000000E+01 0.  1.
        -11    1    1    2    0    0 -0.15338028833E+02  0.10259603194E+02  0.29803003610E+01  0.18692158154E+02  0.00000000000E+00 0. -1.
         11    1    1    2    0    0  0.83672680212E+01  0.47344214419E+02  0.28314004855E+03  0.28719291932E+03  0.00000000000E+00 0.  1.
</event>
<event>
 7    1  0.2788485E-009  0.8573464E+02  0.7561462E-02  0.1313522E+00
          4   -1    0    0  501    0  0.00000000000E+00  0.00000000000E+00  0.39101524385E+03  0.39101524385E+03  0.00000000000E+00 0. -1.
         -4   -1    0    0    0  501 -0.00000000000E+00 -0.00000000000E+00 -0.43301698448E+02  0.43301698448E+02  0.00000000000E+00 0.  1.
         25    2    1    2    0    0  0.64467170798E+02 -0.90378976241E+00  0.25438814001E+03  0.29071929416E+03  0.12509016457E+03 0.  0.
          5    1    3    3  502    0  0.36443167277E+02  0.23738502635E+02  0.11822608390E+02  0.45264416683E+02  0.41800000000E+01 0.  1.
         -5    1    3    3    0  502  0.28024003521E+02 -0.24642292397E+02  0.24256553162E+03  0.24545487748E+03  0.41800000000E+01 0.  1.
        -11    1    1    2    0    0  0.94525976724E+01  0.12214825903E+02 -0.82137749597E+01  0.17493418010E+02  0.00000000000E+00 0.  1.
         11    1    1    2    0    0 -0.73919768471E+02 -0.11311036140E+02  0.10153918035E+03  0.12610423013E+03  0.00000000000E+00 0. -1.
</event>
<event>
 7    1  0.2788485E-009  0.2441729E+03  0.7561462E-02  0.1117044E+00
          2   -1    0    0  501    0  0.00000000000E+00  0.00000000000E+00  0.67928383022E+03  0.67928383022E+03  0.00000000000E+00 0. -1.
         -2   -1    0    0    0  501 -0.00000000000E+00 -0.00000000000E+00 -0.11976900931E+03  0.11976900931E+03  0.00000000000E+00 0.  1.
         25    2    1    2    0    0 -0.22922333691E+03  0.19317644692E+02  0.46513336437E+03  0.53377189641E+03  0.12508749404E+03 0.  0.
          5    1    3    3  502    0 -0.23841755590E+03  0.19804467374E+02  0.38706605009E+03  0.45505246667E+03  0.41800000000E+01 0.  1.
         -5    1    3    3    0  502  0.91942189956E+01 -0.48682268199E+00  0.78067314277E+02  0.78719429734E+02  0.41800000000E+01 0.  1.
        -11    1    1    2    0    0  0.11829933315E+03 -0.42382715684E+02  0.84761010712E+02  0.15157656728E+03  0.00000000000E+00 0. -1.
         11    1    1    2    0    0  0.11092400376E+03  0.23065070991E+02  0.96204458300E+01  0.11370437585E+03  0.00000000000E+00 0.  1.
</event>
<event>
 7    1  0.2788485E-009  0.1427508E+03  0.7561462E-02  0.1209675E+00
         -1   -1    0    0    0  501 -0.00000000000E+00  0.00000000000E+00  0.15195260047E+03  0.15195260047E+03  0.00000000000E+00 0.  1.
          1   -1    0    0  501    0  0.00000000000E+00 -0.00000000000E+00 -0.16386093298E+04  0.16386093298E+04  0.00000000000E+00 0. -1.
         25    2    1    2    0    0  0.62573640142E+02  0.10507279011E+03 -0.15951267199E+04  0.16046903704E+04  0.12508469434E+03 0.  0.
          5    1    3    3  502    0  0.56490421119E+02  0.27218368988E+02 -0.26833798643E+03  0.27559890176E+03  0.41800000000E+01 0. -1.
         -5    1    3    3    0  502  0.60832190234E+01  0.77854421117E+02 -0.13267887335E+04  0.13290914687E+04  0.41800000000E+01 0. -1.
        -11    1    1    2    0    0 -0.59790675786E+02 -0.11743604735E+03  0.78640172534E+02  0.15346148332E+03  0.00000000000E+00 0. -1.
         11    1    1    2    0    0 -0.27829643567E+01  0.12363257245E+02  0.29829817996E+02  0.32410076550E+02  0.00000000000E+00 0.  1.
</event>
<event>
 7    1  0.2788485E-009  0.1874918E+03  0.7561462E-02  0.1160743E+00
          2   -1    0    0  501    0  0.00000000000E+00  0.00000000000E+00  0.61739654677E+03  0.61739654677E+03  0.00000000000E+00 0. -1.
         -2   -1    0    0    0  501 -0.00000000000E+00 -0.00000000000E+00 -0.87005523795E+02  0.87005523795E+02  0.00000000000E+00 0.  1.
         25    2    1    2    0    0  0.17714386244E+03 -0.87864208727E+01  0.11931150198E+03  0.24767600347E+03  0.12510403270E+03 0.  0.
          5    1    3    3  502    0  0.31792630184E+02  0.84642969608E+01 -0.25422725655E+02  0.41787594293E+02  0.41800000000E+01 0.  1.
         -5    1    3    3    0  502  0.14535123226E+03 -0.17250717833E+02  0.14473422763E+03  0.20588840917E+03  0.41800000000E+01 0.  1.
        -11    1    1    2    0    0 -0.20771336319E+01  0.19863011818E+02  0.20793455361E+02  0.28830912377E+02  0.00000000000E+00 0.  1.
         11    1    1    2    0    0 -0.17506672881E+03 -0.11076590946E+02  0.39028606563E+03  0.42789515472E+03  0.00000000000E+00 0. -1.
</event>
<event>
 7    1  0.2788485E-009  0.1537100E+03  0.7561462E-02  0.1195987E+00
          2   -1    0    0  501    0  0.00000000000E+00  0.00000000000E+00  0.41698985309E+03  0.41698985309E+03  0.00000000000E+00 0. -1.
         -2   -1    0    0    0  501 -0.00000000000E+00 -0.00000000000E+00 -0.61225194937E+02  0.61225194937E+02  0.00000000000E+00 0.  1.
         25    2    1    2    0    0 -0.31646182568E+01  0.11332009918E+03  0.22680267930E+03  0.28273431887E+03  0.12509108700E+03 0.  0.
          5    1    3    3  502    0  0.54005185299E+02  0.87900722035E+02  0.16533434270E+03  0.19492566340E+03  0.41800000000E+01 0. -1.
         -5    1    3    3    0  502 -0.57169803556E+02  0.25419377141E+02  0.61468336593E+02  0.87808655476E+02  0.41800000000E+01 0. -1.
        -11    1    1    2    0    0 -0.12599292527E+02  0.10649096550E+02  0.85899796708E+00  0.16519179974E+02  0.00000000000E+00 0.  1.
         11    1    1    2    0    0  0.15763910784E+02 -0.12396919573E+03  0.12810298089E+03  0.17896154918E+03  0.00000000000E+00 0. -1.
</event>
<event>
 7    1  0.2788485E-009  0.1430313E+03  0.7561462E-02  0.1209307E+00
          2   -1    0    0  501    0  0.00000000000E+00  0.00000000000E+00  0.56197097117E+03  0.56197097117E+03  0.00000000000E+00 0. -1.
         -2   -1    0    0    0  501 -0.00000000000E+00 -0.00000000000E+00 -0.40087254321E+02  0.40087254321E+02  0.00000000000E+00 0.  1.
         25    2    1    2    0    0  0.49260462758E+02  0.84341441427E+02  0.20536067292E+03  0.25954008984E+03  0.12509188750E+03 0.  0.
          5    1    3    3  502    0  0.90806744316E+02  0.45836382356E+02  0.13625061342E+03  0.17008392286E+03  0.41800000000E+01 0.  1.
         -5    1    3    3    0  502 -0.41546281557E+02  0.38505059071E+02  0.69110059499E+02  0.89456166971E+02  0.41800000000E+01 0.  1.
        -11    1    1    2    0    0  0.17401048139E+02 -0.49019255211E+02  0.16900574845E+03  0.17682937218E+03  0.00000000000E+00 0.  1.
         11    1    1    2    0    0 -0.66661510897E+02 -0.35322186215E+02  0.14751729549E+03  0.16568876348E+03  0.00000000000E+00 0. -1.
</event>
<event>
 7    1  0.2788485E-009  0.9234144E+02  0.7561462E-02  0.1297279E+00
          2   -1    0    0  501    0  0.00000000000E+00  0.00000000000E+00  0.11319005530E+04  0.11319005530E+04  0.00000000000E+00 0. -1.
         -2   -1    0    0    0  501 -0.00000000000E+00 -0.00000000000E+00 -0.18344895020E+02  0.18344895020E+02  0.00000000000E+00 0.  1.
         25    2    1    2    0    0  0.24934406885E+02  0.54320382169E+02  0.90347047856E+03  0.91404583735E+03  0.12509379909E+03 0.  0.
          5    1    3    3  502    0  0.36378775190E+02  0.25701420485E+01  0.76250283953E+03  0.76338592704E+03  0.41800000000E+01 0.  1.
         -5    1    3    3    0  502 -0.11444368305E+02  0.51750240121E+02  0.14096763904E+03  0.15065991031E+03  0.41800000000E+01 0.  1.
        -11    1    1    2    0    0 -0.28108110752E+02  0.10430413705E+02  0.12872207387E+03  0.13216743821E+03  0.00000000000E+00 0.  1.
         11    1    1    2    0    0  0.31737038668E+01 -0.64750795874E+02  0.81363105501E+02  0.10403217242E+03  0.00000000000E+00 0. -1.
</event>
<event>
 7    1  0.2788485E-009  0.1945000E+03  0.7561462E-02  0.1154464E+00
          1   -1    0    0  501    0  0.00000000000E+00  0.00000000000E+00  0.76866661319E+03  0.76866661319E+03  0.00000000000E+00 0. -1.
         -1   -1    0    0    0  501 -0.00000000000E+00 -0.00000000000E+00 -0.10679594486E+03  0.10679594486E+03  0.00000000000E+00 0.  1.
         25    2    1    2    0    0 -0.89917754283E+02 -0.14550969822E+03  0.28672501687E+02  0.21384253792E+03  0.12509294089E+03 0.  0.
          5    1    3    3  502    0 -0.51088632455E+02 -0.15083855214E+03  0.52556256832E+02  0.16775562497E+03  0.41800000000E+01 0. -1.
         -5    1    3    3    0  502 -0.38829121827E+02  0.53288539140E+01 -0.23883755146E+02  0.46086912956E+02  0.41800000000E+01 0. -1.
        -11    1    1    2    0    0  0.83614366611E+02  0.56208501030E+02  0.29292272867E+03  0.30976520602E+03  0.00000000000E+00 0. -1.
         11    1    1    2    0    0  0.63033876719E+01  0.89301197192E+02  0.34027543797E+03  0.35185481410E+03  0.00000000000E+00 0.  1.
</event>
<event>
 7    1  0.2788485E-009  0.1488233E+03  0.7561462E-02  0.1201926E+00
         -2   -1    0    0    0  501 -0.00000000000E+00  0.00000000000E+00  0.60804309056E+02  0.60804309056E+02  0.00000000000E+00 0.  1.
          2   -1    0    0  501    0  0.00000000000E+00 -0.00000000000E+00 -0.81176568503E+03  0.81176568503E+03  0.00000000000E+00 0. -1.
         25    2    1    2    0    0 -0.90882604256E+02  0.99753819475E+02 -0.11699290110E+03  0.21804753950E+03  0.12508764256E+03 0.  0.
          5    1    3    3  502    0  0.21086655376E+01  0.13233338977E+02 -0.86132834990E+02  0.87269154884E+02  0.41800000000E+01 0.  1.
         -5    1    3    3    0  502 -0.92991269794E+02  0.86520480498E+02 -0.30860066107E+02  0.13077838462E+03  0.41800000000E+01 0.  1.
        -11    1    1    2    0    0  0.16106702274E+02 -0.76557020355E+02 -0.22730755002E+03  0.24039368860E+03  0.00000000000E+00 0.  1.
         11    1    1    2    0    0  0.74775901983E+02 -0.23196799119E+02 -0.40666092486E+03  0.41412876598E+03  0.00000000000E+00 0. -1.
</event>
<event>
 7    1  0.2788485E-009  0.1234707E+03  0.7561462E-02  0.1237479E+00
          1   -1    0    0  501    0  0.00000000000E+00  0.00000000000E+00  0.14057964913E+04  0.14057964913E+04  0.00000000000E+00 0. -1.
         -1   -1    0    0    0  501 -0.00000000000E+00 -0.00000000000E+00 -0.11240881297E+02  0.11240881297E+02  0.00000000000E+00 0.  1.
         25    2    1    2    0    0 -0.15058433996E+02  0.30895586877E+02  0.81406143126E+03  0.82433193055E+03  0.12508326881E+03 0.  0.
          5    1    3    3  502    0 -0.22972404412E+02 -0.45183955109E+02  0.25266644050E+03  0.25773459938E+03  0.41800000000E+01 0.  1.
         -5    1    3    3    0  502  0.79139704163E+01  0.76079541986E+02  0.56139499076E+03  0.56659733117E+03  0.41800000000E+01 0.  1.
        -11    1    1    2    0    0 -0.77790694999E+01  0.42192523379E+02  0.19168359993E+03  0.19642638681E+03  0.00000000000E+00 0. -1.
         11    1    1    2    0    0  0.22837503496E+02 -0.73088110255E+02  0.38881057886E+03  0.39627905528E+03  0.00000000000E+00 0.  1.
</event>
<event>
 7    1  0.2788485E-009  0.1019016E+03  0.7561462E-02  0.1276347E+00
          4   -1    0    0  501    0  0.00000000000E+00  0.00000000000E+00  0.42292087472E+03  0.42292087472E+03  0.00000000000E+00 0. -1.
         -4   -1    0    0    0  501 -0.00000000000E+00 -0.00000000000E+00 -0.33446128762E+02  0.33446128762E+02  0.00000000000E+00 0.  1.
         25    2    1    2    0    0  0.16173722950E+02 -0.25236845529E+02  0.12310097855E+03  0.17804321728E+03  0.12508816336E+03 0.  0.
          5    1    3    3  502    0  0.69979523636E+02 -0.30700708426E+01  0.63457308976E+02  0.94608992837E+02  0.41800000000E+01 0.  1.
         -5    1    3    3    0  502 -0.53805800685E+02 -0.22166774687E+02  0.59643669576E+02  0.83434224440E+02  0.41800000000E+01 0.  1.
        -11    1    1    2    0    0 -0.45673540444E+01  0.48804773042E+02  0.12024483998E+03  0.12985217802E+03  0.00000000000E+00 0.  1.
         11    1    1    2    0    0 -0.11606368906E+02 -0.23567927513E+02  0.14612892742E+03  0.14847160818E+03  0.00000000000E+00 0. -1.
</event>
<event>
 7    1  0.2788485E-009  0.1125374E+03  0.7561462E-02  0.1255942E+00
          3   -1    0    0  501    0  0.00000000000E+00  0.00000000000E+00  0.14066991345E+03  0.14066991345E+03  0.00000000000E+00 0. -1.
         -3   -1    0    0    0  501 -0.00000000000E+00 -0.00000000000E+00 -0.14089845719E+03  0.14089845719E+03  0.00000000000E+00 0.  1.
         25    2    1    2    0    0 -0.13258336261E+02  0.75980174422E+02  0.47024927964E+02  0.15428360901E+03  0.12507324964E+03 0.  0.
          5    1    3    3  502    0  0.25360713131E+02  0.65173322380E+02  0.76955351520E+02  0.10406885340E+03  0.41800000000E+01 0.  1.
         -5    1    3    3    0  502 -0.38619049393E+02  0.10806852042E+02 -0.29930423556E+02  0.50214755613E+02  0.41800000000E+01 0.  1.
        -11    1    1    2    0    0  0.34100778346E+02  0.18233432701E+01 -0.28749212739E+02  0.44639723315E+02  0.00000000000E+00 0.  1.
         11    1    1    2    0    0 -0.20842442085E+02 -0.77803517692E+02 -0.18504258971E+02  0.82645038311E+02  0.00000000000E+00 0. -1.
</event>
<event>
 7    1  0.2788485E-009  0.8848732E+02  0.7561462E-02  0.1306557E+00
         -2   -1    0    0    0  501 -0.00000000000E+00  0.00000000000E+00  0.13347404531E+03  0.13347404531E+03  0.00000000000E+00 0.  1.
          2   -1    0    0  501    0  0.00000000000E+00 -0.00000000000E+00 -0.11003570461E+03  0.11003570461E+03  0.00000000000E+00 0. -1.
         25    2    1    2    0    0  0.30663818334E+02 -0.25818419260E+02  0.25833228942E+02  0.13387242215E+03  0.12509040398E+03 0.  0.
          5    1    3    3  502    0  0.21137284922E+02  0.14853379572E+02 -0.44696290649E+02  0.51794193655E+02  0.41800000000E+01 0. -1.
         -5    1    3    3    0  502  0.95265334128E+01 -0.40671798832E+02  0.70529519591E+02  0.82078228495E+02  0.41800000000E+01 0. -1.
        -11    1    1    2    0    0 -0.45997718202E+02  0.57494878803E+02  0.45302411534E+01  0.73769738059E+02  0.00000000000E+00 0.  1.
         11    1    1    2    0    0  0.15333899867E+02 -0.31676459543E+02 -0.69251293981E+01  0.35867589709E+02  0.00000000000E+00 0. -1.
</event>
<event>
 7    1  0.2788485E-009  0.1082728E+03  0.7561462E-02  0.1263802E+00
          1   -1    0    0  501    0  0.00000000000E+00  0.00000000000E+00  0.47382345392E+03  0.47382345392E+03  0.00000000000E+00 0.  1.
         -1   -1    0    0    0  501 -0.00000000000E+00 -0.00000000000E+00 -0.36559201413E+02  0.36559201413E+02  0.00000000000E+00 0. -1.
         25    2    1    2    0    0 -0.43505956107E+02  0.52463699098E+02  0.29592161877E+03  0.32842396705E+03  0.12508992659E+03 0.  0.
          5    1    3    3  502    0 -0.62869908692E+02 -0.20497825299E+02  0.15319833188E+03  0.16691311378E+03  0.41800000000E+01 0.  1.
         -5    1    3    3    0  502  0.19363952585E+02  0.72961524397E+02  0.14272328690E+03  0.16151085327E+03  0.41800000000E+01 0.  1.
        -11    1    1    2    0    0  0.32527317254E+02 -0.15325992084E+02  0.13854085834E+03  0.14313099535E+03  0.00000000000E+00 0.  1.
         11    1    1    2    0    0  0.10978638853E+02 -0.37137707014E+02  0.28017753976E+01  0.38827692935E+02  0.00000000000E+00 0. -1.
</event>
<event>
 7    1  0.2788485E-009  0.1260023E+03  0.7561462E-02  0.1233511E+00
          3   -1    0    0  501    0  0.00000000000E+00  0.00000000000E+00  0.13241737596E+03  0.13241737596E+03  0.00000000000E+00 0. -1.
         -3   -1    0    0    0  501 -0.00000000000E+00 -0.00000000000E+00 -0.15932547245E+03  0.15932547245E+03  0.00000000000E+00 0.  1.
         25    2    1    2    0    0 -0.91445932478E+02  0.13524479245E+01  0.15338364787E+02  0.15571305944E+03  0.12508838380E+03 0.  0.
          5    1    3    3  502    0 -0.19625857799E+01 -0.28281099556E+02  0.47967798339E+02  0.55875347091E+02  0.41800000000E+01 0. -1.
         -5    1    3    3    0  502 -0.89483346698E+02  0.29633547480E+02 -0.32629433551E+02  0.99837712346E+02  0.41800000000E+01 0. -1.
        -11    1    1    2    0    0  0.41588945045E+02  0.44747593149E+02 -0.24708893419E+02  0.65897775809E+02  0.00000000000E+00 0.  1.
         11    1    1    2    0    0  0.49856987433E+02 -0.46100041074E+02 -0.17537567860E+02  0.70132013156E+02  0.00000000000E+00 0. -1.
</event>
<event>
 7    1  0.2788485E-009  0.1069686E+03  0.7561462E-02  0.1266289E+00
          3   -1    0    0  501    0  0.00000000000E+00  0.00000000000E+00  0.10126173212E+03  0.10126173212E+03  0.00000000000E+00 0. -1.
         -3   -1    0    0    0  501 -0.00000000000E+00 -0.00000000000E+00 -0.13361537104E+03  0.13361537104E+03  0.00000000000E+00 0.  1.
         25    2    1    2    0    0 -0.34985179799E+02  0.13146168544E+02 -0.32203131682E+01  0.13059447741E+03  0.12509101711E+03 0.  0.
          5    1    3    3  502    0 -0.52834960463E+02  0.50979234971E+02  0.27514460590E+02  0.78517089776E+02  0.41800000000E+01 0. -1.
         -5    1    3    3    0  502  0.17849780664E+02 -0.37833066427E+02 -0.30734773758E+02  0.52077387636E+02  0.41800000000E+01 0. -1.
        -11    1    1    2    0    0  0.23938595578E+02 -0.52384126569E+02 -0.26600233021E+02  0.63440724077E+02  0.00000000000E+00 0.  1.
         11    1    1    2    0    0  0.11046584221E+02  0.39237958025E+02 -0.25330927315E+01  0.40841901666E+02  0.00000000000E+00 0. -1.
</event>
<event>
 7    1  0.2788485E-009  0.1150868E+03  0.7561462E-02  0.1251430E+00
         -1   -1    0    0    0  501 -0.00000000000E+00  0.00000000000E+00  0.50836714955E+03  0.50836714955E+03  0.00000000000E+00 0.  1.
          1   -1    0    0  501    0  0.00000000000E+00 -0.00000000000E+00 -0.31075457888E+02  0.31075457888E+02  0.00000000000E+00 0. -1.
         25    2    1    2    0    0  0.11986113340E+02  0.50002396344E+02  0.18946438421E+03  0.23278099447E+03  0.12508529868E+03 0.  0.
          5    1    3    3  502    0 -0.44788142497E+02  0.50547373392E+02  0.14678088404E+03  0.16162646746E+03  0.41800000000E+01 0.  1.
         -5    1    3    3    0  502  0.56774255837E+02 -0.54497704779E+00  0.42683500171E+02  0.71154527001E+02  0.41800000000E+01 0.  1.
        -11    1    1    2    0    0  0.16085967209E+01 -0.76118685302E+02  0.19808387579E+03  0.21221183681E+03  0.00000000000E+00 0. -1.
         11    1    1    2    0    0 -0.13594710061E+02  0.26116288958E+02  0.89743431658E+02  0.94449776159E+02  0.00000000000E+00 0.  1.
</event>
<event>
 7    1  0.2788485E-009  0.1004351E+03  0.7561462E-02  0.1279384E+00
          2   -1    0    0  501    0  0.00000000000E+00  0.00000000000E+00  0.25662317597E+03  0.25662317597E+03  0.00000000000E+00 0. -1.
         -2   -1    0    0    0  501 -0.00000000000E+00 -0.00000000000E+00 -0.46066433459E+02  0.46066433459E+02  0.00000000000E+00 0.  1.
         25    2    1    2    0    0  0.18524662180E+01 -0.11775216791E+02  0.11379397422E+03  0.16952640622E+03  0.12509215194E+03 0.  0.
          5    1    3    3  502    0  0.61287919609E+02  0.78896783276E+01  0.45966392947E+02  0.77128709276E+02  0.41800000000E+01 0. -1.
         -5    1    3    3    0  502 -0.59435453391E+02 -0.19664895119E+02  0.67827581269E+02  0.92397696944E+02  0.41800000000E+01 0. -1.
        -11    1    1    2    0    0  0.15925779202E+02  0.39876483560E+02  0.16000928656E+02  0.45823510365E+02  0.00000000000E+00 0.  1.
         11    1    1    2    0    0 -0.17778245420E+02 -0.28101266769E+02  0.80761839643E+02  0.87339692848E+02  0.00000000000E+00 0. -1.
</event>
<event>
 7    1  0.2788485E-009  0.1414757E+03  0.7561462E-02  0.1211357E+00
          2   -1    0    0  501    0  0.00000000000E+00  0.00000000000E+00  0.92069117129E+03  0.92069117129E+03  0.00000000000E+00 0. -1.
         -2   -1    0    0    0  501 -0.00000000000E+00 -0.00000000000E+00 -0.24190890121E+02  0.24190890121E+02  0.00000000000E+00 0.  1.
         25    2    1    2    0    0  0.42606581877E+02 -0.92885441755E+02  0.49061845144E+03  0.51652408835E+03  0.12509053858E+03 0.  0.
          5    1    3    3  502    0 -0.33100127497E+02  0.13927499590E+01  0.18201083992E+03  0.18504857859E+03  0.41800000000E+01 0.  1.
         -5    1    3    3    0  502  0.75706709374E+02 -0.94278191714E+02  0.30860761152E+03  0.33147550975E+03  0.41800000000E+01 0.  1.
        -11    1    1    2    0    0 -0.51682344008E+02  0.20463653245E+02  0.25180859437E+03  0.25787088626E+03  0.00000000000E+00 0.  1.
         11    1    1    2    0    0  0.90757621310E+01  0.72421788510E+02  0.15407323536E+03  0.17048708680E+03  0.00000000000E+00 0. -1.
</event>
<event>
 7    1  0.2788485E-009  0.1329377E+03  0.7561462E-02  0.1223161E+00
         -2   -1    0    0    0  501 -0.00000000000E+00  0.00000000000E+00  0.56677909401E+02  0.56677909401E+02  0.00000000000E+00 0.  1.
          2   -1    0    0  501    0  0.00000000000E+00 -0.00000000000E+00 -0.64965991760E+03  0.64965991760E+03  0.00000000000E+00 0. -1.
         25    2    1    2    0    0 -0.72075896841E+02 -0.38711274927E+02 -0.55980277870E+03  0.57941299464E+03  0.12508704813E+03 0.  0.
          5    1    3    3  502    0 -0.30959707731E+02 -0.79442019925E+02 -0.40940233355E+03  0.41820722273E+03  0.41800000000E+01 0. -1.
         -5    1    3    3    0  502 -0.41116189110E+02  0.40730744998E+02 -0.15040044515E+03  0.16120577191E+03  0.41800000000E+01 0. -1.
        -11    1    1    2    0    0 -0.22028685049E+02  0.90728780677E+01 -0.74912750032E+01  0.24973972103E+02  0.00000000000E+00 0. -1.
         11    1    1    2    0    0  0.94104581890E+02  0.29638396860E+02 -0.25687954498E+02  0.10195086026E+03  0.00000000000E+00 0.  1.
</event>
<event>
 7    1  0.2788485E-009  0.1111706E+03  0.7561462E-02  0.1258417E+00
         -1   -1    0    0    0  501 -0.00000000000E+00  0.00000000000E+00  0.81946135728E+03  0.81946135728E+03  0.00000000000E+00 0.  1.
          1   -1    0    0  501    0  0.00000000000E+00 -0.00000000000E+00 -0.26523520589E+02  0.26523520589E+02  0.00000000000E+00 0. -1.
         25    2    1    2    0    0  0.66380918288E+01  0.83381269219E+02  0.27463260788E+03  0.31315608703E+03  0.12508862945E+03 0.  0.
          5    1    3    3  502    0 -0.32239221330E+02  0.30666094731E+02  0.17858978317E+02  0.48126835181E+02  0.41800000000E+01 0.  1.
         -5    1    3    3    0  502  0.38877313159E+02  0.52715174488E+02  0.25677362956E+03  0.26502925185E+03  0.41800000000E+01 0.  1.
        -11    1    1    2    0    0 -0.34246221126E+01  0.14086113003E+02  0.18019066552E+02  0.23126464830E+02  0.00000000000E+00 0. -1.
         11    1    1    2    0    0 -0.32134697162E+01 -0.97467382222E+02  0.50028616226E+03  0.50970232601E+03  0.00000000000E+00 0.  1.
</event>
<event>
 7    1  0.2788485E-009  0.1379301E+03  0.7561462E-02  0.1216142E+00
          1   -1    0    0  501    0  0.00000000000E+00  0.00000000000E+00  0.20769888980E+03  0.20769888980E+03  0.00000000000E+00 0. -1.
         -1   -1    0    0    0  501 -0.00000000000E+00 -0.00000000000E+00 -0.13512972292E+03  0.13512972292E+03  0.00000000000E+00 0.  1.
         25    2    1    2    0    0  0.11623206072E+03  0.48526341000E+02  0.25474234628E+02  0.17933144922E+03  0.12508450879E+03 0.  0.
          5    1    3    3  502    0  0.24196479605E+02  0.20149997702E+02 -0.48390918658E+02  0.57884760009E+02  0.41800000000E+01 0. -1.
         -5    1    3    3    0  502  0.92035581118E+02  0.28376343299E+02  0.73865153287E+02  0.12144668921E+03  0.41800000000E+01 0. -1.
        -11    1    1    2    0    0 -0.50756348666E+02  0.18473778251E+02  0.44163826962E+02  0.69770559871E+02  0.00000000000E+00 0. -1.
         11    1    1    2    0    0 -0.65475712057E+02 -0.67000119251E+02  0.29311052907E+01  0.93726603626E+02  0.00000000000E+00 0.  1.
</event>
<event>
 7    1  0.2788485E-009  0.1165249E+03  0.7561462E-02  0.1248942E+00
          1   -1    0    0  501    0  0.00000000000E+00  0.00000000000E+00  0.20276132183E+03  0.20276132183E+03  0.00000000000E+00 0. -1.
         -1   -1    0    0    0  501 -0.00000000000E+00 -0.00000000000E+00 -0.13142685249E+03  0.13142685249E+03  0.00000000000E+00 0.  1.
         25    2    1    2    0    0 -0.52774755800E+02 -0.95556521777E+02 -0.40765930978E+01  0.16607648390E+03  0.12509418927E+03 0.  0.
          5    1    3    3  502    0  0.78333918936E+00  0.77482320855E+00  0.45103941302E+02  0.45310615668E+02  0.41800000000E+01 0.  1.
         -5    1    3    3    0  502 -0.53558094990E+02 -0.96331344985E+02 -0.49180534400E+02  0.12076586823E+03  0.41800000000E+01 0.  1.
        -11    1    1    2    0    0  0.15854412815E+02  0.73993456241E+02 -0.62541804495E+01  0.75930947217E+02  0.00000000000E+00 0.  1.
         11    1    1    2    0    0  0.36920342985E+02  0.21563065536E+02  0.81665242893E+02  0.92180743207E+02  0.00000000000E+00 0. -1.
</event>
<event>
 7    1  0.2788485E-009  0.1061283E+03  0.7561462E-02  0.1267912E+00
         -2   -1    0    0    0  501 -0.00000000000E+00  0.00000000000E+00  0.51267884084E+03  0.51267884084E+03  0.00000000000E+00 0.  1.
          2   -1    0    0  501    0  0.00000000000E+00 -0.00000000000E+00 -0.36411490336E+02  0.36411490336E+02  0.00000000000E+00 0. -1.
         25    2    1    2    0    0  0.14197704218E+02 -0.62781750866E+02  0.35877938251E+03  0.38537539887E+03  0.12509368368E+03 0.  0.
          5    1    3    3  502    0 -0.29306438182E+02 -0.12680044271E+02  0.28190746886E+03  0.28374098089E+03  0.41800000000E+01 0. -1.
         -5    1    3    3    0  502  0.43504142400E+02 -0.50101706594E+02  0.76871913650E+02  0.10163441798E+03  0.41800000000E+01 0. -1.
        -11    1    1    2    0    0 -0.32419782576E+02  0.81337415587E+02  0.96427095176E+02  0.13024976837E+03  0.00000000000E+00 0.  1.
         11    1    1    2    0    0  0.18222078358E+02 -0.18555664722E+02  0.21060872818E+02  0.33465163930E+02  0.00000000000E+00 0. -1.
</event>
<event>
 7    1  0.2788485E-009  0.1363899E+03  0.7561462E-02  0.1218271E+00
         -1   -1    0    0    0  501 -0.00000000000E+00  0.00000000000E+00  0.31762418729E+02  0.31762418729E+02  0.00000000000E+00 0.  1.
          1   -1    0    0  501    0  0.00000000000E+00 -0.00000000000E+00 -0.70396067142E+03  0.70396067142E+03  0.00000000000E+00 0. -1.
         25    2    1    2    0    0  0.96574109483E+02 -0.33479520604E+02 -0.38199849373E+03  0.41474940916E+03  0.12508711469E+03 0.  0.
          5    1    3    3  502    0  0.67879021839E+02 -0.68506480921E+02 -0.33785317039E+03  0.35137293105E+03  0.41800000000E+01 0. -1.
         -5    1    3    3    0  502  0.28695087644E+02  0.35026960317E+02 -0.44145323342E+02  0.63376478104E+02  0.41800000000E+01 0. -1.
        -11    1    1    2    0    0  0.49672064285E+01  0.28695693737E+02 -0.11294090424E+03  0.11663517407E+03  0.00000000000E+00 0. -1.
         11    1    1    2    0    0 -0.10154131591E+03  0.47838268671E+01 -0.17725885472E+03  0.20433850692E+03  0.00000000000E+00 0.  1.
</event>
<event>
 7    1  0.2788485E-009  0.1896797E+03  0.7561462E-02  0.1158751E+00
          2   -1    0    0  501    0  0.00000000000E+00  0.00000000000E+00  0.71616464753E+03  0.71616464753E+03  0.00000000000E+00 0. -1.
         -2   -1    0    0    0  501 -0.00000000000E+00 -0.00000000000E+00 -0.68637625764E+02  0.68637625764E+02  0.00000000000E+00 0.  1.
         25    2    1    2    0    0 -0.10743819153E+03 -0.14786313121E+03  0.43904224880E+03  0.49174230029E+03  0.12508366437E+03 0.  0.
          5    1    3    3  502    0 -0.10878193777E+03 -0.10145438093E+03  0.20625019524E+03  0.25432875738E+03  0.41800000000E+01 0. -1.
         -5    1    3    3    0  502  0.13437462391E+01 -0.46408750284E+02  0.23279205355E+03  0.23741354291E+03  0.41800000000E+01 0. -1.
        -11    1    1    2    0    0  0.82183519809E+02  0.96903628138E+02  0.73989146124E+02  0.14703345816E+03  0.00000000000E+00 0.  1.
         11    1    1    2    0    0  0.25254671723E+02  0.50959503074E+02  0.13449562685E+03  0.14602651485E+03  0.00000000000E+00 0. -1.
</event>
<event>
 7    1  0.2788485E-009  0.1089157E+03  0.7561462E-02  0.1262591E+00
         -2   -1    0    0    0  501 -0.00000000000E+00  0.00000000000E+00  0.56912707893E+03  0.56912707893E+03  0.00000000000E+00 0.  1.
          2   -1    0    0  501    0  0.00000000000E+00 -0.00000000000E+00 -0.37562518926E+02  0.37562518926E+02  0.00000000000E+00 0. -1.
         25    2    1    2    0    0 -0.93379677984E+02 -0.20827112122E+02  0.29550601364E+03  0.33484876079E+03  0.12508539342E+03 0.  0.
          5    1    3    3  502    0 -0.33527584665E+02 -0.72838788677E+01  0.16264719972E+01  0.34601613199E+02  0.41800000000E+01 0. -1.
         -5    1    3    3    0  502 -0.59852093319E+02 -0.13543233254E+02  0.29387954164E+03  0.30024714759E+03  0.41800000000E+01 0. -1.
        -11    1    1    2    0    0  0.98757913625E+02 -0.15257833161E+01  0.12970236484E+03  0.16302808642E+03  0.00000000000E+00 0. -1.
         11    1    1    2    0    0 -0.53782356400E+01  0.22352895438E+02  0.10635618153E+03  0.10881275064E+03  0.00000000000E+00 0.  1.
</event>
<event>
 7    1  0.2788485E-009  0.3140448E+03  0.7561462E-02  0.1078423E+00
          2   -1    0    0  501    0  0.00000000000E+00  0.00000000000E+00  0.16324991451E+04  0.16324991451E+04  0.00000000000E+00 0. -1.
         -2   -1    0    0    0  501 -0.00000000000E+00 -0.00000000000E+00 -0.64363358877E+02  0.64363358877E+02  0.00000000000E+00 0.  1.
         25    2    1    2    0    0 -0.22990173188E+03 -0.19797888020E+03  0.72443923159E+03  0.79530519510E+03  0.12509080603E+03 0.  0.
          5    1    3    3  502    0 -0.24092350658E+03 -0.17191999385E+03  0.68806057732E+03  0.74902967283E+03  0.41800000000E+01 0. -1.
         -5    1    3    3    0  502  0.11021774699E+02 -0.26058886343E+02  0.36378654269E+02  0.46275522270E+02  0.41800000000E+01 0. -1.
        -11    1    1    2    0    0  0.11085834872E+03  0.90678249572E+02  0.26676922284E+03  0.30278364666E+03  0.00000000000E+00 0. -1.
         11    1    1    2    0    0  0.11904338316E+03  0.10730063062E+03  0.57692733180E+03  0.59877366223E+03  0.00000000000E+00 0.  1.
</event>
<event>
 7    1  0.2788485E-009  0.1304518E+03  0.7561462E-02  0.1226787E+00
          1   -1    0    0  501    0  0.00000000000E+00  0.00000000000E+00  0.27922754215E+02  0.27922754215E+02  0.00000000000E+00 0. -1.
         -1   -1    0    0    0  501 -0.00000000000E+00 -0.00000000000E+00 -0.64318844673E+03  0.64318844673E+03  0.00000000000E+00 0.  1.
         25    2    1    2    0    0 -0.42773591475E+02 -0.69922751646E+02 -0.36503726950E+03  0.39448592519E+03  0.12509262859E+03 0.  0.
          5    1    3    3  502    0 -0.53421331408E+01  0.35207888742E+02 -0.63348693931E+02  0.72791917401E+02  0.41800000000E+01 0.  1.
         -5    1    3    3    0  502 -0.37431458334E+02 -0.10513064039E+03 -0.30168857557E+03  0.32169400779E+03  0.41800000000E+01 0.  1.
        -11    1    1    2    0    0 -0.23223936551E+02  0.19338147747E+02 -0.10514390853E+03  0.10940089894E+03  0.00000000000E+00 0.  1.
         11    1    1    2    0    0  0.65997528026E+02  0.50584603899E+02 -0.14508451448E+03  0.16722437681E+03  0.00000000000E+00 0. -1.
</event>
<event>
 7    1  0.2788485E-009  0.1945385E+03  0.7561462E-02  0.1154430E+00
         -2   -1    0    0    0  501 -0.00000000000E+00  0.00000000000E+00  0.27846609228E+02  0.27846609228E+02  0.00000000000E+00 0.  1.
          2   -1    0    0  501    0  0.00000000000E+00 -0.00000000000E+00 -0.15430129966E+04  0.15430129966E+04  0.00000000000E+00 0. -1.
         25    2    1    2    0    0 -0.41035862973E+02  0.17069982668E+03 -0.83034888495E+03  0.85787471194E+03  0.12508947901E+03 0.  0.
          5    1    3    3  502    0  0.98687261378E+01  0.11765562176E+03 -0.68308436877E+03  0.69322576723E+03  0.41800000000E+01 0. -1.
         -5    1    3    3    0  502 -0.50904589111E+02  0.53044204911E+02 -0.14726451618E+03  0.16464894471E+03  0.41800000000E+01 0. -1.
        -11    1    1    2    0    0  0.68057831782E+02 -0.14417925194E+03 -0.52100846256E+03  0.54485717690E+03  0.00000000000E+00 0.  1.
         11    1    1    2    0    0 -0.27021968809E+02 -0.26520574733E+02 -0.16380903985E+03  0.16812771698E+03  0.00000000000E+00 0. -1.
</event>
<event>
 7    1  0.2788485E-009  0.1453456E+03  0.7561462E-02  0.1206312E+00
         -1   -1    0    0    0  501 -0.00000000000E+00  0.00000000000E+00  0.76112192830E+02  0.76112192830E+02  0.00000000000E+00 0.  1.
          1   -1    0    0  501    0  0.00000000000E+00 -0.00000000000E+00 -0.40948032120E+03  0.40948032120E+03  0.00000000000E+00 0. -1.
         25    2    1    2    0    0 -0.91119419981E+02 -0.79309816411E+02 -0.82417325709E+02  0.19243765548E+03  0.12508732946E+03 0.  0.
          5    1    3    3  502    0 -0.10495057883E+03 -0.54513420851E+02 -0.10319017092E+03  0.15700962017E+03  0.41800000000E+01 0. -1.
         -5    1    3    3    0  502  0.13831158851E+02 -0.24796395560E+02  0.20772845212E+02  0.35428035313E+02  0.41800000000E+01 0. -1.
        -11    1    1    2    0    0 -0.13004298834E+02  0.19905733879E+02 -0.13965551243E+02  0.27575109264E+02  0.00000000000E+00 0.  1.
         11    1    1    2    0    0  0.10412371881E+03  0.59404082533E+02 -0.23698525142E+03  0.26557974929E+03  0.00000000000E+00 0. -1.
</event>
<event>
 7    1  0.2788485E-009  0.2491070E+03  0.7561462E-02  0.1113870E+00
          1   -1    0    0  501    0  0.00000000000E+00  0.00000000000E+00  0.12733796706E+04  0.12733796706E+04  0.00000000000E+00 0. -1.
         -1   -1    0    0    0  501 -0.00000000000E+00 -0.00000000000E+00 -0.54738604763E+02  0.54738604763E+02  0.00000000000E+00 0.  1.
         25    2    1    2    0    0 -0.23185076263E+03 -0.12023876075E+02  0.77999572702E+03  0.82337126291E+03  0.12509017824E+03 0.  0.
          5    1    3    3  502    0 -0.99404803485E+02 -0.61518871013E+02  0.43619866143E+03  0.45161115030E+03  0.41800000000E+01 0. -1.
         -5    1    3    3    0  502 -0.13244595914E+03  0.49494994938E+02  0.34379706560E+03  0.37176011261E+03  0.41800000000E+01 0. -1.
        -11    1    1    2    0    0  0.10564667395E+03  0.35427696645E+02  0.13473143245E+03  0.17483964166E+03  0.00000000000E+00 0.  1.
         11    1    1    2    0    0  0.12620408868E+03 -0.23403820569E+02  0.30391390633E+03  0.32990737076E+03  0.00000000000E+00 0. -1.
</event>
<event>
 7    1  0.2788485E-009  0.9255786E+02  0.7561462E-02  0.1296773E+00
         -1   -1    0    0    0  501 -0.00000000000E+00  0.00000000000E+00  0.22212722332E+02  0.22212722332E+02  0.00000000000E+00 0.  1.
          1   -1    0    0  501    0  0.00000000000E+00 -0.00000000000E+00 -0.98078280093E+03  0.98078280093E+03  0.00000000000E+00 0. -1.
         25    2    1    2    0    0 -0.17039342392E+02 -0.84381295689E+02 -0.70184288608E+03  0.71808420537E+03  0.12510374498E+03 0.  0.
          5    1    3    3  502    0  0.70936153689E+01 -0.25073950822E+02 -0.57803029718E+03  0.57863245610E+03  0.41800000000E+01 0. -1.
         -5    1    3    3    0  502 -0.24132957761E+02 -0.59307344867E+02 -0.12381258890E+03  0.13945174928E+03  0.41800000000E+01 0. -1.
        -11    1    1    2    0    0 -0.12816478762E+02  0.25852910542E+02 -0.11546822597E+02  0.31079964985E+02  0.00000000000E+00 0.  1.
         11    1    1    2    0    0  0.29855821155E+02  0.58528385147E+02 -0.24518036991E+03  0.25383135290E+03  0.00000000000E+00 0. -1.
</event>
<event>
 7    1  0.2788485E-009  0.2295057E+03  0.7561462E-02  0.1126988E+00
          1   -1    0    0  501    0  0.00000000000E+00  0.00000000000E+00  0.57554288543E+03  0.57554288543E+03  0.00000000000E+00 0. -1.
         -1   -1    0    0    0  501 -0.00000000000E+00 -0.00000000000E+00 -0.10518245060E+03  0.10518245060E+03  0.00000000000E+00 0.  1.
         25    2    1    2    0    0 -0.17533489823E+03  0.12063807588E+03  0.16025174103E+03  0.29431885004E+03  0.12508834118E+03 0.  0.
          5    1    3    3  502    0  0.12393019452E+01  0.53828042735E+02  0.59244859737E+02  0.80164954058E+02  0.41800000000E+01 0. -1.
         -5    1    3    3    0  502 -0.17657420018E+03  0.66810033141E+02  0.10100688130E+03  0.21415389599E+03  0.41800000000E+01 0. -1.
        -11    1    1    2    0    0  0.91469861884E+02 -0.85612063619E+02  0.24311564727E+03  0.27349840771E+03  0.00000000000E+00 0. -1.
         11    1    1    2    0    0  0.83865036350E+02 -0.35026012257E+02  0.66993046525E+02  0.11290807827E+03  0.00000000000E+00 0.  1.
</event>
<event>
 7    1  0.2788485E-009  0.1370638E+03  0.7561462E-02  0.1217335E+00
          1   -1    0    0  501    0  0.00000000000E+00  0.00000000000E+00  0.91707228996E+03  0.91707228996E+03  0.00000000000E+00 0. -1.
         -1   -1    0    0    0  501 -0.00000000000E+00 -0.00000000000E+00 -0.24617693907E+02  0.24617693907E+02  0.00000000000E+00 0.  1.
         25    2    1    2    0    0 -0.56973091109E+02 -0.81331656161E+02  0.55907392619E+03  0.58143867757E+03  0.12508600812E+03 0.  0.
          5    1    3    3  502    0 -0.58830468343E+02  0.82682069667E+01  0.33171183088E+03  0.33701572425E+03  0.41800000000E+01 0.  1.
         -5    1    3    3    0  502  0.18573772334E+01 -0.89599863128E+02  0.22736209532E+03  0.24442295332E+03  0.41800000000E+01 0.  1.
        -11    1    1    2    0    0 -0.18875497714E+02  0.16842512485E+02  0.22631022572E+02  0.33942861155E+02  0.00000000000E+00 0.  1.
         11    1    1    2    0    0  0.75848588823E+02  0.64489143676E+02  0.31074964728E+03  0.32630844513E+03  0.00000000000E+00 0. -1.
</event>
<event>
 7    1  0.2788485E-009  0.1439941E+03  0.7561462E-02  0.1208054E+00
         -2   -1    0    0    0  501 -0.00000000000E+00  0.00000000000E+00  0.80457005907E+02  0.80457005907E+02  0.00000000000E+00 0. -1.
          2   -1    0    0  501    0  0.00000000000E+00 -0.00000000000E+00 -0.55450546576E+03  0.55450546576E+03  0.00000000000E+00 0.  1.
         25    2    1    2    0    0 -0.51507506921E+02 -0.10523155084E+03 -0.45232789857E+03  0.48370929602E+03  0.12508977844E+03 0.  0.
          5    1    3    3  502    0  0.35282413631E+02 -0.31215978632E+02 -0.68288888231E+02  0.83067025284E+02  0.41800000000E+01 0.  1.
         -5    1    3    3    0  502 -0.86789920552E+02 -0.74015572204E+02 -0.38403901034E+03  0.40064227074E+03  0.41800000000E+01 0.  1.
        -11    1    1    2    0    0  0.28396694275E+02  0.12573980306E+02  0.29546446433E+02  0.42865717343E+02  0.00000000000E+00 0.  1.
         11    1    1    2    0    0  0.23110812645E+02  0.92657570531E+02 -0.51267007714E+02  0.10838745830E+03  0.00000000000E+00 0. -1.
</event>
<event>
 7    1  0.2788485E-009  0.1935084E+03  0.7561462E-02  0.1155335E+00
         -2   -1    0    0    0  501 -0.00000000000E+00  0.00000000000E+00  0.41569982201E+03  0.41569982201E+03  0.00000000000E+00 0.  1.
          2   -1    0    0  501    0  0.00000000000E+00 -0.00000000000E+00 -0.17934928575E+03  0.17934928575E+03  0.00000000000E+00 0. -1.
         25    2    1    2    0    0  0.18523622413E+03 -0.17251559928E+02 -0.61374384797E+02  0.23243176163E+03  0.12509050186E+03 0.  0.
          5    1    3    3  502    0  0.15739002767E+03  0.12714823629E+02  0.71601724668E+00  0.15795971838E+03  0.41800000000E+01 0.  1.
         -5    1    3    3    0  502  0.27846196465E+02 -0.29966383557E+02 -0.62090402043E+02  0.74472043258E+02  0.41800000000E+01 0.  1.
        -11    1    1    2    0    0 -0.13418414382E+03  0.42448084308E+00  0.27140829205E+03  0.30276727966E+03  0.00000000000E+00 0.  1.
         11    1    1    2    0    0 -0.51052080306E+02  0.16827079085E+02  0.26316629003E+02  0.59850066468E+02  0.00000000000E+00 0. -1.
</event>
<event>
 7    1  0.2788485E-009  0.2017003E+03  0.7561462E-02  0.1148312E+00
          1   -1    0    0  501    0  0.00000000000E+00  0.00000000000E+00  0.14074815728E+03  0.14074815728E+03  0.00000000000E+00 0. -1.
         -1   -1    0    0    0  501 -0.00000000000E+00 -0.00000000000E+00 -0.31692241454E+03  0.31692241454E+03  0.00000000000E+00 0.  1.
         25    2    1    2    0    0  0.17674413099E+03 -0.34813798166E+02 -0.90768814710E+02  0.23736262988E+03  0.12510616275E+03 0.  0.
          5    1    3    3  502    0  0.15955648891E+03 -0.72669497239E+02 -0.85938683971E+02  0.19529992009E+03  0.41800000000E+01 0. -1.
         -5    1    3    3    0  502  0.17187642080E+02  0.37855699073E+02 -0.48301307390E+01  0.42062709798E+02  0.41800000000E+01 0. -1.
        -11    1    1    2    0    0 -0.96795035224E+02 -0.50050340981E+01 -0.88057784896E+02  0.13095229166E+03  0.00000000000E+00 0.  1.
         11    1    1    2    0    0 -0.79949095767E+02  0.39818832264E+02  0.26523423481E+01  0.89355650279E+02  0.00000000000E+00 0. -1.
</event>
<event>
 7    1  0.2788485E-009  0.9581360E+02  0.7561462E-02  0.1289354E+00
         -1   -1    0    0    0  501 -0.00000000000E+00  0.00000000000E+00  0.32106188226E+03  0.32106188226E+03  0.00000000000E+00 0.  1.
          1   -1    0    0  501    0  0.00000000000E+00 -0.00000000000E+00 -0.54802188758E+02  0.54802188758E+02  0.00000000000E+00 0. -1.
         25    2    1    2    0    0  0.17209600928E+02  0.70090574984E+02  0.11313144200E+03  0.18345362058E+03  0.12509056187E+03 0.  0.
          5    1    3    3  502    0 -0.38951303896E+02  0.19851473951E+02  0.96716365690E+02  0.10622058598E+03  0.41800000000E+01 0.  1.
         -5    1    3    3    0  502  0.56160904824E+02  0.50239101032E+02  0.16415076314E+02  0.77233034600E+02  0.41800000000E+01 0.  1.
        -11    1    1    2    0    0 -0.14444090652E+02 -0.53213940108E+02  0.16340576176E+03  0.17245810550E+03  0.00000000000E+00 0.  1.
         11    1    1    2    0    0 -0.27655102758E+01 -0.16876634875E+02 -0.10277510255E+02  0.19952344946E+02  0.00000000000E+00 0. -1.
</event>
<event>
 7    1  0.2788485E-009  0.1123400E+03  0.7561462E-02  0.1256297E+00
         -1   -1    0    0    0  501 -0.00000000000E+00  0.00000000000E+00  0.93005397062E+02  0.93005397062E+02  0.00000000000E+00 0.  1.
          1   -1    0    0  501    0  0.00000000000E+00 -0.00000000000E+00 -0.17692132123E+03  0.17692132123E+03  0.00000000000E+00 0. -1.
         25    2    1    2    0    0  0.58287355700E+02 -0.32260571659E+02 -0.46622347727E+02  0.14920295546E+03  0.12509883410E+03 0.  0.
          5    1    3    3  502    0  0.96421746699E+02 -0.13545236574E+02 -0.42493167345E+02  0.10631918144E+03  0.41800000000E+01 0.  1.
         -5    1    3    3    0  502 -0.38134390999E+02 -0.18715335086E+02 -0.41291803819E+01  0.42883774028E+02  0.41800000000E+01 0.  1.
        -11    1    1    2    0    0 -0.10839361361E+01  0.27077818478E+02  0.24375608379E+02  0.36449327222E+02  0.00000000000E+00 0.  1.
         11    1    1    2    0    0 -0.57203419564E+02  0.51827531812E+01 -0.61669184821E+02  0.84274435607E+02  0.00000000000E+00 0. -1.
</event>
<event>
 7    1  0.2788485E-009  0.1488133E+03  0.7561462E-02  0.1201939E+00
          2   -1    0    0  501    0  0.00000000000E+00  0.00000000000E+00  0.99179491641E+03  0.99179491641E+03  0.00000000000E+00 0. -1.
         -2   -1    0    0    0  501 -0.00000000000E+00 -0.00000000000E+00 -0.31362277136E+02  0.31362277136E+02  0.00000000000E+00 0.  1.
         25    2    1    2    0    0  0.99190482985E+02 -0.98243088272E+02  0.51455055436E+03  0.54763108710E+03  0.12508828184E+03 0.  0.
          5    1    3    3  502    0  0.33444143340E+02 -0.82283258583E+02  0.43082731409E+03  0.43990759522E+03  0.41800000000E+01 0.  1.
         -5    1    3    3    0  502  0.65746339645E+02 -0.15959829688E+02  0.83723240274E+02  0.10772349188E+03  0.41800000000E+01 0.  1.
        -11    1    1    2    0    0 -0.43584995083E+02  0.56684428845E+02  0.10113436691E+03  0.12385853398E+03  0.00000000000E+00 0.  1.
         11    1    1    2    0    0 -0.55605487902E+02  0.41558659427E+02  0.34474771799E+03  0.35166757246E+03  0.00000000000E+00 0. -1.
</event>
<event>
 7    1  0.2788485E-009  0.8440063E+02  0.7561462E-02  0.1317007E+00
          4   -1    0    0  501    0  0.00000000000E+00  0.00000000000E+00  0.46690429690E+02  0.46690429690E+02  0.00000000000E+00 0. -1.
         -4   -1    0    0    0  501 -0.00000000000E+00 -0.00000000000E+00 -0.22037342350E+03  0.22037342350E+03  0.00000000000E+00 0.  1.
         25    2    1    2    0    0  0.58891996827E+01 -0.28194366269E+02 -0.12709615715E+03  0.18063979439E+03  0.12509075583E+03 0.  0.
          5    1    3    3  502    0 -0.53170246796E+02 -0.19118173798E+02 -0.24264232285E+02  0.61634447204E+02  0.41800000000E+01 0. -1.
         -5    1    3    3    0  502  0.59059446479E+02 -0.90761924716E+01 -0.10283192487E+03  0.11900534719E+03  0.41800000000E+01 0. -1.
        -11    1    1    2    0    0  0.18213286197E+02  0.52184266679E+01 -0.49496011872E+02  0.52998216595E+02  0.00000000000E+00 0.  1.
         11    1    1    2    0    0 -0.24102485880E+02  0.22975939601E+02  0.29091752164E+01  0.33425842197E+02  0.00000000000E+00 0. -1.
</event>
<event>
 7    1  0.2788485E-009  0.1045467E+03  0.7561462E-02  0.1271015E+00
          1   -1    0    0  501    0  0.00000000000E+00  0.00000000000E+00  0.63615615523E+02  0.63615615523E+02  0.00000000000E+00 0. -1.
         -1   -1    0    0    0  501 -0.00000000000E+00 -0.00000000000E+00 -0.22961454845E+03  0.22961454845E+03  0.00000000000E+00 0.  1.
         25    2    1    2    0    0  0.45600349289E+02  0.17306773360E+02 -0.67984169243E+02  0.15049879280E+03  0.12509645521E+03 0.  0.
          5    1    3    3  502    0 -0.36736637801E+02 -0.19590409245E+01  0.66700395688E+01  0.37621539391E+02  0.41800000000E+01 0.  1.
         -5    1    3    3    0  502  0.82336987090E+02  0.19265814284E+02 -0.74654208812E+02  0.11287725341E+03  0.41800000000E+01 0.  1.
        -11    1    1    2    0    0 -0.32549291619E+02 -0.45727900709E+02 -0.96233320739E+02  0.11140623550E+03  0.00000000000E+00 0.  1.
         11    1    1    2    0    0 -0.13051057670E+02  0.28421127349E+02 -0.17814429457E+01  0.31325135675E+02  0.00000000000E+00 0. -1.
</event>
<event>
 7    1  0.2788485E-009  0.1348685E+03  0.7561462E-02  0.1220405E+00
         -2   -1    0    0    0  501 -0.00000000000E+00  0.00000000000E+00  0.33627502362E+03  0.33627502362E+03  0.00000000000E+00 0.  1.
          2   -1    0    0  501    0  0.00000000000E+00 -0.00000000000E+00 -0.56408798391E+02  0.56408798391E+02  0.00000000000E+00 0. -1.
         25    2    1    2    0    0  0.18860304992E+02  0.82533429379E+02  0.13578735856E+03  0.20310777437E+03  0.12508830158E+03 0.  0.
          5    1    3    3  502    0 -0.42578420811E+02  0.73722960513E+02  0.56218677765E+02  0.10210783004E+03  0.41800000000E+01 0. -1.
         -5    1    3    3    0  502  0.61438725802E+02  0.88104688660E+01  0.79568680799E+02  0.10099994433E+03  0.41800000000E+01 0. -1.
        -11    1    1    2    0    0 -0.53517826010E+02 -0.36973433539E+02  0.88089116125E+02  0.10950289890E+03  0.00000000000E+00 0.  1.
         11    1    1    2    0    0  0.34657521019E+02 -0.45559995840E+02  0.55989750540E+02  0.80073148743E+02  0.00000000000E+00 0. -1.
</event>
<event>
 7    1  0.2788485E-009  0.1263388E+03  0.7561462E-02  0.1232992E+00
         -2   -1    0    0    0  501 -0.00000000000E+00  0.00000000000E+00  0.14357995214E+03  0.14357995214E+03  0.00000000000E+00 0.  1.
          2   -1    0    0  501    0  0.00000000000E+00 -0.00000000000E+00 -0.14909853291E+03  0.14909853291E+03  0.00000000000E+00 0. -1.
         25    2    1    2    0    0  0.93951608535E+02 -0.92464917389E+01  0.22904854329E+02  0.15837150195E+03  0.12507796738E+03 0.  0.
          5    1    3    3  502    0  0.16682737767E+02  0.49748474646E+02  0.30386906930E+02  0.60778787268E+02  0.41800000000E+01 0.  1.
         -5    1    3    3    0  502  0.77268870767E+02 -0.58994966385E+02 -0.74820526010E+01  0.97592714685E+02  0.41800000000E+01 0.  1.
        -11    1    1    2    0    0 -0.23029530171E+02  0.20613480216E+02  0.28973039291E+02  0.42364039376E+02  0.00000000000E+00 0.  1.
         11    1    1    2    0    0 -0.70922078364E+02 -0.11366988477E+02 -0.57396474399E+02  0.91942943720E+02  0.00000000000E+00 0. -1.
</event>
<event>
 7    1  0.2788485E-009  0.1032515E+03  0.7561462E-02  0.1273603E+00
         -1   -1    0    0    0  501 -0.00000000000E+00  0.00000000000E+00  0.22932316116E+02  0.22932316116E+02  0.00000000000E+00 0.  1.
          1   -1    0    0  501    0  0.00000000000E+00 -0.00000000000E+00 -0.64863345437E+03  0.64863345437E+03  0.00000000000E+00 0. -1.
         25    2    1    2    0    0 -0.14101784324E+02  0.58935503768E+02 -0.35740787349E+03  0.38348443125E+03  0.12509063534E+03 0.  0.
          5    1    3    3  502    0 -0.36109448246E+02 -0.49136615237E+01 -0.27228296823E+03  0.27474264960E+03  0.41800000000E+01 0.  1.
         -5    1    3    3    0  502  0.22007663923E+02  0.63849165291E+02 -0.85124905268E+02  0.10874178165E+03  0.41800000000E+01 0.  1.
        -11    1    1    2    0    0 -0.22739885769E+02 -0.61157626353E+02 -0.20107595834E+03  0.21139748979E+03  0.00000000000E+00 0.  1.
         11    1    1    2    0    0  0.36841670092E+02  0.22221225858E+01 -0.67217306415E+02  0.76683849444E+02  0.00000000000E+00 0. -1.
</event>
<event>
 7    1  0.2842705E-009  0.1070470E+03  0.7561462E-02  0.1266138E+00
         -2   -1    0    0    0  501 -0.00000000000E+00  0.00000000000E+00  0.45174319084E+02  0.45174319084E+02  0.00000000000E+00 0.  1.
          2   -1    0    0  501    0  0.00000000000E+00 -0.00000000000E+00 -0.29864095212E+03  0.29864095212E+03  0.00000000000E+00 0. -1.
         25    2    1    2    0    0  0.60107554574E+01 -0.10875543154E+02 -0.85915041127E+02  0.15226144135E+03  0.12509094935E+03 0.  0.
          5    1    3    3  502    0  0.10070526321E+02  0.54654698835E+02 -0.20214694394E+02  0.59284550050E+02  0.41800000000E+01 0. -1.
         -5    1    3    3    0  502 -0.40597708635E+01 -0.65530241989E+02 -0.65700346733E+02  0.92976891299E+02  0.41800000000E+01 0. -1.
        -11    1    1    2    0    0 -0.20504745198E+02 -0.37136516823E+02 -0.84052881872E+02  0.94151220961E+02  0.00000000000E+00 0. -1.
         11    1    1    2    0    0  0.14493989740E+02  0.48012059977E+02 -0.83498710037E+02  0.97402608896E+02  0.00000000000E+00 0.  1.
</event>
<event>
 7    1  0.2788485E-009  0.9177667E+02  0.7561462E-02  0.1298605E+00
         -1   -1    0    0    0  501 -0.00000000000E+00  0.00000000000E+00  0.81970270988E+01  0.81970270988E+01  0.00000000000E+00 0.  1.
          1   -1    0    0  501    0  0.00000000000E+00 -0.00000000000E+00 -0.14471651499E+04  0.14471651499E+04  0.00000000000E+00 0. -1.
         25    2    1    2    0    0  0.20181772171E+02 -0.77327881550E+01 -0.10743179405E+04  0.10817919145E+04  0.12509040418E+03 0.  0.
          5    1    3    3  502    0  0.33491167530E+02 -0.49709093540E+02 -0.28647194684E+03  0.29270514346E+03  0.41800000000E+01 0. -1.
         -5    1    3    3    0  502 -0.13309395359E+02  0.41976305385E+02 -0.78784599362E+03  0.78908677107E+03  0.41800000000E+01 0. -1.
        -11    1    1    2    0    0 -0.15641799459E+02  0.41922475203E+02 -0.24481581619E+03  0.24887133960E+03  0.00000000000E+00 0. -1.
         11    1    1    2    0    0 -0.45399727124E+01 -0.34189687048E+02 -0.11983436616E+03  0.12469892287E+03  0.00000000000E+00 0.  1.
</event>
<event>
 7    1  0.2788485E-009  0.1650189E+03  0.7561462E-02  0.1183144E+00
          1   -1    0    0  501    0  0.00000000000E+00  0.00000000000E+00  0.11285628375E+04  0.11285628375E+04  0.00000000000E+00 0. -1.
         -1   -1    0    0    0  501 -0.00000000000E+00 -0.00000000000E+00 -0.37918280149E+02  0.37918280149E+02  0.00000000000E+00 0.  1.
         25    2    1    2    0    0 -0.10175981537E+03 -0.11886019097E+03  0.79036684460E+03  0.81535858643E+03  0.12508825050E+03 0.  0.
          5    1    3    3  502    0 -0.52726191398E+02 -0.54766308506E+02  0.13468090235E+03  0.15471204758E+03  0.41800000000E+01 0.  1.
         -5    1    3    3    0  502 -0.49033623969E+02 -0.64093882463E+02  0.65568594224E+03  0.66064653886E+03  0.41800000000E+01 0.  1.
        -11    1    1    2    0    0  0.27468719422E+02  0.88799584519E+02  0.21427418616E+03  0.23356652931E+03  0.00000000000E+00 0. -1.
         11    1    1    2    0    0  0.74291095945E+02  0.30060606450E+02  0.86003526576E+02  0.11755600189E+03  0.00000000000E+00 0.  1.
</event>
<event>
 7    1  0.2788485E-009  0.8572722E+02  0.7561462E-02  0.1313542E+00
         -1   -1    0    0    0  501 -0.00000000000E+00  0.00000000000E+00  0.69870530247E+02  0.69870530247E+02  0.00000000000E+00 0.  1.
          1   -1    0    0  501    0  0.00000000000E+00 -0.00000000000E+00 -0.19009062902E+03  0.19009062902E+03  0.00000000000E+00 0. -1.
         25    2    1    2    0    0  0.35529513433E+02  0.25946548438E+02 -0.63079424206E+02  0.14684105200E+03  0.12509081139E+03 0.  0.
          5    1    3    3  502    0 -0.32348677297E+01 -0.24730011574E+02  0.26599551407E+02  0.36702130412E+02  0.41800000000E+01 0. -1.
         -5    1    3    3    0  502  0.38764381163E+02  0.50676560012E+02 -0.89678975613E+02  0.11013892159E+03  0.41800000000E+01 0. -1.
        -11    1    1    2    0    0  0.19611616493E+02  0.31761083825E+01  0.93545732323E+01  0.21959307964E+02  0.00000000000E+00 0.  1.
         11    1    1    2    0    0 -0.55141129926E+02 -0.29122656821E+02 -0.66495247802E+02  0.91160799305E+02  0.00000000000E+00 0. -1.
</event>
<event>
 7    1  0.2788485E-009  0.9770146E+02  0.7561462E-02  0.1285205E+00
         -2   -1    0    0    0  501 -0.00000000000E+00  0.00000000000E+00  0.11938074941E+02  0.11938074941E+02  0.00000000000E+00 0.  1.
          2   -1    0    0  501    0  0.00000000000E+00 -0.00000000000E+00 -0.24748647772E+04  0.24748647772E+04  0.00000000000E+00 0. -1.
         25    2    1    2    0    0 -0.43490006641E+02 -0.13564346803E+01 -0.22165447648E+04  0.22204979633E+04  0.12508912816E+03 0.  0.
          5    1    3    3  502    0 -0.69452856369E+02 -0.21993179288E+02 -0.20050805762E+04  0.20064079816E+04  0.41800000000E+01 0. -1.
         -5    1    3    3    0  502  0.25962849728E+02  0.20636744607E+02 -0.21146418858E+03  0.21408998166E+03  0.41800000000E+01 0. -1.
        -11    1    1    2    0    0  0.51537551455E+02  0.29738782143E+02 -0.95155811463E+02  0.11222808396E+03  0.00000000000E+00 0.  1.
         11    1    1    2    0    0 -0.80475448134E+01 -0.28382347463E+02 -0.15122612595E+03  0.15407680485E+03  0.00000000000E+00 0. -1.
</event>
<event>
 7    1  0.2788485E-009  0.1156116E+03  0.7561462E-02  0.1250517E+00
         -2   -1    0    0    0  501 -0.00000000000E+00  0.00000000000E+00  0.59474404978E+02  0.59474404978E+02  0.00000000000E+00 0.  1.
          2   -1    0    0  501    0  0.00000000000E+00 -0.00000000000E+00 -0.30306868747E+03  0.30306868747E+03  0.00000000000E+00 0. -1.
         25    2    1    2    0    0  0.71248926565E+02 -0.31625082453E+02 -0.15472450688E+03  0.21369078748E+03  0.12509006454E+03 0.  0.
          5    1    3    3  502    0  0.81639862224E+02  0.28005947353E+02 -0.84066554482E+02  0.12055728171E+03  0.41800000000E+01 0. -1.
         -5    1    3    3    0  502 -0.10390935659E+02 -0.59631029806E+02 -0.70657952400E+02  0.93133505770E+02  0.41800000000E+01 0. -1.
        -11    1    1    2    0    0 -0.50680780426E+02  0.56331947025E+01 -0.10133375968E+03  0.11344075652E+03  0.00000000000E+00 0. -1.
         11    1    1    2    0    0 -0.20568146139E+02  0.25991887751E+02  0.12463984077E+02  0.35411548448E+02  0.00000000000E+00 0.  1.
</event>
<event>
 7    1  0.2788485E-009  0.1296662E+03  0.7561462E-02  0.1227952E+00
          1   -1    0    0  501    0  0.00000000000E+00  0.00000000000E+00  0.28546443726E+03  0.28546443726E+03  0.00000000000E+00 0. -1.
         -1   -1    0    0    0  501 -0.00000000000E+00 -0.00000000000E+00 -0.10902742364E+03  0.10902742364E+03  0.00000000000E+00 0.  1.
         25    2    1    2    0    0  0.93262555278E+02 -0.34872142063E+02  0.20508365423E+03  0.26003948967E+03  0.12508901011E+03 0.  0.
          5    1    3    3  502    0  0.94783302299E+02 -0.74037371868E+02  0.15869708816E+03  0.19916737941E+03  0.41800000000E+01 0. -1.
         -5    1    3    3    0  502 -0.15207470210E+01  0.39165229805E+02  0.46386566062E+02  0.60872110266E+02  0.41800000000E+01 0. -1.
        -11    1    1    2    0    0 -0.32241113707E+02  0.11761437441E+02 -0.54385092572E+02  0.64308312976E+02  0.00000000000E+00 0.  1.
         11    1    1    2    0    0 -0.61021441571E+02  0.23110704622E+02  0.25738451964E+02  0.70144058259E+02  0.00000000000E+00 0. -1.
</event>
<event>
 7    1  0.2788485E-009  0.1189008E+03  0.7561462E-02  0.1244921E+00
         -1   -1    0    0    0  501 -0.00000000000E+00  0.00000000000E+00  0.52257929772E+02  0.52257929772E+02  0.00000000000E+00 0.  1.
          1   -1    0    0  501    0  0.00000000000E+00 -0.00000000000E+00 -0.30404081772E+03  0.30404081772E+03  0.00000000000E+00 0. -1.
         25    2    1    2    0    0 -0.20845671721E+02 -0.60019010333E+02 -0.14473657106E+03  0.20157599670E+03  0.12508950320E+03 0.  0.
          5    1    3    3  502    0  0.92994428965E+01  0.36373231777E+02 -0.52915441646E+02  0.65015444263E+02  0.41800000000E+01 0. -1.
         -5    1    3    3    0  502 -0.30145114618E+02 -0.96392242110E+02 -0.91821129412E+02  0.13656055243E+03  0.41800000000E+01 0. -1.
        -11    1    1    2    0    0  0.36991343602E+02  0.70555438958E+02 -0.48927752387E+02  0.93489862668E+02  0.00000000000E+00 0.  1.
         11    1    1    2    0    0 -0.16145671880E+02 -0.10536428625E+02 -0.58118564503E+02  0.61232888128E+02  0.00000000000E+00 0. -1.
</event>
<event>
 7    1  0.2788485E-009  0.6007325E+02  0.7561462E-02  0.1397525E+00
          2   -1    0    0  501    0  0.00000000000E+00  0.00000000000E+00  0.25561471581E+03  0.25561471581E+03  0.00000000000E+00 0. -1.
         -2   -1    0    0    0  501 -0.00000000000E+00 -0.00000000000E+00 -0.48892819050E+02  0.48892819050E+02  0.00000000000E+00 0.  1.
         25    2    1    2    0    0  0.88311760217E+01  0.73612271613E+01  0.82149365263E+02  0.15009427726E+03  0.12509035342E+03 0.  0.
          5    1    3    3  502    0  0.34864566432E+02  0.96468580558E+01 -0.22060481471E+02  0.42576250487E+02  0.41800000000E+01 0.  1.
         -5    1    3    3    0  502 -0.26033390410E+02 -0.22856308945E+01  0.10420984673E+03  0.10751802677E+03  0.41800000000E+01 0.  1.
        -11    1    1    2    0    0 -0.12451436432E+02 -0.30970761499E+02  0.65736228482E+01  0.34021153043E+02  0.00000000000E+00 0.  1.
         11    1    1    2    0    0  0.36202604098E+01  0.23609534338E+02  0.11799890864E+03  0.12039210455E+03  0.00000000000E+00 0. -1.
</event>
<event>
 7    1  0.2788485E-009  0.1052030E+03  0.7561462E-02  0.1269720E+00
         -1   -1    0    0    0  501 -0.00000000000E+00  0.00000000000E+00  0.84308436678E+02  0.84308436678E+02  0.00000000000E+00 0.  1.
          1   -1    0    0  501    0  0.00000000000E+00 -0.00000000000E+00 -0.15500482695E+03  0.15500482695E+03  0.00000000000E+00 0. -1.
         25    2    1    2    0    0 -0.35632171364E+02 -0.28469668308E+01 -0.44033017131E+02  0.13734464162E+03  0.12508751788E+03 0.  0.
          5    1    3    3  502    0 -0.23600505523E+02  0.54149357138E+02  0.72032626952E+01  0.59653131794E+02  0.41800000000E+01 0.  1.
         -5    1    3    3    0  502 -0.12031665842E+02 -0.56996323969E+02 -0.51236279827E+02  0.77691509828E+02  0.41800000000E+01 0.  1.
        -11    1    1    2    0    0  0.21285092610E+02 -0.41248442695E+02 -0.30339437110E+02  0.55452417768E+02  0.00000000000E+00 0. -1.
         11    1    1    2    0    0  0.14347078754E+02  0.44095409526E+02  0.36760639720E+01  0.46516204234E+02  0.00000000000E+00 0.  1.
</event>
<event>
 7    1  0.2788485E-009  0.7660905E+02  0.7561462E-02  0.1338960E+00
          1   -1    0    0  501    0  0.00000000000E+00  0.00000000000E+00  0.19149582066E+02  0.19149582066E+02  0.00000000000E+00 0. -1.
         -1   -1    0    0    0  501 -0.00000000000E+00 -0.00000000000E+00 -0.78900965953E+03  0.78900965953E+03  0.00000000000E+00 0.  1.
         25    2    1    2    0    0  0.16323324203E+01  0.28633839934E+02 -0.60216893491E+03  0.61569309614E+03  0.12509197085E+03 0.  0.
          5    1    3    3  502    0  0.10509478623E+02  0.44323543783E+02 -0.72655412599E+02  0.85856316333E+02  0.41800000000E+01 0.  1.
         -5    1    3    3    0  502 -0.88771462027E+01 -0.15689703849E+02 -0.52951352231E+03  0.52983677981E+03  0.41800000000E+01 0.  1.
        -11    1    1    2    0    0  0.28168903680E+02 -0.46394704510E+02 -0.13185075672E+03  0.14258533511E+03  0.00000000000E+00 0.  1.
         11    1    1    2    0    0 -0.29801236100E+02  0.17760864576E+02 -0.35840385839E+02  0.49880810345E+02  0.00000000000E+00 0. -1.
</event>
<event>
 7    1  0.2788485E-009  0.8677358E+02  0.7561462E-02  0.1310859E+00
         -2   -1    0    0    0  501 -0.00000000000E+00  0.00000000000E+00  0.33897264315E+02  0.33897264315E+02  0.00000000000E+00 0. -1.
          2   -1    0    0  501    0  0.00000000000E+00 -0.00000000000E+00 -0.43890859027E+03  0.43890859027E+03  0.00000000000E+00 0.  1.
         25    2    1    2    0    0  0.21583093460E+02 -0.36047964264E+02 -0.15544385798E+03  0.20389853351E+03  0.12508610368E+03 0.  0.
          5    1    3    3  502    0  0.81158772897E+01 -0.59119201703E+02 -0.16477261781E+03  0.17529528075E+03  0.41800000000E+01 0.  1.
         -5    1    3    3    0  502  0.13467216170E+02  0.23071237439E+02  0.93287598298E+01  0.28603252758E+02  0.41800000000E+01 0.  1.
        -11    1    1    2    0    0  0.27548204836E+02  0.22911888458E+02 -0.17511366282E+03  0.17874186171E+03  0.00000000000E+00 0.  1.
         11    1    1    2    0    0 -0.49131298295E+02  0.13136075806E+02 -0.74453805150E+02  0.90165459357E+02  0.00000000000E+00 0. -1.
</event>
<event>
 7    1  0.2788485E-009  0.1119046E+03  0.7561462E-02  0.1257083E+00
          2   -1    0    0  501    0  0.00000000000E+00  0.00000000000E+00  0.19893466767E+03  0.19893466767E+03  0.00000000000E+00 0. -1.
         -2   -1    0    0    0  501 -0.00000000000E+00 -0.00000000000E+00 -0.13819742382E+03  0.13819742382E+03  0.00000000000E+00 0.  1.
         25    2    1    2    0    0 -0.97438460251E+01  0.31360466001E+02  0.15473799387E+03  0.20166774893E+03  0.12509041868E+03 0.  0.
          5    1    3    3  502    0 -0.65952087741E+02  0.15851630613E+02  0.61705322208E+02  0.91793089387E+02  0.41800000000E+01 0. -1.
         -5    1    3    3    0  502  0.56208241715E+02  0.15508835388E+02  0.93032671667E+02  0.10987465954E+03  0.41800000000E+01 0. -1.
        -11    1    1    2    0    0  0.82364756259E+01 -0.64095386557E+02 -0.58776059783E+02  0.87353782473E+02  0.00000000000E+00 0.  1.
         11    1    1    2    0    0  0.15073703992E+01  0.32734920556E+02 -0.35224690248E+02  0.48110560092E+02  0.00000000000E+00 0. -1.
</event>
<event>
 7    1  0.2788485E-009  0.1283761E+03  0.7561462E-02  0.1229885E+00
          1   -1    0    0  501    0  0.00000000000E+00  0.00000000000E+00  0.74593864417E+03  0.74593864417E+03  0.00000000000E+00 0. -1.
         -1   -1    0    0    0  501 -0.00000000000E+00 -0.00000000000E+00 -0.29364707002E+02  0.29364707002E+02  0.00000000000E+00 0.  1.
         25    2    1    2    0    0 -0.99018455677E+02 -0.17730676855E+02  0.40720764752E+03  0.43770402706E+03  0.12509082958E+03 0.  0.
          5    1    3    3  502    0 -0.10464312244E+03  0.52283638449E+01  0.17319615680E+03  0.20246456478E+03  0.41800000000E+01 0.  1.
         -5    1    3    3    0  502  0.56246667637E+01 -0.22959040700E+02  0.23401149072E+03  0.23523946228E+03  0.41800000000E+01 0.  1.
        -11    1    1    2    0    0  0.13793284392E+02 -0.27969405882E+02  0.35984258229E+02  0.47617320378E+02  0.00000000000E+00 0.  1.
         11    1    1    2    0    0  0.85225171285E+02  0.45700082736E+02  0.27338203142E+03  0.28998200373E+03  0.00000000000E+00 0. -1.
</event>
<event>
 7    1  0.2788485E-009  0.7089817E+02  0.7561462E-02  0.1357065E+00
          2   -1    0    0  501    0  0.00000000000E+00  0.00000000000E+00  0.48204385839E+02  0.48204385839E+02  0.00000000000E+00 0. -1.
         -2   -1    0    0    0  501 -0.00000000000E+00 -0.00000000000E+00 -0.27685067093E+03  0.27685067093E+03  0.00000000000E+00 0.  1.
         25    2    1    2    0    0  0.32451204920E+02  0.27134449289E+02 -0.11211828146E+03  0.17322273230E+03  0.12508495877E+03 0.  0.
          5    1    3    3  502    0  0.29415958458E+02  0.29380941399E+02  0.16174360437E+02  0.44806480168E+02  0.41800000000E+01 0.  1.
         -5    1    3    3    0  502  0.30352464614E+01 -0.22464921102E+01 -0.12829264190E+03  0.12841625213E+03  0.41800000000E+01 0.  1.
        -11    1    1    2    0    0 -0.17674158657E+02  0.30297272834E+02 -0.26214349381E+02  0.43789185182E+02  0.00000000000E+00 0.  1.
         11    1    1    2    0    0 -0.14777046262E+02 -0.57431722123E+02 -0.90313654254E+02  0.10804313929E+03  0.00000000000E+00 0. -1.
</event>
<event>
 7    1  0.3841404E-009  0.1116181E+03  0.7561462E-02  0.1257602E+00
         -2   -1    0    0    0  501 -0.00000000000E+00  0.00000000000E+00  0.26693898306E+02  0.26693898306E+02  0.00000000000E+00 0.  1.
          2   -1    0    0  501    0  0.00000000000E+00 -0.00000000000E+00 -0.62627911661E+03  0.62627911661E+03  0.00000000000E+00 0. -1.
         25    2    1    2    0    0 -0.67669879395E+02  0.15494535523E+02 -0.35347152600E+03  0.38132491977E+03  0.12508909441E+03 0.  0.
          5    1    3    3  502    0 -0.55323997005E+02  0.55277696551E+02 -0.31458272961E+03  0.32418533981E+03  0.41800000000E+01 0.  1.
         -5    1    3    3    0  502 -0.12345882390E+02 -0.39783161028E+02 -0.38888796388E+02  0.57139579959E+02  0.41800000000E+01 0.  1.
        -11    1    1    2    0    0  0.17371254263E+01 -0.34415572291E+02 -0.32788805044E+02  0.47566321668E+02  0.00000000000E+00 0.  1.
         11    1    1    2    0    0  0.65932753969E+02  0.18921036768E+02 -0.21332488727E+03  0.22408177348E+03  0.00000000000E+00 0. -1.
</event>
<event>
 7    1  0.2788485E-009  0.9328311E+02  0.7561462E-02  0.1295090E+00
          1   -1    0    0  501    0  0.00000000000E+00  0.00000000000E+00  0.22804958650E+03  0.22804958650E+03  0.00000000000E+00 0. -1.
         -1   -1    0    0    0  501 -0.00000000000E+00 -0.00000000000E+00 -0.90347565687E+02  0.90347565687E+02  0.00000000000E+00 0.  1.
         25    2    1    2    0    0  0.67563065688E+02 -0.45570614388E+02  0.12948434764E+03  0.19762278918E+03  0.12508845582E+03 0.  0.
          5    1    3    3  502    0  0.56517919796E+02 -0.30732831503E+02  0.15381232416E+03  0.16677675394E+03  0.41800000000E+01 0. -1.
         -5    1    3    3    0  502  0.11045145892E+02 -0.14837782885E+02 -0.24327976519E+02  0.30846035244E+02  0.41800000000E+01 0. -1.
        -11    1    1    2    0    0 -0.31944347069E+02  0.57325474312E+02 -0.25435417671E+02  0.70381899568E+02  0.00000000000E+00 0.  1.
         11    1    1    2    0    0 -0.35618718620E+02 -0.11754859924E+02  0.33653090840E+02  0.50392463435E+02  0.00000000000E+00 0. -1.
</event>
<event>
 7    1  0.2788485E-009  0.1131461E+03  0.7561462E-02  0.1254852E+00
          2   -1    0    0  501    0  0.00000000000E+00  0.00000000000E+00  0.13222264105E+03  0.13222264105E+03  0.00000000000E+00 0. -1.
         -2   -1    0    0    0  501 -0.00000000000E+00 -0.00000000000E+00 -0.15971202396E+03  0.15971202396E+03  0.00000000000E+00 0.  1.
         25    2    1    2    0    0  0.22032184333E+02  0.88779792481E+02  0.13432064657E+02  0.15554119775E+03  0.12508147400E+03 0.  0.
          5    1    3    3  502    0 -0.14400877653E+02  0.65728402165E+02 -0.46279621888E+02  0.81773369323E+02  0.41800000000E+01 0. -1.
         -5    1    3    3    0  502  0.36433061986E+02  0.23051390316E+02  0.59711686545E+02  0.73767828429E+02  0.41800000000E+01 0. -1.
        -11    1    1    2    0    0 -0.34521885725E+02 -0.95378747467E+02 -0.55889512361E+02  0.11581236400E+03  0.00000000000E+00 0.  1.
         11    1    1    2    0    0  0.12489701392E+02  0.65989549862E+01  0.14968064799E+02  0.20581103265E+02  0.00000000000E+00 0. -1.
</event>
<event>
 7    1  0.2788485E-009  0.1500781E+03  0.7561462E-02  0.1200377E+00
          1   -1    0    0  501    0  0.00000000000E+00  0.00000000000E+00  0.45201228117E+02  0.45201228117E+02  0.00000000000E+00 0. -1.
         -1   -1    0    0    0  501 -0.00000000000E+00 -0.00000000000E+00 -0.61678914288E+03  0.61678914288E+03  0.00000000000E+00 0.  1.
         25    2    1    2    0    0  0.16480834192E+02 -0.12149395429E+03 -0.24272931464E+03  0.29932898744E+03  0.12509166123E+03 0.  0.
          5    1    3    3  502    0  0.26636540374E+02 -0.14590682166E+03 -0.20438634075E+03  0.25256594104E+03  0.41800000000E+01 0.  1.
         -5    1    3    3    0  502 -0.10155706182E+02  0.24412867368E+02 -0.38342973891E+02  0.46763046393E+02  0.41800000000E+01 0.  1.
        -11    1    1    2    0    0 -0.22209291810E+02  0.76692499160E+02 -0.29659835060E+03  0.30715724580E+03  0.00000000000E+00 0.  1.
         11    1    1    2    0    0  0.57284576174E+01  0.44801455135E+02 -0.32260249522E+02  0.55504137756E+02  0.00000000000E+00 0. -1.
</event>
<event>
 7    1  0.2788485E-009  0.9371632E+02  0.7561462E-02  0.1294094E+00
         -1   -1    0    0    0  501 -0.00000000000E+00  0.00000000000E+00  0.50841849909E+02  0.50841849909E+02  0.00000000000E+00 0.  1.
          1   -1    0    0  501    0  0.00000000000E+00 -0.00000000000E+00 -0.34827251512E+03  0.34827251512E+03  0.00000000000E+00 0. -1.
         25    2    1    2    0    0 -0.31091773839E+02 -0.30113336632E+02 -0.64746442715E+02  0.14735145741E+03  0.12508732435E+03 0.  0.
          5    1    3    3  502    0  0.26598352441E+02 -0.18360149554E+02  0.24207968763E+02  0.40596374171E+02  0.41800000000E+01 0.  1.
         -5    1    3    3    0  502 -0.57690126281E+02 -0.11753187078E+02 -0.88954411478E+02  0.10675508324E+03  0.41800000000E+01 0.  1.
        -11    1    1    2    0    0  0.36218926791E+01 -0.29742387724E+02 -0.63552720524E+02  0.70261483191E+02  0.00000000000E+00 0.  1.
         11    1    1    2    0    0  0.27469881160E+02  0.59855724356E+02 -0.16913150197E+03  0.18150142442E+03  0.00000000000E+00 0. -1.
</event>
<event>
 7    1  0.2788485E-009  0.1241277E+03  0.7561462E-02  0.1236439E+00
         -1   -1    0    0    0  501 -0.00000000000E+00  0.00000000000E+00  0.59463977364E+03  0.59463977364E+03  0.00000000000E+00 0.  1.
          1   -1    0    0  501    0  0.00000000000E+00 -0.00000000000E+00 -0.31101814222E+02  0.31101814222E+02  0.00000000000E+00 0. -1.
         25    2    1    2    0    0  0.71439765361E+02  0.64068928289E+02  0.43773036308E+03  0.46525663269E+03  0.12508955135E+03 0.  0.
          5    1    3    3  502    0  0.42375408081E+02  0.97924156693E+02  0.36032221891E+03  0.37581164101E+03  0.41800000000E+01 0. -1.
         -5    1    3    3    0  502  0.29064357280E+02 -0.33855228404E+02  0.77408144163E+02  0.89444991683E+02  0.41800000000E+01 0. -1.
        -11    1    1    2    0    0 -0.33703326795E+02 -0.38004151310E+02  0.85378212808E+02  0.99346207659E+02  0.00000000000E+00 0.  1.
         11    1    1    2    0    0 -0.37736438565E+02 -0.26064776979E+02  0.40429383532E+02  0.61138747512E+02  0.00000000000E+00 0. -1.
</event>
<event>
 7    1  0.2788485E-009  0.9126635E+02  0.7561462E-02  0.1299814E+00
         -1   -1    0    0    0  501 -0.00000000000E+00  0.00000000000E+00  0.64417915951E+02  0.64417915951E+02  0.00000000000E+00 0.  1.
          1   -1    0    0  501    0  0.00000000000E+00 -0.00000000000E+00 -0.21116736905E+03  0.21116736905E+03  0.00000000000E+00 0. -1.
         25    2    1    2    0    0 -0.22376830678E+02 -0.41846376816E+01 -0.34552125298E+02  0.13175775239E+03  0.12509205494E+03 0.  0.
          5    1    3    3  502    0 -0.20582637786E+02 -0.63647867531E+02 -0.24020664515E+02  0.71198038901E+02  0.41800000000E+01 0.  1.
         -5    1    3    3    0  502 -0.17941928920E+01  0.59463229850E+02 -0.10531460783E+02  0.60559713494E+02  0.41800000000E+01 0.  1.
        -11    1    1    2    0    0 -0.10087737774E+02 -0.15064286904E+02  0.65110739756E+01  0.19263677677E+02  0.00000000000E+00 0.  1.
         11    1    1    2    0    0  0.32464568452E+02  0.19248924586E+02 -0.11870840178E+03  0.12456385493E+03  0.00000000000E+00 0. -1.
</event>
<event>
 7    1  0.2788485E-009  0.9665070E+02  0.7561462E-02  0.1287501E+00
         -1   -1    0    0    0  501 -0.00000000000E+00  0.00000000000E+00  0.19975151478E+02  0.19975151478E+02  0.00000000000E+00 0.  1.
          1   -1    0    0  501    0  0.00000000000E+00 -0.00000000000E+00 -0.72366946350E+03  0.72366946350E+03  0.00000000000E+00 0. -1.
         25    2    1    2    0    0 -0.17752544237E+02  0.60016172518E+01 -0.54640154128E+03  0.56084976831E+03  0.12508655432E+03 0.  0.
          5    1    3    3  502    0 -0.38517063000E+02  0.42876279793E+02 -0.46890474741E+03  0.47245219235E+03  0.41800000000E+01 0.  1.
         -5    1    3    3    0  502  0.20764518763E+02 -0.36874662541E+02 -0.77496793868E+02  0.88397575967E+02  0.41800000000E+01 0.  1.
        -11    1    1    2    0    0 -0.64603688602E+01  0.40259312190E+02 -0.73969969772E+02  0.84463631297E+02  0.00000000000E+00 0.  1.
         11    1    1    2    0    0  0.24212913097E+02 -0.46260929442E+02 -0.83322800979E+02  0.98331215372E+02  0.00000000000E+00 0. -1.
</event>
<event>
 7    1  0.2788485E-009  0.1027115E+03  0.7561462E-02  0.1274695E+00
          3   -1    0    0  501    0  0.00000000000E+00  0.00000000000E+00  0.16254873231E+03  0.16254873231E+03  0.00000000000E+00 0. -1.
         -3   -1    0    0    0  501 -0.00000000000E+00 -0.00000000000E+00 -0.69700796671E+02  0.69700796671E+02  0.00000000000E+00 0.  1.
         25    2    1    2    0    0  0.26712718676E+02 -0.37819648794E+01  0.82249654997E+02  0.15212661493E+03  0.12509847571E+03 0.  0.
          5    1    3    3  502    0  0.11024539508E+00  0.58385981820E+02  0.50489502042E+02  0.77301987320E+02  0.41800000000E+01 0. -1.
         -5    1    3    3    0  502  0.26602473281E+02 -0.62167946699E+02  0.31760152955E+02  0.74824627611E+02  0.41800000000E+01 0. -1.
        -11    1    1    2    0    0  0.24152911598E+02 -0.10452905054E+02  0.36212755593E+00  0.26320286836E+02  0.00000000000E+00 0. -1.
         11    1    1    2    0    0 -0.50865630274E+02  0.14234869934E+02  0.10236153087E+02  0.53802627215E+02  0.00000000000E+00 0.  1.
</event>
<event>
 7    1  0.2788485E-009  0.1065414E+03  0.7561462E-02  0.1267112E+00
          2   -1    0    0  501    0  0.00000000000E+00  0.00000000000E+00  0.22636975149E+03  0.22636975149E+03  0.00000000000E+00 0. -1.
         -2   -1    0    0    0  501 -0.00000000000E+00 -0.00000000000E+00 -0.62220298798E+02  0.62220298798E+02  0.00000000000E+00 0.  1.
         25    2    1    2    0    0  0.37244221141E+02 -0.31443626401E+02  0.93579003737E+02  0.16365060647E+03  0.12509459385E+03 0.  0.
          5    1    3    3  502    0 -0.35380328540E+02 -0.30090246885E+02  0.75401525582E+02  0.88656940311E+02  0.41800000000E+01 0. -1.
         -5    1    3    3    0  502  0.72624549682E+02 -0.13533795163E+01  0.18177478155E+02  0.74993666164E+02  0.41800000000E+01 0. -1.
        -11    1    1    2    0    0  0.24589890982E+02  0.61170828630E+00 -0.20722538469E+01  0.24684634118E+02  0.00000000000E+00 0. -1.
         11    1    1    2    0    0 -0.61834112123E+02  0.30831918115E+02  0.72642702804E+02  0.10025480970E+03  0.00000000000E+00 0.  1.
</event>
<event>
 7    1  0.2788485E-009  0.9159729E+02  0.7561462E-02  0.1299029E+00
         -2   -1    0    0    0  501 -0.00000000000E+00  0.00000000000E+00  0.44955561510E+02  0.44955561510E+02  0.00000000000E+00 0.  1.
          2   -1    0    0  501    0  0.00000000000E+00 -0.00000000000E+00 -0.31205901112E+03  0.31205901112E+03  0.00000000000E+00 0. -1.
         25    2    1    2    0    0 -0.27460853616E+02 -0.32377717528E+02 -0.18460746428E+03  0.22700030310E+03  0.12508719626E+03 0.  0.
          5    1    3    3  502    0 -0.57265421869E+01  0.25160629319E+02 -0.15750156111E+03  0.15965608258E+03  0.41800000000E+01 0. -1.
         -5    1    3    3    0  502 -0.21734311429E+02 -0.57538346847E+02 -0.27105903172E+02  0.67344220524E+02  0.41800000000E+01 0. -1.
        -11    1    1    2    0    0  0.18160992071E+02  0.61870853481E+02 -0.73567817446E+02  0.97826621669E+02  0.00000000000E+00 0. -1.
         11    1    1    2    0    0  0.92998615448E+01 -0.29493135952E+02 -0.89281678905E+01  0.32187647863E+02  0.00000000000E+00 0.  1.
</event>
<event>
 7    1  0.2788485E-009  0.1150974E+03  0.7561462E-02  0.1251411E+00
         -1   -1    0    0    0  501 -0.00000000000E+00  0.00000000000E+00  0.56025481344E+02  0.56025481344E+02  0.00000000000E+00 0.  1.
          1   -1    0    0  501    0  0.00000000000E+00 -0.00000000000E+00 -0.28477693065E+03  0.28477693065E+03  0.00000000000E+00 0. -1.
         25    2    1    2    0    0 -0.53019831560E+02  0.77012941222E+01 -0.19836646924E+03  0.24055657149E+03  0.12509114877E+03 0.  0.
          5    1    3    3  502    0 -0.75967027320E+01 -0.56588893387E+02 -0.84321145981E+02  0.10191928574E+03  0.41800000000E+01 0.  1.
         -5    1    3    3    0  502 -0.45423128828E+02  0.64290187509E+02 -0.11404532326E+03  0.13863728575E+03  0.41800000000E+01 0.  1.
        -11    1    1    2    0    0  0.52573185923E+02 -0.37334029568E+02 -0.28649591473E+02  0.70558973443E+02  0.00000000000E+00 0. -1.
         11    1    1    2    0    0  0.44664563795E+00  0.29632735445E+02 -0.17353885962E+01  0.29686867061E+02  0.00000000000E+00 0.  1.
</event>
<event>
 7    1  0.2788485E-009  0.2665424E+03  0.7561462E-02  0.1103275E+00
         -1   -1    0    0    0  501 -0.00000000000E+00  0.00000000000E+00  0.80074811532E+02  0.80074811532E+02  0.00000000000E+00 0.  1.
          1   -1    0    0  501    0  0.00000000000E+00 -0.00000000000E+00 -0.97446457193E+03  0.97446457193E+03  0.00000000000E+00 0. -1.
         25    2    1    2    0    0  0.25288646390E+03  0.46676689762E+02 -0.44091709738E+03  0.52553326483E+03  0.12508816367E+03 0.  0.
          5    1    3    3  502    0  0.20080425587E+03 -0.66912378119E+01 -0.25152300000E+03  0.32194473713E+03  0.41800000000E+01 0.  1.
         -5    1    3    3    0  502  0.52082208030E+02  0.53367927573E+02 -0.18939409738E+03  0.20358852770E+03  0.41800000000E+01 0.  1.
        -11    1    1    2    0    0 -0.19871541033E+03 -0.31634172121E+02 -0.26756118587E+03  0.33477981321E+03  0.00000000000E+00 0.  1.
         11    1    1    2    0    0 -0.54171053574E+02 -0.15042517641E+02 -0.18591147715E+03  0.19422630542E+03  0.00000000000E+00 0. -1.
</event>
<event>
 7    1  0.3685889E-009  0.8794656E+02  0.7561462E-02  0.1307902E+00
         -1   -1    0    0    0  501 -0.00000000000E+00  0.00000000000E+00  0.11377629505E+03  0.11377629505E+03  0.00000000000E+00 0. -1.
          1   -1    0    0  501    0  0.00000000000E+00 -0.00000000000E+00 -0.16286245475E+03  0.16286245475E+03  0.00000000000E+00 0.  1.
         25    2    1    2    0    0 -0.35523179668E+02 -0.68405987906E+02  0.17478618144E+01  0.14694694240E+03  0.12509625648E+03 0.  0.
          5    1    3    3  502    0 -0.21042527073E+02 -0.14508877029E+02  0.60497199956E+02  0.65807895125E+02  0.41800000000E+01 0. -1.
         -5    1    3    3    0  502 -0.14480652595E+02 -0.53897110877E+02 -0.58749338142E+02  0.81139047274E+02  0.41800000000E+01 0. -1.
        -11    1    1    2    0    0 -0.66329542837E+01  0.45638060276E+02  0.14797020926E+02  0.48433257753E+02  0.00000000000E+00 0. -1.
         11    1    1    2    0    0  0.42156133952E+02  0.22767927630E+02 -0.65631042448E+02  0.81258549650E+02  0.00000000000E+00 0.  1.
</event>
<event>
 7    1  0.2788485E-009  0.8244289E+02  0.7561462E-02  0.1322258E+00
         -1   -1    0    0    0  501 -0.00000000000E+00  0.00000000000E+00  0.59773244510E+02  0.59773244510E+02  0.00000000000E+00 0.  1.
          1   -1    0    0  501    0  0.00000000000E+00 -0.00000000000E+00 -0.77287002201E+03  0.77287002201E+03  0.00000000000E+00 0. -1.
         25    2    1    2    0    0 -0.12936964594E+02  0.34850630464E+02 -0.72263856332E+03  0.73432688480E+03  0.12509016365E+03 0.  0.
          5    1    3    3  502    0 -0.39454689500E+02  0.36040231543E+02 -0.12404310817E+03  0.13512859023E+03  0.41800000000E+01 0. -1.
         -5    1    3    3    0  502  0.26517724906E+02 -0.11896010791E+01 -0.59859545515E+03  0.59919829457E+03  0.41800000000E+01 0. -1.
        -11    1    1    2    0    0 -0.28394405234E+02  0.27637521088E+01  0.27492091843E+02  0.39619385258E+02  0.00000000000E+00 0.  1.
         11    1    1    2    0    0  0.41331369828E+02 -0.37614382573E+02 -0.17950306028E+02  0.58696996471E+02  0.00000000000E+00 0. -1.
</event>
<event>
 7    1  0.2788485E-009  0.9757552E+02  0.7561462E-02  0.1285478E+00
          1   -1    0    0  501    0  0.00000000000E+00  0.00000000000E+00  0.65455368618E+03  0.65455368618E+03  0.00000000000E+00 0. -1.
         -1   -1    0    0    0  501 -0.00000000000E+00 -0.00000000000E+00 -0.23114228815E+02  0.23114228815E+02  0.00000000000E+00 0.  1.
         25    2    1    2    0    0  0.56204535881E+02 -0.49826390342E+00  0.33481897315E+03  0.36181559303E+03  0.12509028922E+03 0.  0.
          5    1    3    3  502    0  0.43526956113E+01  0.40754122490E+02  0.25354942054E+03  0.25687472728E+03  0.41800000000E+01 0. -1.
         -5    1    3    3    0  502  0.51851840269E+02 -0.41252386393E+02  0.81269552606E+02  0.10494086574E+03  0.41800000000E+01 0. -1.
        -11    1    1    2    0    0 -0.72235266411E+01 -0.29333945593E+02  0.28042554422E+02  0.41219468212E+02  0.00000000000E+00 0.  1.
         11    1    1    2    0    0 -0.48981009239E+02  0.29832209496E+02  0.26857792979E+03  0.27463285375E+03  0.00000000000E+00 0. -1.
</event>
<event>
 7    1  0.2788485E-009  0.1667587E+03  0.7561462E-02  0.1181271E+00
          2   -1    0    0  501    0  0.00000000000E+00  0.00000000000E+00  0.97496749996E+03  0.97496749996E+03  0.00000000000E+00 0. -1.
         -2   -1    0    0    0  501 -0.00000000000E+00 -0.00000000000E+00 -0.32569818926E+02  0.32569818926E+02  0.00000000000E+00 0.  1.
         25    2    1    2    0    0 -0.13376055984E+03  0.17052050742E+02  0.38671584022E+03  0.42822794001E+03  0.12508943889E+03 0.  0.
          5    1    3    3  502    0 -0.14102367902E+03  0.44059700117E+02  0.26662708884E+03  0.30485473938E+03  0.41800000000E+01 0. -1.
         -5    1    3    3    0  502  0.72631191805E+01 -0.27007649375E+02  0.12008875138E+03  0.12337320063E+03  0.41800000000E+01 0. -1.
        -11    1    1    2    0    0  0.78215834972E+02 -0.50020022203E+02  0.24539322690E+03  0.26236912027E+03  0.00000000000E+00 0.  1.
         11    1    1    2    0    0  0.55544724871E+02  0.32967971461E+02  0.31028861391E+03  0.31694025861E+03  0.00000000000E+00 0. -1.
</event>
<event>
 7    1  0.2788485E-009  0.1687343E+03  0.7561462E-02  0.1179174E+00
         -2   -1    0    0    0  501 -0.00000000000E+00  0.00000000000E+00  0.27498045785E+02  0.27498045785E+02  0.00000000000E+00 0.  1.
          2   -1    0    0  501    0  0.00000000000E+00 -0.00000000000E+00 -0.11840849248E+04  0.11840849248E+04  0.00000000000E+00 0. -1.
         25    2    1    2    0    0  0.36774785063E+02  0.13394461119E+03 -0.49039837100E+03  0.52481582219E+03  0.12509013252E+03 0.  0.
          5    1    3    3  502    0 -0.39951788748E+02  0.21719724518E+02 -0.18407476907E+03  0.18965464631E+03  0.41800000000E+01 0.  1.
         -5    1    3    3    0  502  0.76726573811E+02  0.11222488667E+03 -0.30632360193E+03  0.33516117588E+03  0.41800000000E+01 0.  1.
        -11    1    1    2    0    0  0.67032976153E+01 -0.10105098511E+03 -0.53828416757E+03  0.54772810851E+03  0.00000000000E+00 0.  1.
         11    1    1    2    0    0 -0.43478082678E+02 -0.32893626075E+02 -0.12790434041E+03  0.13903903986E+03  0.00000000000E+00 0. -1.
</event>
<event>
 7    1  0.2788485E-009  0.8896530E+02  0.7561462E-02  0.1305377E+00
          1   -1    0    0  501    0  0.00000000000E+00  0.00000000000E+00  0.83964571206E+03  0.83964571206E+03  0.00000000000E+00 0. -1.
         -1   -1    0    0    0  501 -0.00000000000E+00 -0.00000000000E+00 -0.17030195782E+02  0.17030195782E+02  0.00000000000E+00 0.  1.
         25    2    1    2    0    0 -0.19560070441E+02  0.92666567310E+01  0.61939655672E+03  0.63227246853E+03  0.12509161726E+03 0.  0.
          5    1    3    3  502    0  0.84262465931E+01 -0.47010468552E+02  0.43025129771E+03  0.43291412239E+03  0.41800000000E+01 0.  1.
         -5    1    3    3    0  502 -0.27986317034E+02  0.56277125283E+02  0.18914525901E+03  0.19935834614E+03  0.41800000000E+01 0.  1.
        -11    1    1    2    0    0 -0.17414136014E+02 -0.21850339924E+02  0.14106406350E+02  0.31299843259E+02  0.00000000000E+00 0.  1.
         11    1    1    2    0    0  0.36974206454E+02  0.12583683193E+02  0.18911255321E+03  0.19310359605E+03  0.00000000000E+00 0. -1.
</event>
<event>
 7    1  0.2788485E-009  0.1418205E+03  0.7561462E-02  0.1210900E+00
          1   -1    0    0  501    0  0.00000000000E+00  0.00000000000E+00  0.15346376254E+03  0.15346376254E+03  0.00000000000E+00 0. -1.
         -1   -1    0    0    0  501 -0.00000000000E+00 -0.00000000000E+00 -0.19179030843E+03  0.19179030843E+03  0.00000000000E+00 0.  1.
         25    2    1    2    0    0 -0.10849241211E+03 -0.39556872086E+02 -0.85120588089E+02  0.19034202201E+03  0.12509684733E+03 0.  0.
          5    1    3    3  502    0  0.76725731170E+01 -0.35054142989E+02  0.12759676579E+02  0.38313745123E+02  0.41800000000E+01 0.  1.
         -5    1    3    3    0  502 -0.11616498523E+03 -0.45027290973E+01 -0.97880264668E+02  0.15202827689E+03  0.41800000000E+01 0.  1.
        -11    1    1    2    0    0  0.11021143051E+02  0.31512608556E+02  0.46334110188E+02  0.57108316899E+02  0.00000000000E+00 0. -1.
         11    1    1    2    0    0  0.97471269057E+02  0.80442635302E+01  0.45993201408E+00  0.97803732060E+02  0.00000000000E+00 0.  1.
</event>
<event>
 7    1  0.2788485E-009  0.8965484E+02  0.7561462E-02  0.1303690E+00
         -2   -1    0    0    0  501 -0.00000000000E+00  0.00000000000E+00  0.12669396388E+02  0.12669396388E+02  0.00000000000E+00 0.  1.
          2   -1    0    0  501    0  0.00000000000E+00 -0.00000000000E+00 -0.18712990897E+04  0.18712990897E+04  0.00000000000E+00 0. -1.
         25    2    1    2    0    0 -0.12938305008E+02 -0.74268251029E+02 -0.14768514782E+04  0.14840556708E+04  0.12509105743E+03 0.  0.
          5    1    3    3  502    0  0.30475030918E+01 -0.47812267325E+02 -0.16581424898E+03  0.17264743771E+03  0.41800000000E+01 0.  1.
         -5    1    3    3    0  502 -0.15985808100E+02 -0.26455983704E+02 -0.13110372292E+04  0.13114082331E+04  0.41800000000E+01 0.  1.
        -11    1    1    2    0    0 -0.26776996006E+02  0.23966215305E+02 -0.47586673713E+02  0.59631187362E+02  0.00000000000E+00 0. -1.
         11    1    1    2    0    0  0.39715301014E+02  0.50302035724E+02 -0.33419154140E+03  0.34028162788E+03  0.00000000000E+00 0.  1.
</event>
<event>
 7    1  0.2788485E-009  0.1223392E+03  0.7561462E-02  0.1239287E+00
         -2   -1    0    0    0  501 -0.00000000000E+00  0.00000000000E+00  0.36871253358E+02  0.36871253358E+02  0.00000000000E+00 0.  1.
          2   -1    0    0  501    0  0.00000000000E+00 -0.00000000000E+00 -0.59479646784E+03  0.59479646784E+03  0.00000000000E+00 0. -1.
         25    2    1    2    0    0  0.43345099145E+02 -0.76228853368E+02 -0.40113856120E+03  0.42924240825E+03  0.12508902451E+03 0.  0.
          5    1    3    3  502    0 -0.21967817926E+02  0.24000578831E+02 -0.96877230324E+02  0.10228041339E+03  0.41800000000E+01 0.  1.
         -5    1    3    3    0  502  0.65312917070E+02 -0.10022943220E+03 -0.30426133087E+03  0.32696199486E+03  0.41800000000E+01 0.  1.
        -11    1    1    2    0    0 -0.40007851979E+02  0.42845980957E+02 -0.20549883368E+02  0.62118467549E+02  0.00000000000E+00 0.  1.
         11    1    1    2    0    0 -0.33372471654E+01  0.33382872410E+02 -0.13623676992E+03  0.14030684540E+03  0.00000000000E+00 0. -1.
</event>
<event>
 7    1  0.2788485E-009  0.9369904E+02  0.7561462E-02  0.1294133E+00
          2   -1    0    0  501    0  0.00000000000E+00  0.00000000000E+00  0.81421073072E+03  0.81421073072E+03  0.00000000000E+00 0. -1.
         -2   -1    0    0    0  501 -0.00000000000E+00 -0.00000000000E+00 -0.18505125200E+02  0.18505125200E+02  0.00000000000E+00 0.  1.
         25    2    1    2    0    0  0.13553854327E+02  0.12808351023E+02  0.63369108166E+03  0.64618990245E+03  0.12509693130E+03 0.  0.
          5    1    3    3  502    0  0.54083672149E+02  0.21498748886E+02  0.54596103061E+03  0.54907026795E+03  0.41800000000E+01 0. -1.
         -5    1    3    3    0  502 -0.40529817822E+02 -0.86903978634E+01  0.87730051051E+02  0.97119634499E+02  0.41800000000E+01 0. -1.
        -11    1    1    2    0    0  0.90088041394E+01  0.34134483354E+02  0.96981945335E+02  0.10320765101E+03  0.00000000000E+00 0. -1.
         11    1    1    2    0    0 -0.22562658466E+02 -0.46942834377E+02  0.65032578518E+02  0.83318302461E+02  0.00000000000E+00 0.  1.
</event>
<event>
 7    1  0.2788485E-009  0.1058572E+03  0.7561462E-02  0.1268440E+00
          1   -1    0    0  501    0  0.00000000000E+00  0.00000000000E+00  0.90127194174E+02  0.90127194174E+02  0.00000000000E+00 0. -1.
         -1   -1    0    0    0  501 -0.00000000000E+00 -0.00000000000E+00 -0.14214383420E+03  0.14214383420E+03  0.00000000000E+00 0.  1.
         25    2    1    2    0    0 -0.34031352792E+02 -0.37551373719E+01 -0.40467067552E+02  0.13585238100E+03  0.12508417900E+03 0.  0.
          5    1    3    3  502    0  0.13115699707E+02 -0.56311717350E+02 -0.99339927947E+01  0.58814859538E+02  0.41800000000E+01 0.  1.
         -5    1    3    3    0  502 -0.47147052499E+02  0.52556579978E+02 -0.30533074757E+02  0.77037521458E+02  0.41800000000E+01 0.  1.
        -11    1    1    2    0    0  0.58222050672E+02 -0.15822830925E+01  0.14961851039E+02  0.60134580657E+02  0.00000000000E+00 0. -1.
         11    1    1    2    0    0 -0.24190697880E+02  0.53374204644E+01 -0.26511423514E+02  0.36284066722E+02  0.00000000000E+00 0.  1.
</event>
<event>
 7    1  0.2788485E-009  0.1338530E+03  0.7561462E-02  0.1221848E+00
          2   -1    0    0  501    0  0.00000000000E+00  0.00000000000E+00  0.19907102249E+04  0.19907102249E+04  0.00000000000E+00 0. -1.
         -2   -1    0    0    0  501 -0.00000000000E+00 -0.00000000000E+00 -0.22038454679E+02  0.22038454679E+02  0.00000000000E+00 0.  1.
         25    2    1    2    0    0 -0.50643098270E+02 -0.12305764936E+03  0.16030527398E+04  0.16134232895E+04  0.12509482758E+03 0.  0.
          5    1    3    3  502    0 -0.16403404756E+02 -0.39423355650E+02  0.11811988870E+04  0.11819778153E+04  0.41800000000E+01 0.  1.
         -5    1    3    3    0  502 -0.34239693514E+02 -0.83634293715E+02  0.42185385278E+03  0.43144547419E+03  0.41800000000E+01 0.  1.
        -11    1    1    2    0    0  0.46435842423E+02  0.92640768904E+02  0.34971361992E+03  0.36474404105E+03  0.00000000000E+00 0. -1.
         11    1    1    2    0    0  0.42072558475E+01  0.30416880460E+02  0.15905410444E+02  0.34581349021E+02  0.00000000000E+00 0.  1.
</event>
<event>
 7    1  0.2788485E-009  0.1208911E+03  0.7561462E-02  0.1241634E+00
          2   -1    0    0  501    0  0.00000000000E+00  0.00000000000E+00  0.97663337554E+02  0.97663337554E+02  0.00000000000E+00 0. -1.
         -2   -1    0    0    0  501 -0.00000000000E+00 -0.00000000000E+00 -0.16829186533E+03  0.16829186533E+03  0.00000000000E+00 0.  1.
         25    2    1    2    0    0  0.64064154107E+02 -0.19987365055E+02 -0.45655933639E+02  0.14911286113E+03  0.12508585242E+03 0.  0.
          5    1    3    3  502    0  0.55356226668E+02  0.39266863169E+02 -0.56127521583E+02  0.88170116554E+02  0.41800000000E+01 0.  1.
         -5    1    3    3    0  502  0.87079274398E+01 -0.59254228224E+02  0.10471587944E+02  0.60942744579E+02  0.41800000000E+01 0.  1.
        -11    1    1    2    0    0 -0.23071531095E+02  0.55124158671E+02 -0.17960193640E+02  0.62398212890E+02  0.00000000000E+00 0. -1.
         11    1    1    2    0    0 -0.40992623012E+02 -0.35136793616E+02 -0.70124004998E+01  0.54444128865E+02  0.00000000000E+00 0.  1.
</event>
<event>
 7    1  0.2788485E-009  0.1170229E+03  0.7561462E-02  0.1248091E+00
          2   -1    0    0  501    0  0.00000000000E+00  0.00000000000E+00  0.17338798271E+03  0.17338798271E+03  0.00000000000E+00 0. -1.
         -2   -1    0    0    0  501 -0.00000000000E+00 -0.00000000000E+00 -0.13099235536E+03  0.13099235536E+03  0.00000000000E+00 0.  1.
         25    2    1    2    0    0  0.62349383583E+02 -0.40175685554E+01  0.10767028238E+03  0.17647503233E+03  0.12508781250E+03 0.  0.
          5    1    3    3  502    0  0.84613773544E+02  0.28631293530E+02  0.10309469920E+03  0.13647428712E+03  0.41800000000E+01 0.  1.
         -5    1    3    3    0  502 -0.22264389961E+02 -0.32648862085E+02  0.45755831876E+01  0.40000745209E+02  0.41800000000E+01 0.  1.
        -11    1    1    2    0    0 -0.42889062447E+02 -0.38809853167E+02 -0.16516064379E+02  0.60153609726E+02  0.00000000000E+00 0. -1.
         11    1    1    2    0    0 -0.19460321136E+02  0.42827421723E+02 -0.48758590651E+02  0.67751696011E+02  0.00000000000E+00 0.  1.
</event>
<event>
 7    1  0.2788485E-009  0.1199653E+03  0.7561462E-02  0.1243154E+00
          1   -1    0    0  501    0  0.00000000000E+00  0.00000000000E+00  0.97483159355E+02  0.97483159355E+02  0.00000000000E+00 0. -1.
         -1   -1    0    0    0  501 -0.00000000000E+00 -0.00000000000E+00 -0.20431434749E+03  0.20431434749E+03  0.00000000000E+00 0.  1.
         25    2    1    2    0    0 -0.69580781879E+02 -0.56837101663E+02 -0.62633496924E+02  0.16625738900E+03  0.12508646261E+03 0.  0.
          5    1    3    3  502    0 -0.30123291193E+02 -0.76028732061E+02 -0.83971586677E+02  0.11728802386E+03  0.41800000000E+01 0.  1.
         -5    1    3    3    0  502 -0.39457490687E+02  0.19191630398E+02  0.21338089754E+02  0.48969365148E+02  0.41800000000E+01 0.  1.
        -11    1    1    2    0    0  0.26452723666E+02 -0.14829690002E+02  0.14242322422E+02  0.33503881012E+02  0.00000000000E+00 0. -1.
         11    1    1    2    0    0  0.43128058213E+02  0.71666791665E+02 -0.58440013632E+02  0.10203623683E+03  0.00000000000E+00 0.  1.
</event>
<event>
 7    1  0.2788485E-009  0.1437970E+03  0.7561462E-02  0.1208309E+00
          1   -1    0    0  501    0  0.00000000000E+00  0.00000000000E+00  0.52214927045E+03  0.52214927045E+03  0.00000000000E+00 0. -1.
         -1   -1    0    0    0  501 -0.00000000000E+00 -0.00000000000E+00 -0.56744845266E+02  0.56744845266E+02  0.00000000000E+00 0.  1.
         25    2    1    2    0    0  0.64579841352E+02  0.10550129710E+03  0.17067497072E+03  0.24511346614E+03  0.12509830556E+03 0.  0.
          5    1    3    3  502    0  0.65677307979E+02  0.11882389672E+03  0.89333168336E+02  0.16257464310E+03  0.41800000000E+01 0.  1.
         -5    1    3    3    0  502 -0.10974666274E+01 -0.13322599617E+02  0.81341802381E+02  0.82538823036E+02  0.41800000000E+01 0.  1.
        -11    1    1    2    0    0 -0.59094273293E+02 -0.38495456097E+02  0.70626305139E+02  0.99810361455E+02  0.00000000000E+00 0.  1.
         11    1    1    2    0    0 -0.54855680590E+01 -0.67005841005E+02  0.22410314932E+03  0.23397028812E+03  0.00000000000E+00 0. -1.
</event>
<event>
 7    1  0.2788485E-009  0.1080261E+03  0.7561462E-02  0.1264269E+00
          2   -1    0    0  501    0  0.00000000000E+00  0.00000000000E+00  0.18462749522E+03  0.18462749522E+03  0.00000000000E+00 0. -1.
         -2   -1    0    0    0  501 -0.00000000000E+00 -0.00000000000E+00 -0.99716538094E+02  0.99716538094E+02  0.00000000000E+00 0.  1.
         25    2    1    2    0    0  0.50399548896E+02 -0.16782320638E+02  0.11001479624E+03  0.17485042143E+03  0.12509058185E+03 0.  0.
          5    1    3    3  502    0  0.11732986693E+02  0.42831278663E+02  0.95183928014E+00  0.44615690140E+02  0.41800000000E+01 0. -1.
         -5    1    3    3    0  502  0.38666562203E+02 -0.59613599301E+02  0.10906295696E+03  0.13023473129E+03  0.41800000000E+01 0. -1.
        -11    1    1    2    0    0 -0.11892139276E+02  0.48775649549E+02  0.59885261487E+01  0.50560354141E+02  0.00000000000E+00 0.  1.
         11    1    1    2    0    0 -0.38507409620E+02 -0.31993328911E+02 -0.31092365261E+02  0.58933257741E+02  0.00000000000E+00 0. -1.
</event>
<event>
 7    1  0.2788485E-009  0.1092785E+03  0.7561462E-02  0.1261912E+00
         -3   -1    0    0    0  501 -0.00000000000E+00  0.00000000000E+00  0.24056043973E+02  0.24056043973E+02  0.00000000000E+00 0.  1.
          3   -1    0    0  501    0  0.00000000000E+00 -0.00000000000E+00 -0.62140170242E+03  0.62140170242E+03  0.00000000000E+00 0. -1.
         25    2    1    2    0    0  0.63340528130E+01  0.43585201779E+02 -0.35606501023E+03  0.37995395312E+03  0.12507167921E+03 0.  0.
          5    1    3    3  502    0  0.60004640497E+02  0.19895209323E+02 -0.10983849169E+03  0.12680040573E+03  0.41800000000E+01 0. -1.
         -5    1    3    3    0  502 -0.53670587684E+02  0.23689992457E+02 -0.24622651854E+03  0.25315354739E+03  0.41800000000E+01 0. -1.
        -11    1    1    2    0    0  0.17174970871E+02 -0.63372639970E+02 -0.21585596209E+03  0.22562107058E+03  0.00000000000E+00 0. -1.
         11    1    1    2    0    0 -0.23509023684E+02  0.19787438191E+02 -0.25424686125E+02  0.39882722691E+02  0.00000000000E+00 0.  1.
</event>
<event>
 7    1  0.2788485E-009  0.1503912E+03  0.7561462E-02  0.1199993E+00
          1   -1    0    0  501    0  0.00000000000E+00  0.00000000000E+00  0.78828591977E+03  0.78828591977E+03  0.00000000000E+00 0. -1.
         -1   -1    0    0    0  501 -0.00000000000E+00 -0.00000000000E+00 -0.39901152944E+02  0.39901152944E+02  0.00000000000E+00 0.  1.
         25    2    1    2    0    0 -0.67127008484E+02 -0.87292363119E+02  0.19508454014E+03  0.25657478899E+03  0.12508658047E+03 0.  0.
          5    1    3    3  502    0 -0.42594116999E+02 -0.11580042912E+03  0.11837252061E+03  0.17103661661E+03  0.41800000000E+01 0.  1.
         -5    1    3    3    0  502 -0.24532891485E+02  0.28508066003E+02  0.76712019537E+02  0.85538172376E+02  0.41800000000E+01 0.  1.
        -11    1    1    2    0    0  0.41522372131E+02 -0.67059746084E+01  0.23507557544E+03  0.23880871770E+03  0.00000000000E+00 0.  1.
         11    1    1    2    0    0  0.25604636353E+02  0.93998337728E+02  0.31822465124E+03  0.33280356602E+03  0.00000000000E+00 0. -1.
</event>
<event>
 7    1  0.2788485E-009  0.1249679E+03  0.7561462E-02  0.1235119E+00
         -3   -1    0    0    0  501 -0.00000000000E+00  0.00000000000E+00  0.11290219276E+03  0.11290219276E+03  0.00000000000E+00 0.  1.
          3   -1    0    0  501    0  0.00000000000E+00 -0.00000000000E+00 -0.17802755423E+03  0.17802755423E+03  0.00000000000E+00 0. -1.
         25    2    1    2    0    0 -0.36209398274E+01  0.86777911988E+02 -0.45471480809E+01  0.15235376411E+03  0.12508987036E+03 0.  0.
          5    1    3    3  502    0  0.45923681806E+02  0.61926422611E+02  0.34354473053E+02  0.84507801929E+02  0.41800000000E+01 0. -1.
         -5    1    3    3    0  502 -0.49544621633E+02  0.24851489376E+02 -0.38901621134E+02  0.67845962178E+02  0.41800000000E+01 0. -1.
        -11    1    1    2    0    0  0.40197777581E+02 -0.32518323283E+02 -0.36341301769E+01  0.51831549984E+02  0.00000000000E+00 0. -1.
         11    1    1    2    0    0 -0.36576837753E+02 -0.54259588705E+02 -0.56944083217E+02  0.86744432904E+02  0.00000000000E+00 0.  1.
</event>
<event>
 7    1  0.2788485E-009  0.6852105E+02  0.7561462E-02  0.1365196E+00
          2   -1    0    0  501    0  0.00000000000E+00  0.00000000000E+00  0.83683293732E+02  0.83683293732E+02  0.00000000000E+00 0. -1.
         -2   -1    0    0    0  501 -0.00000000000E+00 -0.00000000000E+00 -0.17189467024E+03  0.17189467024E+03  0.00000000000E+00 0.  1.
         25    2    1    2    0    0 -0.48103112003E+02 -0.14976499992E+02 -0.57799236123E+02  0.14671902568E+03  0.12509003103E+03 0.  0.
          5    1    3    3  502    0 -0.55930371649E+02 -0.10003990236E+02  0.25773008376E+02  0.62530046012E+02  0.41800000000E+01 0. -1.
         -5    1    3    3    0  502  0.78272596463E+01 -0.49725097558E+01 -0.83572244499E+02  0.84188979668E+02  0.41800000000E+01 0. -1.
        -11    1    1    2    0    0  0.14006233310E+02 -0.17768310675E+02 -0.52135261704E+02  0.56832850964E+02  0.00000000000E+00 0.  1.
         11    1    1    2    0    0  0.34096878693E+02  0.32744810667E+02  0.21723121323E+02  0.52026087324E+02  0.00000000000E+00 0. -1.
</event>
<event>
 7    1  0.2788485E-009  0.1314819E+03  0.7561462E-02  0.1225273E+00
         -1   -1    0    0    0  501 -0.00000000000E+00  0.00000000000E+00  0.12788463873E+03  0.12788463873E+03  0.00000000000E+00 0.  1.
          1   -1    0    0  501    0  0.00000000000E+00 -0.00000000000E+00 -0.16969341399E+03  0.16969341399E+03  0.00000000000E+00 0. -1.
         25    2    1    2    0    0 -0.14520604685E+02  0.87990262928E+02  0.20203411249E+02  0.15495819551E+03  0.12510287847E+03 0.  0.
          5    1    3    3  502    0 -0.64899236326E+02  0.68759238501E+02 -0.60525945912E+01  0.94835911216E+02  0.41800000000E+01 0.  1.
         -5    1    3    3    0  502  0.50378631641E+02  0.19231024428E+02  0.26256005840E+02  0.60122284298E+02  0.41800000000E+01 0.  1.
        -11    1    1    2    0    0 -0.11597283061E+02  0.84316714865E+01  0.11671652150E+02  0.18488307720E+02  0.00000000000E+00 0.  1.
         11    1    1    2    0    0  0.26117887746E+02 -0.96421934415E+02 -0.73683838668E+02  0.12413154948E+03  0.00000000000E+00 0. -1.
</event>
<event>
 7    1  0.2788485E-009  0.1149052E+03  0.7561462E-02  0.1251747E+00
          3   -1    0    0  501    0  0.00000000000E+00  0.00000000000E+00  0.30750941757E+03  0.30750941757E+03  0.00000000000E+00 0. -1.
         -3   -1    0    0    0  501 -0.00000000000E+00 -0.00000000000E+00 -0.44232167018E+02  0.44232167018E+02  0.00000000000E+00 0.  1.
         25    2    1    2    0    0 -0.37047940710E+02 -0.81501984303E+01  0.17056302850E+03  0.21489130024E+03  0.12509016181E+03 0.  0.
          5    1    3    3  502    0  0.27381308486E+02  0.41045218307E+02  0.62506267109E+02  0.79743036236E+02  0.41800000000E+01 0.  1.
         -5    1    3    3    0  502 -0.64429249196E+02 -0.49195416738E+02  0.10805676139E+03  0.13514826400E+03  0.41800000000E+01 0.  1.
        -11    1    1    2    0    0  0.47495778865E+02 -0.32238744311E+02  0.65233509280E+02  0.86894167686E+02  0.00000000000E+00 0. -1.
         11    1    1    2    0    0 -0.10447838155E+02  0.40388942742E+02  0.27480712773E+02  0.49956116666E+02  0.00000000000E+00 0.  1.
</event>
<event>
 7    1  0.2788485E-009  0.1196281E+03  0.7561462E-02  0.1243712E+00
         -2   -1    0    0    0  501 -0.00000000000E+00  0.00000000000E+00  0.16185375157E+02  0.16185375157E+02  0.00000000000E+00 0.  1.
          2   -1    0    0  501    0  0.00000000000E+00 -0.00000000000E+00 -0.13125450672E+04  0.13125450672E+04  0.00000000000E+00 0. -1.
         25    2    1    2    0    0  0.63351731546E+02  0.66167008431E+02 -0.85581785788E+03  0.86974945258E+03  0.12509352305E+03 0.  0.
          5    1    3    3  502    0  0.21579889361E+02  0.64965910854E+02 -0.17992741371E+03  0.19255546682E+03  0.41800000000E+01 0.  1.
         -5    1    3    3    0  502  0.41771842185E+02  0.12010975763E+01 -0.67589044416E+03  0.67719398576E+03  0.41800000000E+01 0.  1.
        -11    1    1    2    0    0  0.13263349464E+02 -0.48185966526E+02 -0.16180501141E+03  0.16934776505E+03  0.00000000000E+00 0.  1.
         11    1    1    2    0    0 -0.76615081010E+02 -0.17981041904E+02 -0.27873682273E+03  0.28963322471E+03  0.00000000000E+00 0. -1.
</event>
<event>
 7    1  0.2788485E-009  0.1409505E+03  0.7561462E-02  0.1212056E+00
         -2   -1    0    0    0  501 -0.00000000000E+00  0.00000000000E+00  0.27329043332E+02  0.27329043332E+02  0.00000000000E+00 0. -1.
          2   -1    0    0  501    0  0.00000000000E+00 -0.00000000000E+00 -0.89537694050E+03  0.89537694050E+03  0.00000000000E+00 0.  1.
         25    2    1    2    0    0  0.88956401331E+02 -0.35860639882E+01 -0.26629072001E+03  0.30738332619E+03  0.12509060901E+03 0.  0.
          5    1    3    3  502    0  0.97280078122E+02 -0.47695282222E+02 -0.19091024356E+03  0.21955055691E+03  0.41800000000E+01 0.  1.
         -5    1    3    3    0  502 -0.83236767904E+01  0.44109218234E+02 -0.75380476446E+02  0.87832769271E+02  0.41800000000E+01 0.  1.
        -11    1    1    2    0    0  0.12229445742E+02 -0.20967103798E+02 -0.10467548112E+03  0.10745294380E+03  0.00000000000E+00 0. -1.
         11    1    1    2    0    0 -0.10118584707E+03  0.24553167786E+02 -0.49708169604E+03  0.50786971384E+03  0.00000000000E+00 0.  1.
</event>
<event>
 7    1  0.2788485E-009  0.1116266E+03  0.7561462E-02  0.1257587E+00
         -2   -1    0    0    0  501 -0.00000000000E+00  0.00000000000E+00  0.32196617279E+02  0.32196617279E+02  0.00000000000E+00 0.  1.
          2   -1    0    0  501    0  0.00000000000E+00 -0.00000000000E+00 -0.45197815935E+03  0.45197815935E+03  0.00000000000E+00 0. -1.
         25    2    1    2    0    0  0.39642257890E+02  0.22572945248E+02 -0.18222584070E+03  0.22568754167E+03  0.12509021936E+03 0.  0.
          5    1    3    3  502    0 -0.14972755207E+02  0.60131495505E+02 -0.58798487792E+02  0.85526105470E+02  0.41800000000E+01 0.  1.
         -5    1    3    3    0  502  0.54615013097E+02 -0.37558550258E+02 -0.12342735291E+03  0.14016143620E+03  0.41800000000E+01 0.  1.
        -11    1    1    2    0    0 -0.39626495382E+02 -0.51958324998E+02 -0.20229631327E+03  0.21258815827E+03  0.00000000000E+00 0.  1.
         11    1    1    2    0    0 -0.15762507799E-01  0.29385379751E+02 -0.35259388106E+02  0.45899076691E+02  0.00000000000E+00 0. -1.
</event>
<event>
 7    1  0.2788485E-009  0.1613323E+03  0.7561462E-02  0.1187201E+00
         -3   -1    0    0    0  501 -0.00000000000E+00  0.00000000000E+00  0.33431251666E+02  0.33431251666E+02  0.00000000000E+00 0.  1.
          3   -1    0    0  501    0  0.00000000000E+00 -0.00000000000E+00 -0.13919927206E+04  0.13919927206E+04  0.00000000000E+00 0. -1.
         25    2    1    2    0    0  0.83326908663E+02  0.12121892138E+03 -0.10651910243E+04  0.10825526738E+04  0.12510384783E+03 0.  0.
          5    1    3    3  502    0  0.74623151705E+02  0.11599776946E+03 -0.10622683202E+04  0.10711935184E+04  0.41800000000E+01 0. -1.
         -5    1    3    3    0  502  0.87037569581E+01  0.52211519196E+01 -0.29227040482E+01  0.11359155405E+02  0.41800000000E+01 0. -1.
        -11    1    1    2    0    0 -0.23123033047E+02 -0.11006578202E+03 -0.22179074286E+03  0.24867706901E+03  0.00000000000E+00 0. -1.
         11    1    1    2    0    0 -0.60203875616E+02 -0.11153139355E+02 -0.71579701840E+02  0.94194229506E+02  0.00000000000E+00 0.  1.
</event>
<event>
 7    1  0.2788485E-009  0.1099418E+03  0.7561462E-02  0.1260678E+00
          4   -1    0    0  501    0  0.00000000000E+00  0.00000000000E+00  0.64631132525E+02  0.64631132525E+02  0.00000000000E+00 0. -1.
         -4   -1    0    0    0  501 -0.00000000000E+00 -0.00000000000E+00 -0.21317921012E+03  0.21317921012E+03  0.00000000000E+00 0.  1.
         25    2    1    2    0    0 -0.35883999495E+02 -0.83401181343E+01 -0.53129688782E+02  0.14081095503E+03  0.12509093587E+03 0.  0.
          5    1    3    3  502    0 -0.44728199093E+02  0.47265176048E+02 -0.53506317168E+02  0.84350501112E+02  0.41800000000E+01 0.  1.
         -5    1    3    3    0  502  0.88441995975E+01 -0.55605294182E+02  0.37662838657E+00  0.56460453917E+02  0.41800000000E+01 0.  1.
        -11    1    1    2    0    0 -0.20150091098E+02  0.31655958522E+02 -0.33627732605E+02  0.50387997394E+02  0.00000000000E+00 0. -1.
         11    1    1    2    0    0  0.56034090593E+02 -0.23315840387E+02 -0.61790656206E+02  0.86611390221E+02  0.00000000000E+00 0.  1.
</event>
<event>
 7    1  0.2788485E-009  0.1460073E+03  0.7561462E-02  0.1205467E+00
          3   -1    0    0  501    0  0.00000000000E+00  0.00000000000E+00  0.13327584369E+04  0.13327584369E+04  0.00000000000E+00 0. -1.
         -3   -1    0    0    0  501 -0.00000000000E+00 -0.00000000000E+00 -0.16267249252E+02  0.16267249252E+02  0.00000000000E+00 0.  1.
         25    2    1    2    0    0 -0.80250985386E+02 -0.62986180350E+02  0.74389178293E+03  0.76120332358E+03  0.12509210831E+03 0.  0.
          5    1    3    3  502    0 -0.10740270573E+03 -0.73409291216E+02  0.55629143313E+03  0.57131593380E+03  0.41800000000E+01 0.  1.
         -5    1    3    3    0  502  0.27151720340E+02  0.10423110866E+02  0.18760034979E+03  0.18988738979E+03  0.41800000000E+01 0.  1.
        -11    1    1    2    0    0  0.45913300233E+02 -0.14144764464E+02  0.18524381617E+03  0.19137235152E+03  0.00000000000E+00 0.  1.
         11    1    1    2    0    0  0.34337685153E+02  0.77130944814E+02  0.38735558852E+03  0.39645001101E+03  0.00000000000E+00 0. -1.
</event>
<event>
 7    1  0.2788485E-009  0.1488502E+03  0.7561462E-02  0.1201893E+00
          1   -1    0    0  501    0  0.00000000000E+00  0.00000000000E+00  0.77526565582E+03  0.77526565582E+03  0.00000000000E+00 0. -1.
         -1   -1    0    0    0  501 -0.00000000000E+00 -0.00000000000E+00 -0.32809722531E+02  0.32809722531E+02  0.00000000000E+00 0.  1.
         25    2    1    2    0    0 -0.11930045444E+03 -0.13774439642E+02  0.35124781621E+03  0.39171957884E+03  0.12508743515E+03 0.  0.
          5    1    3    3  502    0 -0.90610977708E+02  0.49254610896E+02  0.22828137680E+03  0.25053188493E+03  0.41800000000E+01 0. -1.
         -5    1    3    3    0  502 -0.28689476736E+02 -0.63029050538E+02  0.12296643942E+03  0.14118769391E+03  0.41800000000E+01 0. -1.
        -11    1    1    2    0    0  0.40834496543E+02 -0.11921780489E+02  0.51696062769E+02  0.66948247652E+02  0.00000000000E+00 0.  1.
         11    1    1    2    0    0  0.78465957901E+02  0.25696220131E+02  0.33951205430E+03  0.34940755186E+03  0.00000000000E+00 0. -1.
</event>
<event>
 7    1  0.2788485E-009  0.2369299E+03  0.7561462E-02  0.1121855E+00
          2   -1    0    0  501    0  0.00000000000E+00  0.00000000000E+00  0.17111778569E+04  0.17111778569E+04  0.00000000000E+00 0.  1.
         -2   -1    0    0    0  501 -0.00000000000E+00 -0.00000000000E+00 -0.85529977403E+02  0.85529977403E+02  0.00000000000E+00 0. -1.
         25    2    1    2    0    0 -0.16114838979E+03  0.17235415400E+03  0.14805415006E+04  0.15044351960E+04  0.12508943296E+03 0.  0.
          5    1    3    3  502    0 -0.11654838352E+03  0.11289310902E+03  0.62755355325E+03  0.64820468555E+03  0.41800000000E+01 0. -1.
         -5    1    3    3    0  502 -0.44600006274E+02  0.59461044982E+02  0.85298794731E+03  0.85623051049E+03  0.41800000000E+01 0. -1.
        -11    1    1    2    0    0  0.53159593775E+02 -0.73407287752E+02  0.10836152207E+03  0.14126850948E+03  0.00000000000E+00 0.  1.
         11    1    1    2    0    0  0.10798879602E+03 -0.98946866246E+02  0.36744856864E+02  0.15100412879E+03  0.00000000000E+00 0. -1.
</event>
<event>
 7    1  0.2788485E-009  0.1755446E+03  0.7561462E-02  0.1172186E+00
         -1   -1    0    0    0  501 -0.00000000000E+00  0.00000000000E+00  0.13486142568E+03  0.13486142568E+03  0.00000000000E+00 0.  1.
          1   -1    0    0  501    0  0.00000000000E+00 -0.00000000000E+00 -0.33283968182E+03  0.33283968182E+03  0.00000000000E+00 0. -1.
         25    2    1    2    0    0 -0.46678801188E+02 -0.16098551631E+03 -0.18321970455E+03  0.27805360305E+03  0.12509635922E+03 0.  0.
          5    1    3    3  502    0 -0.30625439842E+02 -0.12689164629E+03 -0.19813794746E+03  0.23730892542E+03  0.41800000000E+01 0. -1.
         -5    1    3    3    0  502 -0.16053361346E+02 -0.34093870019E+02  0.14918242905E+02  0.40744677625E+02  0.41800000000E+01 0. -1.
        -11    1    1    2    0    0  0.46479335596E+02  0.39246292029E+02  0.18252483983E+02  0.63511835488E+02  0.00000000000E+00 0.  1.
         11    1    1    2    0    0  0.19946559131E+00  0.12173922428E+03 -0.33011035573E+02  0.12613566896E+03  0.00000000000E+00 0. -1.
</event>
<event>
 7    1  0.2788485E-009  0.2883972E+03  0.7561462E-02  0.1091189E+00
          4   -1    0    0  501    0  0.00000000000E+00  0.00000000000E+00  0.29530091670E+03  0.29530091670E+03  0.00000000000E+00 0. -1.
         -4   -1    0    0    0  501 -0.00000000000E+00 -0.00000000000E+00 -0.44634958723E+03  0.44634958723E+03  0.00000000000E+00 0.  1.
         25    2    1    2    0    0 -0.12432023339E+03 -0.24027266417E+03  0.14408225320E+03  0.33104852309E+03  0.12508779066E+03 0.  0.
          5    1    3    3  502    0 -0.94788686204E+02 -0.53847618339E+02  0.47602411928E+02  0.11902908491E+03  0.41800000000E+01 0. -1.
         -5    1    3    3    0  502 -0.29531547190E+02 -0.18642504584E+03  0.96479841268E+02  0.21201943818E+03  0.41800000000E+01 0. -1.
        -11    1    1    2    0    0  0.10334683598E+03  0.12715313583E+03 -0.21534646928E+03  0.27059673001E+03  0.00000000000E+00 0. -1.
         11    1    1    2    0    0  0.20973397414E+02  0.11311952835E+03 -0.79784454443E+02  0.14000525084E+03  0.00000000000E+00 0.  1.
</event>
<event>
 7    1  0.2788485E-009  0.1057414E+03  0.7561462E-02  0.1268666E+00
         -1   -1    0    0    0  501 -0.00000000000E+00  0.00000000000E+00  0.31163721060E+02  0.31163721060E+02  0.00000000000E+00 0.  1.
          1   -1    0    0  501    0  0.00000000000E+00 -0.00000000000E+00 -0.47445294940E+03  0.47445294940E+03  0.00000000000E+00 0. -1.
         25    2    1    2    0    0  0.41464038887E+02  0.27292791193E+02 -0.19807497380E+03  0.23946930473E+03  0.12509072584E+03 0.  0.
          5    1    3    3  502    0  0.13231057754E+02 -0.50027484186E+02 -0.83657512530E+02  0.98457411433E+02  0.41800000000E+01 0. -1.
         -5    1    3    3    0  502  0.28232981133E+02  0.77320275379E+02 -0.11441746127E+03  0.14101189330E+03  0.41800000000E+01 0. -1.
        -11    1    1    2    0    0 -0.42030419477E+02  0.72059763985E+01 -0.21819638955E+03  0.22232441762E+03  0.00000000000E+00 0. -1.
         11    1    1    2    0    0  0.56638059002E+00 -0.34498767592E+02 -0.27017864993E+02  0.43822948111E+02  0.00000000000E+00 0.  1.
</event>
<event>
 7    1  0.2788485E-009  0.1413266E+03  0.7561462E-02  0.1211555E+00
          2   -1    0    0  501    0  0.00000000000E+00  0.00000000000E+00  0.18166545470E+02  0.18166545470E+02  0.00000000000E+00 0. -1.
         -2   -1    0    0    0  501 -0.00000000000E+00 -0.00000000000E+00 -0.11690322120E+04  0.11690322120E+04  0.00000000000E+00 0.  1.
         25    2    1    2    0    0  0.15277586554E+02 -0.94166493612E+02 -0.67257850211E+03  0.69073169732E+03  0.12509077905E+03 0.  0.
          5    1    3    3  502    0 -0.53841893527E+02 -0.55557333637E+02 -0.30346539300E+03  0.31320007019E+03  0.41800000000E+01 0.  1.
         -5    1    3    3    0  502  0.69119480081E+02 -0.38609159974E+02 -0.36911310911E+03  0.37753162712E+03  0.41800000000E+01 0.  1.
        -11    1    1    2    0    0 -0.49340857416E+02  0.59394658573E+02 -0.20882106978E+03  0.22263980969E+03  0.00000000000E+00 0. -1.
         11    1    1    2    0    0  0.34063270862E+02  0.34771835039E+02 -0.26946609465E+03  0.27382725047E+03  0.00000000000E+00 0.  1.
</event>
<event>
 7    1  0.2788485E-009  0.9816677E+02  0.7561462E-02  0.1284199E+00
          2   -1    0    0  501    0  0.00000000000E+00  0.00000000000E+00  0.26640494578E+03  0.26640494578E+03  0.00000000000E+00 0. -1.
         -2   -1    0    0    0  501 -0.00000000000E+00 -0.00000000000E+00 -0.65882407531E+02  0.65882407531E+02  0.00000000000E+00 0.  1.
         25    2    1    2    0    0 -0.11687566855E+02 -0.74384628916E+02  0.13769178845E+03  0.20068863023E+03  0.12508887025E+03 0.  0.
          5    1    3    3  502    0  0.37599821963E+02 -0.40411858595E+02  0.56413518307E+01  0.55643168289E+02  0.41800000000E+01 0.  1.
         -5    1    3    3    0  502 -0.49287388818E+02 -0.33972770321E+02  0.13205043662E+03  0.14504546195E+03  0.41800000000E+01 0.  1.
        -11    1    1    2    0    0  0.12921758774E+02  0.94136520880E+01  0.64643173875E+02  0.66590754795E+02  0.00000000000E+00 0. -1.
         11    1    1    2    0    0 -0.12341919186E+01  0.64970976828E+02 -0.18124240712E+01  0.65007968286E+02  0.00000000000E+00 0.  1.
</event>
<event>
 7    1  0.2788485E-009  0.1085510E+03  0.7561462E-02  0.1263277E+00
          2   -1    0    0  501    0  0.00000000000E+00  0.00000000000E+00  0.14390814339E+04  0.14390814339E+04  0.00000000000E+00 0. -1.
         -2   -1    0    0    0  501 -0.00000000000E+00 -0.00000000000E+00 -0.13924097704E+02  0.13924097704E+02  0.00000000000E+00 0.  1.
         25    2    1    2    0    0  0.83207835116E+01 -0.81520696687E+02  0.10482604320E+04  0.10588730071E+04  0.12508897801E+03 0.  0.
          5    1    3    3  502    0  0.12190874403E+02 -0.10019970958E+03  0.10170598032E+04  0.10220649270E+04  0.41800000000E+01 0.  1.
         -5    1    3    3    0  502 -0.38700908909E+01  0.18679012896E+02  0.31200628835E+02  0.36808080172E+02  0.41800000000E+01 0.  1.
        -11    1    1    2    0    0 -0.23910695677E+02  0.76531475670E+02  0.36548949168E+03  0.37418091436E+03  0.00000000000E+00 0. -1.
         11    1    1    2    0    0  0.15589912165E+02  0.49892210163E+01  0.11407412508E+02  0.19951610156E+02  0.00000000000E+00 0.  1.
</event>
<event>
 7    1  0.2788485E-009  0.1759549E+03  0.7561462E-02  0.1171776E+00
         -1   -1    0    0    0  501 -0.00000000000E+00  0.00000000000E+00  0.52509216221E+03  0.52509216221E+03  0.00000000000E+00 0.  1.
          1   -1    0    0  501    0  0.00000000000E+00 -0.00000000000E+00 -0.78013860880E+02  0.78013860880E+02  0.00000000000E+00 0. -1.
         25    2    1    2    0    0  0.13825268389E+03 -0.85140240815E+02  0.15624199444E+03  0.25772475404E+03  0.12509125792E+03 0.  0.
          5    1    3    3  502    0  0.28042661051E+02 -0.38801325925E+02  0.12524118404E+03  0.13414455007E+03  0.41800000000E+01 0. -1.
         -5    1    3    3    0  502  0.11021002284E+03 -0.46338914890E+02  0.31000810396E+02  0.12358020397E+03  0.41800000000E+01 0. -1.
        -11    1    1    2    0    0 -0.70065164583E+02 -0.60884906820E+01  0.86878396553E+02  0.11177679900E+03  0.00000000000E+00 0. -1.
         11    1    1    2    0    0 -0.68187519309E+02  0.91228731497E+02  0.20395791034E+03  0.23360447006E+03  0.00000000000E+00 0.  1.
</event>
<event>
 7    1  0.2788485E-009  0.9300975E+02  0.7561462E-02  0.1295723E+00
          2   -1    0    0  501    0  0.00000000000E+00  0.00000000000E+00  0.31065732089E+03  0.31065732089E+03  0.00000000000E+00 0. -1.
         -2   -1    0    0    0  501 -0.00000000000E+00 -0.00000000000E+00 -0.10721817739E+03  0.10721817739E+03  0.00000000000E+00 0.  1.
         25    2    1    2    0    0 -0.69853701089E+02  0.89118234845E+01  0.25264778509E+03  0.29058116315E+03  0.12509016314E+03 0.  0.
          5    1    3    3  502    0 -0.20828435083E+02  0.38205246017E+02  0.22074319669E+03  0.22502998870E+03  0.41800000000E+01 0. -1.
         -5    1    3    3    0  502 -0.49025266007E+02 -0.29293422532E+02  0.31904588405E+02  0.65551174452E+02  0.41800000000E+01 0. -1.
        -11    1    1    2    0    0  0.56262916331E+02  0.14383343943E+02  0.12983614158E+02  0.59506054933E+02  0.00000000000E+00 0. -1.
         11    1    1    2    0    0  0.13590784759E+02 -0.23295167428E+02 -0.62192255750E+02  0.67788280190E+02  0.00000000000E+00 0.  1.
</event>
<event>
 7    1  0.2788485E-009  0.1431227E+03  0.7561462E-02  0.1209188E+00
          2   -1    0    0  501    0  0.00000000000E+00  0.00000000000E+00  0.56194042128E+03  0.56194042128E+03  0.00000000000E+00 0. -1.
         -2   -1    0    0    0  501 -0.00000000000E+00 -0.00000000000E+00 -0.56057133787E+02  0.56057133787E+02  0.00000000000E+00 0.  1.
         25    2    1    2    0    0 -0.11657545722E+03 -0.52039794567E+02  0.36888779300E+03  0.40990559326E+03  0.12508562714E+03 0.  0.
          5    1    3    3  502    0 -0.43481809845E+02 -0.46302837281E+02  0.30800100120E+03  0.31451026957E+03  0.41800000000E+01 0. -1.
         -5    1    3    3    0  502 -0.73093647374E+02 -0.57369572856E+01  0.60886791801E+02  0.95395323686E+02  0.41800000000E+01 0. -1.
        -11    1    1    2    0    0  0.79777715601E+02 -0.64623307515E+01  0.10474540735E+03  0.13182505827E+03  0.00000000000E+00 0.  1.
         11    1    1    2    0    0  0.36797741618E+02  0.58502125318E+02  0.32250087137E+02  0.76266903538E+02  0.00000000000E+00 0. -1.
</event>
<event>
 7    1  0.2788485E-009  0.1647325E+03  0.7561462E-02  0.1183455E+00
          2   -1    0    0  501    0  0.00000000000E+00  0.00000000000E+00  0.12135118341E+04  0.12135118341E+04  0.00000000000E+00 0. -1.
         -2   -1    0    0    0  501 -0.00000000000E+00 -0.00000000000E+00 -0.44908167463E+02  0.44908167463E+02  0.00000000000E+00 0.  1.
         25    2    1    2    0    0  0.23211495503E+02  0.14001415726E+03  0.99570322671E+03  0.10135165400E+04  0.12509245932E+03 0.  0.
          5    1    3    3  502    0  0.70564557326E+02  0.77310572905E+02  0.68710250323E+03  0.69504215971E+03  0.41800000000E+01 0.  1.
         -5    1    3    3    0  502 -0.47353061824E+02  0.62703584359E+02  0.30860072348E+03  0.31847438027E+03  0.41800000000E+01 0.  1.
        -11    1    1    2    0    0  0.39040331028E+01 -0.80815547954E+02  0.27274135971E+02  0.85383094102E+02  0.00000000000E+00 0.  1.
         11    1    1    2    0    0 -0.27115528605E+02 -0.59198609310E+02  0.14562630392E+03  0.15952036744E+03  0.00000000000E+00 0. -1.
</event>
<event>
 7    1  0.2788485E-009  0.1185277E+03  0.7561462E-02  0.1245546E+00
          1   -1    0    0  501    0  0.00000000000E+00  0.00000000000E+00  0.63426325996E+02  0.63426325996E+02  0.00000000000E+00 0. -1.
         -1   -1    0    0    0  501 -0.00000000000E+00 -0.00000000000E+00 -0.23323751536E+03  0.23323751536E+03  0.00000000000E+00 0.  1.
         25    2    1    2    0    0 -0.28217792807E+02  0.46769153984E+02 -0.95995599754E+02  0.16687579527E+03  0.12509507696E+03 0.  0.
          5    1    3    3  502    0  0.36889497735E+02 -0.16376304202E+02 -0.52069630303E+02  0.66013159161E+02  0.41800000000E+01 0.  1.
         -5    1    3    3    0  502 -0.65107290543E+02  0.63145458186E+02 -0.43925969450E+02  0.10086263611E+03  0.41800000000E+01 0.  1.
        -11    1    1    2    0    0 -0.20564331411E+02 -0.52673088841E+02 -0.48584953944E+02  0.74550947440E+02  0.00000000000E+00 0.  1.
         11    1    1    2    0    0  0.48782124219E+02  0.59039348570E+01 -0.25230635662E+02  0.55237098639E+02  0.00000000000E+00 0. -1.
</event>
<event>
 7    1  0.2788485E-009  0.1570605E+03  0.7561462E-02  0.1192056E+00
         -1   -1    0    0    0  501 -0.00000000000E+00  0.00000000000E+00  0.17153779139E+03  0.17153779139E+03  0.00000000000E+00 0.  1.
          1   -1    0    0  501    0  0.00000000000E+00 -0.00000000000E+00 -0.19902252301E+03  0.19902252301E+03  0.00000000000E+00 0. -1.
         25    2    1    2    0    0  0.13346847188E+03 -0.47973354116E+02 -0.61199411960E+02  0.19876541895E+03  0.12508816113E+03 0.  0.
          5    1    3    3  502    0  0.15276781739E+02  0.21679494317E+02  0.25002986957E+02  0.36687903877E+02  0.41800000000E+01 0. -1.
         -5    1    3    3    0  502  0.11819169014E+03 -0.69652848434E+02 -0.86202398916E+02  0.16207751508E+03  0.41800000000E+01 0. -1.
        -11    1    1    2    0    0 -0.38190220782E+02 -0.86886362487E+01  0.45824722665E+02  0.60281759849E+02  0.00000000000E+00 0. -1.
         11    1    1    2    0    0 -0.95278251102E+02  0.56661990365E+02 -0.12110042329E+02  0.11151313560E+03  0.00000000000E+00 0.  1.
</event>
<event>
 7    1  0.2788485E-009  0.1183432E+03  0.7561462E-02  0.1245856E+00
         -2   -1    0    0    0  501 -0.00000000000E+00  0.00000000000E+00  0.31711817846E+02  0.31711817846E+02  0.00000000000E+00 0.  1.
          2   -1    0    0  501    0  0.00000000000E+00 -0.00000000000E+00 -0.65711549954E+03  0.65711549954E+03  0.00000000000E+00 0. -1.
         25    2    1    2    0    0 -0.76444720995E+02 -0.31380625805E+02 -0.22835970852E+03  0.27316748590E+03  0.12507509678E+03 0.  0.
          5    1    3    3  502    0 -0.89316176253E+02 -0.12231305386E+02 -0.23245959309E+03  0.24936302651E+03  0.41800000000E+01 0. -1.
         -5    1    3    3    0  502  0.12871455258E+02 -0.19149320419E+02  0.40998845771E+01  0.23804459383E+02  0.41800000000E+01 0. -1.
        -11    1    1    2    0    0  0.68189041424E+02  0.61460103971E+02 -0.29406278536E+03  0.30805845466E+03  0.00000000000E+00 0. -1.
         11    1    1    2    0    0  0.82556795709E+01 -0.30079478166E+02 -0.10298118781E+03  0.10760137683E+03  0.00000000000E+00 0.  1.
</event>
<event>
 7    1  0.2788485E-009  0.2250964E+03  0.7561462E-02  0.1130140E+00
          2   -1    0    0  501    0  0.00000000000E+00  0.00000000000E+00  0.50115110015E+03  0.50115110015E+03  0.00000000000E+00 0. -1.
         -2   -1    0    0    0  501 -0.00000000000E+00 -0.00000000000E+00 -0.12214810425E+03  0.12214810425E+03  0.00000000000E+00 0.  1.
         25    2    1    2    0    0  0.14853463052E+03  0.15577518810E+03  0.12836914136E+03  0.28009773983E+03  0.12509061401E+03 0.  0.
          5    1    3    3  502    0  0.32241298849E+02  0.46208173875E+02  0.10408472535E+03  0.11843056673E+03  0.41800000000E+01 0.  1.
         -5    1    3    3    0  502  0.11629333167E+03  0.10956701423E+03  0.24284416009E+02  0.16166717310E+03  0.41800000000E+01 0.  1.
        -11    1    1    2    0    0 -0.65257100077E+02 -0.13200957553E+03  0.16946714209E+03  0.22450863990E+03  0.00000000000E+00 0. -1.
         11    1    1    2    0    0 -0.83277530439E+02 -0.23765612570E+02  0.81166712450E+02  0.11869282466E+03  0.00000000000E+00 0.  1.
</event>
<event>
 7    1  0.2788485E-009  0.7917051E+02  0.7561462E-02  0.1331422E+00
         -2   -1    0    0    0  501 -0.00000000000E+00  0.00000000000E+00  0.89317754797E+02  0.89317754797E+02  0.00000000000E+00 0. -1.
          2   -1    0    0  501    0  0.00000000000E+00 -0.00000000000E+00 -0.52922013778E+03  0.52922013778E+03  0.00000000000E+00 0.  1.
         25    2    1    2    0    0  0.27529877538E+02  0.33020160381E+02 -0.48988366039E+03  0.50742618178E+03  0.12508838511E+03 0.  0.
          5    1    3    3  502    0  0.66116336460E+02  0.45000653161E+01 -0.39978528471E+03  0.40526209644E+03  0.41800000000E+01 0.  1.
         -5    1    3    3    0  502 -0.38586458922E+02  0.28520095065E+02 -0.90098375674E+02  0.10216408534E+03  0.41800000000E+01 0.  1.
        -11    1    1    2    0    0 -0.97127207643E+01 -0.60205887182E+01 -0.26071094408E+02  0.28465529976E+02  0.00000000000E+00 0.  1.
         11    1    1    2    0    0 -0.17817156773E+02 -0.26999571663E+02  0.76052371815E+02  0.82646180820E+02  0.00000000000E+00 0. -1.
</event>
<event>
 7    1  0.2788485E-009  0.1714969E+03  0.7561462E-02  0.1176296E+00
          2   -1    0    0  501    0  0.00000000000E+00  0.00000000000E+00  0.37949097592E+03  0.37949097592E+03  0.00000000000E+00 0. -1.
         -2   -1    0    0    0  501 -0.00000000000E+00 -0.00000000000E+00 -0.87271817528E+02  0.87271817528E+02  0.00000000000E+00 0.  1.
         25    2    1    2    0    0 -0.10667243408E+03  0.10473822374E+03  0.13628808383E+03  0.23784837682E+03  0.12509318470E+03 0.  0.
          5    1    3    3  502    0 -0.10377027437E+03  0.12104816060E+03  0.14763773024E+03  0.21733683263E+03  0.41800000000E+01 0. -1.
         -5    1    3    3    0  502 -0.29021597031E+01 -0.16309936865E+02 -0.11349646406E+02  0.20511544189E+02  0.41800000000E+01 0. -1.
        -11    1    1    2    0    0  0.59723249074E+02 -0.98276733937E+01  0.70054788008E+02  0.92580359511E+02  0.00000000000E+00 0.  1.
         11    1    1    2    0    0  0.46949185001E+02 -0.94910550342E+02  0.85876286556E+02  0.13633405712E+03  0.00000000000E+00 0. -1.
</event>
<event>
 7    1  0.2788485E-009  0.1175040E+03  0.7561462E-02  0.1247272E+00
         -2   -1    0    0    0  501 -0.00000000000E+00  0.00000000000E+00  0.52809590602E+02  0.52809590602E+02  0.00000000000E+00 0.  1.
          2   -1    0    0  501    0  0.00000000000E+00 -0.00000000000E+00 -0.48305706196E+03  0.48305706196E+03  0.00000000000E+00 0. -1.
         25    2    1    2    0    0 -0.14502753287E+02  0.51137265861E+02 -0.36734837669E+03  0.39168554047E+03  0.12508949972E+03 0.  0.
          5    1    3    3  502    0  0.12003039637E+02 -0.26989141133E+02 -0.22606633936E+03  0.22802620220E+03  0.41800000000E+01 0. -1.
         -5    1    3    3    0  502 -0.26505792924E+02  0.78126406994E+02 -0.14128203733E+03  0.16365933827E+03  0.41800000000E+01 0. -1.
        -11    1    1    2    0    0 -0.42372089075E+02  0.49881384814E+01 -0.45557363372E+02  0.62415933987E+02  0.00000000000E+00 0. -1.
         11    1    1    2    0    0  0.56874842361E+02 -0.56125404343E+02 -0.17341731290E+02  0.81765178104E+02  0.00000000000E+00 0.  1.
</event>
<event>
 7    1  0.2825889E-009  0.1130587E+03  0.7561462E-02  0.1255008E+00
         -2   -1    0    0    0  501 -0.00000000000E+00  0.00000000000E+00  0.40764317456E+02  0.40764317456E+02  0.00000000000E+00 0.  1.
          2   -1    0    0  501    0  0.00000000000E+00 -0.00000000000E+00 -0.46997900854E+03  0.46997900854E+03  0.00000000000E+00 0. -1.
         25    2    1    2    0    0 -0.56051929884E+02 -0.58411961447E+02 -0.29022594561E+03  0.32623759644E+03  0.12508434649E+03 0.  0.
          5    1    3    3  502    0 -0.86464403025E+02 -0.69498659800E+02 -0.25553069030E+03  0.27860287649E+03  0.41800000000E+01 0.  1.
         -5    1    3    3    0  502  0.30412473141E+02  0.11086698353E+02 -0.34695255314E+02  0.47634719945E+02  0.41800000000E+01 0.  1.
        -11    1    1    2    0    0  0.31377723022E+02  0.21387736889E+02 -0.13453392343E+03  0.13979046228E+03  0.00000000000E+00 0. -1.
         11    1    1    2    0    0  0.24674206862E+02  0.37024224557E+02 -0.44548220390E+01  0.44715267278E+02  0.00000000000E+00 0.  1.
</event>
<event>
 7    1  0.2788485E-009  0.7712723E+02  0.7561462E-02  0.1337407E+00
         -4   -1    0    0    0  501 -0.00000000000E+00  0.00000000000E+00  0.98139258440E+01  0.98139258440E+01  0.00000000000E+00 0.  1.
          4   -1    0    0  501    0  0.00000000000E+00 -0.00000000000E+00 -0.12847553827E+04  0.12847553827E+04  0.00000000000E+00 0. -1.
         25    2    1    2    0    0 -0.96622049806E+01 -0.35625786523E+02 -0.85846517232E+03  0.86831546943E+03  0.12508695977E+03 0.  0.
          5    1    3    3  502    0 -0.11076828335E+02  0.11295383751E+02 -0.74847482073E+03  0.74865366591E+03  0.41800000000E+01 0. -1.
         -5    1    3    3    0  502  0.14146233547E+01 -0.46921170275E+02 -0.10999035159E+03  0.11966180352E+03  0.41800000000E+01 0. -1.
        -11    1    1    2    0    0 -0.26322296345E+02 -0.13725386216E+02 -0.13927953940E+03  0.14240800401E+03  0.00000000000E+00 0.  1.
         11    1    1    2    0    0  0.35984501325E+02  0.49351172740E+02 -0.27719674512E+03  0.28384583508E+03  0.00000000000E+00 0. -1.
</event>
<event>
 7    1  0.2788485E-009  0.1591153E+03  0.7561462E-02  0.1189699E+00
          2   -1    0    0  501    0  0.00000000000E+00  0.00000000000E+00  0.35452568947E+03  0.35452568947E+03  0.00000000000E+00 0. -1.
         -2   -1    0    0    0  501 -0.00000000000E+00 -0.00000000000E+00 -0.73568109044E+02  0.73568109044E+02  0.00000000000E+00 0.  1.
         25    2    1    2    0    0 -0.36452621313E+02  0.11952307441E+03  0.17282355469E+03  0.24724276226E+03  0.12508574466E+03 0.  0.
          5    1    3    3  502    0  0.18627422474E+02 -0.19245084817E+02  0.21228227468E+02  0.34430570705E+02  0.41800000000E+01 0.  1.
         -5    1    3    3    0  502 -0.55080043787E+02  0.13876815923E+03  0.15159532722E+03  0.21281219156E+03  0.41800000000E+01 0.  1.
        -11    1    1    2    0    0 -0.14904662476E+02 -0.41413105985E+01  0.14681595497E+01  0.15538819436E+02  0.00000000000E+00 0.  1.
         11    1    1    2    0    0  0.51357283789E+02 -0.11538176381E+03  0.10666586618E+03  0.16531221681E+03  0.00000000000E+00 0. -1.
</event>
<event>
 7    1  0.2788485E-009  0.1029865E+03  0.7561462E-02  0.1274138E+00
          1   -1    0    0  501    0  0.00000000000E+00  0.00000000000E+00  0.34485356786E+02  0.34485356786E+02  0.00000000000E+00 0. -1.
         -1   -1    0    0    0  501 -0.00000000000E+00 -0.00000000000E+00 -0.38577423427E+03  0.38577423427E+03  0.00000000000E+00 0.  1.
         25    2    1    2    0    0 -0.14544688035E+02  0.75445255433E+01 -0.13612499798E+03  0.18560161500E+03  0.12509786808E+03 0.  0.
          5    1    3    3  502    0 -0.86003449724E+01 -0.56344414396E+02 -0.39255740912E+02  0.69333574564E+02  0.41800000000E+01 0.  1.
         -5    1    3    3    0  502 -0.59443430630E+01  0.63888939939E+02 -0.96869257071E+02  0.11626804043E+03  0.41800000000E+01 0.  1.
        -11    1    1    2    0    0  0.24924294420E+02 -0.41833976903E+02 -0.70900604320E+02  0.86012776777E+02  0.00000000000E+00 0.  1.
         11    1    1    2    0    0 -0.10379606385E+02  0.34289451360E+02 -0.14426327518E+03  0.14864519928E+03  0.00000000000E+00 0. -1.
</event>
<event>
 7    1  0.2788485E-009  0.1852058E+03  0.7561462E-02  0.1162858E+00
         -2   -1    0    0    0  501 -0.00000000000E+00  0.00000000000E+00  0.12034394177E+03  0.12034394177E+03  0.00000000000E+00 0.  1.
          2   -1    0    0  501    0  0.00000000000E+00 -0.00000000000E+00 -0.39182436207E+03  0.39182436207E+03  0.00000000000E+00 0. -1.
         25    2    1    2    0    0  0.14336829083E+03  0.70118402452E+02 -0.26290960043E+03  0.33202518539E+03  0.12509279978E+03 0.  0.
          5    1    3    3  502    0  0.53452240195E+02 -0.31577796547E+02 -0.51598335435E+02  0.80834150186E+02  0.41800000000E+01 0.  1.
         -5    1    3    3    0  502  0.89916050639E+02  0.10169619900E+03 -0.21131126500E+03  0.25119103520E+03  0.41800000000E+01 0.  1.
        -11    1    1    2    0    0 -0.53617688398E+00 -0.21486735602E+02  0.16621021522E+02  0.27170308222E+02  0.00000000000E+00 0. -1.
         11    1    1    2    0    0 -0.14283211395E+03 -0.48631666850E+02 -0.25191841390E+02  0.15297281023E+03  0.00000000000E+00 0.  1.
</event>
<event>
 7    1  0.2788485E-009  0.1079427E+03  0.7561462E-02  0.1264428E+00
          2   -1    0    0  501    0  0.00000000000E+00  0.00000000000E+00  0.52104489427E+03  0.52104489427E+03  0.00000000000E+00 0.  1.
         -2   -1    0    0    0  501 -0.00000000000E+00 -0.00000000000E+00 -0.39267767117E+02  0.39267767117E+02  0.00000000000E+00 0. -1.
         25    2    1    2    0    0  0.48362776674E+02 -0.35265970723E+02  0.41944814095E+03  0.44177705996E+03  0.12509029097E+03 0.  0.
          5    1    3    3  502    0  0.82274852205E+02 -0.15384616639E+02  0.36496322117E+03  0.37446156404E+03  0.41800000000E+01 0. -1.
         -5    1    3    3    0  502 -0.33912075531E+02 -0.19881354084E+02  0.54484919782E+02  0.67315495918E+02  0.41800000000E+01 0. -1.
        -11    1    1    2    0    0 -0.35019716858E+01  0.46233866400E+02  0.54733981919E+02  0.71733137285E+02  0.00000000000E+00 0.  1.
         11    1    1    2    0    0 -0.44860804989E+02 -0.10967895677E+02  0.75950042777E+01  0.46802464142E+02  0.00000000000E+00 0. -1.
</event>
<event>
 7    1  0.2788485E-009  0.1245030E+03  0.7561462E-02  0.1235848E+00
          2   -1    0    0  501    0  0.00000000000E+00  0.00000000000E+00  0.45230940310E+03  0.45230940310E+03  0.00000000000E+00 0. -1.
         -2   -1    0    0    0  501 -0.00000000000E+00 -0.00000000000E+00 -0.39238630857E+02  0.39238630857E+02  0.00000000000E+00 0.  1.
         25    2    1    2    0    0 -0.53113327684E+02  0.49371077511E+02  0.25770093978E+03  0.29549052356E+03  0.12508535598E+03 0.  0.
          5    1    3    3  502    0  0.35163865039E+02  0.41963186098E+02  0.82161876523E+02  0.98820305331E+02  0.41800000000E+01 0.  1.
         -5    1    3    3    0  502 -0.88277192723E+02  0.74078914134E+01  0.17553906326E+03  0.19667021823E+03  0.41800000000E+01 0.  1.
        -11    1    1    2    0    0  0.69707218443E+02 -0.21451036045E+02  0.57301513781E+02  0.92750777528E+02  0.00000000000E+00 0.  1.
         11    1    1    2    0    0 -0.16593890759E+02 -0.27920041466E+02  0.98068318680E+02  0.10330673286E+03  0.00000000000E+00 0. -1.
</event>
<event>
 7    1  0.2788485E-009  0.1445178E+03  0.7561462E-02  0.1207376E+00
         -1   -1    0    0    0  501 -0.00000000000E+00  0.00000000000E+00  0.30280649529E+03  0.30280649529E+03  0.00000000000E+00 0.  1.
          1   -1    0    0  501    0  0.00000000000E+00 -0.00000000000E+00 -0.84524345458E+02  0.84524345458E+02  0.00000000000E+00 0. -1.
         25    2    1    2    0    0 -0.75532486285E+02  0.78727027013E+02  0.66953453414E+02  0.17898053013E+03  0.12509262159E+03 0.  0.
          5    1    3    3  502    0 -0.50604711307E+02  0.10049377233E+03  0.84981077484E+02  0.14106413794E+03  0.41800000000E+01 0.  1.
         -5    1    3    3    0  502 -0.24927774978E+02 -0.21766745316E+02 -0.18027624070E+02  0.37916392188E+02  0.41800000000E+01 0.  1.
        -11    1    1    2    0    0  0.84111769348E+02 -0.23690703297E+02  0.96647873256E+02  0.13029524385E+03  0.00000000000E+00 0.  1.
         11    1    1    2    0    0 -0.85792830632E+01 -0.55036323715E+02  0.54680823165E+02  0.78055066767E+02  0.00000000000E+00 0. -1.
</event>
<event>
 7    1  0.2788485E-009  0.5347244E+02  0.7561462E-02  0.1427464E+00
         -2   -1    0    0    0  501 -0.00000000000E+00  0.00000000000E+00  0.98430653316E+02  0.98430653316E+02  0.00000000000E+00 0.  1.
          2   -1    0    0  501    0  0.00000000000E+00 -0.00000000000E+00 -0.12553117238E+03  0.12553117238E+03  0.00000000000E+00 0. -1.
         25    2    1    2    0    0  0.13597363761E+02  0.53240429879E+01 -0.39031691035E+02  0.13184884304E+03  0.12508961096E+03 0.  0.
          5    1    3    3  502    0  0.30899796728E+01  0.38147083225E+02 -0.73471596596E+02  0.82947548724E+02  0.41800000000E+01 0.  1.
         -5    1    3    3    0  502  0.10507384088E+02 -0.32823040237E+02  0.34439905561E+02  0.48901294316E+02  0.41800000000E+01 0.  1.
        -11    1    1    2    0    0  0.96883223953E+01 -0.37543431913E+01 -0.36715598684E+02  0.38157487737E+02  0.00000000000E+00 0. -1.
         11    1    1    2    0    0 -0.23285686156E+02 -0.15696997966E+01  0.48646770653E+02  0.53955494921E+02  0.00000000000E+00 0.  1.
</event>
<event>
 7    1  0.2788485E-009  0.3130723E+03  0.7561462E-02  0.1078883E+00
         -2   -1    0    0    0  501 -0.00000000000E+00  0.00000000000E+00  0.73248000076E+03  0.73248000076E+03  0.00000000000E+00 0.  1.
          2   -1    0    0  501    0  0.00000000000E+00 -0.00000000000E+00 -0.17630070776E+03  0.17630070776E+03  0.00000000000E+00 0. -1.
         25    2    1    2    0    0  0.20262161504E+03  0.22251101738E+03  0.75574880048E+02  0.33455348193E+03  0.12509115890E+03 0.  0.
          5    1    3    3  502    0  0.56773804879E+02 -0.20368286653E+01  0.24150356188E+02  0.61871848974E+02  0.41800000000E+01 0.  1.
         -5    1    3    3    0  502  0.14584781017E+03  0.22454784605E+03  0.51424523860E+02  0.27268163295E+03  0.41800000000E+01 0.  1.
        -11    1    1    2    0    0 -0.49076350828E+02 -0.43810011646E+02  0.47350759622E+02  0.81054918220E+02  0.00000000000E+00 0. -1.
         11    1    1    2    0    0 -0.15354526422E+03 -0.17870100574E+03  0.43325365333E+03  0.49317230837E+03  0.00000000000E+00 0.  1.
</event>
<event>
 7    1  0.2788485E-009  0.1048934E+03  0.7561462E-02  0.1270330E+00
         -3   -1    0    0    0  501 -0.00000000000E+00  0.00000000000E+00  0.30943969989E+03  0.30943969989E+03  0.00000000000E+00 0.  1.
          3   -1    0    0  501    0  0.00000000000E+00 -0.00000000000E+00 -0.67854790205E+02  0.67854790205E+02  0.00000000000E+00 0. -1.
         25    2    1    2    0    0 -0.71713896831E+02  0.12130571747E+02  0.21634524468E+03  0.26027426137E+03  0.12508953780E+03 0.  0.
          5    1    3    3  502    0 -0.87809179882E+02 -0.28586690156E+02  0.10145151383E+03  0.13724989247E+03  0.41800000000E+01 0.  1.
         -5    1    3    3    0  502  0.16095283051E+02  0.40717261904E+02  0.11489373085E+03  0.12302436890E+03  0.41800000000E+01 0.  1.
        -11    1    1    2    0    0  0.54136496456E+02 -0.48980314445E+01 -0.27530188609E+02  0.60931619422E+02  0.00000000000E+00 0. -1.
         11    1    1    2    0    0  0.17577400375E+02 -0.72325403027E+01  0.52769853613E+02  0.56088609303E+02  0.00000000000E+00 0.  1.
</event>
<event>
 7    1  0.2788485E-009  0.1207682E+03  0.7561462E-02  0.1241835E+00
         -1   -1    0    0    0  501 -0.00000000000E+00  0.00000000000E+00  0.15450038078E+02  0.15450038078E+02  0.00000000000E+00 0.  1.
          1   -1    0    0  501    0  0.00000000000E+00 -0.00000000000E+00 -0.15369738351E+04  0.15369738351E+04  0.00000000000E+00 0. -1.
         25    2    1    2    0    0 -0.83927436264E+02  0.60655581467E+02 -0.10026269519E+04  0.10156916345E+04  0.12508308332E+03 0.  0.
          5    1    3    3  502    0 -0.87818329420E+02  0.75050383111E+02 -0.98680448244E+03  0.99355179933E+03  0.41800000000E+01 0. -1.
         -5    1    3    3    0  502  0.38908931560E+01 -0.14394801645E+02 -0.15822469409E+02  0.22139835188E+02  0.41800000000E+01 0. -1.
        -11    1    1    2    0    0  0.60995415575E+02 -0.62648455978E+02 -0.49808136073E+03  0.50569784621E+03  0.00000000000E+00 0. -1.
         11    1    1    2    0    0  0.22932020690E+02  0.19928745115E+01 -0.20815484431E+02  0.31034392435E+02  0.00000000000E+00 0.  1.
</event>
<event>
 7    1  0.2944154E-009  0.1258502E+03  0.7561462E-02  0.1233747E+00
         -1   -1    0    0    0  501 -0.00000000000E+00  0.00000000000E+00  0.30850637060E+03  0.30850637060E+03  0.00000000000E+00 0.  1.
          1   -1    0    0  501    0  0.00000000000E+00 -0.00000000000E+00 -0.64804383820E+02  0.64804383820E+02  0.00000000000E+00 0. -1.
         25    2    1    2    0    0 -0.21718816367E+02  0.86211152040E+02  0.15552525888E+03  0.21849182551E+03  0.12508597821E+03 0.  0.
          5    1    3    3  502    0 -0.71521150102E+02  0.71535168396E+02  0.98360363703E+02  0.14115519394E+03  0.41800000000E+01 0.  1.
         -5    1    3    3    0  502  0.49802333735E+02  0.14675983644E+02  0.57164895176E+02  0.77336631565E+02  0.41800000000E+01 0.  1.
        -11    1    1    2    0    0 -0.11686833446E+02 -0.37699119561E+02  0.87415420649E+02  0.95912780477E+02  0.00000000000E+00 0.  1.
         11    1    1    2    0    0  0.33405649813E+02 -0.48512032479E+02  0.76130725347E+00  0.58906148435E+02  0.00000000000E+00 0. -1.
</event>
<event>
 7    1  0.2788485E-009  0.1157657E+03  0.7561462E-02  0.1250250E+00
         -2   -1    0    0    0  501 -0.00000000000E+00  0.00000000000E+00  0.15279129167E+03  0.15279129167E+03  0.00000000000E+00 0.  1.
          2   -1    0    0  501    0  0.00000000000E+00 -0.00000000000E+00 -0.91897719592E+02  0.91897719592E+02  0.00000000000E+00 0. -1.
         25    2    1    2    0    0  0.43197973491E+02 -0.44746243769E+01  0.53065355846E+02  0.14263646870E+03  0.12507255109E+03 0.  0.
          5    1    3    3  502    0  0.85215919819E+02 -0.15036326383E+02  0.47372947707E+02  0.98739620600E+02  0.41800000000E+01 0.  1.
         -5    1    3    3    0  502 -0.42017946328E+02  0.10561702006E+02  0.56924081392E+01  0.43896848103E+02  0.41800000000E+01 0.  1.
        -11    1    1    2    0    0 -0.97603290484E+01 -0.42558962967E+02 -0.98689375224E+00  0.43674973511E+02  0.00000000000E+00 0.  1.
         11    1    1    2    0    0 -0.33437644442E+02  0.47033587344E+02  0.88151099868E+01  0.58377569051E+02  0.00000000000E+00 0. -1.
</event>
<event>
 7    1  0.2788485E-009  0.9171666E+02  0.7561462E-02  0.1298747E+00
          2   -1    0    0  501    0  0.00000000000E+00  0.00000000000E+00  0.37596667381E+03  0.37596667381E+03  0.00000000000E+00 0. -1.
         -2   -1    0    0    0  501 -0.00000000000E+00 -0.00000000000E+00 -0.46607737340E+02  0.46607737340E+02  0.00000000000E+00 0.  1.
         25    2    1    2    0    0  0.77670795468E+02 -0.29946484607E+01  0.26980256291E+03  0.30738383485E+03  0.12509867541E+03 0.  0.
          5    1    3    3  502    0  0.71239814143E+02 -0.24665182585E+02  0.60312223245E+02  0.96636013079E+02  0.41800000000E+01 0. -1.
         -5    1    3    3    0  502  0.64309813249E+01  0.21670534124E+02  0.20949033966E+03  0.21074782177E+03  0.41800000000E+01 0. -1.
        -11    1    1    2    0    0 -0.49732694072E+02 -0.14713275804E+02  0.59543280321E+01  0.52204170014E+02  0.00000000000E+00 0.  1.
         11    1    1    2    0    0 -0.27938101396E+02  0.17707924264E+02  0.53602045529E+02  0.62986406281E+02  0.00000000000E+00 0. -1.
</event>
<event>
 7    1  0.2788485E-009  0.1299689E+03  0.7561462E-02  0.1227502E+00
          1   -1    0    0  501    0  0.00000000000E+00  0.00000000000E+00  0.71652157664E+02  0.71652157664E+02  0.00000000000E+00 0. -1.
         -1   -1    0    0    0  501 -0.00000000000E+00 -0.00000000000E+00 -0.31644725628E+03  0.31644725628E+03  0.00000000000E+00 0.  1.
         25    2    1    2    0    0  0.20741209208E+00 -0.79794516557E+02 -0.45687377983E+02  0.15524963810E+03  0.12509158936E+03 0.  0.
          5    1    3    3  502    0  0.59732217251E+02 -0.55257385179E+02 -0.39160622402E+02  0.90401012945E+02  0.41800000000E+01 0. -1.
         -5    1    3    3    0  502 -0.59524805159E+02 -0.24537131378E+02 -0.65267555804E+01  0.64848625150E+02  0.41800000000E+01 0. -1.
        -11    1    1    2    0    0 -0.27330654824E+02 -0.23515246275E+01 -0.87143154935E+02  0.91358764293E+02  0.00000000000E+00 0.  1.
         11    1    1    2    0    0  0.27123242732E+02  0.82146041184E+02 -0.11196456569E+03  0.14149101155E+03  0.00000000000E+00 0. -1.
</event>
<event>
 7    1  0.2788485E-009  0.1112745E+03  0.7561462E-02  0.1258228E+00
          1   -1    0    0  501    0  0.00000000000E+00  0.00000000000E+00  0.35907053372E+03  0.35907053372E+03  0.00000000000E+00 0. -1.
         -1   -1    0    0    0  501 -0.00000000000E+00 -0.00000000000E+00 -0.40943170262E+02  0.40943170262E+02  0.00000000000E+00 0.  1.
         25    2    1    2    0    0 -0.28679999289E+02 -0.10051721486E+02  0.24826260046E+03  0.27965485537E+03  0.12509572289E+03 0.  0.
          5    1    3    3  502    0  0.44730084316E+02  0.20037224241E+02  0.89725025116E+02  0.10232459787E+03  0.41800000000E+01 0.  1.
         -5    1    3    3    0  502 -0.73410083605E+02 -0.30088945727E+02  0.15853757534E+03  0.17733025750E+03  0.41800000000E+01 0.  1.
        -11    1    1    2    0    0  0.60833988040E+02  0.10608714817E+02  0.61450134642E+02  0.87117380462E+02  0.00000000000E+00 0. -1.
         11    1    1    2    0    0 -0.32153988751E+02 -0.55699333088E+00  0.84146283614E+01  0.33241468148E+02  0.00000000000E+00 0.  1.
</event>
<event>
 7    1  0.2788485E-009  0.8862683E+02  0.7561462E-02  0.1306212E+00
         -2   -1    0    0    0  501 -0.00000000000E+00  0.00000000000E+00  0.22007294828E+02  0.22007294828E+02  0.00000000000E+00 0. -1.
          2   -1    0    0  501    0  0.00000000000E+00 -0.00000000000E+00 -0.11746494176E+04  0.11746494176E+04  0.00000000000E+00 0.  1.
         25    2    1    2    0    0  0.26040634686E+01  0.23493452013E+02 -0.10494532982E+04  0.10571481811E+04  0.12510526842E+03 0.  0.
          5    1    3    3  502    0 -0.37781949489E+02  0.28771861724E+02 -0.16503759356E+03  0.17178525962E+03  0.41800000000E+01 0.  1.
         -5    1    3    3    0  502  0.40386012958E+02 -0.52784097103E+01 -0.88441570465E+03  0.88536292145E+03  0.41800000000E+01 0.  1.
        -11    1    1    2    0    0  0.26926367202E+02  0.21746790288E+02 -0.64023980782E+02  0.72780644773E+02  0.00000000000E+00 0. -1.
         11    1    1    2    0    0 -0.29530430670E+02 -0.45240242301E+02 -0.39164843772E+02  0.66727886575E+02  0.00000000000E+00 0.  1.
</event>
<event>
 7    1  0.2788485E-009  0.3370296E+03  0.7561462E-02  0.1068068E+00
         -2   -1    0    0    0  501 -0.00000000000E+00  0.00000000000E+00  0.14870843417E+03  0.14870843417E+03  0.00000000000E+00 0.  1.
          2   -1    0    0  501    0  0.00000000000E+00 -0.00000000000E+00 -0.85084196261E+03  0.85084196261E+03  0.00000000000E+00 0. -1.
         25    2    1    2    0    0  0.16575238933E+03 -0.28441683659E+03 -0.47028664147E+03  0.58752374145E+03  0.12509128713E+03 0.  0.
          5    1    3    3  502    0  0.57806127890E+02 -0.16722132823E+03 -0.15949768861E+03  0.23824673367E+03  0.41800000000E+01 0.  1.
         -5    1    3    3    0  502  0.10794626144E+03 -0.11719550837E+03 -0.31078895286E+03  0.34927700777E+03  0.41800000000E+01 0.  1.
        -11    1    1    2    0    0 -0.76482154364E+02  0.20276697156E+03 -0.12241019244E+03  0.24889399331E+03  0.00000000000E+00 0.  1.
         11    1    1    2    0    0 -0.89270234966E+02  0.81649865032E+02 -0.10943669452E+03  0.16313266202E+03  0.00000000000E+00 0. -1.
</event>
<event>
 7    1  0.2788485E-009  0.1159674E+03  0.7561462E-02  0.1249902E+00
         -2   -1    0    0    0  501 -0.00000000000E+00  0.00000000000E+00  0.10279485835E+03  0.10279485835E+03  0.00000000000E+00 0. -1.
          2   -1    0    0  501    0  0.00000000000E+00 -0.00000000000E+00 -0.19228426442E+03  0.19228426442E+03  0.00000000000E+00 0.  1.
         25    2    1    2    0    0  0.60300868717E+02 -0.57322153084E+02 -0.87635999588E+02  0.17392378866E+03  0.12508953528E+03 0.  0.
          5    1    3    3  502    0  0.88227586564E+02 -0.42837909308E+01 -0.64853631156E+02  0.10966277294E+03  0.41800000000E+01 0.  1.
         -5    1    3    3    0  502 -0.27926717847E+02 -0.53038362153E+02 -0.22782368432E+02  0.64261015717E+02  0.41800000000E+01 0.  1.
        -11    1    1    2    0    0 -0.42452515978E+02  0.44036927828E+02 -0.42730700966E+02  0.74614877407E+02  0.00000000000E+00 0.  1.
         11    1    1    2    0    0 -0.17848352739E+02  0.13285225256E+02  0.40877294480E+02  0.46540456697E+02  0.00000000000E+00 0. -1.
</event>
<event>
 7    1  0.2788485E-009  0.1225951E+03  0.7561462E-02  0.1238876E+00
          2   -1    0    0  501    0  0.00000000000E+00  0.00000000000E+00  0.31266975707E+03  0.31266975707E+03  0.00000000000E+00 0. -1.
         -2   -1    0    0    0  501 -0.00000000000E+00 -0.00000000000E+00 -0.53290293577E+02  0.53290293577E+02  0.00000000000E+00 0.  1.
         25    2    1    2    0    0  0.70413557351E+02  0.25576882651E+01  0.12274960484E+03  0.18889454603E+03  0.12509625575E+03 0.  0.
          5    1    3    3  502    0  0.66188761149E+02 -0.48555120527E+02  0.39904818831E+02  0.91369682049E+02  0.41800000000E+01 0.  1.
         -5    1    3    3    0  502  0.42247962027E+01  0.51112808793E+02  0.82844786010E+02  0.97524863982E+02  0.41800000000E+01 0.  1.
        -11    1    1    2    0    0 -0.85191776389E+02  0.17154127308E+02  0.11594467483E+03  0.14489675797E+03  0.00000000000E+00 0. -1.
         11    1    1    2    0    0  0.14778219038E+02 -0.19711815573E+02  0.20685183821E+02  0.32168746647E+02  0.00000000000E+00 0.  1.
</event>
<event>
 7    1  0.2934197E-009  0.1104765E+03  0.7561462E-02  0.1259690E+00
         -2   -1    0    0    0  501 -0.00000000000E+00  0.00000000000E+00  0.26222984984E+02  0.26222984984E+02  0.00000000000E+00 0.  1.
          2   -1    0    0  501    0  0.00000000000E+00 -0.00000000000E+00 -0.59682600558E+03  0.59682600558E+03  0.00000000000E+00 0. -1.
         25    2    1    2    0    0 -0.50320242778E+02  0.31958647049E+02 -0.27278062061E+03  0.30595630379E+03  0.12508601398E+03 0.  0.
          5    1    3    3  502    0 -0.78852203996E+02  0.28567714702E+02 -0.99221461991E+02  0.12998521192E+03  0.41800000000E+01 0.  1.
         -5    1    3    3    0  502  0.28531961218E+02  0.33909323466E+01 -0.17355915862E+03  0.17597109187E+03  0.41800000000E+01 0.  1.
        -11    1    1    2    0    0 -0.43115319699E+01  0.27130752437E+02 -0.94877413276E+02  0.98774442979E+02  0.00000000000E+00 0.  1.
         11    1    1    2    0    0  0.54631774748E+02 -0.59089399485E+02 -0.20294498671E+03  0.21831824380E+03  0.00000000000E+00 0. -1.
</event>
<event>
 7    1  0.2788485E-009  0.1072309E+03  0.7561462E-02  0.1265785E+00
         -2   -1    0    0    0  501 -0.00000000000E+00  0.00000000000E+00  0.15906801502E+03  0.15906801502E+03  0.00000000000E+00 0.  1.
          2   -1    0    0  501    0  0.00000000000E+00 -0.00000000000E+00 -0.92294882206E+02  0.92294882206E+02  0.00000000000E+00 0. -1.
         25    2    1    2    0    0  0.35570695079E+02 -0.29985082269E+02  0.68097512437E+02  0.14983955952E+03  0.12510093081E+03 0.  0.
          5    1    3    3  502    0 -0.11392874773E+02 -0.68008237589E+02  0.18402398785E+02  0.71491528565E+02  0.41800000000E+01 0. -1.
         -5    1    3    3    0  502  0.46963569852E+02  0.38023155320E+02  0.49695113652E+02  0.78348030956E+02  0.41800000000E+01 0. -1.
        -11    1    1    2    0    0 -0.32578498526E+02  0.52667762991E+02  0.24876600564E+02  0.66739022171E+02  0.00000000000E+00 0.  1.
         11    1    1    2    0    0 -0.29921965529E+01 -0.22682680722E+02 -0.26200980183E+02  0.34784315539E+02  0.00000000000E+00 0. -1.
</event>
<event>
 7    1  0.2788485E-009  0.8104013E+02  0.7561462E-02  0.1326125E+00
          1   -1    0    0  501    0  0.00000000000E+00  0.00000000000E+00  0.23480114012E+03  0.23480114012E+03  0.00000000000E+00 0. -1.
         -1   -1    0    0    0  501 -0.00000000000E+00 -0.00000000000E+00 -0.52137165635E+02  0.52137165635E+02  0.00000000000E+00 0.  1.
         25    2    1    2    0    0  0.27791060202E+02 -0.30625274062E+01  0.94785345710E+02  0.15941587985E+03  0.12508972334E+03 0.  0.
          5    1    3    3  502    0 -0.35266637688E+02 -0.19323817333E+02 -0.44217838044E+01  0.40671491516E+02  0.41800000000E+01 0. -1.
         -5    1    3    3    0  502  0.63057697890E+02  0.16261289926E+02  0.99207129514E+02  0.11874438833E+03  0.41800000000E+01 0. -1.
        -11    1    1    2    0    0 -0.35242910660E+02 -0.13886700523E+02  0.98947839000E+02  0.10595082843E+03  0.00000000000E+00 0. -1.
         11    1    1    2    0    0  0.74518504585E+01  0.16949227929E+02 -0.11069210224E+02  0.21571597475E+02  0.00000000000E+00 0.  1.
</event>
<event>
 7    1  0.2788485E-009  0.9717190E+02  0.7561462E-02  0.1286358E+00
         -1   -1    0    0    0  501 -0.00000000000E+00  0.00000000000E+00  0.44829511875E+03  0.44829511875E+03  0.00000000000E+00 0.  1.
          1   -1    0    0  501    0  0.00000000000E+00 -0.00000000000E+00 -0.34921928888E+02  0.34921928888E+02  0.00000000000E+00 0. -1.
         25    2    1    2    0    0 -0.49080526617E+01  0.60672888211E+02  0.21237022163E+03  0.25386960389E+03  0.12507348398E+03 0.  0.
          5    1    3    3  502    0 -0.51513872479E+02  0.42896941109E+02  0.18500942103E+03  0.19682424872E+03  0.41800000000E+01 0.  1.
         -5    1    3    3    0  502  0.46605819817E+02  0.17775947102E+02  0.27360800600E+02  0.57045355163E+02  0.41800000000E+01 0.  1.
        -11    1    1    2    0    0 -0.21345432535E+02 -0.26423204119E+02  0.12863074903E+02  0.36321782748E+02  0.00000000000E+00 0. -1.
         11    1    1    2    0    0  0.26253485197E+02 -0.34249684092E+02  0.18813989332E+03  0.19302566100E+03  0.00000000000E+00 0.  1.
</event>
<event>
 7    1  0.3920246E-009  0.1204213E+03  0.7561462E-02  0.1242404E+00
         -2   -1    0    0    0  501 -0.00000000000E+00  0.00000000000E+00  0.33243541200E+02  0.33243541200E+02  0.00000000000E+00 0.  1.
          2   -1    0    0  501    0  0.00000000000E+00 -0.00000000000E+00 -0.59182803935E+03  0.59182803935E+03  0.00000000000E+00 0. -1.
         25    2    1    2    0    0 -0.35571665404E+02  0.80423313586E+02 -0.27793029469E+03  0.31721042973E+03  0.12507579813E+03 0.  0.
          5    1    3    3  502    0 -0.81293976387E+02  0.62209541317E+02 -0.20427010720E+03  0.22852239873E+03  0.41800000000E+01 0.  1.
         -5    1    3    3    0  502  0.45722310982E+02  0.18213772269E+02 -0.73660187491E+02  0.88688031002E+02  0.41800000000E+01 0.  1.
        -11    1    1    2    0    0  0.32750177076E+02 -0.59785680876E+02 -0.27872779147E+03  0.28694264840E+03  0.00000000000E+00 0. -1.
         11    1    1    2    0    0  0.28214883285E+01 -0.20637632710E+02 -0.19264120004E+01  0.20918502419E+02  0.00000000000E+00 0.  1.
</event>
<event>
 7    1  0.2788485E-009  0.9429134E+02  0.7561462E-02  0.1292780E+00
          2   -1    0    0  501    0  0.00000000000E+00  0.00000000000E+00  0.13484032060E+03  0.13484032060E+03  0.00000000000E+00 0. -1.
         -2   -1    0    0    0  501 -0.00000000000E+00 -0.00000000000E+00 -0.14206251235E+03  0.14206251235E+03  0.00000000000E+00 0.  1.
         25    2    1    2    0    0 -0.32280914303E+02 -0.25682290770E+02 -0.78554118517E+02  0.15336367313E+03  0.12509208293E+03 0.  0.
          5    1    3    3  502    0 -0.41291892636E+02  0.38529866019E+02 -0.66384490941E+02  0.87257916606E+02  0.41800000000E+01 0. -1.
         -5    1    3    3    0  502  0.90109783333E+01 -0.64212156789E+02 -0.12169627575E+02  0.66105756522E+02  0.41800000000E+01 0. -1.
        -11    1    1    2    0    0 -0.21770568919E+01 -0.14144876756E+02 -0.16056203299E+02  0.21508574558E+02  0.00000000000E+00 0.  1.
         11    1    1    2    0    0  0.34457971195E+02  0.39827167526E+02  0.87388130068E+02  0.10203058526E+03  0.00000000000E+00 0. -1.
</event>
<event>
 7    1  0.2788485E-009  0.8682949E+02  0.7561462E-02  0.1310716E+00
         -2   -1    0    0    0  501 -0.00000000000E+00  0.00000000000E+00  0.25470664088E+02  0.25470664088E+02  0.00000000000E+00 0.  1.
          2   -1    0    0  501    0  0.00000000000E+00 -0.00000000000E+00 -0.56645165340E+03  0.56645165340E+03  0.00000000000E+00 0. -1.
         25    2    1    2    0    0  0.31987217414E+01  0.11405880457E+02 -0.35752734561E+03  0.37896544571E+03  0.12509468515E+03 0.  0.
          5    1    3    3  502    0  0.20328715446E+02 -0.38166649701E+02 -0.46964830513E+02  0.63977476710E+02  0.41800000000E+01 0. -1.
         -5    1    3    3    0  502 -0.17129993705E+02  0.49572530157E+02 -0.31056251510E+03  0.31498796900E+03  0.41800000000E+01 0. -1.
        -11    1    1    2    0    0 -0.37563964571E+02  0.76052803251E+01 -0.16990052558E+02  0.41923187010E+02  0.00000000000E+00 0.  1.
         11    1    1    2    0    0  0.34365242830E+02 -0.19011160782E+02 -0.16646359114E+03  0.17103368476E+03  0.00000000000E+00 0. -1.
</event>
<event>
 7    1  0.2788485E-009  0.8664105E+02  0.7561462E-02  0.1311196E+00
          2   -1    0    0  501    0  0.00000000000E+00  0.00000000000E+00  0.36199058139E+03  0.36199058139E+03  0.00000000000E+00 0.  1.
         -2   -1    0    0    0  501 -0.00000000000E+00 -0.00000000000E+00 -0.46680284004E+02  0.46680284004E+02  0.00000000000E+00 0. -1.
         25    2    1    2    0    0 -0.20083791252E+02  0.50515698085E+02  0.24747814394E+03  0.28257360912E+03  0.12508884211E+03 0.  0.
          5    1    3    3  502    0  0.16875594469E+02  0.21326891606E+02  0.23080495674E+03  0.23243928766E+03  0.41800000000E+01 0. -1.
         -5    1    3    3    0  502 -0.36959385721E+02  0.29188806479E+02  0.16673187198E+02  0.50134321456E+02  0.41800000000E+01 0. -1.
        -11    1    1    2    0    0  0.14495119111E+02  0.21677343835E+02  0.41571158632E+02  0.49073179475E+02  0.00000000000E+00 0.  1.
         11    1    1    2    0    0  0.55886721415E+01 -0.72193041920E+02  0.26260994817E+02  0.77024076799E+02  0.00000000000E+00 0. -1.
</event>
<event>
 7    1  0.2788485E-009  0.1575609E+03  0.7561462E-02  0.1191478E+00
         -2   -1    0    0    0  501 -0.00000000000E+00  0.00000000000E+00  0.16157721931E+03  0.16157721931E+03  0.00000000000E+00 0.  1.
          2   -1    0    0  501    0  0.00000000000E+00 -0.00000000000E+00 -0.16682541647E+03  0.16682541647E+03  0.00000000000E+00 0. -1.
         25    2    1    2    0    0  0.70752558816E+02 -0.10237427550E+03  0.13362203432E+02  0.17695346792E+03  0.12509022529E+03 0.  0.
          5    1    3    3  502    0 -0.22820812288E+02 -0.59068223425E+02  0.33580571947E+02  0.71798131621E+02  0.41800000000E+01 0.  1.
         -5    1    3    3    0  502  0.93573371104E+02 -0.43306052078E+02 -0.20218368515E+02  0.10515533630E+03  0.41800000000E+01 0.  1.
        -11    1    1    2    0    0 -0.45812629713E+02  0.28890853503E+01 -0.16763791505E+02  0.48868891547E+02  0.00000000000E+00 0.  1.
         11    1    1    2    0    0 -0.24939929103E+02  0.99485190153E+02 -0.18466090911E+01  0.10258027631E+03  0.00000000000E+00 0. -1.
</event>
<event>
 7    1  0.2788485E-009  0.9442519E+02  0.7561462E-02  0.1292476E+00
         -2   -1    0    0    0  501 -0.00000000000E+00  0.00000000000E+00  0.30150059098E+02  0.30150059098E+02  0.00000000000E+00 0.  1.
          2   -1    0    0  501    0  0.00000000000E+00 -0.00000000000E+00 -0.42959107784E+03  0.42959107784E+03  0.00000000000E+00 0. -1.
         25    2    1    2    0    0 -0.34716321800E+02  0.88546161506E+01 -0.22667154429E+03  0.26136224418E+03  0.12508639600E+03 0.  0.
          5    1    3    3  502    0  0.26248001692E+02  0.16066149984E+02 -0.18371017753E+03  0.18631688195E+03  0.41800000000E+01 0. -1.
         -5    1    3    3    0  502 -0.60964323492E+02 -0.72115338337E+01 -0.42961366760E+02  0.75045362235E+02  0.41800000000E+01 0. -1.
        -11    1    1    2    0    0  0.39181297043E+02 -0.45099790589E+02 -0.91439363727E+02  0.10922601516E+03  0.00000000000E+00 0.  1.
         11    1    1    2    0    0 -0.44649752426E+01  0.36245174438E+02 -0.81330110725E+02  0.89152877601E+02  0.00000000000E+00 0. -1.
</event>
<event>
 7    1  0.2788485E-009  0.1177237E+03  0.7561462E-02  0.1246900E+00
          2   -1    0    0  501    0  0.00000000000E+00  0.00000000000E+00  0.56232127110E+03  0.56232127110E+03  0.00000000000E+00 0. -1.
         -2   -1    0    0    0  501 -0.00000000000E+00 -0.00000000000E+00 -0.48481322920E+02  0.48481322920E+02  0.00000000000E+00 0.  1.
         25    2    1    2    0    0  0.41493836389E+02  0.67859578307E+02  0.97223930669E+02  0.17727506998E+03  0.12508915586E+03 0.  0.
          5    1    3    3  502    0 -0.37015778211E+02  0.19546724616E+02  0.68935403524E+02  0.80757690277E+02  0.41800000000E+01 0.  1.
         -5    1    3    3    0  502  0.78509614600E+02  0.48312853691E+02  0.28288527145E+02  0.96517379702E+02  0.41800000000E+01 0.  1.
        -11    1    1    2    0    0 -0.57702454082E+02 -0.59417898557E+02  0.40107512862E+03  0.40953793313E+03  0.00000000000E+00 0. -1.
         11    1    1    2    0    0  0.16208617693E+02 -0.84416797498E+01  0.15540888893E+02  0.23989590911E+02  0.00000000000E+00 0.  1.
</event>
<event>
 7    1  0.2788485E-009  0.1311350E+03  0.7561462E-02  0.1225781E+00
          1   -1    0    0  501    0  0.00000000000E+00  0.00000000000E+00  0.32438759059E+03  0.32438759059E+03  0.00000000000E+00 0. -1.
         -1   -1    0    0    0  501 -0.00000000000E+00 -0.00000000000E+00 -0.91970759596E+02  0.91970759596E+02  0.00000000000E+00 0.  1.
         25    2    1    2    0    0  0.11518168440E+03 -0.21336754422E+01  0.20542218608E+03  0.26667912190E+03  0.12509239198E+03 0.  0.
          5    1    3    3  502    0  0.49031433654E+02 -0.39474326910E+01  0.19300606207E+03  0.19921966797E+03  0.41800000000E+01 0.  1.
         -5    1    3    3    0  502  0.66150250743E+02  0.18137572488E+01  0.12416124010E+02  0.67459453928E+02  0.41800000000E+01 0.  1.
        -11    1    1    2    0    0 -0.72277210449E+02  0.45649137836E+02  0.89056057331E+01  0.85948523833E+02  0.00000000000E+00 0.  1.
         11    1    1    2    0    0 -0.42904473948E+02 -0.43515462394E+02  0.18089039186E+02  0.63730704458E+02  0.00000000000E+00 0. -1.
</event>
<event>
 7    1  0.2788485E-009  0.1628471E+03  0.7561462E-02  0.1185519E+00
          2   -1    0    0  501    0  0.00000000000E+00  0.00000000000E+00  0.62026482527E+03  0.62026482527E+03  0.00000000000E+00 0.  1.
         -2   -1    0    0    0  501 -0.00000000000E+00 -0.00000000000E+00 -0.63321685876E+02  0.63321685876E+02  0.00000000000E+00 0. -1.
         25    2    1    2    0    0 -0.11128046922E+03  0.11576332054E+03  0.23912841909E+03  0.31402914496E+03  0.12508962331E+03 0.  0.
          5    1    3    3  502    0 -0.80180640207E+02  0.10362349437E+03  0.84915743690E+02  0.15618873063E+03  0.41800000000E+01 0. -1.
         -5    1    3    3    0  502 -0.31099829011E+02  0.12139826170E+02  0.15421267540E+03  0.15784041434E+03  0.41800000000E+01 0. -1.
        -11    1    1    2    0    0  0.71513598953E+02 -0.81899486746E+02  0.10766764691E+03  0.15301647936E+03  0.00000000000E+00 0. -1.
         11    1    1    2    0    0  0.39766870265E+02 -0.33863833790E+02  0.21014707340E+03  0.21654088683E+03  0.00000000000E+00 0.  1.
</event>
<event>
 7    1  0.2788485E-009  0.1670572E+03  0.7561462E-02  0.1180952E+00
          1   -1    0    0  501    0  0.00000000000E+00  0.00000000000E+00  0.34263883289E+03  0.34263883289E+03  0.00000000000E+00 0. -1.
         -1   -1    0    0    0  501 -0.00000000000E+00 -0.00000000000E+00 -0.95174599336E+02  0.95174599336E+02  0.00000000000E+00 0.  1.
         25    2    1    2    0    0 -0.13356957437E+03 -0.25618697607E+02  0.18497531767E+03  0.26145763108E+03  0.12508827219E+03 0.  0.
          5    1    3    3  502    0 -0.17981492870E+02 -0.47976442204E+02  0.11107111111E+03  0.12239010261E+03  0.41800000000E+01 0. -1.
         -5    1    3    3    0  502 -0.11558808150E+03  0.22357744597E+02  0.73904206558E+02  0.13906752847E+03  0.41800000000E+01 0. -1.
        -11    1    1    2    0    0  0.14616201997E+03  0.12461975032E+02  0.56178976597E+02  0.15708187138E+03  0.00000000000E+00 0. -1.
         11    1    1    2    0    0 -0.12592445598E+02  0.13156722574E+02  0.63099392882E+01  0.19273929772E+02  0.00000000000E+00 0.  1.
</event>
<event>
 7    1  0.2788485E-009  0.1532470E+03  0.7561462E-02  0.1196539E+00
          1   -1    0    0  501    0  0.00000000000E+00  0.00000000000E+00  0.32412149809E+03  0.32412149809E+03  0.00000000000E+00 0. -1.
         -1   -1    0    0    0  501 -0.00000000000E+00 -0.00000000000E+00 -0.84221529039E+02  0.84221529039E+02  0.00000000000E+00 0.  1.
         25    2    1    2    0    0 -0.11634956396E+03  0.26406680610E+01  0.72675367147E+02  0.18566148572E+03  0.12507711274E+03 0.  0.
          5    1    3    3  502    0 -0.26302537660E+02  0.56802770368E+02  0.10842196137E+02  0.63666347672E+02  0.41800000000E+01 0. -1.
         -5    1    3    3    0  502 -0.90047026296E+02 -0.54162102307E+02  0.61833171010E+02  0.12199513805E+03  0.41800000000E+01 0. -1.
        -11    1    1    2    0    0  0.67605182185E+02 -0.38757646706E+02  0.12981309258E+03  0.15140691808E+03  0.00000000000E+00 0.  1.
         11    1    1    2    0    0  0.48744381770E+02  0.36116978646E+02  0.37411509323E+02  0.71274623327E+02  0.00000000000E+00 0. -1.
</event>
<event>
 7    1  0.2788485E-009  0.6975396E+02  0.7561462E-02  0.1360932E+00
          1   -1    0    0  501    0  0.00000000000E+00  0.00000000000E+00  0.14297155052E+03  0.14297155052E+03  0.00000000000E+00 0. -1.
         -1   -1    0    0    0  501 -0.00000000000E+00 -0.00000000000E+00 -0.12319361824E+03  0.12319361824E+03  0.00000000000E+00 0.  1.
         25    2    1    2    0    0 -0.11462667354E+02 -0.35181354700E+02 -0.58726670332E+02  0.14305589674E+03  0.12508815820E+03 0.  0.
          5    1    3    3  502    0 -0.17318206054E+02  0.30129568535E+02 -0.68212270918E+02  0.76668751554E+02  0.41800000000E+01 0. -1.
         -5    1    3    3    0  502  0.58555387000E+01 -0.65310923235E+02  0.94856005862E+01  0.66387145184E+02  0.41800000000E+01 0. -1.
        -11    1    1    2    0    0 -0.18902030505E+01  0.11135011879E+02 -0.18833089673E+02  0.21960114384E+02  0.00000000000E+00 0.  1.
         11    1    1    2    0    0  0.13352870404E+02  0.24046342821E+02  0.97337692281E+02  0.10114915763E+03  0.00000000000E+00 0. -1.
</event>
<event>
 7    1  0.2788485E-009  0.9492226E+02  0.7561462E-02  0.1291351E+00
          2   -1    0    0  501    0  0.00000000000E+00  0.00000000000E+00  0.47152345555E+03  0.47152345555E+03  0.00000000000E+00 0. -1.
         -2   -1    0    0    0  501 -0.00000000000E+00 -0.00000000000E+00 -0.35584955487E+02  0.35584955487E+02  0.00000000000E+00 0.  1.
         25    2    1    2    0    0  0.12209150372E+02 -0.65721901024E+02  0.28998558463E+03  0.32281147315E+03  0.12508867364E+03 0.  0.
          5    1    3    3  502    0 -0.15694931354E+02 -0.48975437783E+02  0.27858094088E+02  0.58638470158E+02  0.41800000000E+01 0. -1.
         -5    1    3    3    0  502  0.27904081726E+02 -0.16746463241E+02  0.26212749054E+03  0.26417300299E+03  0.41800000000E+01 0. -1.
        -11    1    1    2    0    0 -0.24394218335E+01 -0.19501585453E+02  0.58852116037E+02  0.62047031968E+02  0.00000000000E+00 0. -1.
         11    1    1    2    0    0 -0.97697285382E+01  0.85223486477E+02  0.87100799390E+02  0.12224990592E+03  0.00000000000E+00 0.  1.
</event>
<event>
 7    1  0.3277458E-009  0.9874300E+02  0.7561462E-02  0.1282962E+00
          2   -1    0    0  501    0  0.00000000000E+00  0.00000000000E+00  0.78274617310E+02  0.78274617310E+02  0.00000000000E+00 0. -1.
         -2   -1    0    0    0  501 -0.00000000000E+00 -0.00000000000E+00 -0.24440293433E+03  0.24440293433E+03  0.00000000000E+00 0.  1.
         25    2    1    2    0    0  0.31715498484E+01  0.11991202071E+02 -0.18967591470E+03  0.22755193710E+03  0.12509629813E+03 0.  0.
          5    1    3    3  502    0  0.14836868195E+02 -0.52785642321E+02 -0.55962591899E+02  0.78458529078E+02  0.41800000000E+01 0. -1.
         -5    1    3    3    0  502 -0.11665318347E+02  0.64776844392E+02 -0.13371332280E+03  0.14909340802E+03  0.41800000000E+01 0. -1.
        -11    1    1    2    0    0  0.18156051396E+01 -0.44056299829E+02 -0.13271085796E+02  0.46047537337E+02  0.00000000000E+00 0.  1.
         11    1    1    2    0    0 -0.49871549880E+01  0.32065097758E+02  0.36818683475E+02  0.49078077203E+02  0.00000000000E+00 0. -1.
</event>
<event>
 7    1  0.2788485E-009  0.2388129E+03  0.7561462E-02  0.1120586E+00
          2   -1    0    0  501    0  0.00000000000E+00  0.00000000000E+00  0.42816019655E+03  0.42816019655E+03  0.00000000000E+00 0. -1.
         -2   -1    0    0    0  501 -0.00000000000E+00 -0.00000000000E+00 -0.13758527031E+03  0.13758527031E+03  0.00000000000E+00 0.  1.
         25    2    1    2    0    0 -0.20644751380E+03 -0.60750110568E+02  0.17974961136E+03  0.30703224599E+03  0.12509086861E+03 0.  0.
          5    1    3    3  502    0 -0.33672143461E+01 -0.44569612658E+02  0.27200892127E+02  0.52489517406E+02  0.41800000000E+01 0.  1.
         -5    1    3    3    0  502 -0.20308029945E+03 -0.16180497909E+02  0.15254871923E+03  0.25454272859E+03  0.41800000000E+01 0.  1.
        -11    1    1    2    0    0  0.20268190536E+03  0.38381366686E+02  0.81883612008E+02  0.22194145621E+03  0.00000000000E+00 0.  1.
         11    1    1    2    0    0  0.37656084358E+01  0.22368743882E+02  0.28941702885E+02  0.36771764652E+02  0.00000000000E+00 0. -1.
</event>
<event>
 7    1  0.2788485E-009  0.1850028E+03  0.7561462E-02  0.1163047E+00
         -1   -1    0    0    0  501 -0.00000000000E+00  0.00000000000E+00  0.30522715696E+03  0.30522715696E+03  0.00000000000E+00 0.  1.
          1   -1    0    0  501    0  0.00000000000E+00 -0.00000000000E+00 -0.24598083025E+03  0.24598083025E+03  0.00000000000E+00 0. -1.
         25    2    1    2    0    0 -0.31385102506E+02  0.17117488681E+03  0.21213889456E+03  0.30155868074E+03  0.12509540684E+03 0.  0.
          5    1    3    3  502    0  0.19214580019E+02  0.83049799928E+01 -0.82243346327E+01  0.22875420393E+02  0.41800000000E+01 0.  1.
         -5    1    3    3    0  502 -0.50599682526E+02  0.16286990681E+03  0.22036322920E+03  0.27868326035E+03  0.41800000000E+01 0.  1.
        -11    1    1    2    0    0  0.38971689417E+02 -0.11614063071E+03 -0.15048253691E+03  0.19404234742E+03  0.00000000000E+00 0. -1.
         11    1    1    2    0    0 -0.75865869110E+01 -0.55034256093E+02 -0.24100309477E+01  0.55606959042E+02  0.00000000000E+00 0.  1.
</event>
<event>
 7    1  0.2788485E-009  0.1460788E+03  0.7561462E-02  0.1205376E+00
          2   -1    0    0  501    0  0.00000000000E+00  0.00000000000E+00  0.30993814668E+03  0.30993814668E+03  0.00000000000E+00 0.  1.
         -2   -1    0    0    0  501 -0.00000000000E+00 -0.00000000000E+00 -0.11063378654E+03  0.11063378654E+03  0.00000000000E+00 0. -1.
         25    2    1    2    0    0 -0.62797586305E+01  0.14260999812E+03  0.53452105883E+02  0.19718355624E+03  0.12508868973E+03 0.  0.
          5    1    3    3  502    0  0.81959007018E+01  0.50260938567E+02 -0.40036362191E+02  0.64913152992E+02  0.41800000000E+01 0.  1.
         -5    1    3    3    0  502 -0.14475659332E+02  0.92349059554E+02  0.93488468074E+02  0.13227040325E+03  0.41800000000E+01 0.  1.
        -11    1    1    2    0    0  0.21179744539E+02 -0.10337748180E+03  0.14753353196E+03  0.18138806018E+03  0.00000000000E+00 0.  1.
         11    1    1    2    0    0 -0.14899985908E+02 -0.39232516324E+02 -0.16812777058E+01  0.42000316807E+02  0.00000000000E+00 0. -1.
</event>
<event>
 7    1  0.2788485E-009  0.7824425E+02  0.7561462E-02  0.1334109E+00
          1   -1    0    0  501    0  0.00000000000E+00  0.00000000000E+00  0.51194922204E+02  0.51194922204E+02  0.00000000000E+00 0. -1.
         -1   -1    0    0    0  501 -0.00000000000E+00 -0.00000000000E+00 -0.23640073750E+03  0.23640073750E+03  0.00000000000E+00 0.  1.
         25    2    1    2    0    0  0.15505214179E+02 -0.12315956415E+02 -0.13087301608E+03  0.18211805200E+03  0.12508854495E+03 0.  0.
          5    1    3    3  502    0 -0.35137230470E+01  0.41821834106E+02 -0.34611066302E+01  0.42318597764E+02  0.41800000000E+01 0.  1.
         -5    1    3    3    0  502  0.19018937226E+02 -0.54137790521E+02 -0.12741190945E+03  0.13979945424E+03  0.41800000000E+01 0.  1.
        -11    1    1    2    0    0 -0.14305657831E+02 -0.19917432359E+02 -0.66597484453E+02  0.70968872706E+02  0.00000000000E+00 0.  1.
         11    1    1    2    0    0 -0.11995563473E+01  0.32233388774E+02  0.12264685235E+02  0.34508734998E+02  0.00000000000E+00 0. -1.
</event>
<event>
 7    1  0.2788485E-009  0.1001609E+03  0.7561462E-02  0.1279958E+00
         -3   -1    0    0    0  501 -0.00000000000E+00  0.00000000000E+00  0.25874995261E+02  0.25874995261E+02  0.00000000000E+00 0.  1.
          3   -1    0    0  501    0  0.00000000000E+00 -0.00000000000E+00 -0.79467920022E+03  0.79467920022E+03  0.00000000000E+00 0. -1.
         25    2    1    2    0    0  0.34744333090E+02  0.67573770833E+02 -0.57437348440E+03  0.59272799078E+03  0.12509271877E+03 0.  0.
          5    1    3    3  502    0  0.38416545653E+02  0.68705635927E+00 -0.45879751743E+02  0.59989391115E+02  0.41800000000E+01 0.  1.
         -5    1    3    3    0  502 -0.36722125632E+01  0.66886714473E+02 -0.52849373266E+03  0.53273859967E+03  0.41800000000E+01 0.  1.
        -11    1    1    2    0    0 -0.21678735845E+01  0.10097930962E+02  0.48997223830E+01  0.11431323852E+02  0.00000000000E+00 0.  1.
         11    1    1    2    0    0 -0.32576459505E+02 -0.77671701794E+02 -0.19933044294E+03  0.21639488085E+03  0.00000000000E+00 0. -1.
</event>
<event>
 7    1  0.3487101E-009  0.1228070E+03  0.7561462E-02  0.1238537E+00
          2   -1    0    0  501    0  0.00000000000E+00  0.00000000000E+00  0.42934979875E+03  0.42934979875E+03  0.00000000000E+00 0. -1.
         -2   -1    0    0    0  501 -0.00000000000E+00 -0.00000000000E+00 -0.66376209164E+02  0.66376209164E+02  0.00000000000E+00 0.  1.
         25    2    1    2    0    0 -0.81089129546E+02  0.50204834290E+02  0.31969235099E+03  0.35629530612E+03  0.12508866281E+03 0.  0.
          5    1    3    3  502    0 -0.11109768363E+03  0.37041241051E+02  0.28615900566E+03  0.30922354012E+03  0.41800000000E+01 0. -1.
         -5    1    3    3    0  502  0.30008554080E+02  0.13163593239E+02  0.33533345333E+02  0.47071765998E+02  0.41800000000E+01 0. -1.
        -11    1    1    2    0    0  0.10397377160E+02 -0.56392762290E+01 -0.27487510433E+02  0.29924406727E+02  0.00000000000E+00 0.  1.
         11    1    1    2    0    0  0.70691752387E+02 -0.44565558061E+02  0.70768749033E+02  0.10950629507E+03  0.00000000000E+00 0. -1.
</event>
<event>
 7    1  0.2788485E-009  0.1093126E+03  0.7561462E-02  0.1261848E+00
          2   -1    0    0  501    0  0.00000000000E+00  0.00000000000E+00  0.69123167134E+03  0.69123167134E+03  0.00000000000E+00 0. -1.
         -2   -1    0    0    0  501 -0.00000000000E+00 -0.00000000000E+00 -0.18692420411E+02  0.18692420411E+02  0.00000000000E+00 0.  1.
         25    2    1    2    0    0 -0.74806508615E+01 -0.28167422749E+02  0.45737712117E+03  0.47506805539E+03  0.12508582031E+03 0.  0.
          5    1    3    3  502    0 -0.62714006804E+02 -0.35210897416E+02  0.27929965278E+03  0.28844171402E+03  0.41800000000E+01 0.  1.
         -5    1    3    3    0  502  0.55233355943E+02  0.70434746662E+01  0.17807746839E+03  0.18662634137E+03  0.41800000000E+01 0.  1.
        -11    1    1    2    0    0  0.20915840096E+02 -0.26892351523E+02  0.52331417043E+02  0.62443960053E+02  0.00000000000E+00 0. -1.
         11    1    1    2    0    0 -0.13435189235E+02  0.55059774273E+02  0.16283071272E+03  0.17241207631E+03  0.00000000000E+00 0.  1.
</event>
<event>
 7    1  0.2788485E-009  0.2839780E+03  0.7561462E-02  0.1093536E+00
          2   -1    0    0  501    0  0.00000000000E+00  0.00000000000E+00  0.13087045281E+04  0.13087045281E+04  0.00000000000E+00 0.  1.
         -2   -1    0    0    0  501 -0.00000000000E+00 -0.00000000000E+00 -0.66897376704E+02  0.66897376704E+02  0.00000000000E+00 0. -1.
         25    2    1    2    0    0 -0.13347446081E+03 -0.23998475129E+03  0.59665497314E+03  0.66862309962E+03  0.12510627412E+03 0.  0.
          5    1    3    3  502    0 -0.83400691365E+02 -0.52610847179E+02  0.12976106821E+03  0.16303062223E+03  0.41800000000E+01 0. -1.
         -5    1    3    3    0  502 -0.50073769446E+02 -0.18737390411E+03  0.46689390493E+03  0.50559247739E+03  0.41800000000E+01 0. -1.
        -11    1    1    2    0    0  0.45403271482E+02  0.63960858668E+02  0.29550739293E+03  0.30574019654E+03  0.00000000000E+00 0.  1.
         11    1    1    2    0    0  0.88071189329E+02  0.17602389262E+03  0.34964478529E+03  0.40123860862E+03  0.00000000000E+00 0. -1.
</event>
<event>
 7    1  0.2788485E-009  0.9938989E+02  0.7561462E-02  0.1281584E+00
          2   -1    0    0  501    0  0.00000000000E+00  0.00000000000E+00  0.37774608988E+03  0.37774608988E+03  0.00000000000E+00 0. -1.
         -2   -1    0    0    0  501 -0.00000000000E+00 -0.00000000000E+00 -0.36269377015E+02  0.36269377015E+02  0.00000000000E+00 0.  1.
         25    2    1    2    0    0 -0.13148410615E+01 -0.24207336565E+02  0.12011879136E+03  0.17511028956E+03  0.12508943010E+03 0.  0.
          5    1    3    3  502    0  0.60049508607E+02 -0.60339055580E+01  0.76580945231E+02  0.97593365926E+02  0.41800000000E+01 0. -1.
         -5    1    3    3    0  502 -0.61364349668E+02 -0.18173431007E+02  0.43537846129E+02  0.77516923639E+02  0.41800000000E+01 0. -1.
        -11    1    1    2    0    0  0.23213871145E+02 -0.16117540695E+02  0.15895056943E+03  0.16144331034E+03  0.00000000000E+00 0. -1.
         11    1    1    2    0    0 -0.21899030083E+02  0.40324877260E+02  0.62407352076E+02  0.77461866991E+02  0.00000000000E+00 0.  1.
</event>
<event>
 7    1  0.2788485E-009  0.8545999E+02  0.7561462E-02  0.1314234E+00
          1   -1    0    0  501    0  0.00000000000E+00  0.00000000000E+00  0.48865391722E+03  0.48865391722E+03  0.00000000000E+00 0. -1.
         -1   -1    0    0    0  501 -0.00000000000E+00 -0.00000000000E+00 -0.34450776657E+02  0.34450776657E+02  0.00000000000E+00 0.  1.
         25    2    1    2    0    0 -0.49801897652E+02  0.51853882486E+02  0.29947539622E+03  0.33241903146E+03  0.12509134821E+03 0.  0.
          5    1    3    3  502    0 -0.10884460689E+02  0.47741180988E+01 -0.10533401161E+02  0.16422199248E+02  0.41800000000E+01 0.  1.
         -5    1    3    3    0  502 -0.38917436962E+02  0.47079764387E+02  0.31000879738E+03  0.31599683221E+03  0.41800000000E+01 0.  1.
        -11    1    1    2    0    0  0.36093766400E+02  0.69140741808E+01  0.17353038943E+02  0.40641018138E+02  0.00000000000E+00 0.  1.
         11    1    1    2    0    0  0.13708131251E+02 -0.58767956667E+02  0.13737470540E+03  0.15004464428E+03  0.00000000000E+00 0. -1.
</event>
<event>
 7    1  0.2788485E-009  0.1053110E+03  0.7561462E-02  0.1269508E+00
         -1   -1    0    0    0  501 -0.00000000000E+00  0.00000000000E+00  0.11979179727E+03  0.11979179727E+03  0.00000000000E+00 0.  1.
          1   -1    0    0  501    0  0.00000000000E+00 -0.00000000000E+00 -0.17343309418E+03  0.17343309418E+03  0.00000000000E+00 0. -1.
         25    2    1    2    0    0 -0.37263004278E+02 -0.86374011467E+02  0.10670197739E+01  0.15651770813E+03  0.12509057950E+03 0.  0.
          5    1    3    3  502    0 -0.13807107327E+02 -0.89905477352E+02 -0.47209583680E+02  0.10256631153E+03  0.41800000000E+01 0.  1.
         -5    1    3    3    0  502 -0.23455896951E+02  0.35314658849E+01  0.48276603453E+02  0.53951396591E+02  0.41800000000E+01 0.  1.
        -11    1    1    2    0    0  0.15130702787E+02  0.55286965189E+02  0.13191714687E+02  0.58818432681E+02  0.00000000000E+00 0.  1.
         11    1    1    2    0    0  0.22132301490E+02  0.31087046278E+02 -0.67900031377E+02  0.77888750642E+02  0.00000000000E+00 0. -1.
</event>
<event>
 7    1  0.2788485E-009  0.1682920E+03  0.7561462E-02  0.1179641E+00
          2   -1    0    0  501    0  0.00000000000E+00  0.00000000000E+00  0.83763355212E+03  0.83763355212E+03  0.00000000000E+00 0. -1.
         -2   -1    0    0    0  501 -0.00000000000E+00 -0.00000000000E+00 -0.37938406420E+02  0.37938406420E+02  0.00000000000E+00 0.  1.
         25    2    1    2    0    0 -0.12836998665E+03  0.56596541598E+02  0.43475679717E+03  0.47364972193E+03  0.12509422208E+03 0.  0.
          5    1    3    3  502    0 -0.80316506702E+02  0.95812916292E+02  0.27056153824E+03  0.29808031560E+03  0.41800000000E+01 0. -1.
         -5    1    3    3    0  502 -0.48053479948E+02 -0.39216374694E+02  0.16419525894E+03  0.17556940632E+03  0.41800000000E+01 0. -1.
        -11    1    1    2    0    0  0.97862218843E+02 -0.65242245369E+02  0.18508037663E+03  0.21929047009E+03  0.00000000000E+00 0.  1.
         11    1    1    2    0    0  0.30507767808E+02  0.86457037704E+01  0.17985797189E+03  0.18263176652E+03  0.00000000000E+00 0. -1.
</event>
<event>
 7    1  0.2788485E-009  0.1319219E+03  0.7561462E-02  0.1224631E+00
          1   -1    0    0  501    0  0.00000000000E+00  0.00000000000E+00  0.53120228805E+02  0.53120228805E+02  0.00000000000E+00 0. -1.
         -1   -1    0    0    0  501 -0.00000000000E+00 -0.00000000000E+00 -0.39332981988E+03  0.39332981988E+03  0.00000000000E+00 0.  1.
         25    2    1    2    0    0  0.46466068226E+02 -0.63876826010E+02 -0.10429187889E+03  0.18100469486E+03  0.12508620691E+03 0.  0.
          5    1    3    3  502    0  0.60365747526E+02  0.16746423164E+02 -0.64212428980E+02  0.89806317143E+02  0.41800000000E+01 0.  1.
         -5    1    3    3    0  502 -0.13899679300E+02 -0.80623249174E+02 -0.40079449914E+02  0.91198377713E+02  0.41800000000E+01 0.  1.
        -11    1    1    2    0    0 -0.17032953522E+02  0.82545989941E+02 -0.18949747378E+03  0.20739637058E+03  0.00000000000E+00 0. -1.
         11    1    1    2    0    0 -0.29433114703E+02 -0.18669163931E+02 -0.46420238400E+02  0.58048983248E+02  0.00000000000E+00 0.  1.
</event>
<event>
 7    1  0.2788485E-009  0.8169898E+02  0.7561462E-02  0.1324298E+00
         -4   -1    0    0    0  501 -0.00000000000E+00  0.00000000000E+00  0.23912404989E+03  0.23912404989E+03  0.00000000000E+00 0. -1.
          4   -1    0    0  501    0  0.00000000000E+00 -0.00000000000E+00 -0.64865888476E+02  0.64865888476E+02  0.00000000000E+00 0.  1.
         25    2    1    2    0    0 -0.39222517948E+02  0.38690432043E+02  0.12953945667E+03  0.18831581927E+03  0.12508805501E+03 0.  0.
          5    1    3    3  502    0 -0.19022440386E+02  0.85870039075E+01 -0.23078507285E+02  0.31395537467E+02  0.41800000000E+01 0.  1.
         -5    1    3    3    0  502 -0.20200077562E+02  0.30103428135E+02  0.15261796396E+03  0.15692028181E+03  0.41800000000E+01 0.  1.
        -11    1    1    2    0    0 -0.27212976732E+02  0.26984792102E+01  0.46426483487E+01  0.27737737405E+02  0.00000000000E+00 0. -1.
         11    1    1    2    0    0  0.66435494680E+02 -0.41388911253E+02  0.40076056387E+02  0.87936381684E+02  0.00000000000E+00 0.  1.
</event>
<event>
 7    1  0.2788485E-009  0.1065829E+03  0.7561462E-02  0.1267032E+00
         -2   -1    0    0    0  501 -0.00000000000E+00  0.00000000000E+00  0.12154204513E+02  0.12154204513E+02  0.00000000000E+00 0.  1.
          2   -1    0    0  501    0  0.00000000000E+00 -0.00000000000E+00 -0.12598813142E+04  0.12598813142E+04  0.00000000000E+00 0. -1.
         25    2    1    2    0    0  0.22516368801E+02 -0.36686027327E+02 -0.91335519153E+03  0.92288538300E+03  0.12508746058E+03 0.  0.
          5    1    3    3  502    0  0.21728787262E+02  0.36804225704E+02 -0.15110161576E+03  0.15708552419E+03  0.41800000000E+01 0.  1.
         -5    1    3    3    0  502  0.78758153847E+00 -0.73490253031E+02 -0.76225357577E+03  0.76579985881E+03  0.41800000000E+01 0.  1.
        -11    1    1    2    0    0  0.33372704893E+02  0.16052085921E+02 -0.17804742191E+03  0.18185788776E+03  0.00000000000E+00 0. -1.
         11    1    1    2    0    0 -0.55889073694E+02  0.20633941406E+02 -0.15632449627E+03  0.16729224797E+03  0.00000000000E+00 0.  1.
</event>
<event>
 7    1  0.2788485E-009  0.1044187E+03  0.7561462E-02  0.1271269E+00
          2   -1    0    0  501    0  0.00000000000E+00  0.00000000000E+00  0.13885488815E+03  0.13885488815E+03  0.00000000000E+00 0. -1.
         -2   -1    0    0    0  501 -0.00000000000E+00 -0.00000000000E+00 -0.11941573125E+03  0.11941573125E+03  0.00000000000E+00 0.  1.
         25    2    1    2    0    0  0.61086608594E+02 -0.69051721045E+01  0.41402012947E+02  0.14539909208E+03  0.12509002418E+03 0.  0.
          5    1    3    3  502    0  0.71108356677E+02  0.43844886532E+02  0.41782948922E+02  0.93498982267E+02  0.41800000000E+01 0.  1.
         -5    1    3    3    0  502 -0.10021748083E+02 -0.50750058636E+02 -0.38093597550E+00  0.51900109812E+02  0.41800000000E+01 0.  1.
        -11    1    1    2    0    0 -0.43019033596E+02  0.23277512381E+02  0.28654187599E+02  0.56688114284E+02  0.00000000000E+00 0. -1.
         11    1    1    2    0    0 -0.18067574999E+02 -0.16372340277E+02 -0.50617043643E+02  0.56183413030E+02  0.00000000000E+00 0.  1.
</event>
<event>
 7    1  0.2788485E-009  0.1108291E+03  0.7561462E-02  0.1259042E+00
          1   -1    0    0  501    0  0.00000000000E+00  0.00000000000E+00  0.25005508375E+03  0.25005508375E+03  0.00000000000E+00 0. -1.
         -1   -1    0    0    0  501 -0.00000000000E+00 -0.00000000000E+00 -0.64373011376E+02  0.64373011376E+02  0.00000000000E+00 0.  1.
         25    2    1    2    0    0 -0.12659308486E+02  0.64103423534E+02  0.96754375215E+02  0.17110946190E+03  0.12509009484E+03 0.  0.
          5    1    3    3  502    0  0.38722634728E+02  0.76607070389E+02  0.73922150887E+02  0.11335802780E+03  0.41800000000E+01 0.  1.
         -5    1    3    3    0  502 -0.51381943214E+02 -0.12503646855E+02  0.22832224328E+02  0.57751434103E+02  0.41800000000E+01 0.  1.
        -11    1    1    2    0    0  0.30252034051E+02 -0.23127898425E+02 -0.58953032250E+01  0.38533619735E+02  0.00000000000E+00 0.  1.
         11    1    1    2    0    0 -0.17592725565E+02 -0.40975525109E+02  0.94823000386E+02  0.10478501349E+03  0.00000000000E+00 0. -1.
</event>
<event>
 7    1  0.2788485E-009  0.1075077E+03  0.7561462E-02  0.1265256E+00
         -2   -1    0    0    0  501 -0.00000000000E+00  0.00000000000E+00  0.29814279400E+02  0.29814279400E+02  0.00000000000E+00 0.  1.
          2   -1    0    0  501    0  0.00000000000E+00 -0.00000000000E+00 -0.55558938456E+03  0.55558938456E+03  0.00000000000E+00 0. -1.
         25    2    1    2    0    0 -0.60394694793E+02  0.32664111400E+02 -0.28920029949E+03  0.32248707097E+03  0.12508650761E+03 0.  0.
          5    1    3    3  502    0 -0.72176515071E+02  0.58268487603E+02 -0.12435635579E+03  0.15519871649E+03  0.41800000000E+01 0. -1.
         -5    1    3    3    0  502  0.11781820278E+02 -0.25604376202E+02 -0.16484394370E+03  0.16728835448E+03  0.41800000000E+01 0. -1.
        -11    1    1    2    0    0  0.55393432162E+02  0.50492322466E+01 -0.20807643466E+03  0.21538275170E+03  0.00000000000E+00 0. -1.
         11    1    1    2    0    0  0.50012626310E+01 -0.37713343647E+02 -0.28498371017E+02  0.47533841288E+02  0.00000000000E+00 0.  1.
</event>
<event>
 7    1  0.2788485E-009  0.1034651E+03  0.7561462E-02  0.1273173E+00
          2   -1    0    0  501    0  0.00000000000E+00  0.00000000000E+00  0.13537635484E+04  0.13537635484E+04  0.00000000000E+00 0.  1.
         -2   -1    0    0    0  501 -0.00000000000E+00 -0.00000000000E+00 -0.10359526934E+02  0.10359526934E+02  0.00000000000E+00 0. -1.
         25    2    1    2    0    0 -0.35077401602E+02 -0.29684567624E+02  0.85380392633E+03  0.86414152100E+03  0.12509127086E+03 0.  0.
          5    1    3    3  502    0  0.11828487513E+02 -0.52565045773E+02  0.17106730433E+03  0.17940036835E+03  0.41800000000E+01 0. -1.
         -5    1    3    3    0  502 -0.46905889115E+02  0.22880478149E+02  0.68273662200E+03  0.68474115265E+03  0.41800000000E+01 0. -1.
        -11    1    1    2    0    0 -0.27498052472E+02  0.26008634620E+02  0.15445974646E+03  0.15902957348E+03  0.00000000000E+00 0.  1.
         11    1    1    2    0    0  0.62575454074E+02  0.36759330036E+01  0.33514034869E+03  0.34095198087E+03  0.00000000000E+00 0. -1.
</event>
<event>
 7    1  0.2788485E-009  0.1136081E+03  0.7561462E-02  0.1254030E+00
          3   -1    0    0  501    0  0.00000000000E+00  0.00000000000E+00  0.11800414781E+03  0.11800414781E+03  0.00000000000E+00 0. -1.
         -3   -1    0    0    0  501 -0.00000000000E+00 -0.00000000000E+00 -0.14750179964E+03  0.14750179964E+03  0.00000000000E+00 0.  1.
         25    2    1    2    0    0  0.75224994082E+02 -0.91137870218E+01 -0.78851949872E+01  0.14646767841E+03  0.12509493863E+03 0.  0.
          5    1    3    3  502    0 -0.18423932995E+02  0.16542242505E+01 -0.42038625343E+02  0.46118284721E+02  0.41800000000E+01 0. -1.
         -5    1    3    3    0  502  0.93648927077E+02 -0.10768011272E+02  0.34153430356E+02  0.10034939369E+03  0.41800000000E+01 0. -1.
        -11    1    1    2    0    0 -0.65847139654E+02  0.43059200610E+02 -0.19419308319E+01  0.78700137568E+02  0.00000000000E+00 0. -1.
         11    1    1    2    0    0 -0.93778544281E+01 -0.33945413588E+02 -0.19670526012E+02  0.40338131476E+02  0.00000000000E+00 0.  1.
</event>
<event>
 7    1  0.2788485E-009  0.1849614E+03  0.7561462E-02  0.1163086E+00
         -2   -1    0    0    0  501 -0.00000000000E+00  0.00000000000E+00  0.45214172045E+02  0.45214172045E+02  0.00000000000E+00 0.  1.
          2   -1    0    0  501    0  0.00000000000E+00 -0.00000000000E+00 -0.10302752183E+04  0.10302752183E+04  0.00000000000E+00 0. -1.
         25    2    1    2    0    0  0.14216146957E+03 -0.78164560060E+02 -0.28279873666E+03  0.34920382943E+03  0.12509439297E+03 0.  0.
          5    1    3    3  502    0  0.17910937628E+02 -0.58720987807E+02 -0.16784426288E+03  0.17876835592E+03  0.41800000000E+01 0. -1.
         -5    1    3    3    0  502  0.12425053194E+03 -0.19443572253E+02 -0.11495447378E+03  0.17043547351E+03  0.41800000000E+01 0. -1.
        -11    1    1    2    0    0 -0.25289072538E+02  0.58910234041E+02 -0.30864148390E+03  0.31522931090E+03  0.00000000000E+00 0. -1.
         11    1    1    2    0    0 -0.11687239703E+03  0.19254326019E+02 -0.39362082572E+03  0.41105625005E+03  0.00000000000E+00 0.  1.
</event>
<event>
 7    1  0.2788485E-009  0.1079300E+03  0.7561462E-02  0.1264452E+00
         -2   -1    0    0    0  501 -0.00000000000E+00  0.00000000000E+00  0.84966514533E+02  0.84966514533E+02  0.00000000000E+00 0. -1.
          2   -1    0    0  501    0  0.00000000000E+00 -0.00000000000E+00 -0.23996719343E+03  0.23996719343E+03  0.00000000000E+00 0.  1.
         25    2    1    2    0    0 -0.52486022009E+02 -0.57612568326E+02 -0.27712785976E+02  0.14996385560E+03  0.12508864434E+03 0.  0.
          5    1    3    3  502    0 -0.28065801304E+02  0.13387808759E+02  0.38572177434E+02  0.49721302258E+02  0.41800000000E+01 0. -1.
         -5    1    3    3    0  502 -0.24420220705E+02 -0.71000377084E+02 -0.66284963410E+02  0.10024255334E+03  0.41800000000E+01 0. -1.
        -11    1    1    2    0    0  0.72245950766E+02  0.38811932050E+02 -0.12228571731E+03  0.14724007650E+03  0.00000000000E+00 0.  1.
         11    1    1    2    0    0 -0.19759928756E+02  0.18800636276E+02 -0.50021756198E+01  0.27729775869E+02  0.00000000000E+00 0. -1.
</event>
<event>
 7    1  0.2788485E-009  0.9116549E+02  0.7561462E-02  0.1300054E+00
          2   -1    0    0  501    0  0.00000000000E+00  0.00000000000E+00  0.18550127263E+03  0.18550127263E+03  0.00000000000E+00 0. -1.
         -2   -1    0    0    0  501 -0.00000000000E+00 -0.00000000000E+00 -0.76626138354E+02  0.76626138354E+02  0.00000000000E+00 0.  1.
         25    2    1    2    0    0  0.21933908516E+02 -0.38719873564E+02  0.37149032766E+02  0.13786431880E+03  0.12508475052E+03 0.  0.
          5    1    3    3  502    0  0.61254237457E+02 -0.52138266463E+02 -0.20747380227E+01  0.80574545448E+02  0.41800000000E+01 0.  1.
         -5    1    3    3    0  502 -0.39320328942E+02  0.13418392899E+02  0.39223770788E+02  0.57289773354E+02  0.41800000000E+01 0.  1.
        -11    1    1    2    0    0 -0.29894215745E+02  0.12114134647E+02 -0.13244939859E+02  0.34868966505E+02  0.00000000000E+00 0.  1.
         11    1    1    2    0    0  0.79603072297E+01  0.26605738917E+02  0.84971041371E+02  0.89394125681E+02  0.00000000000E+00 0. -1.
</event>
<event>
 7    1  0.2788485E-009  0.1126654E+03  0.7561462E-02  0.1255712E+00
          2   -1    0    0  501    0  0.00000000000E+00  0.00000000000E+00  0.22198787506E+03  0.22198787506E+03  0.00000000000E+00 0. -1.
         -2   -1    0    0    0  501 -0.00000000000E+00 -0.00000000000E+00 -0.68406761646E+02  0.68406761646E+02  0.00000000000E+00 0.  1.
         25    2    1    2    0    0 -0.50567845025E+02 -0.13851563058E+02  0.12387473228E+03  0.18369138364E+03  0.12509437388E+03 0.  0.
          5    1    3    3  502    0 -0.85268649249E+02  0.13013560761E+00  0.45487071397E+02  0.96733166723E+02  0.41800000000E+01 0.  1.
         -5    1    3    3    0  502  0.34700804223E+02 -0.13981698665E+02  0.78387660881E+02  0.86958216919E+02  0.41800000000E+01 0.  1.
        -11    1    1    2    0    0  0.57855801256E+02 -0.24825798510E+02  0.21252202077E+02  0.66447498852E+02  0.00000000000E+00 0.  1.
         11    1    1    2    0    0 -0.72879562305E+01  0.38677361568E+02  0.84541790642E+01  0.40255754216E+02  0.00000000000E+00 0. -1.
</event>
<event>
 7    1  0.2788485E-009  0.9190643E+02  0.7561462E-02  0.1298300E+00
         -2   -1    0    0    0  501 -0.00000000000E+00  0.00000000000E+00  0.16717030283E+03  0.16717030283E+03  0.00000000000E+00 0.  1.
          2   -1    0    0  501    0  0.00000000000E+00 -0.00000000000E+00 -0.95092110656E+02  0.95092110656E+02  0.00000000000E+00 0. -1.
         25    2    1    2    0    0  0.95636030465E+00  0.14388540981E+02 -0.24861391998E+02  0.12834936052E+03  0.12509006674E+03 0.  0.
          5    1    3    3  502    0  0.22503332375E+02 -0.33784483680E+02  0.31106647434E+02  0.51311667485E+02  0.41800000000E+01 0. -1.
         -5    1    3    3    0  502 -0.21546972070E+02  0.48173024660E+02 -0.55968039432E+02  0.77037693035E+02  0.41800000000E+01 0. -1.
        -11    1    1    2    0    0 -0.43024573220E+02  0.57862917380E+01  0.31910053846E+02  0.53878071692E+02  0.00000000000E+00 0. -1.
         11    1    1    2    0    0  0.42068212915E+02 -0.20174832719E+02  0.65029530326E+02  0.80034981274E+02  0.00000000000E+00 0.  1.
</event>
<event>
 7    1  0.2788485E-009  0.1012227E+03  0.7561462E-02  0.1277746E+00
          1   -1    0    0  501    0  0.00000000000E+00  0.00000000000E+00  0.13867553188E+03  0.13867553188E+03  0.00000000000E+00 0. -1.
         -1   -1    0    0    0  501 -0.00000000000E+00 -0.00000000000E+00 -0.13935903566E+03  0.13935903566E+03  0.00000000000E+00 0.  1.
         25    2    1    2    0    0 -0.45092692605E+01 -0.71638959354E+01  0.83440781556E+02  0.15060151723E+03  0.12508716181E+03 0.  0.
          5    1    3    3  502    0  0.33754828435E+02  0.46249323734E+02  0.52740889871E+02  0.77958080100E+02  0.41800000000E+01 0. -1.
         -5    1    3    3    0  502 -0.38264097695E+02 -0.53413219670E+02  0.30699891686E+02  0.72643437126E+02  0.41800000000E+01 0. -1.
        -11    1    1    2    0    0  0.30913601623E+02  0.30888833833E+02 -0.80697508966E+02  0.91770685811E+02  0.00000000000E+00 0.  1.
         11    1    1    2    0    0 -0.26404332362E+02 -0.23724937897E+02 -0.34267763761E+01  0.35662364505E+02  0.00000000000E+00 0. -1.
</event>
<event>
 7    1  0.2788485E-009  0.1136728E+03  0.7561462E-02  0.1253916E+00
         -2   -1    0    0    0  501 -0.00000000000E+00  0.00000000000E+00  0.30097728152E+02  0.30097728152E+02  0.00000000000E+00 0.  1.
          2   -1    0    0  501    0  0.00000000000E+00 -0.00000000000E+00 -0.70765279974E+03  0.70765279974E+03  0.00000000000E+00 0. -1.
         25    2    1    2    0    0 -0.52282816379E+02  0.75607394952E+02 -0.43960223699E+03  0.46620301031E+03  0.12508057001E+03 0.  0.
          5    1    3    3  502    0  0.55470831406E+01  0.41672210087E+02 -0.31731798114E+02  0.52836754598E+02  0.41800000000E+01 0.  1.
         -5    1    3    3    0  502 -0.57829899520E+02  0.33935184865E+02 -0.40787043888E+03  0.41336625571E+03  0.41800000000E+01 0.  1.
        -11    1    1    2    0    0  0.34621432167E+01 -0.68493150033E+02 -0.76572470826E+02  0.10279416971E+03  0.00000000000E+00 0.  1.
         11    1    1    2    0    0  0.48820673163E+02 -0.71142449194E+01 -0.16138036377E+03  0.16875334788E+03  0.00000000000E+00 0. -1.
</event>
<event>
 7    1  0.2788485E-009  0.1066183E+03  0.7561462E-02  0.1266964E+00
          2   -1    0    0  501    0  0.00000000000E+00  0.00000000000E+00  0.20507637971E+02  0.20507637971E+02  0.00000000000E+00 0. -1.
         -2   -1    0    0    0  501 -0.00000000000E+00 -0.00000000000E+00 -0.76739143479E+03  0.76739143479E+03  0.00000000000E+00 0.  1.
         25    2    1    2    0    0 -0.36957239402E+02  0.41042762673E+01 -0.58279339013E+03  0.59722562795E+03  0.12509049714E+03 0.  0.
          5    1    3    3  502    0 -0.48937430511E+02  0.55045156062E+02 -0.26295071166E+03  0.27310325973E+03  0.41800000000E+01 0. -1.
         -5    1    3    3    0  502  0.11980191109E+02 -0.50940879795E+02 -0.31984267847E+03  0.32412236822E+03  0.41800000000E+01 0. -1.
        -11    1    1    2    0    0 -0.30895751709E+01  0.32539195001E+02 -0.10706713266E+03  0.11194514542E+03  0.00000000000E+00 0. -1.
         11    1    1    2    0    0  0.40046814573E+02 -0.36643471268E+02 -0.57023274022E+02  0.78728299386E+02  0.00000000000E+00 0.  1.
</event>
<event>
 7    1  0.2788485E-009  0.1332553E+03  0.7561462E-02  0.1222704E+00
         -2   -1    0    0    0  501 -0.00000000000E+00  0.00000000000E+00  0.60216455983E+02  0.60216455983E+02  0.00000000000E+00 0.  1.
          2   -1    0    0  501    0  0.00000000000E+00 -0.00000000000E+00 -0.38799013629E+03  0.38799013629E+03  0.00000000000E+00 0. -1.
         25    2    1    2    0    0  0.69680869033E+02  0.57545133969E+02 -0.92086813620E+02  0.17970683715E+03  0.12509076754E+03 0.  0.
          5    1    3    3  502    0  0.28929492800E+02  0.89653175842E+02 -0.30578748474E+02  0.99131931034E+02  0.41800000000E+01 0. -1.
         -5    1    3    3    0  502  0.40751376233E+02 -0.32108041873E+02 -0.61508065147E+02  0.80574906118E+02  0.41800000000E+01 0. -1.
        -11    1    1    2    0    0 -0.30116306096E+02 -0.71997404486E+02 -0.10261349447E+03  0.12891915060E+03  0.00000000000E+00 0.  1.
         11    1    1    2    0    0 -0.39564562937E+02  0.14452270517E+02 -0.13307337222E+03  0.13958060452E+03  0.00000000000E+00 0. -1.
</event>
<event>
 7    1  0.2788485E-009  0.9813775E+02  0.7561462E-02  0.1284261E+00
         -1   -1    0    0    0  501 -0.00000000000E+00  0.00000000000E+00  0.19570453909E+03  0.19570453909E+03  0.00000000000E+00 0.  1.
          1   -1    0    0  501    0  0.00000000000E+00 -0.00000000000E+00 -0.72867684797E+02  0.72867684797E+02  0.00000000000E+00 0. -1.
         25    2    1    2    0    0 -0.32551960793E+02 -0.34398951955E+02  0.59080102145E+02  0.14621205031E+03  0.12507832402E+03 0.  0.
          5    1    3    3  502    0 -0.54081447038E+02  0.40076518988E+01 -0.18044883549E+02  0.57305797349E+02  0.41800000000E+01 0.  1.
         -5    1    3    3    0  502  0.21529486245E+02 -0.38406603854E+02  0.77124985694E+02  0.88906252963E+02  0.41800000000E+01 0.  1.
        -11    1    1    2    0    0 -0.29271619565E+02  0.14809038836E+02  0.43368222886E+02  0.54377735329E+02  0.00000000000E+00 0.  1.
         11    1    1    2    0    0  0.61823580357E+02  0.19589913119E+02  0.20388529260E+02  0.67982438244E+02  0.00000000000E+00 0. -1.
</event>
<event>
 7    1  0.2788485E-009  0.1943221E+03  0.7561462E-02  0.1154620E+00
          1   -1    0    0  501    0  0.00000000000E+00  0.00000000000E+00  0.58318710723E+03  0.58318710723E+03  0.00000000000E+00 0. -1.
         -1   -1    0    0    0  501 -0.00000000000E+00 -0.00000000000E+00 -0.73342164922E+02  0.73342164922E+02  0.00000000000E+00 0.  1.
         25    2    1    2    0    0 -0.73092351750E+02 -0.13020952284E+03  0.23402260174E+03  0.30448489736E+03  0.12508981921E+03 0.  0.
          5    1    3    3  502    0 -0.10752936248E+03 -0.98383665068E+02  0.19406987115E+03  0.24273956545E+03  0.41800000000E+01 0. -1.
         -5    1    3    3    0  502  0.34437010726E+02 -0.31825857777E+02  0.39952730582E+02  0.61745331903E+02  0.41800000000E+01 0. -1.
        -11    1    1    2    0    0  0.10904450949E+03  0.10814804802E+03  0.26837353526E+03  0.30921038108E+03  0.00000000000E+00 0. -1.
         11    1    1    2    0    0 -0.35952157737E+02  0.22061474820E+02  0.74488053154E+01  0.42833993718E+02  0.00000000000E+00 0.  1.
</event>
<event>
 7    1  0.2788485E-009  0.1120921E+03  0.7561462E-02  0.1256744E+00
         -4   -1    0    0    0  501 -0.00000000000E+00  0.00000000000E+00  0.67600611878E+03  0.67600611878E+03  0.00000000000E+00 0. -1.
          4   -1    0    0  501    0  0.00000000000E+00 -0.00000000000E+00 -0.22230809005E+02  0.22230809005E+02  0.00000000000E+00 0.  1.
         25    2    1    2    0    0  0.29015004145E+00 -0.41649382348E+02  0.50752423244E+03  0.52436923393E+03  0.12508993461E+03 0.  0.
          5    1    3    3  502    0  0.54316258380E+02 -0.52419762763E+02  0.32437383289E+03  0.33306747562E+03  0.41800000000E+01 0. -1.
         -5    1    3    3    0  502 -0.54026108339E+02  0.10770380416E+02  0.18315039955E+03  0.19130175831E+03  0.41800000000E+01 0. -1.
        -11    1    1    2    0    0 -0.91449256762E+01 -0.24730683512E+02  0.51256153187E+02  0.57640520574E+02  0.00000000000E+00 0. -1.
         11    1    1    2    0    0  0.88547756348E+01  0.66380065860E+02  0.94994924148E+02  0.11622717328E+03  0.00000000000E+00 0.  1.
</event>
<event>
 7    1  0.2788485E-009  0.5672864E+03  0.7561462E-02  0.9975701E-01
          2   -1    0    0  501    0  0.00000000000E+00  0.00000000000E+00  0.73335309440E+03  0.73335309440E+03  0.00000000000E+00 0. -1.
         -2   -1    0    0    0  501 -0.00000000000E+00 -0.00000000000E+00 -0.49185635752E+03  0.49185635752E+03  0.00000000000E+00 0.  1.
         25    2    1    2    0    0  0.41375721210E+03 -0.38538991422E+03  0.29493293216E+03  0.64988714018E+03  0.12508974356E+03 0.  0.
          5    1    3    3  502    0  0.62541788090E+02 -0.65200686105E+02 -0.17011307496E+00  0.90443938794E+02  0.41800000000E+01 0. -1.
         -5    1    3    3    0  502  0.35121542401E+03 -0.32018922812E+03  0.29510304523E+03  0.55944320138E+03  0.41800000000E+01 0. -1.
        -11    1    1    2    0    0 -0.11628204655E+02  0.30033603982E+02 -0.19406923963E+02  0.37601345845E+02  0.00000000000E+00 0.  1.
         11    1    1    2    0    0 -0.40212900745E+03  0.35535631024E+03 -0.34029271313E+02  0.53772096590E+03  0.00000000000E+00 0. -1.
</event>
<event>
 7    1  0.2788485E-009  0.1009026E+03  0.7561462E-02  0.1278409E+00
         -2   -1    0    0    0  501 -0.00000000000E+00  0.00000000000E+00  0.36898206536E+02  0.36898206536E+02  0.00000000000E+00 0.  1.
          2   -1    0    0  501    0  0.00000000000E+00 -0.00000000000E+00 -0.42963227223E+03  0.42963227223E+03  0.00000000000E+00 0. -1.
         25    2    1    2    0    0  0.13054341602E+02 -0.43596525361E+01 -0.33798500700E+03  0.36065308205E+03  0.12508940096E+03 0.  0.
          5    1    3    3  502    0  0.51561073922E+02  0.36475356684E+02 -0.23404302382E+03  0.24245124333E+03  0.41800000000E+01 0. -1.
         -5    1    3    3    0  502 -0.38506732319E+02 -0.40835009220E+02 -0.10394198318E+03  0.11820183873E+03  0.41800000000E+01 0. -1.
        -11    1    1    2    0    0  0.42962791568E+01 -0.37065583573E+02 -0.31147558638E+01  0.37443520191E+02  0.00000000000E+00 0.  1.
         11    1    1    2    0    0 -0.17350620759E+02  0.41425236109E+02 -0.51634302831E+02  0.68433876525E+02  0.00000000000E+00 0. -1.
</event>
<event>
 7    1  0.2788485E-009  0.9230952E+02  0.7561462E-02  0.1297353E+00
         -2   -1    0    0    0  501 -0.00000000000E+00  0.00000000000E+00  0.40507362758E+02  0.40507362758E+02  0.00000000000E+00 0. -1.
          2   -1    0    0  501    0  0.00000000000E+00 -0.00000000000E+00 -0.30401980580E+03  0.30401980580E+03  0.00000000000E+00 0.  1.
         25    2    1    2    0    0 -0.69376332190E+01  0.30337819706E+02 -0.14849453199E+03  0.19663779163E+03  0.12508909228E+03 0.  0.
          5    1    3    3  502    0  0.45073539004E+02 -0.21753397393E+00 -0.11221953614E+02  0.46637708802E+02  0.41800000000E+01 0. -1.
         -5    1    3    3    0  502 -0.52011172223E+02  0.30555353680E+02 -0.13727257838E+03  0.15000008283E+03  0.41800000000E+01 0. -1.
        -11    1    1    2    0    0 -0.24329247025E+02 -0.39421751358E+02 -0.10342789755E+03  0.11332835803E+03  0.00000000000E+00 0.  1.
         11    1    1    2    0    0  0.31266880244E+02  0.90839316525E+01 -0.11590013497E+02  0.34561018898E+02  0.00000000000E+00 0. -1.
</event>
<event>
 7    1  0.2788485E-009  0.4593428E+03  0.7561462E-02  0.1024972E+00
          2   -1    0    0  501    0  0.00000000000E+00  0.00000000000E+00  0.39661368439E+03  0.39661368439E+03  0.00000000000E+00 0. -1.
         -2   -1    0    0    0  501 -0.00000000000E+00 -0.00000000000E+00 -0.55551020277E+03  0.55551020277E+03  0.00000000000E+00 0.  1.
         25    2    1    2    0    0  0.45493068285E+03  0.33727752095E+02 -0.96226836875E+02  0.48270529699E+03  0.12508122218E+03 0.  0.
          5    1    3    3  502    0  0.16814247217E+03  0.26302413353E+02  0.23421639488E+02  0.17184223431E+03  0.41800000000E+01 0.  1.
         -5    1    3    3    0  502  0.28678821068E+03  0.74253387413E+01 -0.11964847636E+03  0.31086306268E+03  0.41800000000E+01 0.  1.
        -11    1    1    2    0    0 -0.36357326718E+03  0.16143563348E+01 -0.24881594874E+02  0.36442724996E+03  0.00000000000E+00 0. -1.
         11    1    1    2    0    0 -0.91357415673E+02 -0.35342108429E+02 -0.37788086630E+02  0.10499134020E+03  0.00000000000E+00 0.  1.
</event>
<event>
 7    1  0.2788485E-009  0.8804603E+02  0.7561462E-02  0.1307654E+00
         -2   -1    0    0    0  501 -0.00000000000E+00  0.00000000000E+00  0.15325977689E+03  0.15325977689E+03  0.00000000000E+00 0. -1.
          2   -1    0    0  501    0  0.00000000000E+00 -0.00000000000E+00 -0.94734500219E+02  0.94734500219E+02  0.00000000000E+00 0.  1.
         25    2    1    2    0    0 -0.45799327627E+02 -0.25315244637E+02  0.48047564891E+02  0.14385630272E+03  0.12509047652E+03 0.  0.
          5    1    3    3  502    0 -0.29808935100E+02 -0.43458990781E+02  0.84641357767E+02  0.99794229974E+02  0.41800000000E+01 0.  1.
         -5    1    3    3    0  502 -0.15990392527E+02  0.18143746143E+02 -0.36593792876E+02  0.44062072742E+02  0.41800000000E+01 0.  1.
        -11    1    1    2    0    0  0.41658599712E+02 -0.24744339833E+02  0.21014617155E+02  0.52814159256E+02  0.00000000000E+00 0. -1.
         11    1    1    2    0    0  0.41407279150E+01  0.50059584471E+02 -0.10536905378E+02  0.51323815135E+02  0.00000000000E+00 0.  1.
</event>
<event>
 7    1  0.2788485E-009  0.9192193E+02  0.7561462E-02  0.1298263E+00
         -2   -1    0    0    0  501 -0.00000000000E+00  0.00000000000E+00  0.68483491605E+02  0.68483491605E+02  0.00000000000E+00 0.  1.
          2   -1    0    0  501    0  0.00000000000E+00 -0.00000000000E+00 -0.30470971323E+03  0.30470971323E+03  0.00000000000E+00 0. -1.
         25    2    1    2    0    0  0.15340551014E+01 -0.22080337696E+02 -0.10321526779E+02  0.12745970992E+03  0.12509815786E+03 0.  0.
          5    1    3    3  502    0  0.36265342131E+02  0.27614612159E+02  0.29816800378E+02  0.54628342729E+02  0.41800000000E+01 0.  1.
         -5    1    3    3    0  502 -0.34731287029E+02 -0.49694949855E+02 -0.40138327157E+02  0.72831367190E+02  0.41800000000E+01 0.  1.
        -11    1    1    2    0    0 -0.29699022348E+02  0.35344477664E+02 -0.19992340848E+03  0.20518438851E+03  0.00000000000E+00 0. -1.
         11    1    1    2    0    0  0.28164967246E+02 -0.13264139968E+02 -0.25981286368E+02  0.40549106407E+02  0.00000000000E+00 0.  1.
</event>
<event>
 7    1  0.2788485E-009  0.9569691E+02  0.7561462E-02  0.1289614E+00
         -2   -1    0    0    0  501 -0.00000000000E+00  0.00000000000E+00  0.42168454156E+02  0.42168454156E+02  0.00000000000E+00 0.  1.
          2   -1    0    0  501    0  0.00000000000E+00 -0.00000000000E+00 -0.32292876683E+03  0.32292876683E+03  0.00000000000E+00 0. -1.
         25    2    1    2    0    0  0.29453406641E+02 -0.23253740180E+02 -0.12328623953E+03  0.17959929849E+03  0.12509265192E+03 0.  0.
          5    1    3    3  502    0  0.44429557114E+02 -0.54056659284E+02 -0.12683128497E+03  0.14491292284E+03  0.41800000000E+01 0.  1.
         -5    1    3    3    0  502 -0.14976150474E+02  0.30802919104E+02  0.35450454405E+01  0.34686375647E+02  0.41800000000E+01 0.  1.
        -11    1    1    2    0    0 -0.24415831685E+01 -0.28398506759E+02 -0.16466792284E+02  0.32917955019E+02  0.00000000000E+00 0.  1.
         11    1    1    2    0    0 -0.27011823472E+02  0.51652246939E+02 -0.14100728085E+03  0.15257996747E+03  0.00000000000E+00 0. -1.
</event>
<event>
 7    1  0.2788485E-009  0.1548889E+03  0.7561462E-02  0.1194591E+00
         -2   -1    0    0    0  501 -0.00000000000E+00  0.00000000000E+00  0.35434509093E+02  0.35434509093E+02  0.00000000000E+00 0.  1.
          2   -1    0    0  501    0  0.00000000000E+00 -0.00000000000E+00 -0.96268115683E+03  0.96268115683E+03  0.00000000000E+00 0. -1.
         25    2    1    2    0    0 -0.13746937339E+03  0.34160306362E+02 -0.60674697913E+03  0.63549590742E+03  0.12509355109E+03 0.  0.
          5    1    3    3  502    0 -0.11911011307E+03  0.42575946699E+02 -0.27078182018E+03  0.29889830514E+03  0.41800000000E+01 0.  1.
         -5    1    3    3    0  502 -0.18359260323E+02 -0.84156403367E+01 -0.33596515894E+03  0.33659760229E+03  0.41800000000E+01 0.  1.
        -11    1    1    2    0    0  0.53341202128E+02 -0.54270101099E+02 -0.20239694481E+03  0.21622916313E+03  0.00000000000E+00 0. -1.
         11    1    1    2    0    0  0.84128171263E+02  0.20109794737E+02 -0.11810272380E+03  0.14639059537E+03  0.00000000000E+00 0.  1.
</event>
<event>
 7    1  0.2788485E-009  0.1037195E+03  0.7561462E-02  0.1272663E+00
         -1   -1    0    0    0  501 -0.00000000000E+00  0.00000000000E+00  0.15337042410E+03  0.15337042410E+03  0.00000000000E+00 0.  1.
          1   -1    0    0  501    0  0.00000000000E+00 -0.00000000000E+00 -0.10015206655E+03  0.10015206655E+03  0.00000000000E+00 0. -1.
         25    2    1    2    0    0 -0.15142844665E+02 -0.41833615242E+02 -0.12718863548E+02  0.13337358434E+03  0.12508951355E+03 0.  0.
          5    1    3    3  502    0 -0.55858217907E+02 -0.93353552242E+01 -0.44553566148E+02  0.72178819756E+02  0.41800000000E+01 0. -1.
         -5    1    3    3    0  502  0.40715373242E+02 -0.32498260018E+02  0.31834702600E+02  0.61194764580E+02  0.41800000000E+01 0. -1.
        -11    1    1    2    0    0 -0.69973828973E+01  0.65563146523E+02  0.55117687912E+02  0.85938635491E+02  0.00000000000E+00 0.  1.
         11    1    1    2    0    0  0.22140227562E+02 -0.23729531281E+02  0.10819533194E+02  0.34210270824E+02  0.00000000000E+00 0. -1.
</event>
<event>
 7    1  0.2788485E-009  0.1334535E+03  0.7561462E-02  0.1222419E+00
          1   -1    0    0  501    0  0.00000000000E+00  0.00000000000E+00  0.13269791342E+03  0.13269791342E+03  0.00000000000E+00 0. -1.
         -1   -1    0    0    0  501 -0.00000000000E+00 -0.00000000000E+00 -0.17035586278E+03  0.17035586278E+03  0.00000000000E+00 0.  1.
         25    2    1    2    0    0  0.52928004514E+02 -0.86724913972E+02 -0.35259439113E+02  0.16496482876E+03  0.12509029665E+03 0.  0.
          5    1    3    3  502    0  0.22724937737E+02 -0.11413224426E+03 -0.10151862755E+02  0.11688936946E+03  0.41800000000E+01 0. -1.
         -5    1    3    3    0  502  0.30203066777E+02  0.27407330289E+02 -0.25107576359E+02  0.48075459300E+02  0.41800000000E+01 0. -1.
        -11    1    1    2    0    0 -0.57553558639E+02  0.63172113651E+02 -0.39304896617E+02  0.94063823829E+02  0.00000000000E+00 0.  1.
         11    1    1    2    0    0  0.46255541255E+01  0.23552800321E+02  0.36906386374E+02  0.44025123613E+02  0.00000000000E+00 0. -1.
</event>
<event>
 7    1  0.2788485E-009  0.1086208E+03  0.7561462E-02  0.1263146E+00
         -2   -1    0    0    0  501 -0.00000000000E+00  0.00000000000E+00  0.65058708830E+02  0.65058708830E+02  0.00000000000E+00 0.  1.
          2   -1    0    0  501    0  0.00000000000E+00 -0.00000000000E+00 -0.24183010951E+03  0.24183010951E+03  0.00000000000E+00 0. -1.
         25    2    1    2    0    0 -0.22893162401E+02  0.85156632681E+01 -0.16840613327E+03  0.21119873428E+03  0.12509063208E+03 0.  0.
          5    1    3    3  502    0 -0.71789255039E+02 -0.14300523254E+02 -0.98484644823E+02  0.12277988341E+03  0.41800000000E+01 0. -1.
         -5    1    3    3    0  502  0.48896092638E+02  0.22816186522E+02 -0.69921488447E+02  0.88418850871E+02  0.41800000000E+01 0. -1.
        -11    1    1    2    0    0  0.30863177928E+02 -0.43827138618E+02  0.10873727676E+02  0.54695445741E+02  0.00000000000E+00 0.  1.
         11    1    1    2    0    0 -0.79700155264E+01  0.35311475350E+02 -0.19238995084E+02  0.40994638317E+02  0.00000000000E+00 0. -1.
</event>
<event>
 7    1  0.2788485E-009  0.2300104E+03  0.7561462E-02  0.1126632E+00
         -1   -1    0    0    0  501 -0.00000000000E+00  0.00000000000E+00  0.69509509963E+03  0.69509509963E+03  0.00000000000E+00 0.  1.
          1   -1    0    0  501    0  0.00000000000E+00 -0.00000000000E+00 -0.14120513132E+03  0.14120513132E+03  0.00000000000E+00 0. -1.
         25    2    1    2    0    0 -0.21753031130E+03 -0.57561845896E+02  0.53451668420E+03  0.59328589147E+03  0.12508901188E+03 0.  0.
          5    1    3    3  502    0 -0.15367260920E+03 -0.45831915773E+02  0.48694713334E+03  0.51268978768E+03  0.41800000000E+01 0.  1.
         -5    1    3    3    0  502 -0.63857702093E+02 -0.11729930123E+02  0.47569550860E+02  0.80596103791E+02  0.41800000000E+01 0.  1.
        -11    1    1    2    0    0  0.10971076057E+03 -0.51166793685E+01 -0.21217616714E+02  0.11186071093E+03  0.00000000000E+00 0.  1.
         11    1    1    2    0    0  0.10781955073E+03  0.62678525265E+02  0.40590900824E+02  0.13115362854E+03  0.00000000000E+00 0. -1.
</event>
<event>
 7    1  0.2788485E-009  0.1278746E+03  0.7561462E-02  0.1230644E+00
         -2   -1    0    0    0  501 -0.00000000000E+00  0.00000000000E+00  0.14592911962E+03  0.14592911962E+03  0.00000000000E+00 0.  1.
          2   -1    0    0  501    0  0.00000000000E+00 -0.00000000000E+00 -0.13908846961E+03  0.13908846961E+03  0.00000000000E+00 0. -1.
         25    2    1    2    0    0  0.23465788614E+02  0.88618288033E+02  0.26018940791E+01  0.15511424633E+03  0.12509922203E+03 0.  0.
          5    1    3    3  502    0  0.18788337314E+02  0.10592915138E+03 -0.35030282505E+02  0.11321916721E+03  0.41800000000E+01 0.  1.
         -5    1    3    3    0  502  0.46774512995E+01 -0.17310863344E+02  0.37632176584E+02  0.41895079124E+02  0.41800000000E+01 0.  1.
        -11    1    1    2    0    0 -0.46875289187E+02 -0.10383968020E+02 -0.15516763782E+01  0.48036727904E+02  0.00000000000E+00 0.  1.
         11    1    1    2    0    0  0.23409500573E+02 -0.78234320013E+02  0.57904323106E+01  0.81866614998E+02  0.00000000000E+00 0. -1.
</event>
<event>
 7    1  0.2788485E-009  0.8771748E+02  0.7561462E-02  0.1308475E+00
         -2   -1    0    0    0  501 -0.00000000000E+00  0.00000000000E+00  0.65094891870E+02  0.65094891870E+02  0.00000000000E+00 0.  1.
          2   -1    0    0  501    0  0.00000000000E+00 -0.00000000000E+00 -0.21522205705E+03  0.21522205705E+03  0.00000000000E+00 0. -1.
         25    2    1    2    0    0 -0.10353288243E+02  0.45069493111E+02 -0.62073315249E+02  0.14710294430E+03  0.12509088684E+03 0.  0.
          5    1    3    3  502    0  0.25152585904E+02  0.31676873898E+02 -0.90691240926E+02  0.99390394397E+02  0.41800000000E+01 0.  1.
         -5    1    3    3    0  502 -0.35505874147E+02  0.13392619213E+02  0.28617925677E+02  0.47712549905E+02  0.41800000000E+01 0.  1.
        -11    1    1    2    0    0  0.12367103106E+02  0.24262517438E+02 -0.10548811668E+02  0.29204321928E+02  0.00000000000E+00 0. -1.
         11    1    1    2    0    0 -0.20138148629E+01 -0.69332010549E+02 -0.77505038264E+02  0.10400968269E+03  0.00000000000E+00 0.  1.
</event>
<event>
 7    1  0.2788485E-009  0.4860816E+03  0.7561462E-02  0.1017477E+00
         -2   -1    0    0    0  501 -0.00000000000E+00  0.00000000000E+00  0.11828603077E+03  0.11828603077E+03  0.00000000000E+00 0.  1.
          2   -1    0    0  501    0  0.00000000000E+00 -0.00000000000E+00 -0.20298864374E+04  0.20298864374E+04  0.00000000000E+00 0. -1.
         25    2    1    2    0    0  0.32603004684E+03  0.34817875799E+03 -0.10174628352E+04  0.11306650620E+04  0.12509525308E+03 0.  0.
          5    1    3    3  502    0  0.17985563593E+03  0.12262592277E+03 -0.54838259144E+03  0.59002212306E+03  0.41800000000E+01 0.  1.
         -5    1    3    3    0  502  0.14617441090E+03  0.22555283522E+03 -0.46908024377E+03  0.54064293889E+03  0.41800000000E+01 0.  1.
        -11    1    1    2    0    0 -0.34555477721E+02 -0.89445530647E+02 -0.17719525345E+03  0.20147640517E+03  0.00000000000E+00 0.  1.
         11    1    1    2    0    0 -0.29147456912E+03 -0.25873322734E+03 -0.71694231794E+03  0.81603100102E+03  0.00000000000E+00 0. -1.
</event>
<event>
 7    1  0.2788485E-009  0.2767987E+03  0.7561462E-02  0.1097450E+00
         -2   -1    0    0    0  501 -0.00000000000E+00  0.00000000000E+00  0.74742337257E+03  0.74742337257E+03  0.00000000000E+00 0.  1.
          2   -1    0    0  501    0  0.00000000000E+00 -0.00000000000E+00 -0.10373049201E+03  0.10373049201E+03  0.00000000000E+00 0. -1.
         25    2    1    2    0    0  0.82311309536E+02 -0.24242422207E+03  0.35004355594E+03  0.45135452908E+03  0.12508303137E+03 0.  0.
          5    1    3    3  502    0  0.74303662129E+02 -0.49944824116E+02  0.83825449803E+02  0.12271796159E+03  0.41800000000E+01 0. -1.
         -5    1    3    3    0  502  0.80076474075E+01 -0.19247939796E+03  0.26621810614E+03  0.32863656749E+03  0.41800000000E+01 0. -1.
        -11    1    1    2    0    0 -0.99286868251E+02  0.16980055979E+03  0.21562552824E+03  0.29186380512E+03  0.00000000000E+00 0. -1.
         11    1    1    2    0    0  0.16975558715E+02  0.72623662289E+02  0.78023796375E+02  0.10793553038E+03  0.00000000000E+00 0.  1.
</event>
<event>
 7    1  0.2788485E-009  0.1096595E+03  0.7561462E-02  0.1261202E+00
         -1   -1    0    0    0  501 -0.00000000000E+00  0.00000000000E+00  0.18187213568E+02  0.18187213568E+02  0.00000000000E+00 0.  1.
          1   -1    0    0  501    0  0.00000000000E+00 -0.00000000000E+00 -0.70887660431E+03  0.70887660431E+03  0.00000000000E+00 0. -1.
         25    2    1    2    0    0 -0.10032403545E+02  0.11515620334E+02 -0.31391421207E+03  0.33826536006E+03  0.12509221657E+03 0.  0.
          5    1    3    3  502    0 -0.69988513139E+01 -0.56852096372E+02 -0.13974321315E+03  0.15108534940E+03  0.41800000000E+01 0.  1.
         -5    1    3    3    0  502 -0.30335522310E+01  0.68367716706E+02 -0.17417099892E+03  0.18718001066E+03  0.41800000000E+01 0.  1.
        -11    1    1    2    0    0 -0.30768571269E+02  0.24163195230E+02 -0.11504413242E+03  0.12151426824E+03  0.00000000000E+00 0.  1.
         11    1    1    2    0    0  0.40800974814E+02 -0.35678815564E+02 -0.26173104626E+03  0.26728418958E+03  0.00000000000E+00 0. -1.
</event>
<event>
 7    1  0.2788485E-009  0.9821858E+02  0.7561462E-02  0.1284087E+00
         -1   -1    0    0    0  501 -0.00000000000E+00  0.00000000000E+00  0.56422116987E+02  0.56422116987E+02  0.00000000000E+00 0.  1.
          1   -1    0    0  501    0  0.00000000000E+00 -0.00000000000E+00 -0.27026969891E+03  0.27026969891E+03  0.00000000000E+00 0. -1.
         25    2    1    2    0    0  0.15842682857E+02  0.54234345437E+02 -0.13969781521E+03  0.19584467964E+03  0.12508918475E+03 0.  0.
          5    1    3    3  502    0 -0.37439391870E+02 -0.17670788864E+02 -0.73456669090E+02  0.84423453355E+02  0.41800000000E+01 0. -1.
         -5    1    3    3    0  502  0.53282074727E+02  0.71905134301E+02 -0.66241146124E+02  0.11142122628E+03  0.41800000000E+01 0. -1.
        -11    1    1    2    0    0  0.10165404355E+02 -0.13373592779E+02  0.19302551556E+02  0.25588609303E+02  0.00000000000E+00 0.  1.
         11    1    1    2    0    0 -0.26008087212E+02 -0.40860752658E+02 -0.93452318264E+02  0.10525852696E+03  0.00000000000E+00 0. -1.
</event>
<event>
 7    1  0.4337583E-009  0.1513045E+03  0.7561462E-02  0.1198879E+00
          1   -1    0    0  501    0  0.00000000000E+00  0.00000000000E+00  0.44703822752E+03  0.44703822752E+03  0.00000000000E+00 0. -1.
         -1   -1    0    0    0  501 -0.00000000000E+00 -0.00000000000E+00 -0.51707691795E+02  0.51707691795E+02  0.00000000000E+00 0.  1.
         25    2    1    2    0    0 -0.85013068446E+02  0.63309144764E+02  0.22532850618E+03  0.27866739253E+03  0.12508920954E+03 0.  0.
          5    1    3    3  502    0  0.71277103263E+00  0.75985179793E+02  0.89334865469E+02  0.11735606580E+03  0.41800000000E+01 0.  1.
         -5    1    3    3    0  502 -0.85725839478E+02 -0.12676035030E+02  0.13599364071E+03  0.16131132673E+03  0.41800000000E+01 0.  1.
        -11    1    1    2    0    0  0.70371635687E+02  0.43651572666E+01  0.87471651533E+02  0.11234995117E+03  0.00000000000E+00 0. -1.
         11    1    1    2    0    0  0.14641432759E+02 -0.67674302030E+02  0.82530378015E+02  0.10772857561E+03  0.00000000000E+00 0.  1.
</event>
<event>
 7    1  0.2788485E-009  0.1122900E+03  0.7561462E-02  0.1256387E+00
         -2   -1    0    0    0  501 -0.00000000000E+00  0.00000000000E+00  0.43789992054E+03  0.43789992054E+03  0.00000000000E+00 0.  1.
          2   -1    0    0  501    0  0.00000000000E+00 -0.00000000000E+00 -0.40335333589E+02  0.40335333589E+02  0.00000000000E+00 0. -1.
         25    2    1    2    0    0  0.57331030054E+02 -0.50189249197E+02  0.24290113293E+03  0.28364544420E+03  0.12509184585E+03 0.  0.
          5    1    3    3  502    0 -0.26847796299E+02 -0.23773633167E+02  0.15457062397E+03  0.15873103035E+03  0.41800000000E+01 0.  1.
         -5    1    3    3    0  502  0.84178826353E+02 -0.26415616030E+02  0.88330508959E+02  0.12491441386E+03  0.41800000000E+01 0.  1.
        -11    1    1    2    0    0 -0.48029446386E+02 -0.10835953417E+01  0.12658903840E+03  0.13539862090E+03  0.00000000000E+00 0.  1.
         11    1    1    2    0    0 -0.93015836685E+01  0.51272844539E+02  0.28074415625E+02  0.59191189028E+02  0.00000000000E+00 0. -1.
</event>
<event>
 7    1  0.2788485E-009  0.9511495E+02  0.7561462E-02  0.1290917E+00
         -3   -1    0    0    0  501 -0.00000000000E+00  0.00000000000E+00  0.45891481661E+03  0.45891481661E+03  0.00000000000E+00 0.  1.
          3   -1    0    0  501    0  0.00000000000E+00 -0.00000000000E+00 -0.55176926455E+02  0.55176926455E+02  0.00000000000E+00 0. -1.
         25    2    1    2    0    0 -0.59334657117E+02 -0.32073178959E+02  0.22717288355E+03  0.26796355856E+03  0.12509060456E+03 0.  0.
          5    1    3    3  502    0 -0.30125444822E+02  0.36699783121E+02  0.28197344144E+02  0.55380313502E+02  0.41800000000E+01 0. -1.
         -5    1    3    3    0  502 -0.29209212295E+02 -0.68772962079E+02  0.19897553941E+03  0.21258324506E+03  0.41800000000E+01 0. -1.
        -11    1    1    2    0    0  0.35234702342E+02  0.22454251746E+02  0.20407673530E+03  0.20830984509E+03  0.00000000000E+00 0.  1.
         11    1    1    2    0    0  0.24099954775E+02  0.96189272126E+01 -0.27511728693E+02  0.37818339421E+02  0.00000000000E+00 0. -1.
</event>
<event>
 7    1  0.3582449E-009  0.1296693E+03  0.7561462E-02  0.1227947E+00
         -1   -1    0    0    0  501 -0.00000000000E+00  0.00000000000E+00  0.51836652008E+02  0.51836652008E+02  0.00000000000E+00 0.  1.
          1   -1    0    0  501    0  0.00000000000E+00 -0.00000000000E+00 -0.34995398582E+03  0.34995398582E+03  0.00000000000E+00 0. -1.
         25    2    1    2    0    0  0.55674725705E+02 -0.55416050764E+02 -0.18307108655E+03  0.23522964567E+03  0.12508936689E+03 0.  0.
          5    1    3    3  502    0 -0.39607258496E+02 -0.67547685392E+01 -0.56300137610E+02  0.69293143373E+02  0.41800000000E+01 0.  1.
         -5    1    3    3    0  502  0.95281984201E+02 -0.48661282225E+02 -0.12677094894E+03  0.16593650230E+03  0.41800000000E+01 0.  1.
        -11    1    1    2    0    0 -0.22252696504E+02 -0.19659737511E+02 -0.64678205246E+01  0.30389479808E+02  0.00000000000E+00 0.  1.
         11    1    1    2    0    0 -0.33422029201E+02  0.75075788275E+02 -0.10857842674E+03  0.13617151234E+03  0.00000000000E+00 0. -1.
</event>
<event>
 7    1  0.2788485E-009  0.1324673E+03  0.7561462E-02  0.1223840E+00
         -2   -1    0    0    0  501 -0.00000000000E+00  0.00000000000E+00  0.27355053315E+02  0.27355053315E+02  0.00000000000E+00 0.  1.
          2   -1    0    0  501    0  0.00000000000E+00 -0.00000000000E+00 -0.10059125488E+04  0.10059125488E+04  0.00000000000E+00 0. -1.
         25    2    1    2    0    0  0.89566353948E+02  0.78375599060E+02 -0.62070851206E+03  0.64427588440E+03  0.12508993561E+03 0.  0.
          5    1    3    3  502    0  0.30467581327E+02 -0.12862935633E+02 -0.34179412406E+02  0.47743410618E+02  0.41800000000E+01 0.  1.
         -5    1    3    3    0  502  0.59098772621E+02  0.91238534693E+02 -0.58652909966E+03  0.59653247379E+03  0.41800000000E+01 0.  1.
        -11    1    1    2    0    0 -0.37296010784E+02 -0.52739164100E+02 -0.30016038837E+03  0.30703203513E+03  0.00000000000E+00 0. -1.
         11    1    1    2    0    0 -0.52270343164E+02 -0.25636434959E+02 -0.57688595105E+02  0.81959682632E+02  0.00000000000E+00 0.  1.
</event>
<event>
 7    1  0.2788485E-009  0.1433838E+03  0.7561462E-02  0.1208847E+00
         -2   -1    0    0    0  501 -0.00000000000E+00  0.00000000000E+00  0.25278714906E+02  0.25278714906E+02  0.00000000000E+00 0. -1.
          2   -1    0    0  501    0  0.00000000000E+00 -0.00000000000E+00 -0.91322987810E+03  0.91322987810E+03  0.00000000000E+00 0.  1.
         25    2    1    2    0    0  0.68956175008E+02 -0.65709693823E+02 -0.33009417723E+03  0.36562569735E+03  0.12508903544E+03 0.  0.
          5    1    3    3  502    0  0.33739574636E+01  0.35837081621E+02 -0.72982946769E+02  0.81484126841E+02  0.41800000000E+01 0.  1.
         -5    1    3    3    0  502  0.65582217544E+02 -0.10154677544E+03 -0.25711123047E+03  0.28414157051E+03  0.41800000000E+01 0.  1.
        -11    1    1    2    0    0 -0.83257219772E+01 -0.21673267409E+02 -0.12605897344E+03  0.12817922200E+03  0.00000000000E+00 0.  1.
         11    1    1    2    0    0 -0.60630453030E+02  0.87382961233E+02 -0.43179801252E+03  0.44470367366E+03  0.00000000000E+00 0. -1.
</event>
<event>
 7    1  0.2788485E-009  0.8931866E+02  0.7561462E-02  0.1304510E+00
          2   -1    0    0  501    0  0.00000000000E+00  0.00000000000E+00  0.36606093286E+02  0.36606093286E+02  0.00000000000E+00 0. -1.
         -2   -1    0    0    0  501 -0.00000000000E+00 -0.00000000000E+00 -0.40514256866E+03  0.40514256866E+03  0.00000000000E+00 0.  1.
         25    2    1    2    0    0  0.65588436130E+01  0.51276626809E+02 -0.24692959883E+03  0.28159153665E+03  0.12508899172E+03 0.  0.
          5    1    3    3  502    0 -0.26389128094E+02  0.29394213960E+02 -0.94854142160E+01  0.40839336169E+02  0.41800000000E+01 0.  1.
         -5    1    3    3    0  502  0.32947971707E+02  0.21882412849E+02 -0.23744418461E+03  0.24075220048E+03  0.41800000000E+01 0.  1.
        -11    1    1    2    0    0  0.25524351173E+02 -0.60579594763E+02 -0.55271066973E+02  0.85885217871E+02  0.00000000000E+00 0. -1.
         11    1    1    2    0    0 -0.32083194786E+02  0.93029679538E+01 -0.66335809570E+02  0.74271907420E+02  0.00000000000E+00 0.  1.
</event>
<event>
 7    1  0.2788485E-009  0.1544025E+03  0.7561462E-02  0.1195165E+00
         -2   -1    0    0    0  501 -0.00000000000E+00  0.00000000000E+00  0.30441025660E+02  0.30441025660E+02  0.00000000000E+00 0.  1.
          2   -1    0    0  501    0  0.00000000000E+00 -0.00000000000E+00 -0.10157637896E+04  0.10157637896E+04  0.00000000000E+00 0. -1.
         25    2    1    2    0    0 -0.13378428719E+03 -0.13719072369E+02 -0.44397265435E+03  0.48046354956E+03  0.12508819367E+03 0.  0.
          5    1    3    3  502    0 -0.45975336823E+02  0.20540343395E+02 -0.36815480216E+02  0.62517911724E+02  0.41800000000E+01 0.  1.
         -5    1    3    3    0  502 -0.87808950370E+02 -0.34259415763E+02 -0.40715717414E+03  0.41794563783E+03  0.41800000000E+01 0.  1.
        -11    1    1    2    0    0  0.72897011336E+02  0.54177259747E+02 -0.31936181749E+03  0.33202578244E+03  0.00000000000E+00 0. -1.
         11    1    1    2    0    0  0.60887275857E+02 -0.40458187378E+02 -0.22198829211E+03  0.23371548327E+03  0.00000000000E+00 0.  1.
</event>
<event>
 7    1  0.2788485E-009  0.1020621E+03  0.7561462E-02  0.1276018E+00
          2   -1    0    0  501    0  0.00000000000E+00  0.00000000000E+00  0.11435037821E+03  0.11435037821E+03  0.00000000000E+00 0. -1.
         -2   -1    0    0    0  501 -0.00000000000E+00 -0.00000000000E+00 -0.14381850908E+03  0.14381850908E+03  0.00000000000E+00 0.  1.
         25    2    1    2    0    0  0.17145930302E+02 -0.16501032209E+01 -0.81692369003E+02  0.15039057249E+03  0.12508787061E+03 0.  0.
          5    1    3    3  502    0 -0.54033283688E+02 -0.64357799753E+01 -0.39894203824E+02  0.67602033318E+02  0.41800000000E+01 0. -1.
         -5    1    3    3    0  502  0.71179213990E+02  0.47856767544E+01 -0.41798165180E+02  0.82788539174E+02  0.41800000000E+01 0. -1.
        -11    1    1    2    0    0 -0.46166644937E+02 -0.92537967510E+01  0.45834963363E-01  0.47084965328E+02  0.00000000000E+00 0.  1.
         11    1    1    2    0    0  0.29020714636E+02  0.10903899972E+02  0.52178403174E+02  0.60693349474E+02  0.00000000000E+00 0. -1.
</event>
<event>
 7    1  0.2788485E-009  0.1143177E+03  0.7561462E-02  0.1252777E+00
          1   -1    0    0  501    0  0.00000000000E+00  0.00000000000E+00  0.20530691746E+03  0.20530691746E+03  0.00000000000E+00 0. -1.
         -1   -1    0    0    0  501 -0.00000000000E+00 -0.00000000000E+00 -0.11463254928E+03  0.11463254928E+03  0.00000000000E+00 0.  1.
         25    2    1    2    0    0 -0.73874324090E+02 -0.25418363979E+02 -0.33031123562E+02  0.15113724664E+03  0.12509157930E+03 0.  0.
          5    1    3    3  502    0 -0.44493558543E+02 -0.57135500234E+02  0.26689461851E+02  0.77291279668E+02  0.41800000000E+01 0.  1.
         -5    1    3    3    0  502 -0.29380765546E+02  0.31717136255E+02 -0.59720585412E+02  0.73845966974E+02  0.41800000000E+01 0.  1.
        -11    1    1    2    0    0  0.91813093340E+02  0.20838064896E+02  0.89462522287E+02  0.12987460087E+03  0.00000000000E+00 0.  1.
         11    1    1    2    0    0 -0.17938769250E+02  0.45802990822E+01  0.34242969450E+02  0.38927619227E+02  0.00000000000E+00 0. -1.
</event>
<event>
 7    1  0.2788485E-009  0.1081600E+03  0.7561462E-02  0.1264016E+00
          2   -1    0    0  501    0  0.00000000000E+00  0.00000000000E+00  0.18437369661E+03  0.18437369661E+03  0.00000000000E+00 0. -1.
         -2   -1    0    0    0  501 -0.00000000000E+00 -0.00000000000E+00 -0.80369343654E+02  0.80369343654E+02  0.00000000000E+00 0.  1.
         25    2    1    2    0    0  0.38269337051E+02  0.18368011101E+02  0.19271502671E+02  0.13349614440E+03  0.12509158151E+03 0.  0.
          5    1    3    3  502    0  0.22314848572E+02 -0.45439071510E+02 -0.22408288650E+02  0.55518154568E+02  0.41800000000E+01 0. -1.
         -5    1    3    3    0  502  0.15954488479E+02  0.63807082611E+02  0.41679791321E+02  0.77977989834E+02  0.41800000000E+01 0. -1.
        -11    1    1    2    0    0  0.28704020446E+01 -0.48526243223E+02  0.34135556233E+02  0.59399256633E+02  0.00000000000E+00 0.  1.
         11    1    1    2    0    0 -0.41139739095E+02  0.30158232122E+02  0.50597294051E+02  0.71847639229E+02  0.00000000000E+00 0. -1.
</event>
<event>
 7    1  0.2788485E-009  0.6393293E+02  0.7561462E-02  0.1382031E+00
          2   -1    0    0  501    0  0.00000000000E+00  0.00000000000E+00  0.10222770760E+04  0.10222770760E+04  0.00000000000E+00 0.  1.
         -2   -1    0    0    0  501 -0.00000000000E+00 -0.00000000000E+00 -0.15612464746E+02  0.15612464746E+02  0.00000000000E+00 0. -1.
         25    2    1    2    0    0 -0.32296816443E+01 -0.31671874990E+01  0.82412422100E+03  0.83357579589E+03  0.12508962366E+03 0.  0.
          5    1    3    3  502    0 -0.76237136253E+00 -0.25972085576E+02  0.79849219721E+03  0.79892577367E+03  0.41800000000E+01 0.  1.
         -5    1    3    3    0  502 -0.24673102817E+01  0.22804898077E+02  0.25632023788E+02  0.34650022219E+02  0.41800000000E+01 0.  1.
        -11    1    1    2    0    0 -0.29547771603E+02  0.25120357857E+02  0.14411705062E+03  0.14924418738E+03  0.00000000000E+00 0.  1.
         11    1    1    2    0    0  0.32777453247E+02 -0.21953170358E+02  0.38423339586E+02  0.55069557426E+02  0.00000000000E+00 0. -1.
</event>
<event>
 7    1  0.2788485E-009  0.9395614E+02  0.7561462E-02  0.1293545E+00
          2   -1    0    0  501    0  0.00000000000E+00  0.00000000000E+00  0.61609817595E+03  0.61609817595E+03  0.00000000000E+00 0.  1.
         -2   -1    0    0    0  501 -0.00000000000E+00 -0.00000000000E+00 -0.24341073406E+02  0.24341073406E+02  0.00000000000E+00 0. -1.
         25    2    1    2    0    0  0.29710502999E+02 -0.43412418084E+02  0.38358969951E+03  0.40688547820E+03  0.12508949905E+03 0.  0.
          5    1    3    3  502    0 -0.29203864273E+01  0.24800442400E+02  0.26480723915E+03  0.26601491858E+03  0.41800000000E+01 0.  1.
         -5    1    3    3    0  502  0.32630889426E+02 -0.68212860484E+02  0.11878246036E+03  0.14087055962E+03  0.41800000000E+01 0.  1.
        -11    1    1    2    0    0 -0.52396264881E+02  0.32804194933E+02  0.19637023527E+03  0.20587071934E+03  0.00000000000E+00 0.  1.
         11    1    1    2    0    0  0.22685761882E+02  0.10608223151E+02  0.11797167760E+02  0.27683051814E+02  0.00000000000E+00 0. -1.
</event>
<event>
 7    1  0.2788485E-009  0.1136400E+03  0.7561462E-02  0.1253974E+00
         -4   -1    0    0    0  501 -0.00000000000E+00  0.00000000000E+00  0.56556320370E+03  0.56556320370E+03  0.00000000000E+00 0.  1.
          4   -1    0    0  501    0  0.00000000000E+00 -0.00000000000E+00 -0.30365034778E+02  0.30365034778E+02  0.00000000000E+00 0. -1.
         25    2    1    2    0    0 -0.57892339303E+02 -0.26455156087E+02  0.36900931238E+03  0.39479931415E+03  0.12508887876E+03 0.  0.
          5    1    3    3  502    0 -0.16954865070E+02 -0.61613665239E+02  0.30173033576E+03  0.30845158310E+03  0.41800000000E+01 0. -1.
         -5    1    3    3    0  502 -0.40937474233E+02  0.35158509153E+02  0.67278976620E+02  0.86347731050E+02  0.41800000000E+01 0. -1.
        -11    1    1    2    0    0 -0.29139350415E+01  0.45347701072E+02  0.96903995177E+02  0.10702938518E+03  0.00000000000E+00 0.  1.
         11    1    1    2    0    0  0.60806274345E+02 -0.18892544986E+02  0.69284861361E+02  0.94099539157E+02  0.00000000000E+00 0. -1.
</event>
<event>
 7    1  0.2788485E-009  0.1149293E+03  0.7561462E-02  0.1251704E+00
          3   -1    0    0  501    0  0.00000000000E+00  0.00000000000E+00  0.11784792277E+03  0.11784792277E+03  0.00000000000E+00 0. -1.
         -3   -1    0    0    0  501 -0.00000000000E+00 -0.00000000000E+00 -0.12054008516E+03  0.12054008516E+03  0.00000000000E+00 0.  1.
         25    2    1    2    0    0 -0.30868304123E+02 -0.28891776949E+02 -0.19171413248E+02  0.13342557059E+03  0.12508897964E+03 0.  0.
          5    1    3    3  502    0 -0.72646385972E+02 -0.40835341641E+02  0.48831143431E+01  0.83584327044E+02  0.41800000000E+01 0. -1.
         -5    1    3    3    0  502  0.41778081850E+02  0.11943564692E+02 -0.24054527591E+02  0.49841243546E+02  0.41800000000E+01 0. -1.
        -11    1    1    2    0    0  0.50896791649E+02 -0.16210073109E+02  0.15440052486E+02  0.55602563710E+02  0.00000000000E+00 0.  1.
         11    1    1    2    0    0 -0.20028487526E+02  0.45101850058E+02  0.10391983692E+01  0.49359873627E+02  0.00000000000E+00 0. -1.
</event>
<event>
 7    1  0.2788485E-009  0.1796837E+03  0.7561462E-02  0.1168110E+00
         -1   -1    0    0    0  501 -0.00000000000E+00  0.00000000000E+00  0.13892041603E+03  0.13892041603E+03  0.00000000000E+00 0.  1.
          1   -1    0    0  501    0  0.00000000000E+00 -0.00000000000E+00 -0.35594189511E+03  0.35594189511E+03  0.00000000000E+00 0. -1.
         25    2    1    2    0    0  0.17605607007E+03  0.21955887919E+02 -0.19824889437E+03  0.29398764132E+03  0.12509319847E+03 0.  0.
          5    1    3    3  502    0  0.70561690128E+02  0.66909916822E+01 -0.16910100981E+03  0.18340214122E+03  0.41800000000E+01 0.  1.
         -5    1    3    3    0  502  0.10549437995E+03  0.15264896237E+02 -0.29147884557E+02  0.11058550010E+03  0.41800000000E+01 0.  1.
        -11    1    1    2    0    0 -0.53066627016E+02 -0.25007380953E+02 -0.46385443908E+02  0.74786666001E+02  0.00000000000E+00 0.  1.
         11    1    1    2    0    0 -0.12298944306E+03  0.30514930335E+01  0.27612859199E+02  0.12608800382E+03  0.00000000000E+00 0. -1.
</event>
<event>
 7    1  0.2788485E-009  0.1350678E+03  0.7561462E-02  0.1220124E+00
          1   -1    0    0  501    0  0.00000000000E+00  0.00000000000E+00  0.89121930135E+02  0.89121930135E+02  0.00000000000E+00 0. -1.
         -1   -1    0    0    0  501 -0.00000000000E+00 -0.00000000000E+00 -0.42630491515E+03  0.42630491515E+03  0.00000000000E+00 0.  1.
         25    2    1    2    0    0 -0.23519436945E+02 -0.86004064607E+02 -0.35407201256E+03  0.38595924246E+03  0.12509070196E+03 0.  0.
          5    1    3    3  502    0 -0.74510491685E+02 -0.40881214716E+02 -0.20854328121E+03  0.22523512077E+03  0.41800000000E+01 0.  1.
         -5    1    3    3    0  502  0.50991054740E+02 -0.45122849891E+02 -0.14552873135E+03  0.16072412169E+03  0.41800000000E+01 0.  1.
        -11    1    1    2    0    0 -0.27571605399E+02  0.24636533818E+02 -0.19401759378E+02  0.41756203010E+02  0.00000000000E+00 0.  1.
         11    1    1    2    0    0  0.51091042343E+02  0.61367530789E+02  0.36290786922E+02  0.87711399819E+02  0.00000000000E+00 0. -1.
</event>
<event>
 7    1  0.2788485E-009  0.2103447E+03  0.7561462E-02  0.1141293E+00
          3   -1    0    0  501    0  0.00000000000E+00  0.00000000000E+00  0.32883638986E+03  0.32883638986E+03  0.00000000000E+00 0. -1.
         -3   -1    0    0    0  501 -0.00000000000E+00 -0.00000000000E+00 -0.25601163578E+03  0.25601163578E+03  0.00000000000E+00 0.  1.
         25    2    1    2    0    0 -0.18297214985E+03 -0.65821850339E+02  0.21729502425E+03  0.31729563952E+03  0.12509225273E+03 0.  0.
          5    1    3    3  502    0 -0.13685640384E+03 -0.39646741365E+02  0.22207872229E+03  0.26389007308E+03  0.41800000000E+01 0. -1.
         -5    1    3    3    0  502 -0.46115746016E+02 -0.26175108974E+02 -0.47836980472E+01  0.53405566447E+02  0.41800000000E+01 0. -1.
        -11    1    1    2    0    0  0.43991242996E+02  0.73611323214E+02 -0.61120546480E+02  0.10530706324E+03  0.00000000000E+00 0.  1.
         11    1    1    2    0    0  0.13898090686E+03 -0.77894728752E+01 -0.83349723679E+02  0.16224532288E+03  0.00000000000E+00 0. -1.
</event>
<event>
 7    1  0.2788485E-009  0.9841661E+02  0.7561462E-02  0.1283661E+00
         -1   -1    0    0    0  501 -0.00000000000E+00  0.00000000000E+00  0.35290974968E+02  0.35290974968E+02  0.00000000000E+00 0.  1.
          1   -1    0    0  501    0  0.00000000000E+00 -0.00000000000E+00 -0.61189124874E+03  0.61189124874E+03  0.00000000000E+00 0. -1.
         25    2    1    2    0    0 -0.61560341834E+02  0.61268257982E+01 -0.14337783637E+03  0.20007915120E+03  0.12508896475E+03 0.  0.
          5    1    3    3  502    0  0.76346482714E+01  0.32147982559E+02 -0.11672598154E+03  0.12138454516E+03  0.41800000000E+01 0. -1.
         -5    1    3    3    0  502 -0.69194990105E+02 -0.26021156760E+02 -0.26651854830E+02  0.78694606046E+02  0.41800000000E+01 0. -1.
        -11    1    1    2    0    0 -0.13850164254E+02 -0.15054596642E+01 -0.98989514657E+01  0.17090427110E+02  0.00000000000E+00 0.  1.
         11    1    1    2    0    0  0.75410506088E+02 -0.46213661340E+01 -0.42332348594E+03  0.43001264539E+03  0.00000000000E+00 0. -1.
</event>
<event>
 7    1  0.2788485E-009  0.1307508E+03  0.7561462E-02  0.1226346E+00
          2   -1    0    0  501    0  0.00000000000E+00  0.00000000000E+00  0.70850990280E+03  0.70850990280E+03  0.00000000000E+00 0. -1.
         -2   -1    0    0    0  501 -0.00000000000E+00 -0.00000000000E+00 -0.33363234296E+02  0.33363234296E+02  0.00000000000E+00 0.  1.
         25    2    1    2    0    0  0.73419449068E+02 -0.74573183575E+02  0.30179655326E+03  0.34304552526E+03  0.12508995815E+03 0.  0.
          5    1    3    3  502    0  0.34619589730E+02 -0.99002187363E+02  0.26180264587E+03  0.28206036034E+03  0.41800000000E+01 0. -1.
         -5    1    3    3    0  502  0.38799859338E+02  0.24429003789E+02  0.39993907395E+02  0.60985164913E+02  0.41800000000E+01 0. -1.
        -11    1    1    2    0    0 -0.53569228326E+02  0.29287386122E+02  0.76441665569E+02  0.97830166331E+02  0.00000000000E+00 0.  1.
         11    1    1    2    0    0 -0.19850220742E+02  0.45285797453E+02  0.29690844967E+03  0.30099744551E+03  0.00000000000E+00 0. -1.
</event>
<event>
 7    1  0.2788485E-009  0.7506592E+02  0.7561462E-02  0.1343667E+00
         -1   -1    0    0    0  501 -0.00000000000E+00  0.00000000000E+00  0.74072093039E+02  0.74072093039E+02  0.00000000000E+00 0.  1.
          1   -1    0    0  501    0  0.00000000000E+00 -0.00000000000E+00 -0.21662340381E+03  0.21662340381E+03  0.00000000000E+00 0. -1.
         25    2    1    2    0    0  0.16697445333E+02 -0.13967060095E+02 -0.16004362439E+03  0.20429168471E+03  0.12508895748E+03 0.  0.
          5    1    3    3  502    0 -0.16444746014E+02 -0.47360205013E+02 -0.14688263108E+03  0.15525913308E+03  0.41800000000E+01 0. -1.
         -5    1    3    3    0  502  0.33142191347E+02  0.33393144917E+02 -0.13160993311E+02  0.49032551633E+02  0.41800000000E+01 0. -1.
        -11    1    1    2    0    0  0.15616697495E+02 -0.32865847355E+01  0.40236297320E+02  0.43285592313E+02  0.00000000000E+00 0.  1.
         11    1    1    2    0    0 -0.32314142828E+02  0.17253644831E+02 -0.22743983703E+02  0.43118219830E+02  0.00000000000E+00 0. -1.
</event>
<event>
 7    1  0.2788485E-009  0.1552465E+03  0.7561462E-02  0.1194170E+00
         -2   -1    0    0    0  501 -0.00000000000E+00  0.00000000000E+00  0.12460071112E+03  0.12460071112E+03  0.00000000000E+00 0.  1.
          2   -1    0    0  501    0  0.00000000000E+00 -0.00000000000E+00 -0.27461407520E+03  0.27461407520E+03  0.00000000000E+00 0. -1.
         25    2    1    2    0    0  0.98298646372E+02 -0.10649012954E+03 -0.10866577454E+03  0.22013301103E+03  0.12509004926E+03 0.  0.
          5    1    3    3  502    0  0.88395590562E+02 -0.83384920104E+02 -0.13622564301E+03  0.18259716193E+03  0.41800000000E+01 0. -1.
         -5    1    3    3    0  502  0.99030558096E+01 -0.23105209431E+02  0.27559868476E+02  0.37535849100E+02  0.41800000000E+01 0. -1.
        -11    1    1    2    0    0 -0.78192529474E+01  0.62184798837E+02 -0.46753893793E+02  0.78192176769E+02  0.00000000000E+00 0. -1.
         11    1    1    2    0    0 -0.90479393424E+02  0.44305330698E+02  0.54063042487E+01  0.10088959851E+03  0.00000000000E+00 0.  1.
</event>
<event>
 7    1  0.2788485E-009  0.1072397E+03  0.7561462E-02  0.1265769E+00
         -1   -1    0    0    0  501 -0.00000000000E+00  0.00000000000E+00  0.40757166805E+02  0.40757166805E+02  0.00000000000E+00 0.  1.
          1   -1    0    0  501    0  0.00000000000E+00 -0.00000000000E+00 -0.43914593500E+03  0.43914593500E+03  0.00000000000E+00 0. -1.
         25    2    1    2    0    0  0.39965348719E+02  0.53335448308E+01 -0.99434572018E+02  0.16480413458E+03  0.12508993910E+03 0.  0.
          5    1    3    3  502    0  0.24523171144E+02  0.64727111955E+02 -0.60346502704E+02  0.91924739508E+02  0.41800000000E+01 0.  1.
         -5    1    3    3    0  502  0.15442177575E+02 -0.59393567124E+02 -0.39088069314E+02  0.72879395077E+02  0.41800000000E+01 0.  1.
        -11    1    1    2    0    0 -0.41757787351E+02  0.27979362777E+02 -0.25506073057E+03  0.25996640903E+03  0.00000000000E+00 0. -1.
         11    1    1    2    0    0  0.17924386318E+01 -0.33312907608E+02 -0.43893465604E+02  0.55132558187E+02  0.00000000000E+00 0.  1.
</event>
<event>
 7    1  0.2788485E-009  0.8647560E+02  0.7561462E-02  0.1311618E+00
          1   -1    0    0  501    0  0.00000000000E+00  0.00000000000E+00  0.55042171956E+02  0.55042171956E+02  0.00000000000E+00 0. -1.
         -1   -1    0    0    0  501 -0.00000000000E+00 -0.00000000000E+00 -0.24628711696E+03  0.24628711696E+03  0.00000000000E+00 0.  1.
         25    2    1    2    0    0 -0.17075242072E+02  0.35349259695E+02 -0.84790540891E+02  0.15613454854E+03  0.12508967731E+03 0.  0.
          5    1    3    3  502    0 -0.50406479603E+02  0.14814652231E+02  0.98627902463E+01  0.53619344813E+02  0.41800000000E+01 0. -1.
         -5    1    3    3    0  502  0.33331237531E+02  0.20534607463E+02 -0.94653331138E+02  0.10251520372E+03  0.41800000000E+01 0. -1.
        -11    1    1    2    0    0 -0.27348286094E+02 -0.71860890955E+01 -0.21251883577E+01  0.28356393535E+02  0.00000000000E+00 0. -1.
         11    1    1    2    0    0  0.44423528166E+02 -0.28163170599E+02 -0.10432921575E+03  0.11683834684E+03  0.00000000000E+00 0.  1.
</event>
<event>
 7    1  0.2788485E-009  0.8303639E+02  0.7561462E-02  0.1320649E+00
         -2   -1    0    0    0  501 -0.00000000000E+00  0.00000000000E+00  0.43265547884E+02  0.43265547884E+02  0.00000000000E+00 0.  1.
          2   -1    0    0  501    0  0.00000000000E+00 -0.00000000000E+00 -0.34387204702E+03  0.34387204702E+03  0.00000000000E+00 0. -1.
         25    2    1    2    0    0  0.15957193505E+02  0.27014546595E+02 -0.23535871119E+03  0.26837599468E+03  0.12509010288E+03 0.  0.
          5    1    3    3  502    0  0.29015727920E+02 -0.44756720655E+02 -0.12558806648E+03  0.13650974819E+03  0.41800000000E+01 0. -1.
         -5    1    3    3    0  502 -0.13058534414E+02  0.71771267250E+02 -0.10977064471E+03  0.13186624649E+03  0.41800000000E+01 0. -1.
        -11    1    1    2    0    0 -0.17337521375E+02 -0.58597842025E+01  0.22205656425E+02  0.28775300096E+02  0.00000000000E+00 0.  1.
         11    1    1    2    0    0  0.13803278699E+01 -0.21154762392E+02 -0.87453444380E+02  0.89986300129E+02  0.00000000000E+00 0. -1.
</event>
<event>
 7    1  0.2788485E-009  0.2157275E+03  0.7561462E-02  0.1137109E+00
          4   -1    0    0  501    0  0.00000000000E+00  0.00000000000E+00  0.27256601999E+03  0.27256601999E+03  0.00000000000E+00 0. -1.
         -4   -1    0    0    0  501 -0.00000000000E+00 -0.00000000000E+00 -0.30882722713E+03  0.30882722713E+03  0.00000000000E+00 0.  1.
         25    2    1    2    0    0 -0.47592962810E+02  0.20945772224E+03 -0.18069686643E+03  0.30729796213E+03  0.12507218906E+03 0.  0.
          5    1    3    3  502    0 -0.48925132330E+02  0.18173903989E+03 -0.19888717999E+03  0.27385457812E+03  0.41800000000E+01 0.  1.
         -5    1    3    3    0  502  0.13321695198E+01  0.27718682346E+02  0.18190313555E+02  0.33443384007E+02  0.41800000000E+01 0.  1.
        -11    1    1    2    0    0  0.13203014923E+02 -0.84781183015E+02  0.81163500580E+01  0.86186099428E+02  0.00000000000E+00 0.  1.
         11    1    1    2    0    0  0.34389947887E+02 -0.12467653922E+03  0.13631930924E+03  0.18790918556E+03  0.00000000000E+00 0. -1.
</event>
<event>
 7    1  0.2788485E-009  0.1084636E+03  0.7561462E-02  0.1263442E+00
          1   -1    0    0  501    0  0.00000000000E+00  0.00000000000E+00  0.14379467739E+03  0.14379467739E+03  0.00000000000E+00 0. -1.
         -1   -1    0    0    0  501 -0.00000000000E+00 -0.00000000000E+00 -0.12090257426E+03  0.12090257426E+03  0.00000000000E+00 0.  1.
         25    2    1    2    0    0 -0.68285803757E+02  0.25195380947E+02  0.16126443068E+02  0.14561629271E+03  0.12508510831E+03 0.  0.
          5    1    3    3  502    0  0.14635468328E+02  0.54011260076E+02 -0.77809536032E+00  0.56120325913E+02  0.41800000000E+01 0. -1.
         -5    1    3    3    0  502 -0.82921272085E+02 -0.28815879130E+02  0.16904538429E+02  0.89495966802E+02  0.41800000000E+01 0. -1.
        -11    1    1    2    0    0  0.19545519035E+02 -0.94246988977E+01 -0.42682047188E+02  0.47881201069E+02  0.00000000000E+00 0.  1.
         11    1    1    2    0    0  0.48740284722E+02 -0.15770682049E+02  0.49447707256E+02  0.71199757864E+02  0.00000000000E+00 0. -1.
</event>
<event>
 7    1  0.2788485E-009  0.1047879E+03  0.7561462E-02  0.1270538E+00
          1   -1    0    0  501    0  0.00000000000E+00  0.00000000000E+00  0.11948231482E+04  0.11948231482E+04  0.00000000000E+00 0. -1.
         -1   -1    0    0    0  501 -0.00000000000E+00 -0.00000000000E+00 -0.12665153423E+02  0.12665153423E+02  0.00000000000E+00 0.  1.
         25    2    1    2    0    0 -0.19626747344E+02 -0.54896928183E+02  0.67486911931E+03  0.68883551920E+03  0.12508861806E+03 0.  0.
          5    1    3    3  502    0 -0.52206041521E+02 -0.26961162052E+02  0.13555710839E+03  0.14780249343E+03  0.41800000000E+01 0.  1.
         -5    1    3    3    0  502  0.32579294177E+02 -0.27935766131E+02  0.53931201092E+03  0.54103302576E+03  0.41800000000E+01 0.  1.
        -11    1    1    2    0    0  0.56023590499E+02  0.35236287289E+02  0.28934956552E+03  0.29682218532E+03  0.00000000000E+00 0. -1.
         11    1    1    2    0    0 -0.36396843155E+02  0.19660640893E+02  0.21793930997E+03  0.22183059713E+03  0.00000000000E+00 0.  1.
</event>
<event>
 7    1  0.2788485E-009  0.1534560E+03  0.7561462E-02  0.1196289E+00
          1   -1    0    0  501    0  0.00000000000E+00  0.00000000000E+00  0.22501504713E+03  0.22501504713E+03  0.00000000000E+00 0. -1.
         -1   -1    0    0    0  501 -0.00000000000E+00 -0.00000000000E+00 -0.20596978725E+03  0.20596978725E+03  0.00000000000E+00 0.  1.
         25    2    1    2    0    0  0.10910129882E+03  0.10675279095E+03  0.11556668370E+03  0.22869568509E+03  0.12508719446E+03 0.  0.
          5    1    3    3  502    0  0.62932250289E+02  0.52682868623E+02  0.13210352619E+03  0.15557881219E+03  0.41800000000E+01 0. -1.
         -5    1    3    3    0  502  0.46169048527E+02  0.54069922330E+02 -0.16536842486E+02  0.73116872896E+02  0.41800000000E+01 0. -1.
        -11    1    1    2    0    0 -0.77595993427E+02 -0.65118046634E+02 -0.10738945925E+02  0.10186669305E+03  0.00000000000E+00 0. -1.
         11    1    1    2    0    0 -0.31505305388E+02 -0.41634744319E+02 -0.85782477900E+02  0.10042245624E+03  0.00000000000E+00 0.  1.
</event>
<event>
 7    1  0.2788485E-009  0.8454238E+02  0.7561462E-02  0.1316634E+00
          1   -1    0    0  501    0  0.00000000000E+00  0.00000000000E+00  0.75282246082E+02  0.75282246082E+02  0.00000000000E+00 0. -1.
         -1   -1    0    0    0  501 -0.00000000000E+00 -0.00000000000E+00 -0.17893524886E+03  0.17893524886E+03  0.00000000000E+00 0.  1.
         25    2    1    2    0    0  0.26557981449E+02  0.65455747586E+01 -0.82338181350E+02  0.15223093817E+03  0.12508601641E+03 0.  0.
          5    1    3    3  502    0 -0.24835865014E+02 -0.16434323255E+02 -0.90340265150E+02  0.95214195786E+02  0.41800000000E+01 0.  1.
         -5    1    3    3    0  502  0.51393846463E+02  0.22979898014E+02  0.80020837999E+01  0.57016742384E+02  0.41800000000E+01 0.  1.
        -11    1    1    2    0    0  0.27744411307E+02 -0.52796082945E+01 -0.35964777230E+02  0.45728457483E+02  0.00000000000E+00 0.  1.
         11    1    1    2    0    0 -0.54302392757E+02 -0.12659664640E+01  0.14649955805E+02  0.56258099286E+02  0.00000000000E+00 0. -1.
</event>
<event>
 7    1  0.2926279E-009  0.2206306E+03  0.7561462E-02  0.1133414E+00
          1   -1    0    0  501    0  0.00000000000E+00  0.00000000000E+00  0.17834809973E+04  0.17834809973E+04  0.00000000000E+00 0. -1.
         -1   -1    0    0    0  501 -0.00000000000E+00 -0.00000000000E+00 -0.32529859714E+02  0.32529859714E+02  0.00000000000E+00 0.  1.
         25    2    1    2    0    0  0.73389848329E+02  0.19336425445E+03  0.11151339029E+04  0.11410294480E+04  0.12509506424E+03 0.  0.
          5    1    3    3  502    0  0.70706039142E+02  0.20746722411E+03  0.93852346235E+03  0.96378719375E+03  0.41800000000E+01 0. -1.
         -5    1    3    3    0  502  0.26838091867E+01 -0.14102969663E+02  0.17661044054E+03  0.17724225425E+03  0.41800000000E+01 0. -1.
        -11    1    1    2    0    0 -0.21139298308E+02 -0.69682999915E+02  0.10729816239E+03  0.12967453899E+03  0.00000000000E+00 0.  1.
         11    1    1    2    0    0 -0.52250550021E+02 -0.12368125454E+03  0.52851907232E+03  0.54530687003E+03  0.00000000000E+00 0. -1.
</event>
<event>
 7    1  0.2788485E-009  0.1403048E+03  0.7561462E-02  0.1212919E+00
         -2   -1    0    0    0  501 -0.00000000000E+00  0.00000000000E+00  0.14930717106E+03  0.14930717106E+03  0.00000000000E+00 0.  1.
          2   -1    0    0  501    0  0.00000000000E+00 -0.00000000000E+00 -0.19359024198E+03  0.19359024198E+03  0.00000000000E+00 0. -1.
         25    2    1    2    0    0  0.37522323006E+02 -0.96657291776E+02  0.56023299489E+02  0.17186221243E+03  0.12508978055E+03 0.  0.
          5    1    3    3  502    0  0.26706720073E+02 -0.12706886525E+03  0.43855455768E+02  0.13711498392E+03  0.41800000000E+01 0.  1.
         -5    1    3    3    0  502  0.10815602932E+02  0.30411573478E+02  0.12167843721E+02  0.34747228508E+02  0.41800000000E+01 0.  1.
        -11    1    1    2    0    0 -0.52008868109E+02  0.64320477740E+02 -0.22781522822E+02  0.85796526741E+02  0.00000000000E+00 0.  1.
         11    1    1    2    0    0  0.14486545103E+02  0.32336814036E+02 -0.77524847584E+02  0.85238673875E+02  0.00000000000E+00 0. -1.
</event>
<event>
 7    1  0.2788485E-009  0.2252955E+03  0.7561462E-02  0.1129996E+00
         -2   -1    0    0    0  501 -0.00000000000E+00  0.00000000000E+00  0.41639211485E+03  0.41639211485E+03  0.00000000000E+00 0.  1.
          2   -1    0    0  501    0  0.00000000000E+00 -0.00000000000E+00 -0.15593189685E+03  0.15593189685E+03  0.00000000000E+00 0. -1.
         25    2    1    2    0    0 -0.21688241092E+03  0.13214336985E+02  0.22056549423E+03  0.33392793508E+03  0.12508449028E+03 0.  0.
          5    1    3    3  502    0 -0.18496359613E+03  0.36456210496E+02  0.22546046740E+03  0.29392257813E+03  0.41800000000E+01 0. -1.
         -5    1    3    3    0  502 -0.31918814790E+02 -0.23241873511E+02 -0.48949731652E+01  0.40005356943E+02  0.41800000000E+01 0. -1.
        -11    1    1    2    0    0  0.16945834166E+03  0.95208977071E+01 -0.41806029582E+01  0.16977707293E+03  0.00000000000E+00 0. -1.
         11    1    1    2    0    0  0.47424069268E+02 -0.22735234692E+02  0.44075326729E+02  0.68619003700E+02  0.00000000000E+00 0.  1.
</event>
<event>
 7    1  0.2788485E-009  0.1341619E+03  0.7561462E-02  0.1221408E+00
         -2   -1    0    0    0  501 -0.00000000000E+00  0.00000000000E+00  0.21942781267E+02  0.21942781267E+02  0.00000000000E+00 0.  1.
          2   -1    0    0  501    0  0.00000000000E+00 -0.00000000000E+00 -0.93491474929E+03  0.93491474929E+03  0.00000000000E+00 0. -1.
         25    2    1    2    0    0  0.42442941172E+02  0.82479822323E+02 -0.46122577194E+03  0.48680737440E+03  0.12509149739E+03 0.  0.
          5    1    3    3  502    0 -0.43600336562E+02  0.36286987554E+02 -0.19844090511E+03  0.20643158681E+03  0.41800000000E+01 0.  1.
         -5    1    3    3    0  502  0.86043277734E+02  0.46192834768E+02 -0.26278486684E+03  0.28037578759E+03  0.41800000000E+01 0.  1.
        -11    1    1    2    0    0  0.15921242120E+02 -0.49874306864E+01 -0.14294015027E+02  0.21969963156E+02  0.00000000000E+00 0.  1.
         11    1    1    2    0    0 -0.58364183291E+02 -0.77492391636E+02 -0.43745218105E+03  0.44808019300E+03  0.00000000000E+00 0. -1.
</event>
<event>
 7    1  0.2788485E-009  0.1440533E+03  0.7561462E-02  0.1207977E+00
         -1   -1    0    0    0  501 -0.00000000000E+00  0.00000000000E+00  0.10809266747E+03  0.10809266747E+03  0.00000000000E+00 0.  1.
          1   -1    0    0  501    0  0.00000000000E+00 -0.00000000000E+00 -0.28198257118E+03  0.28198257118E+03  0.00000000000E+00 0. -1.
         25    2    1    2    0    0  0.64864564080E+02  0.11292149934E+03 -0.46351060286E+02  0.18642344804E+03  0.12508638816E+03 0.  0.
          5    1    3    3  502    0  0.34560785013E+02  0.69580856415E+02  0.38147663615E+02  0.86652524946E+02  0.41800000000E+01 0.  1.
         -5    1    3    3    0  502  0.30303779067E+02  0.43340642927E+02 -0.84498723900E+02  0.99770923098E+02  0.41800000000E+01 0.  1.
        -11    1    1    2    0    0  0.11707409852E+02  0.79626509570E+01 -0.42854110160E+01  0.14792971415E+02  0.00000000000E+00 0.  1.
         11    1    1    2    0    0 -0.76571973932E+02 -0.12088415030E+03 -0.12325343241E+03  0.18885881919E+03  0.00000000000E+00 0. -1.
</event>
<event>
 7    1  0.2788485E-009  0.2410223E+03  0.7561462E-02  0.1119114E+00
         -2   -1    0    0    0  501 -0.00000000000E+00  0.00000000000E+00  0.14224894071E+03  0.14224894071E+03  0.00000000000E+00 0.  1.
          2   -1    0    0  501    0  0.00000000000E+00 -0.00000000000E+00 -0.45626886541E+03  0.45626886541E+03  0.00000000000E+00 0. -1.
         25    2    1    2    0    0  0.21227382997E+03  0.87309251707E+02 -0.13985022590E+03  0.29645949835E+03  0.12508822549E+03 0.  0.
          5    1    3    3  502    0  0.21072457143E+03  0.77643196276E+02 -0.84319578627E+02  0.23991784984E+03  0.41800000000E+01 0.  1.
         -5    1    3    3    0  502  0.15492585347E+01  0.96660554310E+01 -0.55530647273E+02  0.56541648509E+02  0.41800000000E+01 0.  1.
        -11    1    1    2    0    0 -0.21970125945E+03 -0.74515190765E+02 -0.16376097968E+03  0.28396974403E+03  0.00000000000E+00 0. -1.
         11    1    1    2    0    0  0.74274294871E+01 -0.12794060942E+02 -0.10408719132E+02  0.18088563739E+02  0.00000000000E+00 0.  1.
</event>
<event>
 7    1  0.2788485E-009  0.1465163E+03  0.7561462E-02  0.1204820E+00
          2   -1    0    0  501    0  0.00000000000E+00  0.00000000000E+00  0.39615977079E+03  0.39615977079E+03  0.00000000000E+00 0. -1.
         -2   -1    0    0    0  501 -0.00000000000E+00 -0.00000000000E+00 -0.11375411612E+03  0.11375411612E+03  0.00000000000E+00 0.  1.
         25    2    1    2    0    0  0.64954948074E+02 -0.95185833390E+02 -0.23689613746E+02  0.17171964213E+03  0.12508776734E+03 0.  0.
          5    1    3    3  502    0  0.96460464357E+02 -0.37796749050E+02 -0.64259065600E+01  0.10388445552E+03  0.41800000000E+01 0. -1.
         -5    1    3    3    0  502 -0.31505516283E+02 -0.57389084341E+02 -0.17263707186E+02  0.67835186618E+02  0.41800000000E+01 0. -1.
        -11    1    1    2    0    0 -0.28683029870E+02  0.87191847159E+01  0.17420813654E+02  0.34673118305E+02  0.00000000000E+00 0.  1.
         11    1    1    2    0    0 -0.36271918204E+02  0.86466648675E+02  0.28867445476E+03  0.30352112647E+03  0.00000000000E+00 0. -1.
</event>
<event>
 7    1  0.2788485E-009  0.2542160E+03  0.7561462E-02  0.1110669E+00
          3   -1    0    0  501    0  0.00000000000E+00  0.00000000000E+00  0.18777582506E+03  0.18777582506E+03  0.00000000000E+00 0. -1.
         -3   -1    0    0    0  501 -0.00000000000E+00 -0.00000000000E+00 -0.41322259208E+03  0.41322259208E+03  0.00000000000E+00 0.  1.
         25    2    1    2    0    0  0.23388713848E+03  0.39310369438E+01 -0.22761403668E+03  0.34953414743E+03  0.12508926383E+03 0.  0.
          5    1    3    3  502    0  0.52802671236E+02  0.51268083882E+02 -0.94345004720E+02  0.11972882205E+03  0.41800000000E+01 0.  1.
         -5    1    3    3    0  502  0.18108446725E+03 -0.47337046938E+02 -0.13326903196E+03  0.22980532538E+03  0.41800000000E+01 0.  1.
        -11    1    1    2    0    0 -0.11341119244E+03  0.38504046657E+02  0.23250309069E+02  0.12200506978E+03  0.00000000000E+00 0.  1.
         11    1    1    2    0    0 -0.12047594604E+03 -0.42435083601E+02 -0.21083039404E+02  0.12945919992E+03  0.00000000000E+00 0. -1.
</event>
<event>
 7    1  0.2788485E-009  0.1019396E+03  0.7561462E-02  0.1276269E+00
          3   -1    0    0  501    0  0.00000000000E+00  0.00000000000E+00  0.27887944274E+03  0.27887944274E+03  0.00000000000E+00 0. -1.
         -3   -1    0    0    0  501 -0.00000000000E+00 -0.00000000000E+00 -0.11285877901E+03  0.11285877901E+03  0.00000000000E+00 0.  1.
         25    2    1    2    0    0  0.85438794481E+01 -0.96405051152E+02  0.19767954056E+03  0.25316267357E+03  0.12508879553E+03 0.  0.
          5    1    3    3  502    0 -0.75456169371E+01 -0.18296441874E+02 -0.15521185911E+02  0.25496582757E+02  0.41800000000E+01 0.  1.
         -5    1    3    3    0  502  0.16089496385E+02 -0.78108609278E+02  0.21320072647E+03  0.22766609081E+03  0.41800000000E+01 0.  1.
        -11    1    1    2    0    0  0.14849382167E+02  0.42918491740E+02  0.29399043184E+02  0.54099952164E+02  0.00000000000E+00 0. -1.
         11    1    1    2    0    0 -0.23393261615E+02  0.53486559412E+02 -0.61057920016E+02  0.84475596022E+02  0.00000000000E+00 0.  1.
</event>
<event>
 7    1  0.2788485E-009  0.1146632E+03  0.7561462E-02  0.1252170E+00
          2   -1    0    0  501    0  0.00000000000E+00  0.00000000000E+00  0.88500660702E+02  0.88500660702E+02  0.00000000000E+00 0. -1.
         -2   -1    0    0    0  501 -0.00000000000E+00 -0.00000000000E+00 -0.18903869038E+03  0.18903869038E+03  0.00000000000E+00 0.  1.
         25    2    1    2    0    0  0.32366179261E+02 -0.62952720273E+02 -0.70467053962E+02  0.16007958207E+03  0.12509697179E+03 0.  0.
          5    1    3    3  502    0  0.52218329011E+02 -0.90133365448E+02 -0.32567336763E+02  0.10921941803E+03  0.41800000000E+01 0. -1.
         -5    1    3    3    0  502 -0.19852149750E+02  0.27180645175E+02 -0.37899717199E+02  0.50860164034E+02  0.41800000000E+01 0. -1.
        -11    1    1    2    0    0  0.16123252986E+02  0.24232092786E+02  0.21975306753E+02  0.36470093427E+02  0.00000000000E+00 0. -1.
         11    1    1    2    0    0 -0.48489432247E+02  0.38720627487E+02 -0.52046282466E+02  0.80989675584E+02  0.00000000000E+00 0.  1.
</event>
<event>
 7    1  0.2788485E-009  0.1360733E+03  0.7561462E-02  0.1218712E+00
         -1   -1    0    0    0  501 -0.00000000000E+00  0.00000000000E+00  0.40707572726E+02  0.40707572726E+02  0.00000000000E+00 0.  1.
          1   -1    0    0  501    0  0.00000000000E+00 -0.00000000000E+00 -0.61938310634E+03  0.61938310634E+03  0.00000000000E+00 0. -1.
         25    2    1    2    0    0  0.68734081055E+01  0.10432249676E+03 -0.40934650207E+03  0.44061622035E+03  0.12509063839E+03 0.  0.
          5    1    3    3  502    0  0.13945786704E+01 -0.28088133752E+02 -0.10202495873E+03  0.10591247665E+03  0.41800000000E+01 0. -1.
         -5    1    3    3    0  502  0.54788294351E+01  0.13241063051E+03 -0.30732154334E+03  0.33470374370E+03  0.41800000000E+01 0. -1.
        -11    1    1    2    0    0  0.14606305383E+02 -0.61584109610E+02 -0.15816160909E+03  0.17035563185E+03  0.00000000000E+00 0. -1.
         11    1    1    2    0    0 -0.21479713489E+02 -0.42738387151E+02 -0.11167422453E+02  0.49118826860E+02  0.00000000000E+00 0.  1.
</event>
<event>
 7    1  0.2788485E-009  0.9621000E+02  0.7561462E-02  0.1288474E+00
         -2   -1    0    0    0  501 -0.00000000000E+00  0.00000000000E+00  0.70328899677E+02  0.70328899677E+02  0.00000000000E+00 0.  1.
          2   -1    0    0  501    0  0.00000000000E+00 -0.00000000000E+00 -0.23033289256E+03  0.23033289256E+03  0.00000000000E+00 0. -1.
         25    2    1    2    0    0  0.34180440130E+02 -0.82487063302E+00 -0.27495337724E+02  0.13256001088E+03  0.12508868849E+03 0.  0.
          5    1    3    3  502    0 -0.11527037911E+02 -0.34070719436E+02 -0.57865932206E+02  0.68261446190E+02  0.41800000000E+01 0.  1.
         -5    1    3    3    0  502  0.45707478041E+02  0.33245848803E+02  0.30370594482E+02  0.64298564686E+02  0.41800000000E+01 0.  1.
        -11    1    1    2    0    0 -0.64531649507E+02 -0.13572159938E+02 -0.10791700136E+03  0.12646982445E+03  0.00000000000E+00 0. -1.
         11    1    1    2    0    0  0.30351209377E+02  0.14397030571E+02 -0.24591653803E+02  0.41631956916E+02  0.00000000000E+00 0.  1.
</event>
<event>
 7    1  0.2788485E-009  0.9621762E+02  0.7561462E-02  0.1288457E+00
         -2   -1    0    0    0  501 -0.00000000000E+00  0.00000000000E+00  0.19708136970E+02  0.19708136970E+02  0.00000000000E+00 0.  1.
          2   -1    0    0  501    0  0.00000000000E+00 -0.00000000000E+00 -0.94770920678E+03  0.94770920678E+03  0.00000000000E+00 0. -1.
         25    2    1    2    0    0  0.60891703222E+02 -0.11929648284E+02 -0.70851505487E+03  0.72214349445E+03  0.12509007786E+03 0.  0.
          5    1    3    3  502    0  0.24823228143E+02  0.23390514849E+02 -0.44616615008E+02  0.56315393766E+02  0.41800000000E+01 0.  1.
         -5    1    3    3    0  502  0.36068475079E+02 -0.35320163133E+02 -0.66389843986E+03  0.66582810069E+03  0.41800000000E+01 0.  1.
        -11    1    1    2    0    0 -0.43758399507E+02  0.49534159271E+02 -0.15716508350E+03  0.17049719626E+03  0.00000000000E+00 0. -1.
         11    1    1    2    0    0 -0.17133303715E+02 -0.37604510987E+02 -0.62320931444E+02  0.74776653033E+02  0.00000000000E+00 0.  1.
</event>
<event>
 7    1  0.2788485E-009  0.1013875E+03  0.7561462E-02  0.1277405E+00
          4   -1    0    0  501    0  0.00000000000E+00  0.00000000000E+00  0.64508646883E+02  0.64508646883E+02  0.00000000000E+00 0. -1.
         -4   -1    0    0    0  501 -0.00000000000E+00 -0.00000000000E+00 -0.36031464342E+03  0.36031464342E+03  0.00000000000E+00 0.  1.
         25    2    1    2    0    0 -0.15908739852E+02 -0.78946298509E+02 -0.25672290218E+03  0.29671421167E+03  0.12508824426E+03 0.  0.
          5    1    3    3  502    0 -0.10394172009E+02 -0.46289011725E+00 -0.19832969772E+03  0.19864640564E+03  0.41800000000E+01 0.  1.
         -5    1    3    3    0  502 -0.55145678430E+01 -0.78483408391E+02 -0.58393204460E+02  0.98067806024E+02  0.41800000000E+01 0.  1.
        -11    1    1    2    0    0 -0.76937991893E+01  0.87374168613E+02 -0.78484304895E+01  0.88062692146E+02  0.00000000000E+00 0. -1.
         11    1    1    2    0    0  0.23602539042E+02 -0.84278701044E+01 -0.31234663868E+02  0.40046386487E+02  0.00000000000E+00 0.  1.
</event>
<event>
 7    1  0.2788485E-009  0.1196771E+03  0.7561462E-02  0.1243631E+00
         -1   -1    0    0    0  501 -0.00000000000E+00  0.00000000000E+00  0.96882840315E+02  0.96882840315E+02  0.00000000000E+00 0. -1.
          1   -1    0    0  501    0  0.00000000000E+00 -0.00000000000E+00 -0.21819915199E+03  0.21819915199E+03  0.00000000000E+00 0.  1.
         25    2    1    2    0    0 -0.12173794179E+02 -0.77696618885E+02 -0.54411431244E+01  0.14786263366E+03  0.12509510999E+03 0.  0.
          5    1    3    3  502    0  0.37248867843E+02 -0.86784769069E+02 -0.17198910638E+02  0.96085114482E+02  0.41800000000E+01 0.  1.
         -5    1    3    3    0  502 -0.49422662023E+02  0.90881501839E+01  0.11757767514E+02  0.51777519177E+02  0.41800000000E+01 0.  1.
        -11    1    1    2    0    0 -0.20099279776E+02  0.40042285729E+02 -0.10810549933E+03  0.11702206920E+03  0.00000000000E+00 0.  1.
         11    1    1    2    0    0  0.32273073955E+02  0.37654333156E+02 -0.77696692167E+01  0.50197289445E+02  0.00000000000E+00 0. -1.
</event>
<event>
 7    1  0.2788485E-009  0.8953310E+02  0.7561462E-02  0.1303986E+00
          2   -1    0    0  501    0  0.00000000000E+00  0.00000000000E+00  0.17104132457E+03  0.17104132457E+03  0.00000000000E+00 0. -1.
         -2   -1    0    0    0  501 -0.00000000000E+00 -0.00000000000E+00 -0.91119037186E+02  0.91119037186E+02  0.00000000000E+00 0.  1.
         25    2    1    2    0    0  0.10883637310E+02 -0.79252080702E+01 -0.18432858825E+02  0.12715493893E+03  0.12508935096E+03 0.  0.
          5    1    3    3  502    0 -0.55323963208E+02 -0.12645349750E+02  0.37970216134E+01  0.57031005151E+02  0.41800000000E+01 0.  1.
         -5    1    3    3    0  502  0.66207600518E+02  0.47201416797E+01 -0.22229880439E+02  0.70123933775E+02  0.41800000000E+01 0.  1.
        -11    1    1    2    0    0 -0.32956568206E+02  0.59954482485E+01 -0.69762147098E+00  0.33504737924E+02  0.00000000000E+00 0.  1.
         11    1    1    2    0    0  0.22072930897E+02  0.19297598216E+01  0.99052767682E+02  0.10150068491E+03  0.00000000000E+00 0. -1.
</event>
<event>
 7    1  0.2788485E-009  0.1134322E+03  0.7561462E-02  0.1254343E+00
         -2   -1    0    0    0  501 -0.00000000000E+00  0.00000000000E+00  0.22467035661E+03  0.22467035661E+03  0.00000000000E+00 0.  1.
          2   -1    0    0  501    0  0.00000000000E+00 -0.00000000000E+00 -0.58205357421E+02  0.58205357421E+02  0.00000000000E+00 0. -1.
         25    2    1    2    0    0  0.84513711014E+01  0.33551005653E+02  0.97422654381E+02  0.16229790968E+03  0.12510932118E+03 0.  0.
          5    1    3    3  502    0 -0.36025921256E+02 -0.33228581995E+02  0.42149069061E+02  0.64776709444E+02  0.41800000000E+01 0.  1.
         -5    1    3    3    0  502  0.44477292357E+02  0.66779587648E+02  0.55273585320E+02  0.97521200239E+02  0.41800000000E+01 0.  1.
        -11    1    1    2    0    0  0.27566504170E+02  0.19102151700E+02  0.34152399713E+02  0.47866384425E+02  0.00000000000E+00 0.  1.
         11    1    1    2    0    0 -0.36017875272E+02 -0.52653157354E+02  0.34889945092E+02  0.72711419921E+02  0.00000000000E+00 0. -1.
</event>
<event>
 7    1  0.2788485E-009  0.1042523E+03  0.7561462E-02  0.1271600E+00
         -1   -1    0    0    0  501 -0.00000000000E+00  0.00000000000E+00  0.84678415246E+02  0.84678415246E+02  0.00000000000E+00 0.  1.
          1   -1    0    0  501    0  0.00000000000E+00 -0.00000000000E+00 -0.18492621719E+03  0.18492621719E+03  0.00000000000E+00 0. -1.
         25    2    1    2    0    0  0.41615515757E+02 -0.46664880862E+02 -0.47508941889E+02  0.14769954595E+03  0.12509434063E+03 0.  0.
          5    1    3    3  502    0 -0.34763156714E+02 -0.10659670648E+02 -0.51362152569E+02  0.63068603596E+02  0.41800000000E+01 0.  1.
         -5    1    3    3    0  502  0.76378672471E+02 -0.36005210214E+02  0.38532106798E+01  0.84630942353E+02  0.41800000000E+01 0.  1.
        -11    1    1    2    0    0  0.50295977245E+00 -0.13725132515E+02  0.16063572431E+02  0.21134582805E+02  0.00000000000E+00 0.  1.
         11    1    1    2    0    0 -0.42118475530E+02  0.60390013377E+02 -0.68802432486E+02  0.10077050368E+03  0.00000000000E+00 0. -1.
</event>
<event>
 7    1  0.2788485E-009  0.2232931E+03  0.7561462E-02  0.1131451E+00
          1   -1    0    0  501    0  0.00000000000E+00  0.00000000000E+00  0.17416533770E+03  0.17416533770E+03  0.00000000000E+00 0. -1.
         -1   -1    0    0    0  501 -0.00000000000E+00 -0.00000000000E+00 -0.30856436606E+03  0.30856436606E+03  0.00000000000E+00 0.  1.
         25    2    1    2    0    0  0.22216916657E+02 -0.20090829237E+03 -0.96045568441E+02  0.25637771064E+03  0.12508815279E+03 0.  0.
          5    1    3    3  502    0  0.55803570872E+02 -0.71762223188E+02  0.15285238966E+01  0.91014636100E+02  0.41800000000E+01 0.  1.
         -5    1    3    3    0  502 -0.33586654216E+02 -0.12914606918E+03 -0.97574092337E+02  0.16536307454E+03  0.41800000000E+01 0.  1.
        -11    1    1    2    0    0 -0.30719164874E+02  0.12003681172E+02 -0.13470641766E+02  0.35626024782E+02  0.00000000000E+00 0.  1.
         11    1    1    2    0    0  0.85022482169E+01  0.18890461120E+03 -0.24882818150E+02  0.19072596833E+03  0.00000000000E+00 0. -1.
</event>
<event>
 7    1  0.2788485E-009  0.1611306E+03  0.7561462E-02  0.1187426E+00
          2   -1    0    0  501    0  0.00000000000E+00  0.00000000000E+00  0.20191254858E+03  0.20191254858E+03  0.00000000000E+00 0. -1.
         -2   -1    0    0    0  501 -0.00000000000E+00 -0.00000000000E+00 -0.17658167424E+03  0.17658167424E+03  0.00000000000E+00 0.  1.
         25    2    1    2    0    0  0.15617507829E+02 -0.12481528698E+03  0.10112799988E+03  0.20419975553E+03  0.12509158798E+03 0.  0.
          5    1    3    3  502    0 -0.30198118627E+02  0.62048747949E+01  0.44358787008E+02  0.54181188845E+02  0.41800000000E+01 0.  1.
         -5    1    3    3    0  502  0.45815626456E+02 -0.13102016177E+03  0.56769212877E+02  0.15001856668E+03  0.41800000000E+01 0.  1.
        -11    1    1    2    0    0 -0.41760050099E+02  0.24058467148E+02 -0.44503157078E+02  0.65599105297E+02  0.00000000000E+00 0.  1.
         11    1    1    2    0    0  0.26142542270E+02  0.10075681983E+03 -0.31293968469E+02  0.10869536200E+03  0.00000000000E+00 0. -1.
</event>
<event>
 7    1  0.2788485E-009  0.1186785E+03  0.7561462E-02  0.1245293E+00
         -2   -1    0    0    0  501 -0.00000000000E+00  0.00000000000E+00  0.93284674100E+03  0.93284674100E+03  0.00000000000E+00 0.  1.
          2   -1    0    0  501    0  0.00000000000E+00 -0.00000000000E+00 -0.18384471473E+02  0.18384471473E+02  0.00000000000E+00 0. -1.
         25    2    1    2    0    0  0.42142565516E+02  0.41539283989E+02  0.66048956396E+03  0.67483058867E+03  0.12509337055E+03 0.  0.
          5    1    3    3  502    0 -0.43786590531E+02  0.12434992171E+02  0.27605722414E+03  0.27981593582E+03  0.41800000000E+01 0. -1.
         -5    1    3    3    0  502  0.85929156046E+02  0.29104291818E+02  0.38443233983E+03  0.39501465285E+03  0.41800000000E+01 0. -1.
        -11    1    1    2    0    0  0.12048918022E+02  0.17140607667E+02  0.10790174061E+03  0.10991707094E+03  0.00000000000E+00 0.  1.
         11    1    1    2    0    0 -0.54191483538E+02 -0.58679891656E+02  0.14607096495E+03  0.16648355287E+03  0.00000000000E+00 0. -1.
</event>
<event>
 7    1  0.2788485E-009  0.2275594E+03  0.7561462E-02  0.1128369E+00
         -2   -1    0    0    0  501 -0.00000000000E+00  0.00000000000E+00  0.11937242123E+04  0.11937242123E+04  0.00000000000E+00 0. -1.
          2   -1    0    0  501    0  0.00000000000E+00 -0.00000000000E+00 -0.47958413290E+02  0.47958413290E+02  0.00000000000E+00 0.  1.
         25    2    1    2    0    0  0.86584624953E+02  0.19233050479E+03  0.61866311867E+03  0.66549233993E+03  0.12509228492E+03 0.  0.
          5    1    3    3  502    0  0.63798796204E+02  0.15514421549E+02  0.19609321753E+03  0.20683569816E+03  0.41800000000E+01 0.  1.
         -5    1    3    3    0  502  0.22785828750E+02  0.17681608324E+03  0.42256990114E+03  0.45865664176E+03  0.41800000000E+01 0.  1.
        -11    1    1    2    0    0 -0.64126411198E+02 -0.14839771964E+03  0.27244711744E+03  0.31679885039E+03  0.00000000000E+00 0.  1.
         11    1    1    2    0    0 -0.22458213755E+02 -0.43932785153E+02  0.25465556292E+03  0.25939143529E+03  0.00000000000E+00 0. -1.
</event>
<event>
 7    1  0.2788485E-009  0.3464034E+03  0.7561462E-02  0.1064101E+00
         -2   -1    0    0    0  501 -0.00000000000E+00  0.00000000000E+00  0.40107701394E+03  0.40107701394E+03  0.00000000000E+00 0.  1.
          2   -1    0    0  501    0  0.00000000000E+00 -0.00000000000E+00 -0.52632204895E+03  0.52632204895E+03  0.00000000000E+00 0. -1.
         25    2    1    2    0    0 -0.21034417146E+03 -0.26859880715E+03  0.22719556099E+03  0.42855076370E+03  0.12509174419E+03 0.  0.
          5    1    3    3  502    0 -0.19787474937E+03 -0.25036893690E+03  0.15863809590E+03  0.35640221503E+03  0.41800000000E+01 0.  1.
         -5    1    3    3    0  502 -0.12469422088E+02 -0.18229870250E+02  0.68557465090E+02  0.72148548676E+02  0.41800000000E+01 0.  1.
        -11    1    1    2    0    0  0.17957820655E+03  0.16774750091E+03 -0.22242695573E+03  0.33145332547E+03  0.00000000000E+00 0.  1.
         11    1    1    2    0    0  0.30765964915E+02  0.10085130624E+03 -0.13001364027E+03  0.16739497371E+03  0.00000000000E+00 0. -1.
</event>
<event>
 7    1  0.2788485E-009  0.1536001E+03  0.7561462E-02  0.1196118E+00
         -2   -1    0    0    0  501 -0.00000000000E+00  0.00000000000E+00  0.11731584050E+03  0.11731584050E+03  0.00000000000E+00 0. -1.
          2   -1    0    0  501    0  0.00000000000E+00 -0.00000000000E+00 -0.28480649235E+03  0.28480649235E+03  0.00000000000E+00 0.  1.
         25    2    1    2    0    0  0.42153757015E+02 -0.10153444287E+03 -0.19486919710E+03  0.25633515954E+03  0.12509007843E+03 0.  0.
          5    1    3    3  502    0  0.17219595541E+02  0.27423136744E+02 -0.58223958395E+02  0.66753611368E+02  0.41800000000E+01 0. -1.
         -5    1    3    3    0  502  0.24934161474E+02 -0.12895757961E+03 -0.13664523870E+03  0.18958154818E+03  0.41800000000E+01 0. -1.
        -11    1    1    2    0    0 -0.51155881140E+02  0.11214839013E+02  0.80667432023E+01  0.52988386796E+02  0.00000000000E+00 0. -1.
         11    1    1    2    0    0  0.90021241256E+01  0.90319603859E+02  0.19311802043E+02  0.92798786512E+02  0.00000000000E+00 0.  1.
</event>
<event>
 7    1  0.2788485E-009  0.1014010E+03  0.7561462E-02  0.1277377E+00
          4   -1    0    0  501    0  0.00000000000E+00  0.00000000000E+00  0.12474541529E+03  0.12474541529E+03  0.00000000000E+00 0. -1.
         -4   -1    0    0    0  501 -0.00000000000E+00 -0.00000000000E+00 -0.16776567663E+03  0.16776567663E+03  0.00000000000E+00 0.  1.
         25    2    1    2    0    0  0.78251869818E+01  0.62071549321E+02 -0.95443318488E+02  0.16932533863E+03  0.12509009742E+03 0.  0.
          5    1    3    3  502    0  0.62457840864E+02  0.94145059547E+01 -0.51001101965E+02  0.81290833489E+02  0.41800000000E+01 0.  1.
         -5    1    3    3    0  502 -0.54632653882E+02  0.52657043367E+02 -0.44442216523E+02  0.88034505143E+02  0.41800000000E+01 0.  1.
        -11    1    1    2    0    0  0.19376978948E+01 -0.27936339986E+02 -0.25298632143E+02  0.37738767246E+02  0.00000000000E+00 0.  1.
         11    1    1    2    0    0 -0.97628848766E+01 -0.34135209335E+02  0.77721689294E+02  0.85446986045E+02  0.00000000000E+00 0. -1.
</event>
<event>
 7    1  0.2788485E-009  0.1280526E+03  0.7561462E-02  0.1230374E+00
          2   -1    0    0  501    0  0.00000000000E+00  0.00000000000E+00  0.99775205559E+02  0.99775205559E+02  0.00000000000E+00 0. -1.
         -2   -1    0    0    0  501 -0.00000000000E+00 -0.00000000000E+00 -0.17060927378E+03  0.17060927378E+03  0.00000000000E+00 0.  1.
         25    2    1    2    0    0 -0.87093525343E+00 -0.71981112008E+02 -0.27920387317E+02  0.14699966985E+03  0.12508923172E+03 0.  0.
          5    1    3    3  502    0 -0.60924031745E+01 -0.10594640911E+03 -0.34691387984E+02  0.11172611056E+03  0.41800000000E+01 0. -1.
         -5    1    3    3    0  502  0.52214679210E+01  0.33965297106E+02  0.67710006665E+01  0.35273559287E+02  0.41800000000E+01 0. -1.
        -11    1    1    2    0    0 -0.20955088449E+02  0.86544421565E+02 -0.28773890772E+02  0.93578787266E+02  0.00000000000E+00 0.  1.
         11    1    1    2    0    0  0.21826023702E+02 -0.14563309557E+02 -0.14139790130E+02  0.29806022224E+02  0.00000000000E+00 0. -1.
</event>
<event>
 7    1  0.2788485E-009  0.1198020E+03  0.7561462E-02  0.1243424E+00
          1   -1    0    0  501    0  0.00000000000E+00  0.00000000000E+00  0.11661064675E+04  0.11661064675E+04  0.00000000000E+00 0. -1.
         -1   -1    0    0    0  501 -0.00000000000E+00 -0.00000000000E+00 -0.20631270308E+02  0.20631270308E+02  0.00000000000E+00 0.  1.
         25    2    1    2    0    0  0.77805938798E+02 -0.11445862147E+02  0.91732562035E+03  0.92914917907E+03  0.12508849405E+03 0.  0.
          5    1    3    3  502    0  0.10185680773E+03  0.21834428528E+02  0.57851044875E+03  0.58782936577E+03  0.41800000000E+01 0. -1.
         -5    1    3    3    0  502 -0.24050868936E+02 -0.33280290675E+02  0.33881517160E+03  0.34131981330E+03  0.41800000000E+01 0. -1.
        -11    1    1    2    0    0 -0.40007608809E+01  0.19432311671E+02  0.24461536381E+01  0.19990109858E+02  0.00000000000E+00 0.  1.
         11    1    1    2    0    0 -0.73805177917E+02 -0.79864495245E+01  0.22570342319E+03  0.23759844887E+03  0.00000000000E+00 0. -1.
</event>
<event>
 7    1  0.2788485E-009  0.1313112E+03  0.7561462E-02  0.1225523E+00
         -1   -1    0    0    0  501 -0.00000000000E+00  0.00000000000E+00  0.43794701349E+02  0.43794701349E+02  0.00000000000E+00 0.  1.
          1   -1    0    0  501    0  0.00000000000E+00 -0.00000000000E+00 -0.46886543576E+03  0.46886543576E+03  0.00000000000E+00 0. -1.
         25    2    1    2    0    0  0.79439989340E+02  0.49257089262E+02 -0.20539665135E+03  0.25801794137E+03  0.12509396841E+03 0.  0.
          5    1    3    3  502    0 -0.79845673663E+01 -0.26498986622E+02 -0.78753196346E+01  0.29076496821E+02  0.41800000000E+01 0. -1.
         -5    1    3    3    0  502  0.87424556706E+02  0.75756075884E+02 -0.19752133172E+03  0.22894144455E+03  0.41800000000E+01 0. -1.
        -11    1    1    2    0    0 -0.69742092747E+02 -0.10981853500E+01 -0.77728280907E+02  0.10443587106E+03  0.00000000000E+00 0.  1.
         11    1    1    2    0    0 -0.96978965927E+01 -0.48158903912E+02 -0.14194580216E+03  0.15020632468E+03  0.00000000000E+00 0. -1.
</event>
<event>
 7    1  0.3779696E-009  0.2017254E+03  0.7561462E-02  0.1148291E+00
          2   -1    0    0  501    0  0.00000000000E+00  0.00000000000E+00  0.86659065005E+03  0.86659065005E+03  0.00000000000E+00 0.  1.
         -2   -1    0    0    0  501 -0.00000000000E+00 -0.00000000000E+00 -0.53555629941E+02  0.53555629941E+02  0.00000000000E+00 0. -1.
         25    2    1    2    0    0  0.18386328995E+03 -0.67635783424E+01  0.47456723729E+03  0.52412767318E+03  0.12507717499E+03 0.  0.
          5    1    3    3  502    0  0.11297819377E+03  0.54500864446E+02  0.22689538271E+03  0.25929404850E+03  0.41800000000E+01 0.  1.
         -5    1    3    3    0  502  0.70885096183E+02 -0.61264442789E+02  0.24767185458E+03  0.26483362468E+03  0.41800000000E+01 0.  1.
        -11    1    1    2    0    0 -0.10910052694E+03  0.79269869636E+01  0.28153419212E+03  0.30203851316E+03  0.00000000000E+00 0.  1.
         11    1    1    2    0    0 -0.74762763010E+02 -0.11634086212E+01  0.56933590706E+02  0.93980093654E+02  0.00000000000E+00 0. -1.
</event>
<event>
 7    1  0.2788486E-009  0.1035578E+03  0.7561462E-02  0.1272987E+00
         -2   -1    0    0    0  501 -0.00000000000E+00  0.00000000000E+00  0.34025668077E+02  0.34025668077E+02  0.00000000000E+00 0. -1.
          2   -1    0    0  501    0  0.00000000000E+00 -0.00000000000E+00 -0.50992541175E+03  0.50992541175E+03  0.00000000000E+00 0.  1.
         25    2    1    2    0    0 -0.45674378109E+02 -0.37326276670E+02 -0.16939286758E+03  0.21867815724E+03  0.12508714211E+03 0.  0.
          5    1    3    3  502    0  0.28428186622E+02  0.47043120021E+01 -0.11236233123E+03  0.11607350354E+03  0.41800000000E+01 0. -1.
         -5    1    3    3    0  502 -0.74102564731E+02 -0.42030588672E+02 -0.57030536355E+02  0.10260465370E+03  0.41800000000E+01 0. -1.
        -11    1    1    2    0    0 -0.19182070318E+02  0.14129468443E+02 -0.21600985866E+02  0.32158922409E+02  0.00000000000E+00 0. -1.
         11    1    1    2    0    0  0.64856448427E+02  0.23196808228E+02 -0.28490589023E+03  0.29311400018E+03  0.00000000000E+00 0.  1.
</event>
<event>
 7    1  0.2788485E-009  0.2309196E+03  0.7561462E-02  0.1125994E+00
          2   -1    0    0  501    0  0.00000000000E+00  0.00000000000E+00  0.10879409418E+03  0.10879409418E+03  0.00000000000E+00 0.  1.
         -2   -1    0    0    0  501 -0.00000000000E+00 -0.00000000000E+00 -0.68245678568E+03  0.68245678568E+03  0.00000000000E+00 0. -1.
         25    2    1    2    0    0  0.13074457465E+03  0.17385153376E+03 -0.11622474207E+03  0.27654027364E+03  0.12509129741E+03 0.  0.
          5    1    3    3  502    0  0.93384378637E+02  0.69100187535E+02 -0.11743752675E+03  0.16524080362E+03  0.41800000000E+01 0.  1.
         -5    1    3    3    0  502  0.37360196010E+02  0.10475134623E+03  0.12127846781E+01  0.11129947003E+03  0.41800000000E+01 0.  1.
        -11    1    1    2    0    0 -0.28000466182E+01 -0.68519036987E+02 -0.16298280816E+03  0.17682221140E+03  0.00000000000E+00 0. -1.
         11    1    1    2    0    0 -0.12794452803E+03 -0.10533249677E+03 -0.29445514127E+03  0.33788839481E+03  0.00000000000E+00 0.  1.
</event>
<event>
 7    1  0.2788485E-009  0.1639497E+03  0.7561462E-02  0.1184308E+00
          2   -1    0    0  501    0  0.00000000000E+00  0.00000000000E+00  0.39043874334E+03  0.39043874334E+03  0.00000000000E+00 0. -1.
         -2   -1    0    0    0  501 -0.00000000000E+00 -0.00000000000E+00 -0.72548763055E+02  0.72548763055E+02  0.00000000000E+00 0.  1.
         25    2    1    2    0    0 -0.10612956163E+03 -0.73081096126E+02  0.17987878567E+03  0.25419055574E+03  0.12510847545E+03 0.  0.
          5    1    3    3  502    0  0.16780573924E+02 -0.43625309652E+02  0.21775384232E+02  0.51733886978E+02  0.41800000000E+01 0. -1.
         -5    1    3    3    0  502 -0.12291013555E+03 -0.29455786475E+02  0.15810340144E+03  0.20245666876E+03  0.41800000000E+01 0. -1.
        -11    1    1    2    0    0 -0.10162219380E+02 -0.78410951200E+01  0.31955592894E+01  0.13227436433E+02  0.00000000000E+00 0. -1.
         11    1    1    2    0    0  0.11629178101E+03  0.80922191246E+02  0.13481563533E+03  0.19556951423E+03  0.00000000000E+00 0.  1.
</event>
<event>
 7    1  0.2788485E-009  0.8621745E+02  0.7561462E-02  0.1312279E+00
          1   -1    0    0  501    0  0.00000000000E+00  0.00000000000E+00  0.15107638085E+03  0.15107638085E+03  0.00000000000E+00 0. -1.
         -1   -1    0    0    0  501 -0.00000000000E+00 -0.00000000000E+00 -0.13524087393E+03  0.13524087393E+03  0.00000000000E+00 0.  1.
         25    2    1    2    0    0 -0.38984052491E+02  0.47842937701E+02 -0.61166685232E+02  0.15231146211E+03  0.12509482432E+03 0.  0.
          5    1    3    3  502    0 -0.55589925432E+02  0.49947342034E+02  0.13169673812E+02  0.75999272984E+02  0.41800000000E+01 0. -1.
         -5    1    3    3    0  502  0.16605872941E+02 -0.21044043333E+01 -0.74336359044E+02  0.76312189129E+02  0.41800000000E+01 0. -1.
        -11    1    1    2    0    0  0.89211152573E+01 -0.49429325136E+02  0.88516383196E+02  0.10177423335E+03  0.00000000000E+00 0. -1.
         11    1    1    2    0    0  0.30062937233E+02  0.15863874352E+01 -0.11514191049E+02  0.32231559312E+02  0.00000000000E+00 0.  1.
</event>
<event>
 7    1  0.2788485E-009  0.2130233E+03  0.7561462E-02  0.1139194E+00
         -2   -1    0    0    0  501 -0.00000000000E+00  0.00000000000E+00  0.11073473605E+03  0.11073473605E+03  0.00000000000E+00 0.  1.
          2   -1    0    0  501    0  0.00000000000E+00 -0.00000000000E+00 -0.46886776883E+03  0.46886776883E+03  0.00000000000E+00 0. -1.
         25    2    1    2    0    0  0.16257470065E+03  0.11117307002E+03 -0.23117045674E+03  0.32844682526E+03  0.12509017614E+03 0.  0.
          5    1    3    3  502    0  0.42501654158E+02 -0.22659296354E+02 -0.23599095493E+02  0.53797992765E+02  0.41800000000E+01 0.  1.
         -5    1    3    3    0  502  0.12007304649E+03  0.13383236637E+03 -0.20757136125E+03  0.27464883250E+03  0.41800000000E+01 0.  1.
        -11    1    1    2    0    0 -0.80247228159E+02 -0.43498159637E+02 -0.82902819749E+01  0.91653894048E+02  0.00000000000E+00 0.  1.
         11    1    1    2    0    0 -0.82327472486E+02 -0.67674910380E+02 -0.11867229406E+03  0.15950178557E+03  0.00000000000E+00 0. -1.
</event>
<event>
 7    1  0.2788485E-009  0.1197481E+03  0.7561462E-02  0.1243513E+00
          2   -1    0    0  501    0  0.00000000000E+00  0.00000000000E+00  0.42197284443E+03  0.42197284443E+03  0.00000000000E+00 0. -1.
         -2   -1    0    0    0  501 -0.00000000000E+00 -0.00000000000E+00 -0.45533970434E+02  0.45533970434E+02  0.00000000000E+00 0.  1.
         25    2    1    2    0    0  0.73858884948E+02 -0.43314494253E+02  0.18227668399E+03  0.23707265796E+03  0.12508946929E+03 0.  0.
          5    1    3    3  502    0  0.46667775979E+02 -0.65174815113E+02  0.18516608253E+03  0.20181572872E+03  0.41800000000E+01 0.  1.
         -5    1    3    3    0  502  0.27191108969E+02  0.21860320860E+02 -0.28893985422E+01  0.35256929234E+02  0.41800000000E+01 0.  1.
        -11    1    1    2    0    0 -0.91088413073E+01 -0.27004545308E+02  0.45935135912E+02  0.54057868701E+02  0.00000000000E+00 0. -1.
         11    1    1    2    0    0 -0.64750043641E+02  0.70319039561E+02  0.14822705410E+03  0.17637628821E+03  0.00000000000E+00 0.  1.
</event>
<event>
 7    1  0.2788485E-009  0.1078685E+03  0.7561462E-02  0.1264569E+00
          1   -1    0    0  501    0  0.00000000000E+00  0.00000000000E+00  0.34670733143E+02  0.34670733143E+02  0.00000000000E+00 0. -1.
         -1   -1    0    0    0  501 -0.00000000000E+00 -0.00000000000E+00 -0.40647738984E+03  0.40647738984E+03  0.00000000000E+00 0.  1.
         25    2    1    2    0    0  0.23168978729E+02 -0.33901197187E+02 -0.16635495505E+03  0.21215015793E+03  0.12509047003E+03 0.  0.
          5    1    3    3  502    0  0.95801970591E+01 -0.73001313596E+02 -0.15055533384E+03  0.16764651177E+03  0.41800000000E+01 0. -1.
         -5    1    3    3    0  502  0.13588781670E+02  0.39100116409E+02 -0.15799621216E+02  0.44503646155E+02  0.41800000000E+01 0. -1.
        -11    1    1    2    0    0  0.30059952318E+02  0.36266944802E+02 -0.82559558527E+02  0.95052473523E+02  0.00000000000E+00 0.  1.
         11    1    1    2    0    0 -0.53228931047E+02 -0.23657476153E+01 -0.12289214312E+03  0.13394549153E+03  0.00000000000E+00 0. -1.
</event>
<event>
 7    1  0.2788485E-009  0.6710070E+02  0.7561462E-02  0.1370239E+00
          2   -1    0    0  501    0  0.00000000000E+00  0.00000000000E+00  0.57830656571E+02  0.57830656571E+02  0.00000000000E+00 0.  1.
         -2   -1    0    0    0  501 -0.00000000000E+00 -0.00000000000E+00 -0.20332659314E+03  0.20332659314E+03  0.00000000000E+00 0. -1.
         25    2    1    2    0    0  0.16079304315E+02 -0.59014435280E+01 -0.68243052194E+02  0.14352140764E+03  0.12509160330E+03 0.  0.
          5    1    3    3  502    0 -0.83085395316E+01 -0.40831961068E+02  0.19271082597E+02  0.46099109517E+02  0.41800000000E+01 0.  1.
         -5    1    3    3    0  502  0.24387843846E+02  0.34930517540E+02 -0.87514134791E+02  0.97422298122E+02  0.41800000000E+01 0.  1.
        -11    1    1    2    0    0 -0.24239393389E+02 -0.14011157227E+02 -0.88873369143E+02  0.93179055917E+02  0.00000000000E+00 0. -1.
         11    1    1    2    0    0  0.81600890743E+01  0.19912600755E+02  0.11620484772E+02  0.24456786151E+02  0.00000000000E+00 0.  1.
</event>
<event>
 7    1  0.2788485E-009  0.1119772E+03  0.7561462E-02  0.1256952E+00
         -3   -1    0    0    0  501 -0.00000000000E+00  0.00000000000E+00  0.46389199660E+02  0.46389199660E+02  0.00000000000E+00 0.  1.
          3   -1    0    0  501    0  0.00000000000E+00 -0.00000000000E+00 -0.46669822696E+03  0.46669822696E+03  0.00000000000E+00 0. -1.
         25    2    1    2    0    0  0.80316270344E+02 -0.59425644524E+02 -0.17600945301E+03  0.23792926862E+03  0.12509555871E+03 0.  0.
          5    1    3    3  502    0  0.45863255537E+02  0.18391108392E+00  0.29388851840E+01  0.46147388635E+02  0.41800000000E+01 0. -1.
         -5    1    3    3    0  502  0.34453014807E+02 -0.59609555608E+02 -0.17894833819E+03  0.19178187998E+03  0.41800000000E+01 0. -1.
        -11    1    1    2    0    0  0.19017227848E+01  0.15675561050E+02 -0.24289238271E+01  0.15976214657E+02  0.00000000000E+00 0.  1.
         11    1    1    2    0    0 -0.82217993129E+02  0.43750083474E+02 -0.24187065047E+03  0.25918194334E+03  0.00000000000E+00 0. -1.
</event>
<event>
 7    1  0.2788485E-009  0.1153708E+03  0.7561462E-02  0.1250935E+00
          1   -1    0    0  501    0  0.00000000000E+00  0.00000000000E+00  0.58858729872E+03  0.58858729872E+03  0.00000000000E+00 0. -1.
         -1   -1    0    0    0  501 -0.00000000000E+00 -0.00000000000E+00 -0.34802360923E+02  0.34802360923E+02  0.00000000000E+00 0.  1.
         25    2    1    2    0    0 -0.75313735892E+02  0.52777543529E+02  0.28258012617E+03  0.32242441521E+03  0.12509335676E+03 0.  0.
          5    1    3    3  502    0  0.68594328337E+00  0.25954313408E+02 -0.22387497293E+01  0.26392826734E+02  0.41800000000E+01 0.  1.
         -5    1    3    3    0  502 -0.75999679176E+02  0.26823230120E+02  0.28481887590E+03  0.29603158848E+03  0.41800000000E+01 0.  1.
        -11    1    1    2    0    0  0.66654321189E+02  0.35530367822E+01  0.19285575290E+03  0.20408028819E+03  0.00000000000E+00 0. -1.
         11    1    1    2    0    0  0.86594147035E+01 -0.56330580311E+02  0.78349058735E+02  0.96884956241E+02  0.00000000000E+00 0.  1.
</event>
<event>
 7    1  0.2788485E-009  0.9787172E+02  0.7561462E-02  0.1284836E+00
         -2   -1    0    0    0  501 -0.00000000000E+00  0.00000000000E+00  0.35197082535E+02  0.35197082535E+02  0.00000000000E+00 0. -1.
          2   -1    0    0  501    0  0.00000000000E+00 -0.00000000000E+00 -0.38995496714E+03  0.38995496714E+03  0.00000000000E+00 0.  1.
         25    2    1    2    0    0 -0.33728051877E+02 -0.22062822289E+02 -0.21372885116E+03  0.25090155927E+03  0.12508885247E+03 0.  0.
          5    1    3    3  502    0 -0.43713209675E+02  0.23198417363E+02 -0.23280089137E+02  0.54849304631E+02  0.41800000000E+01 0. -1.
         -5    1    3    3    0  502  0.99851577974E+01 -0.45261239652E+02 -0.19044876203E+03  0.19605225464E+03  0.41800000000E+01 0. -1.
        -11    1    1    2    0    0  0.31056524409E+02  0.56782024160E+02 -0.10991076175E+03  0.12755030978E+03  0.00000000000E+00 0.  1.
         11    1    1    2    0    0  0.26715274681E+01 -0.34719201871E+02 -0.31118271688E+02  0.46700180626E+02  0.00000000000E+00 0. -1.
</event>
<event>
 7    1  0.2788485E-009  0.1077124E+03  0.7561462E-02  0.1264866E+00
         -2   -1    0    0    0  501 -0.00000000000E+00  0.00000000000E+00  0.13869638070E+03  0.13869638070E+03  0.00000000000E+00 0.  1.
          2   -1    0    0  501    0  0.00000000000E+00 -0.00000000000E+00 -0.13567943353E+03  0.13567943353E+03  0.00000000000E+00 0. -1.
         25    2    1    2    0    0  0.39473166136E+01  0.52489045185E+02 -0.62546121214E+02  0.14943291038E+03  0.12508995265E+03 0.  0.
          5    1    3    3  502    0  0.29675235035E+02  0.87136195933E+02 -0.38611126827E+02  0.99908096423E+02  0.41800000000E+01 0.  1.
         -5    1    3    3    0  502 -0.25727918422E+02 -0.34647150748E+02 -0.23934994387E+02  0.49524813958E+02  0.41800000000E+01 0.  1.
        -11    1    1    2    0    0 -0.32056857569E+02 -0.25622699271E+02 -0.79296806718E+01  0.41797663460E+02  0.00000000000E+00 0. -1.
         11    1    1    2    0    0  0.28109540955E+02 -0.26866345914E+02  0.73492749053E+02  0.83145240386E+02  0.00000000000E+00 0.  1.
</event>
<event>
 7    1  0.2788485E-009  0.1353417E+03  0.7561462E-02  0.1219738E+00
          1   -1    0    0  501    0  0.00000000000E+00  0.00000000000E+00  0.95321763463E+03  0.95321763463E+03  0.00000000000E+00 0. -1.
         -1   -1    0    0    0  501 -0.00000000000E+00 -0.00000000000E+00 -0.22727944433E+02  0.22727944433E+02  0.00000000000E+00 0.  1.
         25    2    1    2    0    0  0.21755716191E+02  0.79047913587E+02  0.69072668526E+03  0.70673381085E+03  0.12508973517E+03 0.  0.
          5    1    3    3  502    0 -0.29604744776E+02  0.91050636983E+02  0.47933999069E+03  0.48882610250E+03  0.41800000000E+01 0. -1.
         -5    1    3    3    0  502  0.51360460967E+02 -0.12002723396E+02  0.21138669457E+03  0.21790770835E+03  0.41800000000E+01 0. -1.
        -11    1    1    2    0    0 -0.54630351926E+02 -0.68069079227E+02  0.16035725647E+03  0.18257142328E+03  0.00000000000E+00 0.  1.
         11    1    1    2    0    0  0.32874635735E+02 -0.10978834359E+02  0.79405748471E+02  0.86640344925E+02  0.00000000000E+00 0. -1.
</event>
<event>
 7    1  0.2788485E-009  0.1710191E+03  0.7561462E-02  0.1176789E+00
          3   -1    0    0  501    0  0.00000000000E+00  0.00000000000E+00  0.17596195182E+03  0.17596195182E+03  0.00000000000E+00 0. -1.
         -3   -1    0    0    0  501 -0.00000000000E+00 -0.00000000000E+00 -0.23672827207E+03  0.23672827207E+03  0.00000000000E+00 0.  1.
         25    2    1    2    0    0  0.14444153955E+03  0.33154561954E+02  0.57649776845E+02  0.20232089217E+03  0.12509062039E+03 0.  0.
          5    1    3    3  502    0  0.84154614437E+02 -0.38805683728E+02  0.55958731608E+02  0.10833620015E+03  0.41800000000E+01 0.  1.
         -5    1    3    3    0  502  0.60286925116E+02  0.71960245683E+02  0.16910452371E+01  0.93984692013E+02  0.41800000000E+01 0.  1.
        -11    1    1    2    0    0 -0.14444010896E+02 -0.19960493109E+02  0.10528197556E+02  0.26793538021E+02  0.00000000000E+00 0. -1.
         11    1    1    2    0    0 -0.12999752866E+03 -0.13194068846E+02 -0.12894429465E+03  0.18357579370E+03  0.00000000000E+00 0.  1.
</event>
<event>
 7    1  0.2788485E-009  0.6547178E+02  0.7561462E-02  0.1376206E+00
          1   -1    0    0  501    0  0.00000000000E+00  0.00000000000E+00  0.66783772986E+02  0.66783772986E+02  0.00000000000E+00 0. -1.
         -1   -1    0    0    0  501 -0.00000000000E+00 -0.00000000000E+00 -0.33856753479E+03  0.33856753479E+03  0.00000000000E+00 0.  1.
         25    2    1    2    0    0 -0.16930075881E+02  0.14762503262E+02 -0.30753078544E+03  0.33275738398E+03  0.12509090146E+03 0.  0.
          5    1    3    3  502    0  0.29784667343E+02 -0.10946257577E+02 -0.25762319709E+03  0.25960379628E+03  0.41800000000E+01 0. -1.
         -5    1    3    3    0  502 -0.46714743225E+02  0.25708760839E+02 -0.49907588349E+02  0.73153587699E+02  0.41800000000E+01 0. -1.
        -11    1    1    2    0    0  0.23726234038E+02  0.52642342203E+01 -0.66658422187E+01  0.25200789592E+02  0.00000000000E+00 0.  1.
         11    1    1    2    0    0 -0.67961581570E+01 -0.20026737482E+02  0.42412865854E+02  0.47393134206E+02  0.00000000000E+00 0. -1.
</event>
<event>
 7    1  0.2788485E-009  0.1455873E+03  0.7561462E-02  0.1206003E+00
         -4   -1    0    0    0  501 -0.00000000000E+00  0.00000000000E+00  0.55515899626E+03  0.55515899626E+03  0.00000000000E+00 0.  1.
          4   -1    0    0  501    0  0.00000000000E+00 -0.00000000000E+00 -0.47807540042E+02  0.47807540042E+02  0.00000000000E+00 0. -1.
         25    2    1    2    0    0 -0.67882362578E+02 -0.89518200340E+02  0.18636866670E+03  0.25100235151E+03  0.12508947676E+03 0.  0.
          5    1    3    3  502    0 -0.96973687953E+02 -0.92205033199E+02  0.17260219135E+03  0.21843684021E+03  0.41800000000E+01 0.  1.
         -5    1    3    3    0  502  0.29091325375E+02  0.26868328585E+01  0.13766475357E+02  0.32565511306E+02  0.41800000000E+01 0.  1.
        -11    1    1    2    0    0  0.30855699362E+02 -0.59881400703E-01  0.22640139546E+02  0.38270794185E+02  0.00000000000E+00 0. -1.
         11    1    1    2    0    0  0.37026663216E+02  0.89578081741E+02  0.29834264997E+03  0.31369339060E+03  0.00000000000E+00 0.  1.
</event>
<event>
 7    1  0.2788485E-009  0.1446819E+03  0.7561462E-02  0.1207164E+00
         -2   -1    0    0    0  501 -0.00000000000E+00  0.00000000000E+00  0.67276510829E+02  0.67276510829E+02  0.00000000000E+00 0.  1.
          2   -1    0    0  501    0  0.00000000000E+00 -0.00000000000E+00 -0.39556039743E+03  0.39556039743E+03  0.00000000000E+00 0. -1.
         25    2    1    2    0    0 -0.52431917282E+02  0.92967548543E+02 -0.23372944750E+03  0.28577735175E+03  0.12508864502E+03 0.  0.
          5    1    3    3  502    0 -0.48848018652E+02 -0.18790719513E+02 -0.71798446833E+02  0.88947790493E+02  0.41800000000E+01 0. -1.
         -5    1    3    3    0  502 -0.35838986304E+01  0.11175826806E+03 -0.16193100066E+03  0.19682956126E+03  0.41800000000E+01 0. -1.
        -11    1    1    2    0    0  0.52265542595E+02 -0.26686200385E+02 -0.93953829453E+02  0.11077527839E+03  0.00000000000E+00 0. -1.
         11    1    1    2    0    0  0.16637468711E+00 -0.66281348158E+02 -0.60060965550E+00  0.66284278122E+02  0.00000000000E+00 0.  1.
</event>
<event>
 7    1  0.2788485E-009  0.1269535E+03  0.7561462E-02  0.1232047E+00
         -1   -1    0    0    0  501 -0.00000000000E+00  0.00000000000E+00  0.23268502660E+03  0.23268502660E+03  0.00000000000E+00 0.  1.
          1   -1    0    0  501    0  0.00000000000E+00 -0.00000000000E+00 -0.11116127308E+03  0.11116127308E+03  0.00000000000E+00 0. -1.
         25    2    1    2    0    0 -0.10960108152E+03  0.21786067969E+02  0.22177943839E+02  0.16919185420E+03  0.12508793909E+03 0.  0.
          5    1    3    3  502    0 -0.12859692496E+02  0.20181793670E+02  0.60380592724E+02  0.65084290459E+02  0.41800000000E+01 0. -1.
         -5    1    3    3    0  502 -0.96741389024E+02  0.16042742994E+01 -0.38202648884E+02  0.10410756374E+03  0.41800000000E+01 0. -1.
        -11    1    1    2    0    0 -0.40716978089E+01  0.13216401403E+02  0.38800334667E+02  0.41191236439E+02  0.00000000000E+00 0.  1.
         11    1    1    2    0    0  0.11367277933E+03 -0.35002469372E+02  0.60545475019E+02  0.13346320904E+03  0.00000000000E+00 0. -1.
</event>
<event>
 7    1  0.2788485E-009  0.1130314E+03  0.7561462E-02  0.1255057E+00
          2   -1    0    0  501    0  0.00000000000E+00  0.00000000000E+00  0.38291319687E+03  0.38291319687E+03  0.00000000000E+00 0. -1.
         -2   -1    0    0    0  501 -0.00000000000E+00 -0.00000000000E+00 -0.46458021101E+02  0.46458021101E+02  0.00000000000E+00 0.  1.
         25    2    1    2    0    0 -0.80927630053E+01  0.59629386527E+02  0.10641447104E+03  0.17490727090E+03  0.12508939690E+03 0.  0.
          5    1    3    3  502    0 -0.30685987558E+02  0.82240012628E+02  0.31502491155E+02  0.93353783311E+02  0.41800000000E+01 0. -1.
         -5    1    3    3    0  502  0.22593224553E+02 -0.22610626100E+02  0.74911979886E+02  0.81553487594E+02  0.41800000000E+01 0. -1.
        -11    1    1    2    0    0  0.39103246500E+02 -0.41475823302E+00  0.11434270684E+03  0.12084490274E+03  0.00000000000E+00 0. -1.
         11    1    1    2    0    0 -0.31010483495E+02 -0.59214628294E+02  0.11569799789E+03  0.13361904432E+03  0.00000000000E+00 0.  1.
</event>
<event>
 7    1  0.2788485E-009  0.1405366E+03  0.7561462E-02  0.1212609E+00
          1   -1    0    0  501    0  0.00000000000E+00  0.00000000000E+00  0.49407980640E+02  0.49407980640E+02  0.00000000000E+00 0. -1.
         -1   -1    0    0    0  501 -0.00000000000E+00 -0.00000000000E+00 -0.49196999187E+03  0.49196999187E+03  0.00000000000E+00 0.  1.
         25    2    1    2    0    0 -0.87030662853E+02  0.67729411815E+02 -0.27615237163E+03  0.32259667118E+03  0.12508745099E+03 0.  0.
          5    1    3    3  502    0 -0.57462954407E+02  0.99713280730E+02 -0.15025118820E+03  0.18930827092E+03  0.41800000000E+01 0.  1.
         -5    1    3    3    0  502 -0.29567708446E+02 -0.31983868915E+02 -0.12590118344E+03  0.13328840026E+03  0.41800000000E+01 0.  1.
        -11    1    1    2    0    0 -0.31916333411E+01 -0.19676024621E+02  0.37454844475E+01  0.20282039395E+02  0.00000000000E+00 0. -1.
         11    1    1    2    0    0  0.90222296194E+02 -0.48053387193E+02 -0.17015512405E+03  0.19849926194E+03  0.00000000000E+00 0.  1.
</event>
<event>
 7    1  0.3521780E-009  0.1410636E+03  0.7561462E-02  0.1211905E+00
          2   -1    0    0  501    0  0.00000000000E+00  0.00000000000E+00  0.79346361980E+03  0.79346361980E+03  0.00000000000E+00 0. -1.
         -2   -1    0    0    0  501 -0.00000000000E+00 -0.00000000000E+00 -0.38294650001E+02  0.38294650001E+02  0.00000000000E+00 0.  1.
         25    2    1    2    0    0  0.11078226693E+03  0.78738602666E+02  0.41882178080E+03  0.45774590082E+03  0.12508855833E+03 0.  0.
          5    1    3    3  502    0  0.24727913085E+02  0.18144798544E+01  0.26082428524E+03  0.26203347533E+03  0.41800000000E+01 0.  1.
         -5    1    3    3    0  502  0.86054353845E+02  0.76924122811E+02  0.15799749556E+03  0.19571242548E+03  0.41800000000E+01 0.  1.
        -11    1    1    2    0    0 -0.41544316978E+02 -0.76385875556E+01  0.29517760467E+02  0.51532285763E+02  0.00000000000E+00 0.  1.
         11    1    1    2    0    0 -0.69237949953E+02 -0.71100015110E+02  0.30682942853E+03  0.32248008322E+03  0.00000000000E+00 0. -1.
</event>
<event>
 7    1  0.2788485E-009  0.1053764E+03  0.7561462E-02  0.1269380E+00
         -1   -1    0    0    0  501 -0.00000000000E+00  0.00000000000E+00  0.92989523527E+02  0.92989523527E+02  0.00000000000E+00 0.  1.
          1   -1    0    0  501    0  0.00000000000E+00 -0.00000000000E+00 -0.13381554342E+03  0.13381554342E+03  0.00000000000E+00 0. -1.
         25    2    1    2    0    0 -0.27289972405E+02  0.21126118392E+02 -0.24432791589E+02  0.13204758468E+03  0.12509415591E+03 0.  0.
          5    1    3    3  502    0 -0.64989512673E+02 -0.24723984050E+02 -0.19503029609E+02  0.72337768203E+02  0.41800000000E+01 0.  1.
         -5    1    3    3    0  502  0.37699540268E+02  0.45850102442E+02 -0.49297619794E+01  0.59709816475E+02  0.41800000000E+01 0.  1.
        -11    1    1    2    0    0  0.72382431380E+01  0.27792213328E+02  0.15879620123E+02  0.32817093422E+02  0.00000000000E+00 0.  1.
         11    1    1    2    0    0  0.20051729267E+02 -0.48918331720E+02 -0.32272848430E+02  0.61940388848E+02  0.00000000000E+00 0. -1.
</event>
<event>
 7    1  0.2788485E-009  0.1028783E+03  0.7561462E-02  0.1274357E+00
         -3   -1    0    0    0  501 -0.00000000000E+00  0.00000000000E+00  0.31962938964E+02  0.31962938964E+02  0.00000000000E+00 0.  1.
          3   -1    0    0  501    0  0.00000000000E+00 -0.00000000000E+00 -0.36689129493E+03  0.36689129493E+03  0.00000000000E+00 0. -1.
         25    2    1    2    0    0  0.62902975714E+01 -0.43805025793E+01 -0.20025534317E+03  0.23623559125E+03  0.12508515282E+03 0.  0.
          5    1    3    3  502    0  0.26162410734E+02 -0.54509704391E+02 -0.57360949180E+02  0.83447771085E+02  0.41800000000E+01 0.  1.
         -5    1    3    3    0  502 -0.19872113162E+02  0.50129201811E+02 -0.14289439399E+03  0.15278782016E+03  0.41800000000E+01 0.  1.
        -11    1    1    2    0    0 -0.16598443154E+02  0.45624745948E+02 -0.68287070919E+02  0.83786931038E+02  0.00000000000E+00 0.  1.
         11    1    1    2    0    0  0.10308145582E+02 -0.41244243369E+02 -0.66385941868E+02  0.78831711602E+02  0.00000000000E+00 0. -1.
</event>
<event>
 7    1  0.2788485E-009  0.2083775E+03  0.7561462E-02  0.1142857E+00
         -2   -1    0    0    0  501 -0.00000000000E+00  0.00000000000E+00  0.27374063816E+03  0.27374063816E+03  0.00000000000E+00 0.  1.
          2   -1    0    0  501    0  0.00000000000E+00 -0.00000000000E+00 -0.18433551645E+03  0.18433551645E+03  0.00000000000E+00 0. -1.
         25    2    1    2    0    0  0.27441709824E+02 -0.19465005739E+03  0.33805133827E+02  0.23543269276E+03  0.12507627059E+03 0.  0.
          5    1    3    3  502    0  0.46104354665E+02 -0.15438392375E+03 -0.23448033252E+02  0.16287200525E+03  0.41800000000E+01 0.  1.
         -5    1    3    3    0  502 -0.18662644841E+02 -0.40266133646E+02  0.57253167079E+02  0.72560687509E+02  0.41800000000E+01 0.  1.
        -11    1    1    2    0    0 -0.54315839544E+02  0.13788162918E+03  0.17603113034E+02  0.14923613396E+03  0.00000000000E+00 0. -1.
         11    1    1    2    0    0  0.26874129720E+02  0.56768428217E+02  0.37996874843E+02  0.73407327892E+02  0.00000000000E+00 0.  1.
</event>
<event>
 7    1  0.2788485E-009  0.1046813E+03  0.7561462E-02  0.1270749E+00
          2   -1    0    0  501    0  0.00000000000E+00  0.00000000000E+00  0.39589998488E+03  0.39589998488E+03  0.00000000000E+00 0. -1.
         -2   -1    0    0    0  501 -0.00000000000E+00 -0.00000000000E+00 -0.35503768084E+02  0.35503768084E+02  0.00000000000E+00 0.  1.
         25    2    1    2    0    0  0.60249210833E+01  0.84195580874E+01  0.11959842842E+03  0.17337539238E+03  0.12509218188E+03 0.  0.
          5    1    3    3  502    0  0.39585235389E+02 -0.44230717049E+02  0.78521588484E+02  0.98521365447E+02  0.41800000000E+01 0.  1.
         -5    1    3    3    0  502 -0.33560314305E+02  0.52650275136E+02  0.41076839939E+02  0.74854026930E+02  0.41800000000E+01 0.  1.
        -11    1    1    2    0    0 -0.18406167369E+01  0.39317841023E+02  0.15324571794E+03  0.15821988042E+03  0.00000000000E+00 0. -1.
         11    1    1    2    0    0 -0.41843043464E+01 -0.47737399111E+02  0.87552070437E+02  0.99808480173E+02  0.00000000000E+00 0.  1.
</event>
<event>
 7    1  0.2853314E-009  0.1095022E+03  0.7561462E-02  0.1261495E+00
          2   -1    0    0  501    0  0.00000000000E+00  0.00000000000E+00  0.22989491130E+03  0.22989491130E+03  0.00000000000E+00 0. -1.
         -2   -1    0    0    0  501 -0.00000000000E+00 -0.00000000000E+00 -0.77197437632E+02  0.77197437632E+02  0.00000000000E+00 0.  1.
         25    2    1    2    0    0  0.75925058186E+02 -0.36078687892E+01  0.99124565519E+02  0.17677920451E+03  0.12509027332E+03 0.  0.
          5    1    3    3  502    0  0.73798429316E+02  0.46204057758E+02  0.91137984402E+02  0.12611355091E+03  0.41800000000E+01 0.  1.
         -5    1    3    3    0  502  0.21266288698E+01 -0.49811926547E+02  0.79865811169E+01  0.50665653599E+02  0.41800000000E+01 0.  1.
        -11    1    1    2    0    0 -0.47232037179E+02 -0.12552910561E+02  0.76080597338E+02  0.90425097130E+02  0.00000000000E+00 0. -1.
         11    1    1    2    0    0 -0.28693021007E+02  0.16160779351E+02 -0.22507689192E+02  0.39888047288E+02  0.00000000000E+00 0.  1.
</event>
<event>
 7    1  0.2788485E-009  0.2159484E+03  0.7561462E-02  0.1136940E+00
          1   -1    0    0  501    0  0.00000000000E+00  0.00000000000E+00  0.16661059752E+04  0.16661059752E+04  0.00000000000E+00 0.  1.
         -1   -1    0    0    0  501 -0.00000000000E+00 -0.00000000000E+00 -0.28407574283E+02  0.28407574283E+02  0.00000000000E+00 0. -1.
         25    2    1    2    0    0  0.43951763752E+01  0.18676974733E+03  0.75965222778E+03  0.79222504903E+03  0.12508702987E+03 0.  0.
          5    1    3    3  502    0 -0.44266680637E+02  0.16722021958E+02  0.18099533924E+03  0.18712549335E+03  0.41800000000E+01 0.  1.
         -5    1    3    3    0  502  0.48661857013E+02  0.17004772537E+03  0.57865688854E+03  0.60509955568E+03  0.41800000000E+01 0.  1.
        -11    1    1    2    0    0 -0.29841501591E+02 -0.14224407430E+02  0.12359148648E+03  0.12793632993E+03  0.00000000000E+00 0.  1.
         11    1    1    2    0    0  0.25446325215E+02 -0.17254533990E+03  0.75445468662E+03  0.77435217049E+03  0.00000000000E+00 0. -1.
</event>
<event>
 7    1  0.2788485E-009  0.9784919E+02  0.7561462E-02  0.1284885E+00
          4   -1    0    0  501    0  0.00000000000E+00  0.00000000000E+00  0.11655402649E+03  0.11655402649E+03  0.00000000000E+00 0. -1.
         -4   -1    0    0    0  501 -0.00000000000E+00 -0.00000000000E+00 -0.13355294322E+03  0.13355294322E+03  0.00000000000E+00 0.  1.
         25    2    1    2    0    0  0.57593396568E+02 -0.20125586772E+02 -0.17837554222E+02  0.14031476992E+03  0.12509203710E+03 0.  0.
          5    1    3    3  502    0 -0.24139249724E+02 -0.37471813409E+01 -0.45981405298E+02  0.52235110591E+02  0.41800000000E+01 0.  1.
         -5    1    3    3    0  502  0.81732646292E+02 -0.16378405431E+02  0.28143851076E+02  0.88079659330E+02  0.41800000000E+01 0.  1.
        -11    1    1    2    0    0 -0.31475202756E+02  0.42620321963E+02 -0.32237610093E+02  0.62019704427E+02  0.00000000000E+00 0.  1.
         11    1    1    2    0    0 -0.26118193812E+02 -0.22494735191E+02  0.33076247586E+02  0.47772495367E+02  0.00000000000E+00 0. -1.
</event>
<event>
 7    1  0.2788485E-009  0.1191089E+03  0.7561462E-02  0.1244574E+00
         -1   -1    0    0    0  501 -0.00000000000E+00  0.00000000000E+00  0.22030719264E+03  0.22030719264E+03  0.00000000000E+00 0.  1.
          1   -1    0    0  501    0  0.00000000000E+00 -0.00000000000E+00 -0.69889640927E+02  0.69889640927E+02  0.00000000000E+00 0. -1.
         25    2    1    2    0    0  0.54953564545E+02  0.85305305673E+01  0.10739471250E+03  0.17399267487E+03  0.12508861829E+03 0.  0.
          5    1    3    3  502    0  0.82901107468E+02 -0.25631701588E+02  0.93272014195E+02  0.12746261718E+03  0.41800000000E+01 0. -1.
         -5    1    3    3    0  502 -0.27947542923E+02  0.34162232156E+02  0.14122698309E+02  0.46530057692E+02  0.41800000000E+01 0. -1.
        -11    1    1    2    0    0  0.20068833425E+02 -0.23083938590E+02  0.19375219256E+02  0.36208084968E+02  0.00000000000E+00 0.  1.
         11    1    1    2    0    0 -0.75022397971E+02  0.14553408022E+02  0.23647619950E+02  0.79996073726E+02  0.00000000000E+00 0. -1.
</event>
<event>
 7    1  0.2788485E-009  0.8870055E+02  0.7561462E-02  0.1306029E+00
          1   -1    0    0  501    0  0.00000000000E+00  0.00000000000E+00  0.10953656501E+03  0.10953656501E+03  0.00000000000E+00 0. -1.
         -1   -1    0    0    0  501 -0.00000000000E+00 -0.00000000000E+00 -0.10997367127E+03  0.10997367127E+03  0.00000000000E+00 0.  1.
         25    2    1    2    0    0  0.13894276621E+02  0.78651816080E+01 -0.52439289947E+00  0.12610668488E+03  0.12509080294E+03 0.  0.
          5    1    3    3  502    0  0.45227276384E+02 -0.45324777458E+02  0.17603132814E+01  0.64190443865E+02  0.41800000000E+01 0.  1.
         -5    1    3    3    0  502 -0.31332999763E+02  0.53189959066E+02 -0.22847061808E+01  0.61916241019E+02  0.41800000000E+01 0.  1.
        -11    1    1    2    0    0  0.11816319378E+02  0.13493327491E+02 -0.38427626836E+02  0.42407284689E+02  0.00000000000E+00 0.  1.
         11    1    1    2    0    0 -0.25710595999E+02 -0.21358509099E+02  0.38514913473E+02  0.50996266700E+02  0.00000000000E+00 0. -1.
</event>
<event>
 7    1  0.2788485E-009  0.1335842E+03  0.7561462E-02  0.1222232E+00
          1   -1    0    0  501    0  0.00000000000E+00  0.00000000000E+00  0.48978415689E+03  0.48978415689E+03  0.00000000000E+00 0. -1.
         -1   -1    0    0    0  501 -0.00000000000E+00 -0.00000000000E+00 -0.45675707160E+02  0.45675707160E+02  0.00000000000E+00 0.  1.
         25    2    1    2    0    0 -0.79497121123E+02 -0.57142234209E+02  0.25165216491E+03  0.29759629646E+03  0.12509882640E+03 0.  0.
          5    1    3    3  502    0 -0.93946577365E+02 -0.34433137729E+02  0.93147515280E+02  0.13676817018E+03  0.41800000000E+01 0. -1.
         -5    1    3    3    0  502  0.14449456241E+02 -0.22709096480E+02  0.15850464963E+03  0.16082812628E+03  0.41800000000E+01 0. -1.
        -11    1    1    2    0    0  0.47743813775E+02  0.85033871747E+02  0.13405853845E+03  0.16577672584E+03  0.00000000000E+00 0. -1.
         11    1    1    2    0    0  0.31753307348E+02 -0.27891637538E+02  0.58397746369E+02  0.72086841747E+02  0.00000000000E+00 0.  1.
</event>
<event>
 7    1  0.2788485E-009  0.9030356E+02  0.7561462E-02  0.1302118E+00
         -1   -1    0    0    0  501 -0.00000000000E+00  0.00000000000E+00  0.36979557178E+02  0.36979557178E+02  0.00000000000E+00 0. -1.
          1   -1    0    0  501    0  0.00000000000E+00 -0.00000000000E+00 -0.35571724849E+03  0.35571724849E+03  0.00000000000E+00 0.  1.
         25    2    1    2    0    0  0.45470043779E+01 -0.19979927488E+02 -0.23238074433E+03  0.26470417405E+03  0.12509043398E+03 0.  0.
          5    1    3    3  502    0 -0.25696726071E+02  0.34457368139E+02 -0.17386758040E+03  0.17915088575E+03  0.41800000000E+01 0.  1.
         -5    1    3    3    0  502  0.30243730449E+02 -0.54437295626E+02 -0.58513163928E+02  0.85553288303E+02  0.41800000000E+01 0.  1.
        -11    1    1    2    0    0  0.32892166142E+02  0.71312985519E+00 -0.78560158994E+02  0.85171014605E+02  0.00000000000E+00 0.  1.
         11    1    1    2    0    0 -0.37439170520E+02  0.19266797633E+02 -0.77967879854E+01  0.42821617007E+02  0.00000000000E+00 0. -1.
</event>
<event>
 7    1  0.2788485E-009  0.1347954E+03  0.7561462E-02  0.1220509E+00
         -2   -1    0    0    0  501 -0.00000000000E+00  0.00000000000E+00  0.51147231469E+03  0.51147231469E+03  0.00000000000E+00 0.  1.
          2   -1    0    0  501    0  0.00000000000E+00 -0.00000000000E+00 -0.50656352442E+02  0.50656352442E+02  0.00000000000E+00 0. -1.
         25    2    1    2    0    0  0.98096433629E+02 -0.29421704209E+02  0.14246005800E+03  0.21547644893E+03  0.12508670972E+03 0.  0.
          5    1    3    3  502    0  0.53874784415E+02  0.47829825532E+02  0.56356981485E+02  0.91562909348E+02  0.41800000000E+01 0. -1.
         -5    1    3    3    0  502  0.44221649214E+02 -0.77251529742E+02  0.86103076518E+02  0.12391353959E+03  0.41800000000E+01 0. -1.
        -11    1    1    2    0    0 -0.83480443730E+02  0.37610562347E+02  0.31686921314E+03  0.32983274113E+03  0.00000000000E+00 0.  1.
         11    1    1    2    0    0 -0.14615989899E+02 -0.81888581376E+01  0.14866911011E+01  0.16819477065E+02  0.00000000000E+00 0. -1.
</event>
<event>
 7    1  0.2788485E-009  0.7284699E+02  0.7561462E-02  0.1350671E+00
          1   -1    0    0  501    0  0.00000000000E+00  0.00000000000E+00  0.32543067065E+03  0.32543067065E+03  0.00000000000E+00 0. -1.
         -1   -1    0    0    0  501 -0.00000000000E+00 -0.00000000000E+00 -0.38563375792E+02  0.38563375792E+02  0.00000000000E+00 0.  1.
         25    2    1    2    0    0  0.16141324232E+02 -0.53394189446E+01  0.12822809411E+03  0.17994155600E+03  0.12508983857E+03 0.  0.
          5    1    3    3  502    0  0.13407296744E+02  0.28584184731E+02 -0.13156512271E+02  0.34458343516E+02  0.41800000000E+01 0. -1.
         -5    1    3    3    0  502  0.27340274871E+01 -0.33923603676E+02  0.14138460638E+03  0.14548321248E+03  0.41800000000E+01 0. -1.
        -11    1    1    2    0    0  0.20430613516E+02  0.29384026470E+02  0.25609569193E+02  0.44007738121E+02  0.00000000000E+00 0.  1.
         11    1    1    2    0    0 -0.36571937748E+02 -0.24044607526E+02  0.13302963155E+03  0.14004475232E+03  0.00000000000E+00 0. -1.
</event>
<event>
 7    1  0.2788485E-009  0.1226077E+03  0.7561462E-02  0.1238856E+00
         -2   -1    0    0    0  501 -0.00000000000E+00  0.00000000000E+00  0.83369112827E+02  0.83369112827E+02  0.00000000000E+00 0.  1.
          2   -1    0    0  501    0  0.00000000000E+00 -0.00000000000E+00 -0.24624375132E+03  0.24624375132E+03  0.00000000000E+00 0. -1.
         25    2    1    2    0    0 -0.87319584105E+02  0.85325325642E+01 -0.48609740338E+02  0.16032885257E+03  0.12507965555E+03 0.  0.
          5    1    3    3  502    0 -0.22862793086E+02 -0.51797746495E+02  0.49395275450E+01  0.56987587965E+02  0.41800000000E+01 0.  1.
         -5    1    3    3    0  502 -0.64456791020E+02  0.60330279060E+02 -0.53549267883E+02  0.10334126461E+03  0.41800000000E+01 0.  1.
        -11    1    1    2    0    0  0.26047426589E+02 -0.25528558804E+02  0.22574848557E+01  0.36541373597E+02  0.00000000000E+00 0.  1.
         11    1    1    2    0    0  0.61272157517E+02  0.16996026240E+02 -0.11652238301E+03  0.13274263798E+03  0.00000000000E+00 0. -1.
</event>
<event>
 7    1  0.2788485E-009  0.3183974E+03  0.7561462E-02  0.1076389E+00
          1   -1    0    0  501    0  0.00000000000E+00  0.00000000000E+00  0.55149694243E+03  0.55149694243E+03  0.00000000000E+00 0. -1.
         -1   -1    0    0    0  501 -0.00000000000E+00 -0.00000000000E+00 -0.19032649199E+03  0.19032649199E+03  0.00000000000E+00 0.  1.
         25    2    1    2    0    0 -0.21070959033E+03  0.22088742755E+03  0.18473641939E+03  0.37810621194E+03  0.12508787212E+03 0.  0.
          5    1    3    3  502    0 -0.11697212462E+03  0.44791885267E+02  0.10400187594E+03  0.16285777084E+03  0.41800000000E+01 0.  1.
         -5    1    3    3    0  502 -0.93737465711E+02  0.17609554228E+03  0.80734543450E+02  0.21524844110E+03  0.41800000000E+01 0.  1.
        -11    1    1    2    0    0  0.10032949301E+03 -0.15099670889E+03  0.66935985579E+02  0.19325226888E+03  0.00000000000E+00 0. -1.
         11    1    1    2    0    0  0.11038009733E+03 -0.69890718655E+02  0.10949804547E+03  0.17046495359E+03  0.00000000000E+00 0.  1.
</event>
<event>
 7    1  0.2788485E-009  0.1126151E+03  0.7561462E-02  0.1255802E+00
          2   -1    0    0  501    0  0.00000000000E+00  0.00000000000E+00  0.64154257335E+02  0.64154257335E+02  0.00000000000E+00 0. -1.
         -2   -1    0    0    0  501 -0.00000000000E+00 -0.00000000000E+00 -0.27548502318E+03  0.27548502318E+03  0.00000000000E+00 0.  1.
         25    2    1    2    0    0 -0.38622547170E+02  0.35113000818E+02 -0.18791561772E+03  0.23169704107E+03  0.12508643204E+03 0.  0.
          5    1    3    3  502    0 -0.36306532759E+02 -0.39591200605E+02 -0.11595173211E+03  0.12785892251E+03  0.41800000000E+01 0.  1.
         -5    1    3    3    0  502 -0.23160144110E+01  0.74704201423E+02 -0.71963885607E+02  0.10383811855E+03  0.41800000000E+01 0.  1.
        -11    1    1    2    0    0  0.59435060476E+02 -0.43911713576E+02 -0.35868213325E+02  0.82141912140E+02  0.00000000000E+00 0.  1.
         11    1    1    2    0    0 -0.20812513306E+02  0.87987127585E+01  0.12453065201E+02  0.25800327308E+02  0.00000000000E+00 0. -1.
</event>
<event>
 7    1  0.2950181E-009  0.1930288E+03  0.7561462E-02  0.1155758E+00
          2   -1    0    0  501    0  0.00000000000E+00  0.00000000000E+00  0.42577245904E+03  0.42577245904E+03  0.00000000000E+00 0. -1.
         -2   -1    0    0    0  501 -0.00000000000E+00 -0.00000000000E+00 -0.91444571449E+02  0.91444571449E+02  0.00000000000E+00 0.  1.
         25    2    1    2    0    0  0.10586749977E+03 -0.12507368572E+03  0.19560186382E+03  0.28418175007E+03  0.12509126100E+03 0.  0.
          5    1    3    3  502    0  0.88820462078E+02 -0.18482911250E+02  0.12729296009E+03  0.15637027397E+03  0.41800000000E+01 0.  1.
         -5    1    3    3    0  502  0.17047037693E+02 -0.10659077447E+03  0.68308903727E+02  0.12781147611E+03  0.41800000000E+01 0.  1.
        -11    1    1    2    0    0 -0.10758554087E+03  0.62113806947E+02  0.89993910339E+02  0.15340038304E+03  0.00000000000E+00 0.  1.
         11    1    1    2    0    0  0.17180411000E+01  0.62959878774E+02  0.48732113435E+02  0.79634897378E+02  0.00000000000E+00 0. -1.
</event>
<event>
 7    1  0.2788485E-009  0.1239387E+03  0.7561462E-02  0.1236737E+00
         -1   -1    0    0    0  501 -0.00000000000E+00  0.00000000000E+00  0.28189384345E+02  0.28189384345E+02  0.00000000000E+00 0.  1.
          1   -1    0    0  501    0  0.00000000000E+00 -0.00000000000E+00 -0.70701611767E+03  0.70701611767E+03  0.00000000000E+00 0. -1.
         25    2    1    2    0    0  0.83311150178E+02  0.30397208490E+02 -0.41989828334E+03  0.44702003673E+03  0.12509039474E+03 0.  0.
          5    1    3    3  502    0 -0.64045629920E+01 -0.19431447090E+02 -0.23152827838E+03  0.23246809599E+03  0.41800000000E+01 0.  1.
         -5    1    3    3    0  502  0.89715713170E+02  0.49828655579E+02 -0.18837000496E+03  0.21455194074E+03  0.41800000000E+01 0.  1.
        -11    1    1    2    0    0 -0.79349229041E+02 -0.56802226837E+02 -0.17839319246E+03  0.20333943110E+03  0.00000000000E+00 0.  1.
         11    1    1    2    0    0 -0.39619211373E+01  0.26405018348E+02 -0.80535257527E+02  0.84846034191E+02  0.00000000000E+00 0. -1.
</event>
<event>
 7    1  0.2788485E-009  0.1079576E+03  0.7561462E-02  0.1264399E+00
          1   -1    0    0  501    0  0.00000000000E+00  0.00000000000E+00  0.45592880659E+03  0.45592880659E+03  0.00000000000E+00 0. -1.
         -1   -1    0    0    0  501 -0.00000000000E+00 -0.00000000000E+00 -0.68075918581E+02  0.68075918581E+02  0.00000000000E+00 0.  1.
         25    2    1    2    0    0 -0.32443890020E+02  0.87371811026E+02  0.35760394392E+03  0.39014670028E+03  0.12508967849E+03 0.  0.
          5    1    3    3  502    0 -0.96634593783E+01  0.35931086925E+02  0.11060519343E+02  0.39041425984E+02  0.41800000000E+01 0.  1.
         -5    1    3    3    0  502 -0.22780430642E+02  0.51440724101E+02  0.34654342458E+03  0.35110527429E+03  0.41800000000E+01 0.  1.
        -11    1    1    2    0    0  0.37427226132E+02 -0.30076462005E+01  0.31992038827E+02  0.49328832745E+02  0.00000000000E+00 0. -1.
         11    1    1    2    0    0 -0.49833361121E+01 -0.84364164826E+02 -0.17430947463E+01  0.84529192146E+02  0.00000000000E+00 0.  1.
</event>
<event>
 7    1  0.2788485E-009  0.8016277E+02  0.7561462E-02  0.1328590E+00
          2   -1    0    0  501    0  0.00000000000E+00  0.00000000000E+00  0.10463122661E+04  0.10463122661E+04  0.00000000000E+00 0. -1.
         -2   -1    0    0    0  501 -0.00000000000E+00 -0.00000000000E+00 -0.12636076041E+02  0.12636076041E+02  0.00000000000E+00 0.  1.
         25    2    1    2    0    0 -0.36345977751E+02 -0.12761936614E+02  0.61543869517E+03  0.62920255986E+03  0.12508867531E+03 0.  0.
          5    1    3    3  502    0 -0.29969429949E+01 -0.26374438052E+02  0.57194299842E+03  0.57257388911E+03  0.41800000000E+01 0.  1.
         -5    1    3    3    0  502 -0.33349034756E+02  0.13612501439E+02  0.43495696757E+02  0.56628670750E+02  0.41800000000E+01 0.  1.
        -11    1    1    2    0    0  0.46129912730E+02 -0.28874641574E+02  0.27156639638E+03  0.27696574052E+03  0.00000000000E+00 0.  1.
         11    1    1    2    0    0 -0.97839349791E+01  0.41636578188E+02  0.14667109850E+03  0.15278004177E+03  0.00000000000E+00 0. -1.
</event>
<event>
 7    1  0.2788485E-009  0.1009619E+03  0.7561462E-02  0.1278286E+00
         -2   -1    0    0    0  501 -0.00000000000E+00  0.00000000000E+00  0.36778746333E+02  0.36778746333E+02  0.00000000000E+00 0.  1.
          2   -1    0    0  501    0  0.00000000000E+00 -0.00000000000E+00 -0.64437780253E+03  0.64437780253E+03  0.00000000000E+00 0. -1.
         25    2    1    2    0    0  0.11080723664E+02 -0.82660723460E+02 -0.17213245922E+03  0.22854388932E+03  0.12508856139E+03 0.  0.
          5    1    3    3  502    0  0.15136916076E+02 -0.16316806761E+02 -0.15907247009E+03  0.16067634409E+03  0.41800000000E+01 0.  1.
         -5    1    3    3    0  502 -0.40561924123E+01 -0.66343916698E+02 -0.13059989136E+02  0.67867545233E+02  0.41800000000E+01 0.  1.
        -11    1    1    2    0    0 -0.80721550681E+01 -0.13898559568E+02 -0.18076936425E+02  0.24188949461E+02  0.00000000000E+00 0.  1.
         11    1    1    2    0    0 -0.30085685961E+01  0.96559283027E+02 -0.41738966055E+03  0.42842371008E+03  0.00000000000E+00 0. -1.
</event>
<event>
 7    1  0.2788485E-009  0.1795912E+03  0.7561462E-02  0.1168199E+00
          1   -1    0    0  501    0  0.00000000000E+00  0.00000000000E+00  0.12077808421E+03  0.12077808421E+03  0.00000000000E+00 0. -1.
         -1   -1    0    0    0  501 -0.00000000000E+00 -0.00000000000E+00 -0.29237658081E+03  0.29237658081E+03  0.00000000000E+00 0.  1.
         25    2    1    2    0    0 -0.14429752924E+03 -0.31885964406E+02 -0.46665324836E+02  0.19915903827E+03  0.12509267889E+03 0.  0.
          5    1    3    3  502    0 -0.13767062359E+03  0.20144652698E+02 -0.21559361728E+02  0.14085910020E+03  0.41800000000E+01 0.  1.
         -5    1    3    3    0  502 -0.66269056450E+01 -0.52030617104E+02 -0.25105963108E+02  0.58299938064E+02  0.41800000000E+01 0.  1.
        -11    1    1    2    0    0  0.13976988719E+03  0.50191549289E+02 -0.88253909708E+02  0.17275290320E+03  0.00000000000E+00 0. -1.
         11    1    1    2    0    0  0.45276420434E+01 -0.18305584882E+02 -0.36679262060E+02  0.41242723547E+02  0.00000000000E+00 0.  1.
</event>
<event>
 7    1  0.2788485E-009  0.2043716E+03  0.7561462E-02  0.1146102E+00
         -4   -1    0    0    0  501 -0.00000000000E+00  0.00000000000E+00  0.23907161300E+03  0.23907161300E+03  0.00000000000E+00 0.  1.
          4   -1    0    0  501    0  0.00000000000E+00 -0.00000000000E+00 -0.24277963148E+03  0.24277963148E+03  0.00000000000E+00 0. -1.
         25    2    1    2    0    0  0.13585174121E+03  0.12739400960E+03 -0.10880816377E+03  0.24934251543E+03  0.12509014440E+03 0.  0.
          5    1    3    3  502    0  0.24116964515E+02  0.10390098473E+03 -0.31159528825E+02  0.11119996062E+03  0.41800000000E+01 0.  1.
         -5    1    3    3    0  502  0.11173477669E+03  0.23493024871E+02 -0.77648634949E+02  0.13814255481E+03  0.41800000000E+01 0.  1.
        -11    1    1    2    0    0 -0.46640661802E+02 -0.59687027994E+02 -0.44021162832E+01  0.75876684639E+02  0.00000000000E+00 0. -1.
         11    1    1    2    0    0 -0.89211079406E+02 -0.67706981610E+02  0.10950226157E+03  0.15663204441E+03  0.00000000000E+00 0.  1.
</event>
<event>
 7    1  0.2788485E-009  0.1175821E+03  0.7561462E-02  0.1247140E+00
          1   -1    0    0  501    0  0.00000000000E+00  0.00000000000E+00  0.49052301532E+03  0.49052301532E+03  0.00000000000E+00 0. -1.
         -1   -1    0    0    0  501 -0.00000000000E+00 -0.00000000000E+00 -0.38304425701E+02  0.38304425701E+02  0.00000000000E+00 0.  1.
         25    2    1    2    0    0  0.34633669315E+02 -0.66005700954E+02  0.31798308580E+03  0.34973835979E+03  0.12508970320E+03 0.  0.
          5    1    3    3  502    0 -0.20390822937E+02  0.28753286309E+02  0.66295092505E+02  0.75200058669E+02  0.41800000000E+01 0.  1.
         -5    1    3    3    0  502  0.55024492252E+02 -0.94758987263E+02  0.25168799330E+03  0.27453830113E+03  0.41800000000E+01 0.  1.
        -11    1    1    2    0    0 -0.11469897409E+02  0.65855912923E+02  0.31724140720E+02  0.73993113990E+02  0.00000000000E+00 0.  1.
         11    1    1    2    0    0 -0.23163771906E+02  0.14978803096E+00  0.10251136309E+03  0.10509596723E+03  0.00000000000E+00 0. -1.
</event>
<event>
 7    1  0.2788485E-009  0.1153550E+03  0.7561462E-02  0.1250963E+00
         -2   -1    0    0    0  501 -0.00000000000E+00  0.00000000000E+00  0.24799041976E+02  0.24799041976E+02  0.00000000000E+00 0.  1.
          2   -1    0    0  501    0  0.00000000000E+00 -0.00000000000E+00 -0.68136956954E+03  0.68136956954E+03  0.00000000000E+00 0. -1.
         25    2    1    2    0    0  0.54420137682E+02 -0.45739293922E+02 -0.38648768337E+03  0.41239885190E+03  0.12508576760E+03 0.  0.
          5    1    3    3  502    0  0.32949336386E+01 -0.61629376006E+02 -0.32468451412E+03  0.33052464762E+03  0.41800000000E+01 0. -1.
         -5    1    3    3    0  502  0.51125204044E+02  0.15890082084E+02 -0.61803169253E+02  0.81874204282E+02  0.41800000000E+01 0. -1.
        -11    1    1    2    0    0 -0.75161929655E+02  0.54286881444E+02 -0.20697174756E+03  0.22678995889E+03  0.00000000000E+00 0.  1.
         11    1    1    2    0    0  0.20741791973E+02 -0.85475875222E+01 -0.63111096634E+02  0.66979800724E+02  0.00000000000E+00 0. -1.
</event>
<event>
 7    1  0.2788485E-009  0.1029264E+03  0.7561462E-02  0.1274260E+00
         -1   -1    0    0    0  501 -0.00000000000E+00  0.00000000000E+00  0.34915590640E+03  0.34915590640E+03  0.00000000000E+00 0.  1.
          1   -1    0    0  501    0  0.00000000000E+00 -0.00000000000E+00 -0.43108812921E+02  0.43108812921E+02  0.00000000000E+00 0. -1.
         25    2    1    2    0    0  0.35324739464E+02 -0.19653849479E+02  0.22718934085E+03  0.26248152869E+03  0.12508974893E+03 0.  0.
          5    1    3    3  502    0  0.55606075923E+02  0.38839914990E+02  0.99207619630E+02  0.12025056702E+03  0.41800000000E+01 0. -1.
         -5    1    3    3    0  502 -0.20281336459E+02 -0.58493764469E+02  0.12798172122E+03  0.14223096167E+03  0.41800000000E+01 0. -1.
        -11    1    1    2    0    0 -0.29475557068E+02  0.42802293455E+02  0.50555505615E+01  0.52214972766E+02  0.00000000000E+00 0. -1.
         11    1    1    2    0    0 -0.58491823960E+01 -0.23148443976E+02  0.73802202066E+02  0.77568217867E+02  0.00000000000E+00 0.  1.
</event>
<event>
 7    1  0.2788485E-009  0.9297244E+02  0.7561462E-02  0.1295809E+00
          2   -1    0    0  501    0  0.00000000000E+00  0.00000000000E+00  0.97128975837E+02  0.97128975837E+02  0.00000000000E+00 0. -1.
         -2   -1    0    0    0  501 -0.00000000000E+00 -0.00000000000E+00 -0.19902297721E+03  0.19902297721E+03  0.00000000000E+00 0.  1.
         25    2    1    2    0    0  0.10590077855E+02 -0.35110090138E+02  0.27746706405E+02  0.13327682674E+03  0.12509182487E+03 0.  0.
          5    1    3    3  502    0  0.54351572177E+02 -0.46707219681E+02  0.44914888897E+02  0.84678671536E+02  0.41800000000E+01 0. -1.
         -5    1    3    3    0  502 -0.43761494321E+02  0.11597129544E+02 -0.17168182492E+02  0.48598155201E+02  0.41800000000E+01 0. -1.
        -11    1    1    2    0    0  0.19062443578E+02  0.34050775599E+02 -0.12725952329E+03  0.13310829554E+03  0.00000000000E+00 0.  1.
         11    1    1    2    0    0 -0.29652521433E+02  0.10593145387E+01 -0.23811844923E+01  0.29766830772E+02  0.00000000000E+00 0. -1.
</event>
<event>
 7    1  0.2788485E-009  0.3401962E+03  0.7561462E-02  0.1066712E+00
          2   -1    0    0  501    0  0.00000000000E+00  0.00000000000E+00  0.65032911609E+03  0.65032911609E+03  0.00000000000E+00 0. -1.
         -2   -1    0    0    0  501 -0.00000000000E+00 -0.00000000000E+00 -0.20395047645E+03  0.20395047645E+03  0.00000000000E+00 0.  1.
         25    2    1    2    0    0  0.33162198916E+03 -0.36787288521E+02  0.11249837629E+03  0.37366793421E+03  0.12508154178E+03 0.  0.
          5    1    3    3  502    0  0.80680118627E+02 -0.31952065683E+02 -0.20963650446E+02  0.89370929743E+02  0.41800000000E+01 0. -1.
         -5    1    3    3    0  502  0.25094187054E+03 -0.48352228374E+01  0.13346202674E+03  0.28429700447E+03  0.41800000000E+01 0. -1.
        -11    1    1    2    0    0 -0.16639642572E+03  0.57326293396E+02  0.13881133295E+03  0.22414874651E+03  0.00000000000E+00 0.  1.
         11    1    1    2    0    0 -0.16522556344E+03 -0.20539004875E+02  0.19506893040E+03  0.25646291183E+03  0.00000000000E+00 0. -1.
</event>
<event>
 7    1  0.2788485E-009  0.1656657E+03  0.7561462E-02  0.1182445E+00
         -2   -1    0    0    0  501 -0.00000000000E+00  0.00000000000E+00  0.23084697671E+02  0.23084697671E+02  0.00000000000E+00 0. -1.
          2   -1    0    0  501    0  0.00000000000E+00 -0.00000000000E+00 -0.12490537659E+04  0.12490537659E+04  0.00000000000E+00 0.  1.
         25    2    1    2    0    0  0.79285121396E+02 -0.10080518482E+03 -0.55127850735E+03  0.57965811263E+03  0.12509084344E+03 0.  0.
          5    1    3    3  502    0 -0.15110910676E+02 -0.78726629120E+02 -0.29143290311E+03  0.30228600889E+03  0.41800000000E+01 0. -1.
         -5    1    3    3    0  502  0.94396032072E+02 -0.22078555697E+02 -0.25984560423E+03  0.27737210374E+03  0.41800000000E+01 0. -1.
        -11    1    1    2    0    0  0.12510284295E+02  0.44754289717E+02 -0.15689352549E+03  0.16363077951E+03  0.00000000000E+00 0.  1.
         11    1    1    2    0    0 -0.91795405690E+02  0.56050895100E+02 -0.51779703536E+03  0.52884957140E+03  0.00000000000E+00 0. -1.
</event>
<event>
 7    1  0.2788485E-009  0.1027588E+03  0.7561462E-02  0.1274599E+00
          1   -1    0    0  501    0  0.00000000000E+00  0.00000000000E+00  0.66665449102E+02  0.66665449102E+02  0.00000000000E+00 0.  1.
         -1   -1    0    0    0  501 -0.00000000000E+00 -0.00000000000E+00 -0.24665955056E+03  0.24665955056E+03  0.00000000000E+00 0. -1.
         25    2    1    2    0    0  0.55542138188E+01 -0.16929807577E+02 -0.18223153902E+03  0.22175243694E+03  0.12509333235E+03 0.  0.
          5    1    3    3  502    0  0.62578242405E+02  0.55011648849E+00 -0.66022955461E+02  0.91065043230E+02  0.41800000000E+01 0.  1.
         -5    1    3    3    0  502 -0.57024028586E+02 -0.17479924065E+02 -0.11620858356E+03  0.13068739371E+03  0.41800000000E+01 0.  1.
        -11    1    1    2    0    0  0.14697188346E+02 -0.29166142324E+02  0.19865902921E+02  0.38227284787E+02  0.00000000000E+00 0.  1.
         11    1    1    2    0    0 -0.20251402165E+02  0.46095949901E+02 -0.17628465354E+02  0.53345277932E+02  0.00000000000E+00 0. -1.
</event>
<event>
 7    1  0.2788485E-009  0.1119233E+03  0.7561462E-02  0.1257049E+00
         -4   -1    0    0    0  501 -0.00000000000E+00  0.00000000000E+00  0.37711170133E+02  0.37711170133E+02  0.00000000000E+00 0.  1.
          4   -1    0    0  501    0  0.00000000000E+00 -0.00000000000E+00 -0.33548220364E+03  0.33548220364E+03  0.00000000000E+00 0. -1.
         25    2    1    2    0    0 -0.31729552648E+02 -0.72312791486E+01 -0.16308790154E+03  0.20809783909E+03  0.12509193057E+03 0.  0.
          5    1    3    3  502    0 -0.47783229624E+02 -0.57819469518E+02 -0.10728170601E+03  0.13097009175E+03  0.41800000000E+01 0.  1.
         -5    1    3    3    0  502  0.16053676976E+02  0.50588190369E+02 -0.55806195539E+02  0.77127747340E+02  0.41800000000E+01 0.  1.
        -11    1    1    2    0    0  0.54039184128E+02 -0.22310162864E+02 -0.82675913322E+02  0.10125849807E+03  0.00000000000E+00 0. -1.
         11    1    1    2    0    0 -0.22309631479E+02  0.29541442012E+02 -0.52007218636E+02  0.63837036610E+02  0.00000000000E+00 0.  1.
</event>
<event>
 7    1  0.2788485E-009  0.1214049E+03  0.7561462E-02  0.1240797E+00
          1   -1    0    0  501    0  0.00000000000E+00  0.00000000000E+00  0.65449462457E+02  0.65449462457E+02  0.00000000000E+00 0. -1.
         -1   -1    0    0    0  501 -0.00000000000E+00 -0.00000000000E+00 -0.36696160098E+03  0.36696160098E+03  0.00000000000E+00 0.  1.
         25    2    1    2    0    0 -0.17299670061E+02  0.10322356604E+03 -0.11343473035E+03  0.19866763906E+03  0.12508800737E+03 0.  0.
          5    1    3    3  502    0 -0.16111074188E+01  0.96931106798E+02 -0.14380247676E+02  0.98094337530E+02  0.41800000000E+01 0. -1.
         -5    1    3    3    0  502 -0.15688562642E+02  0.62924592375E+01 -0.99054482679E+02  0.10057330153E+03  0.41800000000E+01 0. -1.
        -11    1    1    2    0    0  0.27620326514E+02 -0.31966231606E+01 -0.86298051342E+02  0.90666722130E+02  0.00000000000E+00 0.  1.
         11    1    1    2    0    0 -0.10320656454E+02 -0.10002694288E+03 -0.10177935682E+03  0.14307670225E+03  0.00000000000E+00 0. -1.
</event>
<event>
 7    1  0.2788485E-009  0.1657435E+03  0.7561462E-02  0.1182361E+00
          2   -1    0    0  501    0  0.00000000000E+00  0.00000000000E+00  0.13482070969E+04  0.13482070969E+04  0.00000000000E+00 0. -1.
         -2   -1    0    0    0  501 -0.00000000000E+00 -0.00000000000E+00 -0.28775965554E+02  0.28775965554E+02  0.00000000000E+00 0.  1.
         25    2    1    2    0    0 -0.10563621891E+03 -0.12027918544E+03  0.56151583305E+03  0.59713745183E+03  0.12508801866E+03 0.  0.
          5    1    3    3  502    0  0.42437708289E+01 -0.25528049837E+02  0.27212417675E+03  0.27338385265E+03  0.41800000000E+01 0.  1.
         -5    1    3    3    0  502 -0.10987998974E+03 -0.94751135599E+02  0.28939165631E+03  0.32375359918E+03  0.41800000000E+01 0.  1.
        -11    1    1    2    0    0  0.11732401234E+02  0.15126829745E+02  0.16890531383E+02  0.25529595908E+02  0.00000000000E+00 0.  1.
         11    1    1    2    0    0  0.93903817675E+02  0.10515235569E+03  0.74102476687E+03  0.75431601468E+03  0.00000000000E+00 0. -1.
</event>
<event>
 7    1  0.2788485E-009  0.1198612E+03  0.7561462E-02  0.1243326E+00
          2   -1    0    0  501    0  0.00000000000E+00  0.00000000000E+00  0.46929509166E+02  0.46929509166E+02  0.00000000000E+00 0. -1.
         -2   -1    0    0    0  501 -0.00000000000E+00 -0.00000000000E+00 -0.38568174835E+03  0.38568174835E+03  0.00000000000E+00 0.  1.
         25    2    1    2    0    0  0.20212691029E+02  0.75700208800E+02 -0.16448462694E+03  0.22099984595E+03  0.12508662965E+03 0.  0.
          5    1    3    3  502    0 -0.47242756196E+02  0.33286640330E+02 -0.11016617301E+03  0.12447464205E+03  0.41800000000E+01 0.  1.
         -5    1    3    3    0  502  0.67455447225E+02  0.42413568470E+02 -0.54318453934E+02  0.96525203903E+02  0.41800000000E+01 0.  1.
        -11    1    1    2    0    0 -0.41443651740E+02 -0.28686177468E+02 -0.14220582061E+03  0.15087401520E+03  0.00000000000E+00 0.  1.
         11    1    1    2    0    0  0.21230960710E+02 -0.47014031333E+02 -0.32061791634E+02  0.60737396368E+02  0.00000000000E+00 0. -1.
</event>
<event>
 7    1  0.2788485E-009  0.1068253E+03  0.7561462E-02  0.1266565E+00
          1   -1    0    0  501    0  0.00000000000E+00  0.00000000000E+00  0.56456749439E+03  0.56456749439E+03  0.00000000000E+00 0. -1.
         -1   -1    0    0    0  501 -0.00000000000E+00 -0.00000000000E+00 -0.24104526451E+02  0.24104526451E+02  0.00000000000E+00 0.  1.
         25    2    1    2    0    0 -0.55518269374E+01 -0.40924599080E+02  0.29009181475E+03  0.31859986710E+03  0.12508784410E+03 0.  0.
          5    1    3    3  502    0 -0.29070102082E+02  0.36644592896E+02  0.72677089397E+02  0.86529351938E+02  0.41800000000E+01 0.  1.
         -5    1    3    3    0  502  0.23518275145E+02 -0.77569191976E+02  0.21741472535E+03  0.23207051517E+03  0.41800000000E+01 0.  1.
        -11    1    1    2    0    0 -0.31894744272E+02  0.26902740144E+01  0.17336806036E+03  0.17629803356E+03  0.00000000000E+00 0. -1.
         11    1    1    2    0    0  0.37446571209E+02  0.38234325066E+02  0.77003092835E+02  0.93774120176E+02  0.00000000000E+00 0.  1.
</event>
<event>
 7    1  0.2788485E-009  0.1567664E+03  0.7561462E-02  0.1192397E+00
         -4   -1    0    0    0  501 -0.00000000000E+00  0.00000000000E+00  0.90500653139E+02  0.90500653139E+02  0.00000000000E+00 0.  1.
          4   -1    0    0  501    0  0.00000000000E+00 -0.00000000000E+00 -0.64302165517E+03  0.64302165517E+03  0.00000000000E+00 0. -1.
         25    2    1    2    0    0 -0.89121244958E+02 -0.85249300979E+02 -0.55204205956E+03  0.57931717330E+03  0.12509161497E+03 0.  0.
          5    1    3    3  502    0 -0.67758790032E+01  0.29254054795E+02 -0.15528348835E+03  0.15821550623E+03  0.41800000000E+01 0.  1.
         -5    1    3    3    0  502 -0.82345365955E+02 -0.11450335577E+03 -0.39675857121E+03  0.42110166706E+03  0.41800000000E+01 0.  1.
        -11    1    1    2    0    0  0.10140437952E+03  0.75226085598E+02 -0.21290067299E+02  0.12804327044E+03  0.00000000000E+00 0. -1.
         11    1    1    2    0    0 -0.12283134561E+02  0.10023215381E+02  0.20811124827E+02  0.26161864570E+02  0.00000000000E+00 0.  1.
</event>
<event>
 7    1  0.2788485E-009  0.1054010E+03  0.7561462E-02  0.1269332E+00
          4   -1    0    0  501    0  0.00000000000E+00  0.00000000000E+00  0.56549687763E+02  0.56549687763E+02  0.00000000000E+00 0. -1.
         -4   -1    0    0    0  501 -0.00000000000E+00 -0.00000000000E+00 -0.24046101182E+03  0.24046101182E+03  0.00000000000E+00 0.  1.
         25    2    1    2    0    0 -0.23286694994E+02 -0.36822527566E+00 -0.15703959676E+03  0.20211673360E+03  0.12508930129E+03 0.  0.
          5    1    3    3  502    0  0.31111404972E+02  0.41899002118E+02 -0.38633422494E+02  0.65065041546E+02  0.41800000000E+01 0.  1.
         -5    1    3    3    0  502 -0.54398099966E+02 -0.42267227393E+02 -0.11840617426E+03  0.13705169205E+03  0.41800000000E+01 0.  1.
        -11    1    1    2    0    0  0.14673701114E+02  0.43261986765E+02 -0.22508709959E+02  0.50926997038E+02  0.00000000000E+00 0.  1.
         11    1    1    2    0    0  0.86129938806E+01 -0.42893761490E+02 -0.43630173459E+01  0.43966968950E+02  0.00000000000E+00 0. -1.
</event>
<event>
 7    1  0.2788485E-009  0.1405825E+03  0.7561462E-02  0.1212547E+00
          1   -1    0    0  501    0  0.00000000000E+00  0.00000000000E+00  0.21373120122E+02  0.21373120122E+02  0.00000000000E+00 0. -1.
         -1   -1    0    0    0  501 -0.00000000000E+00 -0.00000000000E+00 -0.10546765868E+04  0.10546765868E+04  0.00000000000E+00 0.  1.
         25    2    1    2    0    0 -0.62895134648E+02 -0.78724528631E+02 -0.51492540098E+03  0.53939711712E+03  0.12509089498E+03 0.  0.
          5    1    3    3  502    0 -0.54300774413E+01 -0.89052173789E+02 -0.40633056795E+03  0.41603098232E+03  0.41800000000E+01 0. -1.
         -5    1    3    3    0  502 -0.57465057207E+02  0.10327645158E+02 -0.10859483304E+03  0.12336613480E+03  0.41800000000E+01 0. -1.
        -11    1    1    2    0    0  0.78641533669E+02  0.33595222569E+02 -0.39899691176E+03  0.40805840929E+03  0.00000000000E+00 0.  1.
         11    1    1    2    0    0 -0.15746399021E+02  0.45129306062E+02 -0.11938115393E+03  0.12859418052E+03  0.00000000000E+00 0. -1.
</event>
<event>
 7    1  0.2809363E-009  0.9567442E+02  0.7561462E-02  0.1289664E+00
          1   -1    0    0  501    0  0.00000000000E+00  0.00000000000E+00  0.14162195442E+03  0.14162195442E+03  0.00000000000E+00 0. -1.
         -1   -1    0    0    0  501 -0.00000000000E+00 -0.00000000000E+00 -0.12913952262E+03  0.12913952262E+03  0.00000000000E+00 0.  1.
         25    2    1    2    0    0  0.79969520089E+02 -0.11117711549E+02  0.64855978770E+01  0.14902266766E+03  0.12508782852E+03 0.  0.
          5    1    3    3  502    0  0.50217566215E+02 -0.13274072371E+02  0.64940693490E+02  0.83263263357E+02  0.41800000000E+01 0.  1.
         -5    1    3    3    0  502  0.29751953874E+02  0.21563608216E+01 -0.58455095613E+02  0.65759404304E+02  0.41800000000E+01 0.  1.
        -11    1    1    2    0    0  0.50592970604E+01  0.22741529604E+02 -0.21418161047E+02  0.31646662986E+02  0.00000000000E+00 0.  1.
         11    1    1    2    0    0 -0.85028817149E+02 -0.11623818055E+02  0.27414994972E+02  0.90092146391E+02  0.00000000000E+00 0. -1.
</event>
<event>
 7    1  0.2788485E-009  0.1148598E+03  0.7561462E-02  0.1251826E+00
          3   -1    0    0  501    0  0.00000000000E+00  0.00000000000E+00  0.13850602024E+03  0.13850602024E+03  0.00000000000E+00 0. -1.
         -3   -1    0    0    0  501 -0.00000000000E+00 -0.00000000000E+00 -0.10850744505E+03  0.10850744505E+03  0.00000000000E+00 0.  1.
         25    2    1    2    0    0 -0.35229105239E+02 -0.39758441184E+02  0.37676180742E+02  0.14102385649E+03  0.12508561070E+03 0.  0.
          5    1    3    3  502    0  0.42581524324E+02  0.60002061558E+01  0.22462627798E+00  0.43205457348E+02  0.41800000000E+01 0.  1.
         -5    1    3    3    0  502 -0.77810629563E+02 -0.45758647339E+02  0.37451554464E+02  0.97818399144E+02  0.41800000000E+01 0.  1.
        -11    1    1    2    0    0  0.80025796937E+01 -0.24813745931E+02  0.17639894012E+02  0.31479026822E+02  0.00000000000E+00 0.  1.
         11    1    1    2    0    0  0.27226525546E+02  0.64572187115E+02 -0.25317499561E+02  0.74510581974E+02  0.00000000000E+00 0. -1.
</event>
<event>
 7    1  0.2788485E-009  0.9065291E+02  0.7561462E-02  0.1301278E+00
         -2   -1    0    0    0  501 -0.00000000000E+00  0.00000000000E+00  0.32816051303E+02  0.32816051303E+02  0.00000000000E+00 0.  1.
          2   -1    0    0  501    0  0.00000000000E+00 -0.00000000000E+00 -0.50958557594E+03  0.50958557594E+03  0.00000000000E+00 0. -1.
         25    2    1    2    0    0 -0.56157006248E+02 -0.31187317675E+02 -0.21744518408E+03  0.25895442570E+03  0.12509487748E+03 0.  0.
          5    1    3    3  502    0 -0.36973454153E+02 -0.42849462581E+02 -0.19967115977E+02  0.60160376295E+02  0.41800000000E+01 0.  1.
         -5    1    3    3    0  502 -0.19183552095E+02  0.11662144907E+02 -0.19747806810E+03  0.19879404940E+03  0.41800000000E+01 0.  1.
        -11    1    1    2    0    0 -0.11270376882E+02 -0.15891899647E+02 -0.12172298738E+02  0.22972564637E+02  0.00000000000E+00 0.  1.
         11    1    1    2    0    0  0.67427383130E+02  0.47079217322E+02 -0.24715204182E+03  0.26047463691E+03  0.00000000000E+00 0. -1.
</event>
<event>
 7    1  0.2788485E-009  0.1107585E+03  0.7561462E-02  0.1259172E+00
         -4   -1    0    0    0  501 -0.00000000000E+00  0.00000000000E+00  0.57873842332E+03  0.57873842332E+03  0.00000000000E+00 0.  1.
          4   -1    0    0  501    0  0.00000000000E+00 -0.00000000000E+00 -0.32675184511E+02  0.32675184511E+02  0.00000000000E+00 0. -1.
         25    2    1    2    0    0 -0.43595500043E+01  0.46998142520E+02  0.14314254149E+03  0.19586644470E+03  0.12508415527E+03 0.  0.
          5    1    3    3  502    0 -0.43920666248E+02 -0.16031732714E+02  0.18130004373E+02  0.50321077453E+02  0.41800000000E+01 0.  1.
         -5    1    3    3    0  502  0.39561116244E+02  0.63029875235E+02  0.12501253712E+03  0.14554536725E+03  0.41800000000E+01 0.  1.
        -11    1    1    2    0    0  0.48430694583E+01 -0.73437802564E+02  0.26072363183E+03  0.27091212295E+03  0.00000000000E+00 0. -1.
         11    1    1    2    0    0 -0.48351945403E+00  0.26439660043E+02  0.14219706548E+03  0.14463504018E+03  0.00000000000E+00 0.  1.
</event>
<event>
 7    1  0.2788485E-009  0.1626375E+03  0.7561462E-02  0.1185751E+00
         -4   -1    0    0    0  501 -0.00000000000E+00  0.00000000000E+00  0.10418680875E+03  0.10418680875E+03  0.00000000000E+00 0.  1.
          4   -1    0    0  501    0  0.00000000000E+00 -0.00000000000E+00 -0.30170126812E+03  0.30170126812E+03  0.00000000000E+00 0. -1.
         25    2    1    2    0    0  0.12205733096E+03  0.65348550046E+02 -0.12462291259E+03  0.22438065470E+03  0.12508949928E+03 0.  0.
          5    1    3    3  502    0 -0.13055741688E+02 -0.20159038477E+02 -0.56250766196E+01  0.25019054944E+02  0.41800000000E+01 0. -1.
         -5    1    3    3    0  502  0.13511307264E+03  0.85507588523E+02 -0.11899783597E+03  0.19936159976E+03  0.41800000000E+01 0. -1.
        -11    1    1    2    0    0 -0.16791664219E+02  0.46590787755E+00  0.20246119839E+02  0.26307459511E+02  0.00000000000E+00 0.  1.
         11    1    1    2    0    0 -0.10526566674E+03 -0.65814457924E+02 -0.93137666619E+02  0.15519996266E+03  0.00000000000E+00 0. -1.
</event>
<event>
 7    1  0.2788485E-009  0.1039918E+03  0.7561462E-02  0.1272119E+00
         -2   -1    0    0    0  501 -0.00000000000E+00  0.00000000000E+00  0.65284042738E+03  0.65284042738E+03  0.00000000000E+00 0.  1.
          2   -1    0    0  501    0  0.00000000000E+00 -0.00000000000E+00 -0.26356194981E+02  0.26356194981E+02  0.00000000000E+00 0. -1.
         25    2    1    2    0    0 -0.67122280018E+02 -0.20232365370E+02  0.30390377699E+03  0.33603586209E+03  0.12509135007E+03 0.  0.
          5    1    3    3  502    0 -0.44222431285E+02 -0.52151755264E+02  0.66866337308E+02  0.95728827794E+02  0.41800000000E+01 0. -1.
         -5    1    3    3    0  502 -0.22899848734E+02  0.31919389893E+02  0.23703743968E+03  0.24030703430E+03  0.41800000000E+01 0. -1.
        -11    1    1    2    0    0  0.35358938146E+02 -0.25993946348E+02  0.23568753958E+03  0.23973851603E+03  0.00000000000E+00 0.  1.
         11    1    1    2    0    0  0.31763341873E+02  0.46226311719E+02  0.86892915824E+02  0.10342224423E+03  0.00000000000E+00 0. -1.
</event>
<event>
 7    1  0.2788485E-009  0.9127247E+02  0.7561462E-02  0.1299799E+00
         -2   -1    0    0    0  501 -0.00000000000E+00  0.00000000000E+00  0.21814368319E+02  0.21814368319E+02  0.00000000000E+00 0.  1.
          2   -1    0    0  501    0  0.00000000000E+00 -0.00000000000E+00 -0.78102353462E+03  0.78102353462E+03  0.00000000000E+00 0. -1.
         25    2    1    2    0    0  0.10235957745E+01  0.56826638435E+02 -0.54625522491E+03  0.56326923854E+03  0.12508856769E+03 0.  0.
          5    1    3    3  502    0  0.23161097635E+02  0.22891263717E+02 -0.27247282824E+02  0.42665363229E+02  0.41800000000E+01 0.  1.
         -5    1    3    3    0  502 -0.22137501860E+02  0.33935374718E+02 -0.51900794208E+03  0.52060387531E+03  0.41800000000E+01 0.  1.
        -11    1    1    2    0    0 -0.39835590555E+02 -0.57751302212E+02 -0.12314951489E+03  0.14173175438E+03  0.00000000000E+00 0. -1.
         11    1    1    2    0    0  0.38811994781E+02  0.92466377639E+00 -0.89804426506E+02  0.97836910019E+02  0.00000000000E+00 0.  1.
</event>
<event>
 7    1  0.2788485E-009  0.1039123E+03  0.7561462E-02  0.1272278E+00
         -1   -1    0    0    0  501 -0.00000000000E+00  0.00000000000E+00  0.30519453556E+02  0.30519453556E+02  0.00000000000E+00 0.  1.
          1   -1    0    0  501    0  0.00000000000E+00 -0.00000000000E+00 -0.44091008697E+03  0.44091008697E+03  0.00000000000E+00 0. -1.
         25    2    1    2    0    0  0.27798526889E+02 -0.31414042580E+02 -0.24841561125E+03  0.28127927803E+03  0.12509243049E+03 0.  0.
          5    1    3    3  502    0  0.48941914135E+02 -0.64409118982E+02 -0.21449849855E+03  0.22928350104E+03  0.41800000000E+01 0.  1.
         -5    1    3    3    0  502 -0.21143387247E+02  0.32995076401E+02 -0.33917112701E+02  0.51995776991E+02  0.41800000000E+01 0.  1.
        -11    1    1    2    0    0 -0.46572180577E+02  0.44589594860E+02 -0.69200947971E+02  0.94583144236E+02  0.00000000000E+00 0.  1.
         11    1    1    2    0    0  0.18773653688E+02 -0.13175552280E+02 -0.92774074188E+02  0.95567118258E+02  0.00000000000E+00 0. -1.
</event>
<event>
 7    1  0.2788485E-009  0.1227165E+03  0.7561462E-02  0.1238682E+00
          2   -1    0    0  501    0  0.00000000000E+00  0.00000000000E+00  0.11739949420E+03  0.11739949420E+03  0.00000000000E+00 0.  1.
         -2   -1    0    0    0  501 -0.00000000000E+00 -0.00000000000E+00 -0.16831336634E+03  0.16831336634E+03  0.00000000000E+00 0. -1.
         25    2    1    2    0    0 -0.61813752738E+02 -0.67393227424E+02 -0.29313179027E+02  0.15770031975E+03  0.12508933310E+03 0.  0.
          5    1    3    3  502    0  0.12102499448E+02 -0.72442934939E+02 -0.38322597018E+02  0.82949039522E+02  0.41800000000E+01 0.  1.
         -5    1    3    3    0  502 -0.73916252185E+02  0.50497075152E+01  0.90094179908E+01  0.74751280228E+02  0.41800000000E+01 0.  1.
        -11    1    1    2    0    0  0.40469325447E+02  0.18873660939E+02  0.30192007613E+02  0.53903049107E+02  0.00000000000E+00 0.  1.
         11    1    1    2    0    0  0.21344427291E+02  0.48519566485E+02 -0.51792700725E+02  0.74109491677E+02  0.00000000000E+00 0. -1.
</event>
<event>
 7    1  0.2788485E-009  0.1160313E+03  0.7561462E-02  0.1249792E+00
          3   -1    0    0  501    0  0.00000000000E+00  0.00000000000E+00  0.10254889403E+03  0.10254889403E+03  0.00000000000E+00 0. -1.
         -3   -1    0    0    0  501 -0.00000000000E+00 -0.00000000000E+00 -0.14214168133E+03  0.14214168133E+03  0.00000000000E+00 0.  1.
         25    2    1    2    0    0  0.49314915623E+02  0.55242035754E+01 -0.22819414297E+02  0.13649331440E+03  0.12508885434E+03 0.  0.
          5    1    3    3  502    0  0.31827828671E+02 -0.58856037058E+02 -0.18315471998E+02  0.69498004939E+02  0.41800000000E+01 0. -1.
         -5    1    3    3    0  502  0.17487086952E+02  0.64380240633E+02 -0.45039422995E+01  0.66995309465E+02  0.41800000000E+01 0. -1.
        -11    1    1    2    0    0 -0.40362795012E+01  0.36308650885E+02  0.14216222621E+02  0.39200901354E+02  0.00000000000E+00 0. -1.
         11    1    1    2    0    0 -0.45278636122E+02 -0.41832854461E+02 -0.30989595624E+02  0.68996359602E+02  0.00000000000E+00 0.  1.
</event>
<event>
 7    1  0.2788485E-009  0.1044706E+03  0.7561462E-02  0.1271166E+00
         -4   -1    0    0    0  501 -0.00000000000E+00  0.00000000000E+00  0.47370991966E+02  0.47370991966E+02  0.00000000000E+00 0.  1.
          4   -1    0    0  501    0  0.00000000000E+00 -0.00000000000E+00 -0.53885935989E+03  0.53885935989E+03  0.00000000000E+00 0. -1.
         25    2    1    2    0    0  0.15259767046E+02  0.43750436537E+02 -0.46080933487E+03  0.47972799485E+03  0.12508694874E+03 0.  0.
          5    1    3    3  502    0  0.25289563431E+02 -0.28734820582E+02 -0.30635053344E+03  0.30876103004E+03  0.41800000000E+01 0. -1.
         -5    1    3    3    0  502 -0.10029796385E+02  0.72485257119E+02 -0.15445880144E+03  0.17096696481E+03  0.41800000000E+01 0. -1.
        -11    1    1    2    0    0  0.35572486592E+02 -0.22175784726E+02  0.26507304251E+01  0.42002304727E+02  0.00000000000E+00 0.  1.
         11    1    1    2    0    0 -0.50832253638E+02 -0.21574651810E+02 -0.33329763471E+02  0.64500052277E+02  0.00000000000E+00 0. -1.
</event>
<event>
 7    1  0.2788485E-009  0.1609125E+03  0.7561462E-02  0.1187670E+00
          2   -1    0    0  501    0  0.00000000000E+00  0.00000000000E+00  0.56981310814E+02  0.56981310814E+02  0.00000000000E+00 0.  1.
         -2   -1    0    0    0  501 -0.00000000000E+00 -0.00000000000E+00 -0.68610217249E+03  0.68610217249E+03  0.00000000000E+00 0. -1.
         25    2    1    2    0    0  0.45629909738E+02 -0.12689289011E+03 -0.15099177397E+03  0.23796901104E+03  0.12508733023E+03 0.  0.
          5    1    3    3  502    0  0.15160587593E+02  0.16376710331E+02  0.57274119093E+01  0.23416141967E+02  0.41800000000E+01 0. -1.
         -5    1    3    3    0  502  0.30469322145E+02 -0.14326960044E+03 -0.15671918588E+03  0.21455286907E+03  0.41800000000E+01 0. -1.
        -11    1    1    2    0    0  0.14388561495E+02  0.64213636407E+02 -0.12256661574E+03  0.13911504985E+03  0.00000000000E+00 0.  1.
         11    1    1    2    0    0 -0.60018471234E+02  0.62679253707E+02 -0.35556247196E+03  0.36599942241E+03  0.00000000000E+00 0. -1.
</event>
<event>
 7    1  0.2788485E-009  0.1092942E+03  0.7561462E-02  0.1261883E+00
          1   -1    0    0  501    0  0.00000000000E+00  0.00000000000E+00  0.11192238681E+04  0.11192238681E+04  0.00000000000E+00 0. -1.
         -1   -1    0    0    0  501 -0.00000000000E+00 -0.00000000000E+00 -0.15852161511E+02  0.15852161511E+02  0.00000000000E+00 0.  1.
         25    2    1    2    0    0 -0.60858011186E+02 -0.65263903061E+01  0.80363789608E+03  0.81561437692E+03  0.12508658010E+03 0.  0.
          5    1    3    3  502    0  0.21365517438E+02 -0.36634418160E+02  0.41655729203E+03  0.41873143646E+03  0.41800000000E+01 0.  1.
         -5    1    3    3    0  502 -0.82223528623E+02  0.30108027854E+02  0.38708060405E+03  0.39688294046E+03  0.41800000000E+01 0.  1.
        -11    1    1    2    0    0  0.12619550371E+02  0.31541447117E+02  0.33399977849E+02  0.47641100514E+02  0.00000000000E+00 0.  1.
         11    1    1    2    0    0  0.48238460815E+02 -0.25015056811E+02  0.26633383266E+03  0.27182055218E+03  0.00000000000E+00 0. -1.
</event>
<event>
 7    1  0.2788485E-009  0.1085471E+03  0.7561462E-02  0.1263284E+00
          2   -1    0    0  501    0  0.00000000000E+00  0.00000000000E+00  0.17755336975E+03  0.17755336975E+03  0.00000000000E+00 0. -1.
         -2   -1    0    0    0  501 -0.00000000000E+00 -0.00000000000E+00 -0.13015808049E+03  0.13015808049E+03  0.00000000000E+00 0.  1.
         25    2    1    2    0    0  0.20461088650E+02 -0.37027282203E+02 -0.73020102505E+02  0.15089249699E+03  0.12508770724E+03 0.  0.
          5    1    3    3  502    0 -0.35345317264E+02  0.28384772713E+02 -0.31181522483E+02  0.55179221803E+02  0.41800000000E+01 0.  1.
         -5    1    3    3    0  502  0.55806405914E+02 -0.65412054916E+02 -0.41838580022E+02  0.95713275191E+02  0.41800000000E+01 0.  1.
        -11    1    1    2    0    0 -0.48753057976E+02  0.22955703249E+02  0.11173440436E+03  0.12404999835E+03  0.00000000000E+00 0.  1.
         11    1    1    2    0    0  0.28291969326E+02  0.14071578954E+02  0.86809874012E+01  0.32768954894E+02  0.00000000000E+00 0. -1.
</event>
<event>
 7    1  0.2788485E-009  0.1569006E+03  0.7561462E-02  0.1192241E+00
         -1   -1    0    0    0  501 -0.00000000000E+00  0.00000000000E+00  0.31571122827E+02  0.31571122827E+02  0.00000000000E+00 0. -1.
          1   -1    0    0  501    0  0.00000000000E+00 -0.00000000000E+00 -0.10356868557E+04  0.10356868557E+04  0.00000000000E+00 0.  1.
         25    2    1    2    0    0 -0.47123923797E+02 -0.12552381777E+03 -0.36621338765E+03  0.40955646627E+03  0.12508941102E+03 0.  0.
          5    1    3    3  502    0 -0.17596558276E+02  0.81101038880E+01 -0.16493628612E+03  0.16612303731E+03  0.41800000000E+01 0. -1.
         -5    1    3    3    0  502 -0.29527365521E+02 -0.13363392166E+03 -0.20127710153E+03  0.24343342896E+03  0.41800000000E+01 0. -1.
        -11    1    1    2    0    0 -0.21706495689E+02  0.51978382602E+02 -0.29413774640E+03  0.29948278427E+03  0.00000000000E+00 0.  1.
         11    1    1    2    0    0  0.68830419486E+02  0.73545435170E+02 -0.34376459884E+03  0.35821872801E+03  0.00000000000E+00 0. -1.
</event>
<event>
 7    1  0.2788485E-009  0.1083784E+03  0.7561462E-02  0.1263603E+00
          1   -1    0    0  501    0  0.00000000000E+00  0.00000000000E+00  0.24288115450E+03  0.24288115450E+03  0.00000000000E+00 0. -1.
         -1   -1    0    0    0  501 -0.00000000000E+00 -0.00000000000E+00 -0.65732758432E+02  0.65732758432E+02  0.00000000000E+00 0.  1.
         25    2    1    2    0    0  0.59525828710E+02 -0.13362641553E+02  0.97224755456E+02  0.16977047498E+03  0.12508987421E+03 0.  0.
          5    1    3    3  502    0 -0.13481431062E+02 -0.50887758875E+02  0.58819745569E+02  0.79047756803E+02  0.41800000000E+01 0.  1.
         -5    1    3    3    0  502  0.73007259773E+02  0.37525117321E+02  0.38405009887E+02  0.90722718180E+02  0.41800000000E+01 0.  1.
        -11    1    1    2    0    0 -0.26383706266E+02  0.33754174475E+02 -0.71831008653E+01  0.43440087348E+02  0.00000000000E+00 0.  1.
         11    1    1    2    0    0 -0.33142122444E+02 -0.20391532921E+02  0.87106741475E+02  0.95403350598E+02  0.00000000000E+00 0. -1.
</event>
<event>
 7    1  0.2788485E-009  0.1044621E+03  0.7561462E-02  0.1271183E+00
         -2   -1    0    0    0  501 -0.00000000000E+00  0.00000000000E+00  0.30187731967E+02  0.30187731967E+02  0.00000000000E+00 0.  1.
          2   -1    0    0  501    0  0.00000000000E+00 -0.00000000000E+00 -0.46427890698E+03  0.46427890698E+03  0.00000000000E+00 0. -1.
         25    2    1    2    0    0  0.38777192521E+02  0.26552784901E+02 -0.22526663152E+03  0.26191896765E+03  0.12509104401E+03 0.  0.
          5    1    3    3  502    0 -0.50353167812E+01  0.60568127016E+02 -0.18054517317E+03  0.19054627884E+03  0.41800000000E+01 0. -1.
         -5    1    3    3    0  502  0.43812509302E+02 -0.34015342115E+02 -0.44721458356E+02  0.71372688810E+02  0.41800000000E+01 0. -1.
        -11    1    1    2    0    0 -0.93378731565E+01  0.28477510138E+02 -0.27100568442E+02  0.40405510375E+02  0.00000000000E+00 0.  1.
         11    1    1    2    0    0 -0.29439319365E+02 -0.55030295039E+02 -0.18172397505E+03  0.19214216092E+03  0.00000000000E+00 0. -1.
</event>
<event>
 7    1  0.2788485E-009  0.1366178E+03  0.7561462E-02  0.1217954E+00
         -1   -1    0    0    0  501 -0.00000000000E+00  0.00000000000E+00  0.13879208467E+03  0.13879208467E+03  0.00000000000E+00 0.  1.
          1   -1    0    0  501    0  0.00000000000E+00 -0.00000000000E+00 -0.13611432542E+03  0.13611432542E+03  0.00000000000E+00 0. -1.
         25    2    1    2    0    0  0.83155929309E+02  0.18720485122E+01 -0.27340837847E+01  0.15024525866E+03  0.12509096446E+03 0.  0.
          5    1    3    3  502    0  0.39615551758E+02  0.63218020864E+02  0.20542786797E+01  0.74750267986E+02  0.41800000000E+01 0.  1.
         -5    1    3    3    0  502  0.43540377551E+02 -0.61345972352E+02 -0.47883624644E+01  0.75494990670E+02  0.41800000000E+01 0.  1.
        -11    1    1    2    0    0 -0.10095074246E+03  0.10503328449E+02  0.11505877004E+02  0.10214576603E+03  0.00000000000E+00 0.  1.
         11    1    1    2    0    0  0.17794813150E+02 -0.12375376961E+02 -0.60940339726E+01  0.22515385407E+02  0.00000000000E+00 0. -1.
</event>
<event>
 7    1  0.2788485E-009  0.3009225E+03  0.7561462E-02  0.1084780E+00
         -2   -1    0    0    0  501 -0.00000000000E+00  0.00000000000E+00  0.40412095443E+02  0.40412095443E+02  0.00000000000E+00 0.  1.
          2   -1    0    0  501    0  0.00000000000E+00 -0.00000000000E+00 -0.25364203453E+04  0.25364203453E+04  0.00000000000E+00 0. -1.
         25    2    1    2    0    0 -0.27650628867E+03 -0.80816194574E+02 -0.92274667239E+03  0.97472893227E+03  0.12509230603E+03 0.  0.
          5    1    3    3  502    0 -0.26296512967E+03 -0.53311609538E+02 -0.69702160130E+03  0.74689314645E+03  0.41800000000E+01 0. -1.
         -5    1    3    3    0  502 -0.13541159005E+02 -0.27504585036E+02 -0.22572507109E+03  0.22783578582E+03  0.41800000000E+01 0. -1.
        -11    1    1    2    0    0  0.20521363026E+03  0.10063499167E+03 -0.12032186726E+04  0.12247347508E+04  0.00000000000E+00 0. -1.
         11    1    1    2    0    0  0.71292658409E+02 -0.19818797097E+02 -0.37004290485E+03  0.37736875770E+03  0.00000000000E+00 0.  1.
</event>
<event>
 7    1  0.2788485E-009  0.9887661E+02  0.7561462E-02  0.1282676E+00
          4   -1    0    0  501    0  0.00000000000E+00  0.00000000000E+00  0.38629635589E+02  0.38629635589E+02  0.00000000000E+00 0. -1.
         -4   -1    0    0    0  501 -0.00000000000E+00 -0.00000000000E+00 -0.30444196389E+03  0.30444196389E+03  0.00000000000E+00 0.  1.
         25    2    1    2    0    0 -0.88665283254E+00 -0.46738501925E+01 -0.14629642107E+03  0.19254302979E+03  0.12509014540E+03 0.  0.
          5    1    3    3  502    0  0.58070642348E+02 -0.40481992713E+01 -0.10600336273E+03  0.12100732511E+03  0.41800000000E+01 0.  1.
         -5    1    3    3    0  502 -0.58957295181E+02 -0.62565092119E+00 -0.40293058337E+02  0.71535704681E+02  0.41800000000E+01 0.  1.
        -11    1    1    2    0    0 -0.21305605600E+02  0.36036135053E+02 -0.97830452441E+02  0.10641113327E+03  0.00000000000E+00 0.  1.
         11    1    1    2    0    0  0.22192258432E+02 -0.31362284861E+02 -0.21685454787E+02  0.44117436410E+02  0.00000000000E+00 0. -1.
</event>
<event>
 7    1  0.4086465E-009  0.2268167E+03  0.7561462E-02  0.1128901E+00
         -2   -1    0    0    0  501 -0.00000000000E+00  0.00000000000E+00  0.81171053538E+02  0.81171053538E+02  0.00000000000E+00 0.  1.
          2   -1    0    0  501    0  0.00000000000E+00 -0.00000000000E+00 -0.68819575831E+03  0.68819575831E+03  0.00000000000E+00 0. -1.
         25    2    1    2    0    0 -0.18555064695E+03  0.97469233099E+02 -0.31892992409E+03  0.40161283502E+03  0.12508908340E+03 0.  0.
          5    1    3    3  502    0 -0.18982485052E+03  0.11739608071E+03 -0.28950776975E+03  0.36557835656E+03  0.41800000000E+01 0. -1.
         -5    1    3    3    0  502  0.42742035638E+01 -0.19926847610E+02 -0.29422154343E+02  0.36034478461E+02  0.41800000000E+01 0. -1.
        -11    1    1    2    0    0  0.12188574846E+03 -0.63396766867E+02 -0.11140825276E+03  0.17688155503E+03  0.00000000000E+00 0.  1.
         11    1    1    2    0    0  0.63664898497E+02 -0.34072466231E+02 -0.17668652792E+03  0.19087242180E+03  0.00000000000E+00 0. -1.
</event>
<event>
 7    1  0.2788485E-009  0.1409604E+03  0.7561462E-02  0.1212042E+00
         -1   -1    0    0    0  501 -0.00000000000E+00  0.00000000000E+00  0.28203552992E+02  0.28203552992E+02  0.00000000000E+00 0.  1.
          1   -1    0    0  501    0  0.00000000000E+00 -0.00000000000E+00 -0.78454140438E+03  0.78454140438E+03  0.00000000000E+00 0. -1.
         25    2    1    2    0    0  0.33374959586E+02  0.25663665840E+02 -0.36381027078E+03  0.38701089832E+03  0.12508801149E+03 0.  0.
          5    1    3    3  502    0 -0.19554633885E+01 -0.41235955653E+02 -0.54175656479E+02  0.68240032463E+02  0.41800000000E+01 0.  1.
         -5    1    3    3    0  502  0.35330422975E+02  0.66899621493E+02 -0.30963461430E+03  0.31877086585E+03  0.41800000000E+01 0.  1.
        -11    1    1    2    0    0 -0.60910435098E+02 -0.81884427505E+02 -0.25288903877E+03  0.27270498071E+03  0.00000000000E+00 0.  1.
         11    1    1    2    0    0  0.27535475511E+02  0.56220761665E+02 -0.13963854183E+03  0.15302907834E+03  0.00000000000E+00 0. -1.
</event>
<event>
 7    1  0.2788485E-009  0.1252294E+03  0.7561462E-02  0.1234711E+00
          2   -1    0    0  501    0  0.00000000000E+00  0.00000000000E+00  0.24713454136E+03  0.24713454136E+03  0.00000000000E+00 0. -1.
         -2   -1    0    0    0  501 -0.00000000000E+00 -0.00000000000E+00 -0.97398631367E+02  0.97398631367E+02  0.00000000000E+00 0.  1.
         25    2    1    2    0    0 -0.55221344574E+02 -0.83498903039E+02  0.25384414005E+02  0.16220153410E+03  0.12507400003E+03 0.  0.
          5    1    3    3  502    0  0.11144484773E+02  0.10037735945E+02  0.43329471742E+02  0.46042059089E+02  0.41800000000E+01 0. -1.
         -5    1    3    3    0  502 -0.66365829346E+02 -0.93536638984E+02 -0.17945057737E+02  0.11615947501E+03  0.41800000000E+01 0. -1.
        -11    1    1    2    0    0 -0.15530237991E+02  0.13141233372E+02  0.60602030245E+02  0.63925631607E+02  0.00000000000E+00 0. -1.
         11    1    1    2    0    0  0.70751582565E+02  0.70357669667E+02  0.63749465746E+02  0.11840600702E+03  0.00000000000E+00 0.  1.
</event>
<event>
 7    1  0.2788485E-009  0.6146605E+02  0.7561462E-02  0.1391780E+00
          1   -1    0    0  501    0  0.00000000000E+00  0.00000000000E+00  0.68761124064E+03  0.68761124064E+03  0.00000000000E+00 0. -1.
         -1   -1    0    0    0  501 -0.00000000000E+00 -0.00000000000E+00 -0.20445575784E+02  0.20445575784E+02  0.00000000000E+00 0.  1.
         25    2    1    2    0    0 -0.16682604570E+02 -0.25667190799E+02  0.48391874696E+03  0.50076162173E+03  0.12509090358E+03 0.  0.
          5    1    3    3  502    0 -0.16601634595E+02 -0.15970492868E+02  0.80233553648E+01  0.24749091802E+02  0.41800000000E+01 0. -1.
         -5    1    3    3    0  502 -0.80969974952E-01 -0.96966979309E+01  0.47589539159E+03  0.47601252992E+03  0.41800000000E+01 0. -1.
        -11    1    1    2    0    0  0.47199239021E+02 -0.27254165313E+01  0.55431759891E+02  0.72855171841E+02  0.00000000000E+00 0.  1.
         11    1    1    2    0    0 -0.30516634450E+02  0.28392607330E+02  0.12781515801E+03  0.13444002286E+03  0.00000000000E+00 0. -1.
</event>
<event>
 7    1  0.2788485E-009  0.1166791E+03  0.7561462E-02  0.1248678E+00
         -2   -1    0    0    0  501 -0.00000000000E+00  0.00000000000E+00  0.11091374806E+03  0.11091374806E+03  0.00000000000E+00 0.  1.
          2   -1    0    0  501    0  0.00000000000E+00 -0.00000000000E+00 -0.17418673780E+03  0.17418673780E+03  0.00000000000E+00 0. -1.
         25    2    1    2    0    0  0.45065792619E+02 -0.70048224912E+02 -0.49417238426E+02  0.15820365310E+03  0.12509457592E+03 0.  0.
          5    1    3    3  502    0 -0.23415795098E+02  0.21207564286E+02 -0.27188490379E+02  0.41889696252E+02  0.41800000000E+01 0.  1.
         -5    1    3    3    0  502  0.68481587718E+02 -0.91255789198E+02 -0.22228748047E+02  0.11631395685E+03  0.41800000000E+01 0.  1.
        -11    1    1    2    0    0 -0.17746743787E+01  0.24195466988E+02  0.38114673294E+02  0.45180730541E+02  0.00000000000E+00 0.  1.
         11    1    1    2    0    0 -0.43291118241E+02  0.45852757924E+02 -0.51970424612E+02  0.81716102221E+02  0.00000000000E+00 0. -1.
</event>
<event>
 7    1  0.2788485E-009  0.1141818E+03  0.7561462E-02  0.1253016E+00
         -3   -1    0    0    0  501 -0.00000000000E+00  0.00000000000E+00  0.46972987176E+03  0.46972987176E+03  0.00000000000E+00 0.  1.
          3   -1    0    0  501    0  0.00000000000E+00 -0.00000000000E+00 -0.81340705503E+02  0.81340705503E+02  0.00000000000E+00 0. -1.
         25    2    1    2    0    0 -0.40198965344E+02 -0.29609784323E+02 -0.14149090125E+02  0.13542640515E+03  0.12508964113E+03 0.  0.
          5    1    3    3  502    0  0.38136709350E+02 -0.27402438560E+02  0.18206997187E+02  0.50539780229E+02  0.41800000000E+01 0. -1.
         -5    1    3    3    0  502 -0.78335674693E+02 -0.22073457636E+01 -0.32356087311E+02  0.84886624925E+02  0.41800000000E+01 0. -1.
        -11    1    1    2    0    0  0.30875278042E+02  0.61876780277E+02  0.29426039660E+03  0.30227669400E+03  0.00000000000E+00 0. -1.
         11    1    1    2    0    0  0.93236873017E+01 -0.32266995954E+02  0.10827785978E+03  0.11336747811E+03  0.00000000000E+00 0.  1.
</event>
<event>
 7    1  0.2788485E-009  0.1356878E+03  0.7561462E-02  0.1219252E+00
         -2   -1    0    0    0  501 -0.00000000000E+00  0.00000000000E+00  0.17029276374E+02  0.17029276374E+02  0.00000000000E+00 0.  1.
          2   -1    0    0  501    0  0.00000000000E+00 -0.00000000000E+00 -0.11711817124E+04  0.11711817124E+04  0.00000000000E+00 0. -1.
         25    2    1    2    0    0  0.40818182767E+02  0.79423906636E+02 -0.68889809494E+03  0.70583501193E+03  0.12509275706E+03 0.  0.
          5    1    3    3  502    0  0.69620021370E+02  0.95816238596E+01 -0.22347463651E+03  0.23430138807E+03  0.41800000000E+01 0. -1.
         -5    1    3    3    0  502 -0.28801838603E+02  0.69842282777E+02 -0.46542345844E+03  0.47153362386E+03  0.41800000000E+01 0. -1.
        -11    1    1    2    0    0  0.17126872705E+02  0.91879514653E+01 -0.45548329993E+02  0.49521698133E+02  0.00000000000E+00 0.  1.
         11    1    1    2    0    0 -0.57945055472E+02 -0.88611858102E+02 -0.41970601112E+03  0.43285427873E+03  0.00000000000E+00 0. -1.
</event>
<event>
 7    1  0.2788485E-009  0.8022290E+02  0.7561462E-02  0.1328420E+00
          2   -1    0    0  501    0  0.00000000000E+00  0.00000000000E+00  0.39151001993E+03  0.39151001993E+03  0.00000000000E+00 0.  1.
         -2   -1    0    0    0  501 -0.00000000000E+00 -0.00000000000E+00 -0.31078088552E+02  0.31078088552E+02  0.00000000000E+00 0. -1.
         25    2    1    2    0    0  0.14598248731E+02 -0.11032834430E+02  0.22806934114E+03  0.26076410447E+03  0.12508981378E+03 0.  0.
          5    1    3    3  502    0 -0.20022094189E+02 -0.41713114272E+02  0.20246605338E+03  0.20772781068E+03  0.41800000000E+01 0.  1.
         -5    1    3    3    0  502  0.34620342920E+02  0.30680279842E+02  0.25603287752E+02  0.53036293788E+02  0.41800000000E+01 0.  1.
        -11    1    1    2    0    0  0.24685280520E+02  0.13581427571E+02  0.51266718250E+01  0.28637405839E+02  0.00000000000E+00 0. -1.
         11    1    1    2    0    0 -0.39283529251E+02 -0.25485931407E+01  0.12723591842E+03  0.13318659818E+03  0.00000000000E+00 0.  1.
</event>
<event>
 7    1  0.2788485E-009  0.8301262E+02  0.7561462E-02  0.1320713E+00
          1   -1    0    0  501    0  0.00000000000E+00  0.00000000000E+00  0.74309948288E+02  0.74309948288E+02  0.00000000000E+00 0.  1.
         -1   -1    0    0    0  501 -0.00000000000E+00 -0.00000000000E+00 -0.15858891749E+03  0.15858891749E+03  0.00000000000E+00 0. -1.
         25    2    1    2    0    0  0.10496707623E+02 -0.21955499156E+01 -0.47736841107E+02  0.13432671677E+03  0.12509939859E+03 0.  0.
          5    1    3    3  502    0 -0.30183506308E+02 -0.48363370309E+02 -0.13912878144E+01  0.57179259548E+02  0.41800000000E+01 0. -1.
         -5    1    3    3    0  502  0.40680213931E+02  0.46167820393E+02 -0.46345553292E+02  0.77147457219E+02  0.41800000000E+01 0. -1.
        -11    1    1    2    0    0  0.14019215155E+02 -0.12348660307E+02  0.24730119860E+02  0.30993654725E+02  0.00000000000E+00 0.  1.
         11    1    1    2    0    0 -0.24515922778E+02  0.14544210222E+02 -0.61272247960E+02  0.67578494291E+02  0.00000000000E+00 0. -1.
</event>
<event>
 7    1  0.2788485E-009  0.1002118E+03  0.7561462E-02  0.1279851E+00
         -1   -1    0    0    0  501 -0.00000000000E+00  0.00000000000E+00  0.39113474676E+03  0.39113474676E+03  0.00000000000E+00 0.  1.
          1   -1    0    0  501    0  0.00000000000E+00 -0.00000000000E+00 -0.39496512146E+02  0.39496512146E+02  0.00000000000E+00 0. -1.
         25    2    1    2    0    0  0.54400016551E+01 -0.59765451896E+01  0.31355700480E+03  0.33768361888E+03  0.12508764324E+03 0.  0.
          5    1    3    3  502    0  0.13722959984E+02  0.56184201966E+02  0.10605454549E+03  0.12087192892E+03  0.41800000000E+01 0.  1.
         -5    1    3    3    0  502 -0.82829583287E+01 -0.62160747155E+02  0.20750245931E+03  0.21681168996E+03  0.41800000000E+01 0.  1.
        -11    1    1    2    0    0 -0.15705414547E+02  0.40569584860E+02  0.46397486372E+01  0.43750183191E+02  0.00000000000E+00 0. -1.
         11    1    1    2    0    0  0.10265412892E+02 -0.34593039670E+02  0.33441481177E+02  0.49197456833E+02  0.00000000000E+00 0.  1.
</event>
<event>
 7    1  0.2788485E-009  0.9151947E+02  0.7561462E-02  0.1299213E+00
         -3   -1    0    0    0  501 -0.00000000000E+00  0.00000000000E+00  0.31385578797E+03  0.31385578797E+03  0.00000000000E+00 0.  1.
          3   -1    0    0  501    0  0.00000000000E+00 -0.00000000000E+00 -0.43112701786E+02  0.43112701786E+02  0.00000000000E+00 0. -1.
         25    2    1    2    0    0  0.42413143848E+01  0.43248861415E+02  0.16326540332E+03  0.21021805765E+03  0.12509031570E+03 0.  0.
          5    1    3    3  502    0  0.28743263200E+02  0.54201803529E+02  0.20393622055E+02  0.64787212517E+02  0.41800000000E+01 0.  1.
         -5    1    3    3    0  502 -0.24501948815E+02 -0.10952942115E+02  0.14287178126E+03  0.14543084514E+03  0.41800000000E+01 0.  1.
        -11    1    1    2    0    0 -0.15959720128E+02 -0.66477188093E+02  0.53434143281E+02  0.86770599119E+02  0.00000000000E+00 0. -1.
         11    1    1    2    0    0  0.11718405743E+02  0.23228326679E+02  0.54043539591E+02  0.59979832985E+02  0.00000000000E+00 0.  1.
</event>
<event>
 7    1  0.2788485E-009  0.2503214E+03  0.7561462E-02  0.1113102E+00
          1   -1    0    0  501    0  0.00000000000E+00  0.00000000000E+00  0.27061899061E+03  0.27061899061E+03  0.00000000000E+00 0. -1.
         -1   -1    0    0    0  501 -0.00000000000E+00 -0.00000000000E+00 -0.36437368516E+03  0.36437368516E+03  0.00000000000E+00 0.  1.
         25    2    1    2    0    0 -0.19234859585E+03 -0.12664221899E+03  0.13780530737E+03  0.29609879764E+03  0.12509181136E+03 0.  0.
          5    1    3    3  502    0 -0.17929414670E+03 -0.15077353173E+03  0.12196917577E+03  0.26414579525E+03  0.41800000000E+01 0.  1.
         -5    1    3    3    0  502 -0.13054449154E+02  0.24131312748E+02  0.15836131604E+02  0.31953002392E+02  0.41800000000E+01 0.  1.
        -11    1    1    2    0    0  0.14850901851E+03  0.12597947840E+03 -0.21946403951E+03  0.29341135321E+03  0.00000000000E+00 0.  1.
         11    1    1    2    0    0  0.43839577341E+02  0.66274058785E+00 -0.12095962417E+02  0.45482524923E+02  0.00000000000E+00 0. -1.
</event>
<event>
 7    1  0.2788485E-009  0.9841890E+02  0.7561462E-02  0.1283656E+00
          1   -1    0    0  501    0  0.00000000000E+00  0.00000000000E+00  0.44456520966E+03  0.44456520966E+03  0.00000000000E+00 0. -1.
         -1   -1    0    0    0  501 -0.00000000000E+00 -0.00000000000E+00 -0.62611395515E+02  0.62611395515E+02  0.00000000000E+00 0.  1.
         25    2    1    2    0    0 -0.32188448217E+02  0.13980873897E+02  0.38040733396E+03  0.40198155993E+03  0.12509146157E+03 0.  0.
          5    1    3    3  502    0  0.18258807767E+01 -0.39950720258E+02  0.28063610465E+03  0.28350218610E+03  0.41800000000E+01 0.  1.
         -5    1    3    3    0  502 -0.34014328993E+02  0.53931594154E+02  0.99771229309E+02  0.11847937383E+03  0.41800000000E+01 0.  1.
        -11    1    1    2    0    0 -0.18516777778E+02  0.23322807632E+02 -0.23002024906E+02  0.37628680084E+02  0.00000000000E+00 0.  1.
         11    1    1    2    0    0  0.50705225995E+02 -0.37303681529E+02  0.24548505088E+02  0.67566365159E+02  0.00000000000E+00 0. -1.
</event>
<event>
 7    1  0.2788485E-009  0.6806719E+02  0.7561462E-02  0.1366792E+00
         -1   -1    0    0    0  501 -0.00000000000E+00  0.00000000000E+00  0.31042329292E+02  0.31042329292E+02  0.00000000000E+00 0.  1.
          1   -1    0    0  501    0  0.00000000000E+00 -0.00000000000E+00 -0.50184351986E+03  0.50184351986E+03  0.00000000000E+00 0. -1.
         25    2    1    2    0    0 -0.20375253869E+02  0.37506436135E+02 -0.36093389008E+03  0.38437317347E+03  0.12509028641E+03 0.  0.
          5    1    3    3  502    0 -0.31480981317E+02  0.31621619775E+02 -0.36705571209E+03  0.36978148575E+03  0.41800000000E+01 0.  1.
         -5    1    3    3    0  502  0.11105727449E+02  0.58848163606E+01  0.61218220156E+01  0.14591687721E+02  0.41800000000E+01 0.  1.
        -11    1    1    2    0    0  0.43734479686E+02 -0.16775602197E+02 -0.15860852992E+02  0.49453940188E+02  0.00000000000E+00 0.  1.
         11    1    1    2    0    0 -0.23359225817E+02 -0.20730833939E+02 -0.94006447493E+02  0.99058735490E+02  0.00000000000E+00 0. -1.
</event>
<event>
 7    1  0.2788485E-009  0.1107108E+03  0.7561462E-02  0.1259259E+00
          2   -1    0    0  501    0  0.00000000000E+00  0.00000000000E+00  0.56709442004E+03  0.56709442004E+03  0.00000000000E+00 0. -1.
         -2   -1    0    0    0  501 -0.00000000000E+00 -0.00000000000E+00 -0.32479659948E+02  0.32479659948E+02  0.00000000000E+00 0.  1.
         25    2    1    2    0    0  0.81169480193E+02 -0.83976917094E+01  0.32910514653E+03  0.36140799561E+03  0.12508611465E+03 0.  0.
          5    1    3    3  502    0  0.46022439542E+00 -0.42718276076E+02  0.37928133795E+02  0.57280700507E+02  0.41800000000E+01 0.  1.
         -5    1    3    3    0  502  0.80709255798E+02  0.34320584367E+02  0.29117701273E+03  0.30412729510E+03  0.41800000000E+01 0.  1.
        -11    1    1    2    0    0 -0.36259227147E+02  0.23619958534E+02  0.17833796939E+03  0.18351312029E+03  0.00000000000E+00 0. -1.
         11    1    1    2    0    0 -0.44910253046E+02 -0.15222266825E+02  0.27171644178E+02  0.54652964085E+02  0.00000000000E+00 0.  1.
</event>
<event>
 7    1  0.2788485E-009  0.1521791E+03  0.7561462E-02  0.1197821E+00
          1   -1    0    0  501    0  0.00000000000E+00  0.00000000000E+00  0.61140986113E+03  0.61140986113E+03  0.00000000000E+00 0. -1.
         -1   -1    0    0    0  501 -0.00000000000E+00 -0.00000000000E+00 -0.49785194875E+02  0.49785194875E+02  0.00000000000E+00 0.  1.
         25    2    1    2    0    0  0.11590667021E+03 -0.72910332222E+02  0.29945020555E+03  0.35223283830E+03  0.12508906440E+03 0.  0.
          5    1    3    3  502    0  0.12911981485E+02 -0.22499968181E+02 -0.51148221111E+01  0.26769416117E+02  0.41800000000E+01 0. -1.
         -5    1    3    3    0  502  0.10299468872E+03 -0.50410364041E+02  0.30456502766E+03  0.32546342218E+03  0.41800000000E+01 0. -1.
        -11    1    1    2    0    0 -0.38042134241E+02 -0.19291985040E+02  0.63092399574E+02  0.76157964445E+02  0.00000000000E+00 0. -1.
         11    1    1    2    0    0 -0.77864535967E+02  0.92202317262E+02  0.19908206114E+03  0.23280425326E+03  0.00000000000E+00 0.  1.
</event>
<event>
 7    1  0.2788485E-009  0.1618463E+03  0.7561462E-02  0.1186628E+00
         -2   -1    0    0    0  501 -0.00000000000E+00  0.00000000000E+00  0.23445303101E+02  0.23445303101E+02  0.00000000000E+00 0.  1.
          2   -1    0    0  501    0  0.00000000000E+00 -0.00000000000E+00 -0.17881440751E+04  0.17881440751E+04  0.00000000000E+00 0. -1.
         25    2    1    2    0    0 -0.11371038452E+03  0.56987095122E+02 -0.14516693408E+04  0.14625901309E+04  0.12509370734E+03 0.  0.
          5    1    3    3  502    0 -0.94080788877E+02 -0.18831018885E+02 -0.94782648168E+03  0.95267954417E+03  0.41800000000E+01 0. -1.
         -5    1    3    3    0  502 -0.19629595643E+02  0.75818114007E+02 -0.50384285907E+03  0.50991058674E+03  0.41800000000E+01 0. -1.
        -11    1    1    2    0    0  0.31622175752E+02 -0.59190059207E+02 -0.97557634275E+02  0.11840995361E+03  0.00000000000E+00 0.  1.
         11    1    1    2    0    0  0.82088208768E+02  0.22029640845E+01 -0.21547179702E+03  0.23058929372E+03  0.00000000000E+00 0. -1.
</event>
<event>
 7    1  0.3195028E-009  0.6218921E+02  0.7561462E-02  0.1388868E+00
          3   -1    0    0  501    0  0.00000000000E+00  0.00000000000E+00  0.21513683090E+03  0.21513683090E+03  0.00000000000E+00 0. -1.
         -3   -1    0    0    0  501 -0.00000000000E+00 -0.00000000000E+00 -0.80728745430E+02  0.80728745430E+02  0.00000000000E+00 0.  1.
         25    2    1    2    0    0  0.54124135062E+02 -0.35495741737E+01  0.16890412752E+02  0.13738820310E+03  0.12509280889E+03 0.  0.
          5    1    3    3  502    0  0.29044279608E+02 -0.22108558821E+02  0.68041489466E+02  0.77327066670E+02  0.41800000000E+01 0. -1.
         -5    1    3    3    0  502  0.25079855454E+02  0.18558984648E+02 -0.51151076713E+02  0.60061136433E+02  0.41800000000E+01 0. -1.
        -11    1    1    2    0    0 -0.31661420617E+02  0.92499750861E+01  0.12861878125E+03  0.13278101704E+03  0.00000000000E+00 0. -1.
         11    1    1    2    0    0 -0.22462714445E+02 -0.57004009125E+01 -0.11101108534E+02  0.25696356191E+02  0.00000000000E+00 0.  1.
</event>
<event>
 7    1  0.2788485E-009  0.6248811E+02  0.7561462E-02  0.1387677E+00
          2   -1    0    0  501    0  0.00000000000E+00  0.00000000000E+00  0.23778570258E+03  0.23778570258E+03  0.00000000000E+00 0. -1.
         -2   -1    0    0    0  501 -0.00000000000E+00 -0.00000000000E+00 -0.45575769997E+02  0.45575769997E+02  0.00000000000E+00 0.  1.
         25    2    1    2    0    0  0.11198907491E+02 -0.15807585600E+02  0.89711275826E+02  0.15514991097E+03  0.12509231220E+03 0.  0.
          5    1    3    3  502    0  0.27317720741E+02 -0.21408465051E+02 -0.22499187646E+02  0.41572419788E+02  0.41800000000E+01 0.  1.
         -5    1    3    3    0  502 -0.16118813250E+02  0.56008794508E+01  0.11221046347E+03  0.11357749118E+03  0.41800000000E+01 0.  1.
        -11    1    1    2    0    0  0.16034343650E+02 -0.21150662385E+02  0.18070346464E+02  0.32109003674E+02  0.00000000000E+00 0.  1.
         11    1    1    2    0    0 -0.27233251141E+02  0.36958247985E+02  0.84428310290E+02  0.96102557928E+02  0.00000000000E+00 0. -1.
</event>
<event>
 7    1  0.2788485E-009  0.9000172E+02  0.7561462E-02  0.1302848E+00
         -3   -1    0    0    0  501 -0.00000000000E+00  0.00000000000E+00  0.28262365835E+02  0.28262365835E+02  0.00000000000E+00 0.  1.
          3   -1    0    0  501    0  0.00000000000E+00 -0.00000000000E+00 -0.76825914469E+03  0.76825914469E+03  0.00000000000E+00 0. -1.
         25    2    1    2    0    0  0.53520214296E+02 -0.15541948744E+02 -0.63095226667E+03  0.64564565911E+03  0.12510631000E+03 0.  0.
          5    1    3    3  502    0  0.44306651177E+02  0.13821924584E+02 -0.59996828489E+03  0.60177532370E+03  0.41800000000E+01 0.  1.
         -5    1    3    3    0  502  0.92135631190E+01 -0.29363873327E+02 -0.30983981776E+02  0.43870335409E+02  0.41800000000E+01 0.  1.
        -11    1    1    2    0    0 -0.79885704788E+00 -0.31606483274E+02 -0.47833993873E+02  0.57338459409E+02  0.00000000000E+00 0. -1.
         11    1    1    2    0    0 -0.52721357249E+02  0.47148432018E+02 -0.61210518319E+02  0.93537392014E+02  0.00000000000E+00 0.  1.
</event>
<event>
 7    1  0.2788485E-009  0.1032510E+03  0.7561462E-02  0.1273604E+00
         -2   -1    0    0    0  501 -0.00000000000E+00  0.00000000000E+00  0.26683161434E+03  0.26683161434E+03  0.00000000000E+00 0.  1.
          2   -1    0    0  501    0  0.00000000000E+00 -0.00000000000E+00 -0.43417822540E+02  0.43417822540E+02  0.00000000000E+00 0. -1.
         25    2    1    2    0    0  0.75336376391E+01  0.66677672037E+01  0.11265548458E+03  0.16864168587E+03  0.12509014826E+03 0.  0.
          5    1    3    3  502    0 -0.47357417526E+02 -0.29455787563E+02  0.72331619355E+02  0.91431416779E+02  0.41800000000E+01 0. -1.
         -5    1    3    3    0  502  0.54891055165E+02  0.36123554767E+02  0.40323865221E+02  0.77210269087E+02  0.41800000000E+01 0. -1.
        -11    1    1    2    0    0  0.36911662738E+02  0.82995907876E+01  0.69565218071E+02  0.79187585003E+02  0.00000000000E+00 0.  1.
         11    1    1    2    0    0 -0.44445300377E+02 -0.14967357991E+02  0.41193089151E+02  0.62420166009E+02  0.00000000000E+00 0. -1.
</event>
<event>
 7    1  0.2788485E-009  0.8379212E+02  0.7561462E-02  0.1318622E+00
         -3   -1    0    0    0  501 -0.00000000000E+00  0.00000000000E+00  0.33202553454E+02  0.33202553454E+02  0.00000000000E+00 0.  1.
          3   -1    0    0  501    0  0.00000000000E+00 -0.00000000000E+00 -0.36938442503E+03  0.36938442503E+03  0.00000000000E+00 0. -1.
         25    2    1    2    0    0  0.57648499249E+00  0.11406621519E+02 -0.24142530785E+03  0.27214819768E+03  0.12509204163E+03 0.  0.
          5    1    3    3  502    0 -0.26264588081E+02 -0.24205022727E+02 -0.21923190426E+03  0.22216167977E+03  0.41800000000E+01 0. -1.
         -5    1    3    3    0  502  0.26841073074E+02  0.35611644246E+02 -0.22193403590E+02  0.49986517908E+02  0.41800000000E+01 0. -1.
        -11    1    1    2    0    0 -0.42841073499E+02  0.77717838826E+00 -0.62987709770E+02  0.76180136301E+02  0.00000000000E+00 0.  1.
         11    1    1    2    0    0  0.42264588507E+02 -0.12183799907E+02 -0.31768853952E+02  0.54258644502E+02  0.00000000000E+00 0. -1.
</event>
<event>
 7    1  0.2788485E-009  0.1483461E+03  0.7561462E-02  0.1202520E+00
          2   -1    0    0  501    0  0.00000000000E+00  0.00000000000E+00  0.12504536562E+04  0.12504536562E+04  0.00000000000E+00 0. -1.
         -2   -1    0    0    0  501 -0.00000000000E+00 -0.00000000000E+00 -0.25817786579E+02  0.25817786579E+02  0.00000000000E+00 0.  1.
         25    2    1    2    0    0  0.13049690842E+03  0.95476989357E+01  0.85639601381E+03  0.87531788169E+03  0.12508660950E+03 0.  0.
          5    1    3    3  502    0  0.12698849775E+03 -0.10709921631E+02  0.83728607667E+03  0.84693932933E+03  0.41800000000E+01 0.  1.
         -5    1    3    3    0  502  0.35084106687E+01  0.20257620567E+02  0.19109937135E+02  0.28378552355E+02  0.41800000000E+01 0.  1.
        -11    1    1    2    0    0 -0.10486348556E+03  0.22415359221E+02  0.19103205181E+03  0.21907086468E+03  0.00000000000E+00 0.  1.
         11    1    1    2    0    0 -0.25633422851E+02 -0.31963058157E+02  0.17720780403E+03  0.18188269644E+03  0.00000000000E+00 0. -1.
</event>
<event>
 7    1  0.2788485E-009  0.1844990E+03  0.7561462E-02  0.1163519E+00
         -1   -1    0    0    0  501 -0.00000000000E+00  0.00000000000E+00  0.13947000348E+03  0.13947000348E+03  0.00000000000E+00 0.  1.
          1   -1    0    0  501    0  0.00000000000E+00 -0.00000000000E+00 -0.44722329051E+03  0.44722329051E+03  0.00000000000E+00 0. -1.
         25    2    1    2    0    0 -0.12535538838E+03  0.11614895935E+03  0.12410659824E+02  0.21214944104E+03  0.12509519057E+03 0.  0.
          5    1    3    3  502    0 -0.14243543574E+03  0.10313205401E+03  0.36456569087E+02  0.17964027318E+03  0.41800000000E+01 0.  1.
         -5    1    3    3    0  502  0.17080047362E+02  0.13016905339E+02 -0.24045909263E+02  0.32509167858E+02  0.41800000000E+01 0.  1.
        -11    1    1    2    0    0  0.72999372225E+02 -0.74646389708E+02 -0.10039962179E+03  0.14484845839E+03  0.00000000000E+00 0.  1.
         11    1    1    2    0    0  0.52356016157E+02 -0.41502569639E+02 -0.21976432506E+03  0.22969539457E+03  0.00000000000E+00 0. -1.
</event>
<event>
 7    1  0.2788485E-009  0.1092546E+03  0.7561462E-02  0.1261957E+00
          1   -1    0    0  501    0  0.00000000000E+00  0.00000000000E+00  0.25762247689E+03  0.25762247689E+03  0.00000000000E+00 0. -1.
         -1   -1    0    0    0  501 -0.00000000000E+00 -0.00000000000E+00 -0.48816426530E+02  0.48816426530E+02  0.00000000000E+00 0.  1.
         25    2    1    2    0    0 -0.11877282365E+02 -0.23600948701E+02  0.13111740468E+03  0.18314157805E+03  0.12510391355E+03 0.  0.
          5    1    3    3  502    0  0.41837245273E+02  0.29573333367E+02  0.43383901273E+02  0.67264942043E+02  0.41800000000E+01 0. -1.
         -5    1    3    3    0  502 -0.53714527637E+02 -0.53174282068E+02  0.87733503409E+02  0.11587663601E+03  0.41800000000E+01 0. -1.
        -11    1    1    2    0    0  0.49058243609E+02  0.23093842384E+02  0.63494116526E+02  0.83495746331E+02  0.00000000000E+00 0. -1.
         11    1    1    2    0    0 -0.37180961244E+02  0.50710631784E+00  0.14194529155E+02  0.39801579037E+02  0.00000000000E+00 0.  1.
</event>
<event>
 7    1  0.2788485E-009  0.3275505E+03  0.7561462E-02  0.1072226E+00
          1   -1    0    0  501    0  0.00000000000E+00  0.00000000000E+00  0.26156829236E+03  0.26156829236E+03  0.00000000000E+00 0. -1.
         -1   -1    0    0    0  501 -0.00000000000E+00 -0.00000000000E+00 -0.45157405820E+03  0.45157405820E+03  0.00000000000E+00 0.  1.
         25    2    1    2    0    0 -0.29201040955E+03 -0.10855641629E+03  0.23908836529E+01  0.33571894012E+03  0.12508763177E+03 0.  0.
          5    1    3    3  502    0  0.91685621980E+01  0.78619279904E+01  0.48949219566E+00  0.12790013570E+02  0.41800000000E+01 0. -1.
         -5    1    3    3    0  502 -0.30117897175E+03 -0.11641834428E+03  0.19013914573E+01  0.32292892655E+03  0.41800000000E+01 0. -1.
        -11    1    1    2    0    0  0.48336188266E+02 -0.84789071199E+01 -0.68534664529E+01  0.49550468863E+02  0.00000000000E+00 0. -1.
         11    1    1    2    0    0  0.24367422129E+03  0.11703532341E+03 -0.18554318304E+03  0.32787294158E+03  0.00000000000E+00 0.  1.
</event>
<event>
 7    1  0.2788485E-009  0.1254361E+03  0.7561462E-02  0.1234389E+00
          3   -1    0    0  501    0  0.00000000000E+00  0.00000000000E+00  0.41122896583E+02  0.41122896583E+02  0.00000000000E+00 0. -1.
         -3   -1    0    0    0  501 -0.00000000000E+00 -0.00000000000E+00 -0.54321857365E+03  0.54321857365E+03  0.00000000000E+00 0.  1.
         25    2    1    2    0    0  0.98944806830E+02 -0.14405493130E+02 -0.31380824716E+03  0.35230861210E+03  0.12509256230E+03 0.  0.
          5    1    3    3  502    0  0.20751018493E+02  0.31641362437E+02 -0.16605751630E+02  0.41533167139E+02  0.41800000000E+01 0.  1.
         -5    1    3    3    0  502  0.78193788337E+02 -0.46046855567E+02 -0.29720249553E+03  0.31077544496E+03  0.41800000000E+01 0.  1.
        -11    1    1    2    0    0 -0.50233926375E+02 -0.27885154947E+02 -0.39102142284E+02  0.69498250026E+02  0.00000000000E+00 0. -1.
         11    1    1    2    0    0 -0.48710880455E+02  0.42290648076E+02 -0.14918528762E+03  0.16253460811E+03  0.00000000000E+00 0.  1.
</event>
<event>
 7    1  0.2788485E-009  0.1430827E+03  0.7561462E-02  0.1209240E+00
         -1   -1    0    0    0  501 -0.00000000000E+00  0.00000000000E+00  0.91905640917E+02  0.91905640917E+02  0.00000000000E+00 0. -1.
          1   -1    0    0  501    0  0.00000000000E+00 -0.00000000000E+00 -0.34470807973E+03  0.34470807973E+03  0.00000000000E+00 0.  1.
         25    2    1    2    0    0 -0.46693352824E+02  0.13243809127E+03 -0.15009112157E+03  0.24060504368E+03  0.12507327875E+03 0.  0.
          5    1    3    3  502    0 -0.32371257370E+02  0.50178254175E+02 -0.14497473104E+03  0.15684674219E+03  0.41800000000E+01 0.  1.
         -5    1    3    3    0  502 -0.14322095454E+02  0.82259837094E+02 -0.51163905262E+01  0.83758301493E+02  0.41800000000E+01 0.  1.
        -11    1    1    2    0    0  0.43052357302E+02 -0.86504248718E+02 -0.11311936988E+03  0.14876989735E+03  0.00000000000E+00 0.  1.
         11    1    1    2    0    0  0.36409955213E+01 -0.45933842551E+02  0.10408052632E+02  0.47238779614E+02  0.00000000000E+00 0. -1.
</event>
<event>
 7    1  0.2788485E-009  0.1261378E+03  0.7561462E-02  0.1233302E+00
         -1   -1    0    0    0  501 -0.00000000000E+00  0.00000000000E+00  0.10269641516E+03  0.10269641516E+03  0.00000000000E+00 0. -1.
          1   -1    0    0  501    0  0.00000000000E+00 -0.00000000000E+00 -0.24885784792E+03  0.24885784792E+03  0.00000000000E+00 0.  1.
         25    2    1    2    0    0  0.27136599041E+02 -0.86722772376E+02 -0.15860327289E+03  0.22149773595E+03  0.12509602154E+03 0.  0.
          5    1    3    3  502    0 -0.22409181683E+02 -0.81052941986E+02 -0.14810374633E+03  0.17036414794E+03  0.41800000000E+01 0.  1.
         -5    1    3    3    0  502  0.49545780724E+02 -0.56698303905E+01 -0.10499526556E+02  0.51133588004E+02  0.41800000000E+01 0.  1.
        -11    1    1    2    0    0 -0.53033460572E+02  0.67182520020E+02 -0.15806807152E+02  0.87039612182E+02  0.00000000000E+00 0.  1.
         11    1    1    2    0    0  0.25896861531E+02  0.19540252356E+02  0.28248647278E+02  0.43016914956E+02  0.00000000000E+00 0. -1.
</event>
<event>
 7    1  0.2788485E-009  0.9211526E+02  0.7561462E-02  0.1297809E+00
          3   -1    0    0  501    0  0.00000000000E+00  0.00000000000E+00  0.74098188982E+02  0.74098188982E+02  0.00000000000E+00 0. -1.
         -3   -1    0    0    0  501 -0.00000000000E+00 -0.00000000000E+00 -0.28083120298E+03  0.28083120298E+03  0.00000000000E+00 0.  1.
         25    2    1    2    0    0  0.16592917131E+02  0.20681497812E+02 -0.21297813005E+03  0.24841619108E+03  0.12509145000E+03 0.  0.
          5    1    3    3  502    0 -0.20717469524E+02 -0.15728337107E+02 -0.18909548834E+03  0.19092189566E+03  0.41800000000E+01 0.  1.
         -5    1    3    3    0  502  0.37310386655E+02  0.36409834919E+02 -0.23882641709E+02  0.57494295423E+02  0.41800000000E+01 0.  1.
        -11    1    1    2    0    0 -0.77322673712E+01 -0.62430336052E+02  0.98860302205E+01  0.63679419060E+02  0.00000000000E+00 0.  1.
         11    1    1    2    0    0 -0.88606497602E+01  0.41748838240E+02 -0.36409141648E+01  0.42833781814E+02  0.00000000000E+00 0. -1.
</event>
<event>
 7    1  0.2788485E-009  0.1141957E+03  0.7561462E-02  0.1252992E+00
          2   -1    0    0  501    0  0.00000000000E+00  0.00000000000E+00  0.38199493277E+03  0.38199493277E+03  0.00000000000E+00 0. -1.
         -2   -1    0    0    0  501 -0.00000000000E+00 -0.00000000000E+00 -0.49690434896E+02  0.49690434896E+02  0.00000000000E+00 0.  1.
         25    2    1    2    0    0  0.80322311937E+02  0.26341852924E+02  0.21355394375E+03  0.26153071067E+03  0.12508980263E+03 0.  0.
          5    1    3    3  502    0 -0.29726145894E+01  0.30637638635E+02  0.15847859444E+03  0.16149439196E+03  0.41800000000E+01 0. -1.
         -5    1    3    3    0  502  0.83294926526E+02 -0.42957857116E+01  0.55075349312E+02  0.10003631871E+03  0.41800000000E+01 0. -1.
        -11    1    1    2    0    0 -0.36709865814E+02  0.26519569515E+02  0.18952915660E+02  0.49092920339E+02  0.00000000000E+00 0. -1.
         11    1    1    2    0    0 -0.43612446123E+02 -0.52861422439E+02  0.99797638462E+02  0.12106173665E+03  0.00000000000E+00 0.  1.
</event>
<event>
 7    1  0.2788485E-009  0.1807771E+03  0.7561462E-02  0.1167053E+00
          1   -1    0    0  501    0  0.00000000000E+00  0.00000000000E+00  0.16714800812E+04  0.16714800812E+04  0.00000000000E+00 0. -1.
         -1   -1    0    0    0  501 -0.00000000000E+00 -0.00000000000E+00 -0.22242581924E+02  0.22242581924E+02  0.00000000000E+00 0.  1.
         25    2    1    2    0    0  0.13217524994E+03 -0.70149367605E+02  0.10944950660E+04  0.11117367057E+04  0.12509125823E+03 0.  0.
          5    1    3    3  502    0  0.10105753798E+03 -0.10002391326E+03  0.66403327194E+03  0.67909871731E+03  0.41800000000E+01 0.  1.
         -5    1    3    3    0  502  0.31117711962E+02  0.29874545657E+02  0.43046179407E+03  0.43263798843E+03  0.41800000000E+01 0.  1.
        -11    1    1    2    0    0 -0.91705969307E+02  0.92062793888E+02  0.41274240833E+03  0.43271449994E+03  0.00000000000E+00 0. -1.
         11    1    1    2    0    0 -0.40469280638E+02 -0.21913426283E+02  0.14200002494E+03  0.14927145745E+03  0.00000000000E+00 0.  1.
</event>
<event>
 7    1  0.2788485E-009  0.1325809E+03  0.7561462E-02  0.1223676E+00
         -1   -1    0    0    0  501 -0.00000000000E+00  0.00000000000E+00  0.13403918831E+03  0.13403918831E+03  0.00000000000E+00 0.  1.
          1   -1    0    0  501    0  0.00000000000E+00 -0.00000000000E+00 -0.17508375735E+03  0.17508375735E+03  0.00000000000E+00 0. -1.
         25    2    1    2    0    0 -0.95646624746E+02 -0.46502595579E+02 -0.13025780035E+02  0.16470750012E+03  0.12509245152E+03 0.  0.
          5    1    3    3  502    0  0.87939811908E+01  0.13556469123E+02  0.31944646120E+02  0.36042263747E+02  0.41800000000E+01 0. -1.
         -5    1    3    3    0  502 -0.10444060594E+03 -0.60059064702E+02 -0.44970426155E+02  0.12866523637E+03  0.41800000000E+01 0. -1.
        -11    1    1    2    0    0  0.90044212774E+02  0.63395808381E+02  0.12850820809E+01  0.11013010583E+03  0.00000000000E+00 0.  1.
         11    1    1    2    0    0  0.56024119715E+01 -0.16893212802E+02 -0.29303871091E+02  0.34285339718E+02  0.00000000000E+00 0. -1.
</event>
<event>
 7    1  0.2788485E-009  0.1162425E+03  0.7561462E-02  0.1249428E+00
         -1   -1    0    0    0  501 -0.00000000000E+00  0.00000000000E+00  0.49204566367E+02  0.49204566367E+02  0.00000000000E+00 0.  1.
          1   -1    0    0  501    0  0.00000000000E+00 -0.00000000000E+00 -0.52748731905E+03  0.52748731905E+03  0.00000000000E+00 0. -1.
         25    2    1    2    0    0 -0.68434816902E+02  0.80832330986E+02 -0.34901902008E+03  0.38559024456E+03  0.12509344678E+03 0.  0.
          5    1    3    3  502    0 -0.45689364390E+01  0.47739432675E+02 -0.26158228397E+02  0.54787351872E+02  0.41800000000E+01 0.  1.
         -5    1    3    3    0  502 -0.63865880463E+02  0.33092898311E+02 -0.32286079168E+03  0.33080289269E+03  0.41800000000E+01 0.  1.
        -11    1    1    2    0    0  0.24333022067E+02 -0.57419216157E+02 -0.12656798861E+03  0.14109754813E+03  0.00000000000E+00 0. -1.
         11    1    1    2    0    0  0.44101794834E+02 -0.23413114829E+02 -0.26957439923E+01  0.50004092725E+02  0.00000000000E+00 0.  1.
</event>
<event>
 7    1  0.2788485E-009  0.1097753E+03  0.7561462E-02  0.1260986E+00
         -2   -1    0    0    0  501 -0.00000000000E+00  0.00000000000E+00  0.80408352344E+02  0.80408352344E+02  0.00000000000E+00 0. -1.
          2   -1    0    0  501    0  0.00000000000E+00 -0.00000000000E+00 -0.25268442038E+03  0.25268442038E+03  0.00000000000E+00 0.  1.
         25    2    1    2    0    0  0.50777567540E+02 -0.52578030629E+02 -0.22931121071E+02  0.14668142545E+03  0.12508714398E+03 0.  0.
          5    1    3    3  502    0  0.79263228435E+02 -0.58977287513E+02 -0.46169301475E+02  0.10913320587E+03  0.41800000000E+01 0. -1.
         -5    1    3    3    0  502 -0.28485660895E+02  0.63992568839E+01  0.23238180404E+02  0.37548219582E+02  0.41800000000E+01 0. -1.
        -11    1    1    2    0    0 -0.26302975942E+01 -0.11061891901E+02  0.51818939117E+01  0.12495436862E+02  0.00000000000E+00 0. -1.
         11    1    1    2    0    0 -0.48147269946E+02  0.63639922530E+02 -0.15452684088E+03  0.17391591041E+03  0.00000000000E+00 0.  1.
</event>
<event>
 7    1  0.2788485E-009  0.1540203E+03  0.7561462E-02  0.1195618E+00
         -1   -1    0    0    0  501 -0.00000000000E+00  0.00000000000E+00  0.57085079018E+02  0.57085079018E+02  0.00000000000E+00 0.  1.
          1   -1    0    0  501    0  0.00000000000E+00 -0.00000000000E+00 -0.79257621250E+03  0.79257621250E+03  0.00000000000E+00 0. -1.
         25    2    1    2    0    0 -0.32234108935E+02 -0.14797717777E+03 -0.17925532819E+03  0.26593213790E+03  0.12510454174E+03 0.  0.
          5    1    3    3  502    0 -0.73620472124E+01 -0.10714793388E+03 -0.33656705392E+02  0.11262826329E+03  0.41800000000E+01 0. -1.
         -5    1    3    3    0  502 -0.24872061722E+02 -0.40829243893E+02 -0.14559862280E+03  0.15330387461E+03  0.41800000000E+01 0. -1.
        -11    1    1    2    0    0  0.10424536355E+02  0.90390662877E+02 -0.46393028782E+03  0.47276892331E+03  0.00000000000E+00 0. -1.
         11    1    1    2    0    0  0.21809572580E+02  0.57586514892E+02 -0.92305517470E+02  0.11096023030E+03  0.00000000000E+00 0.  1.
</event>
<event>
 7    1  0.2788485E-009  0.1151343E+03  0.7561462E-02  0.1251347E+00
          1   -1    0    0  501    0  0.00000000000E+00  0.00000000000E+00  0.65027364866E+03  0.65027364866E+03  0.00000000000E+00 0. -1.
         -1   -1    0    0    0  501 -0.00000000000E+00 -0.00000000000E+00 -0.28118668679E+02  0.28118668679E+02  0.00000000000E+00 0.  1.
         25    2    1    2    0    0 -0.36984368248E+02 -0.16871691953E+02  0.16870817555E+03  0.21392021597E+03  0.12508762056E+03 0.  0.
          5    1    3    3  502    0 -0.12433695745E+02  0.53506300213E+02  0.54624615683E+02  0.77581196116E+02  0.41800000000E+01 0. -1.
         -5    1    3    3    0  502 -0.24550672503E+02 -0.70377992166E+02  0.11408355987E+03  0.13633901985E+03  0.41800000000E+01 0. -1.
        -11    1    1    2    0    0 -0.19424418606E+02 -0.23991446234E+02  0.13103312672E+03  0.13462012416E+03  0.00000000000E+00 0.  1.
         11    1    1    2    0    0  0.56408786854E+02  0.40863138186E+02  0.32241367770E+03  0.32985197720E+03  0.00000000000E+00 0. -1.
</event>
<event>
 7    1  0.2788485E-009  0.1069502E+03  0.7561462E-02  0.1266324E+00
         -2   -1    0    0    0  501 -0.00000000000E+00  0.00000000000E+00  0.31205386484E+03  0.31205386484E+03  0.00000000000E+00 0.  1.
          2   -1    0    0  501    0  0.00000000000E+00 -0.00000000000E+00 -0.50520533815E+02  0.50520533815E+02  0.00000000000E+00 0. -1.
         25    2    1    2    0    0  0.23523620000E+02  0.57534431898E+02  0.12781961488E+03  0.18934157932E+03  0.12509519639E+03 0.  0.
          5    1    3    3  502    0  0.25764792292E+02 -0.16821829241E+02 -0.10040508895E+02  0.32635604479E+02  0.41800000000E+01 0. -1.
         -5    1    3    3    0  502 -0.22411722919E+01  0.74356261139E+02  0.13786012378E+03  0.15670597484E+03  0.41800000000E+01 0. -1.
        -11    1    1    2    0    0 -0.55868689856E+02 -0.50344741393E+02  0.77576945367E+02  0.10804668410E+03  0.00000000000E+00 0. -1.
         11    1    1    2    0    0  0.32345069857E+02 -0.71896905050E+01  0.56136770778E+02  0.65186135236E+02  0.00000000000E+00 0.  1.
</event>
<event>
 7    1  0.2788485E-009  0.1222600E+03  0.7561462E-02  0.1239415E+00
          1   -1    0    0  501    0  0.00000000000E+00  0.00000000000E+00  0.63818465500E+03  0.63818465500E+03  0.00000000000E+00 0. -1.
         -1   -1    0    0    0  501 -0.00000000000E+00 -0.00000000000E+00 -0.34760773687E+02  0.34760773687E+02  0.00000000000E+00 0.  1.
         25    2    1    2    0    0  0.45113407353E+02 -0.44602692582E+02  0.14580630886E+03  0.20231281884E+03  0.12508547981E+03 0.  0.
          5    1    3    3  502    0  0.81242157345E+01 -0.82815509593E+02  0.11029402155E+03  0.13822682482E+03  0.41800000000E+01 0.  1.
         -5    1    3    3    0  502  0.36989191618E+02  0.38212817011E+02  0.35512287308E+02  0.64085994026E+02  0.41800000000E+01 0.  1.
        -11    1    1    2    0    0  0.11574541847E+01 -0.24589767806E+02  0.70711636735E+02  0.74874107345E+02  0.00000000000E+00 0. -1.
         11    1    1    2    0    0 -0.46270861537E+02  0.69192460388E+02  0.38690593572E+03  0.39575850250E+03  0.00000000000E+00 0.  1.
</event>
<event>
 7    1  0.2788485E-009  0.9793803E+02  0.7561462E-02  0.1284693E+00
          1   -1    0    0  501    0  0.00000000000E+00  0.00000000000E+00  0.28646236245E+03  0.28646236245E+03  0.00000000000E+00 0. -1.
         -1   -1    0    0    0  501 -0.00000000000E+00 -0.00000000000E+00 -0.53073506268E+02  0.53073506268E+02  0.00000000000E+00 0.  1.
         25    2    1    2    0    0  0.31213368996E+02  0.30010525119E+02  0.17478143587E+03  0.21925085768E+03  0.12508989666E+03 0.  0.
          5    1    3    3  502    0  0.72019853035E+02  0.29749576334E+02  0.63359220025E+02  0.10051745961E+03  0.41800000000E+01 0.  1.
         -5    1    3    3    0  502 -0.40806484039E+02  0.26094878499E+00  0.11142221584E+03  0.11873339807E+03  0.41800000000E+01 0.  1.
        -11    1    1    2    0    0 -0.48603367488E+02 -0.88014404892E+01 -0.63255343834E+01  0.49797239593E+02  0.00000000000E+00 0.  1.
         11    1    1    2    0    0  0.17389998492E+02 -0.21209084630E+02  0.64932954701E+02  0.70487771454E+02  0.00000000000E+00 0. -1.
</event>
<event>
 7    1  0.2788485E-009  0.1406492E+03  0.7561462E-02  0.1212458E+00
          1   -1    0    0  501    0  0.00000000000E+00  0.00000000000E+00  0.59529184029E+03  0.59529184029E+03  0.00000000000E+00 0. -1.
         -1   -1    0    0    0  501 -0.00000000000E+00 -0.00000000000E+00 -0.41779198057E+02  0.41779198057E+02  0.00000000000E+00 0.  1.
         25    2    1    2    0    0  0.42121582239E+02  0.10485631951E+03  0.27042457266E+03  0.31866288603E+03  0.12509000762E+03 0.  0.
          5    1    3    3  502    0  0.54102794697E+02  0.12426781105E+03  0.18028364363E+03  0.22558649298E+03  0.41800000000E+01 0. -1.
         -5    1    3    3    0  502 -0.11981212458E+02 -0.19411491545E+02  0.90140929036E+02  0.93076393052E+02  0.41800000000E+01 0. -1.
        -11    1    1    2    0    0 -0.49254307399E+02 -0.62598653974E+02  0.25504282628E+03  0.26719173174E+03  0.00000000000E+00 0. -1.
         11    1    1    2    0    0  0.71327251598E+01 -0.42257665532E+02  0.28045243294E+02  0.51216420568E+02  0.00000000000E+00 0.  1.
</event>
<event>
 7    1  0.2788485E-009  0.1087787E+03  0.7561462E-02  0.1262848E+00
          2   -1    0    0  501    0  0.00000000000E+00  0.00000000000E+00  0.39890631527E+03  0.39890631527E+03  0.00000000000E+00 0. -1.
         -2   -1    0    0    0  501 -0.00000000000E+00 -0.00000000000E+00 -0.42462227158E+02  0.42462227158E+02  0.00000000000E+00 0.  1.
         25    2    1    2    0    0  0.34762448334E+02  0.60917846509E+02  0.22916525136E+03  0.27034016109E+03  0.12509068084E+03 0.  0.
          5    1    3    3  502    0  0.35750017702E+02  0.83057142577E+02  0.23061208896E+03  0.24774172171E+03  0.41800000000E+01 0.  1.
         -5    1    3    3    0  502 -0.98756936811E+00 -0.22139296068E+02 -0.14468376034E+01  0.22598439387E+02  0.41800000000E+01 0.  1.
        -11    1    1    2    0    0  0.24528464181E+02 -0.10602794039E+02  0.68568996580E+02  0.73591929506E+02  0.00000000000E+00 0. -1.
         11    1    1    2    0    0 -0.59290912514E+02 -0.50315052470E+02  0.58709840177E+02  0.97436451831E+02  0.00000000000E+00 0.  1.
</event>
<event>
 7    1  0.2788485E-009  0.2046212E+03  0.7561462E-02  0.1145898E+00
         -2   -1    0    0    0  501 -0.00000000000E+00  0.00000000000E+00  0.27090021441E+03  0.27090021441E+03  0.00000000000E+00 0.  1.
          2   -1    0    0  501    0  0.00000000000E+00 -0.00000000000E+00 -0.20099123049E+03  0.20099123049E+03  0.00000000000E+00 0. -1.
         25    2    1    2    0    0  0.15739060789E+03 -0.11542711320E+03  0.10329728943E+03  0.25379549829E+03  0.12508638229E+03 0.  0.
          5    1    3    3  502    0  0.12385555787E+03 -0.51668779644E+02  0.11960714935E+03  0.17981436145E+03  0.41800000000E+01 0.  1.
         -5    1    3    3    0  502  0.33535050017E+02 -0.63758333555E+02 -0.16309859926E+02  0.73981136840E+02  0.41800000000E+01 0.  1.
        -11    1    1    2    0    0 -0.68741811789E+02  0.84493503334E+02  0.19013612965E+02  0.11057172456E+03  0.00000000000E+00 0.  1.
         11    1    1    2    0    0 -0.88648796101E+02  0.30933609865E+02 -0.52401918464E+02  0.10752422205E+03  0.00000000000E+00 0. -1.
</event>
<event>
 7    1  0.2788485E-009  0.6795883E+02  0.7561462E-02  0.1367175E+00
         -2   -1    0    0    0  501 -0.00000000000E+00  0.00000000000E+00  0.13819695051E+03  0.13819695051E+03  0.00000000000E+00 0. -1.
          2   -1    0    0  501    0  0.00000000000E+00 -0.00000000000E+00 -0.92734982684E+02  0.92734982684E+02  0.00000000000E+00 0.  1.
         25    2    1    2    0    0 -0.16394275125E+02  0.11421621405E+02  0.50394064759E+02  0.13631508522E+03  0.12507203926E+03 0.  0.
          5    1    3    3  502    0  0.23795631089E+02  0.88125047035E+01  0.81368275025E+02  0.85335578036E+02  0.41800000000E+01 0.  1.
         -5    1    3    3    0  502 -0.40189906214E+02  0.26091167019E+01 -0.30974210267E+02  0.50979507188E+02  0.41800000000E+01 0.  1.
        -11    1    1    2    0    0 -0.67787466281E+01  0.25352679338E+02 -0.33535462471E+02  0.42583294830E+02  0.00000000000E+00 0.  1.
         11    1    1    2    0    0  0.23173021754E+02 -0.36774300744E+02  0.28603365539E+02  0.52033553141E+02  0.00000000000E+00 0. -1.
</event>
<event>
 7    1  0.2788485E-009  0.6633314E+02  0.7561462E-02  0.1373026E+00
          2   -1    0    0  501    0  0.00000000000E+00  0.00000000000E+00  0.39935504660E+03  0.39935504660E+03  0.00000000000E+00 0. -1.
         -2   -1    0    0    0  501 -0.00000000000E+00 -0.00000000000E+00 -0.30661637953E+02  0.30661637953E+02  0.00000000000E+00 0.  1.
         25    2    1    2    0    0 -0.17966312965E+02 -0.13938074459E+02  0.14057681550E+03  0.18954271394E+03  0.12509013162E+03 0.  0.
          5    1    3    3  502    0 -0.26560448184E+02  0.11702083403E+02  0.15559155643E+03  0.15833066979E+03  0.41800000000E+01 0.  1.
         -5    1    3    3    0  502  0.85941352194E+01 -0.25640157862E+02 -0.15014740923E+02  0.31212044155E+02  0.41800000000E+01 0.  1.
        -11    1    1    2    0    0  0.91702143187E+01 -0.29896389422E+02  0.87410948506E+02  0.92836204413E+02  0.00000000000E+00 0.  1.
         11    1    1    2    0    0  0.87960986462E+01  0.43834463881E+02  0.14070564464E+03  0.14763776620E+03  0.00000000000E+00 0. -1.
</event>
<event>
 7    1  0.2788485E-009  0.2702495E+03  0.7561462E-02  0.1101137E+00
          1   -1    0    0  501    0  0.00000000000E+00  0.00000000000E+00  0.98134367596E+03  0.98134367596E+03  0.00000000000E+00 0. -1.
         -1   -1    0    0    0  501 -0.00000000000E+00 -0.00000000000E+00 -0.80220942790E+02  0.80220942790E+02  0.00000000000E+00 0.  1.
         25    2    1    2    0    0 -0.25270441451E+03  0.11654710647E+02  0.56317429557E+03  0.62992677401E+03  0.12508836887E+03 0.  0.
          5    1    3    3  502    0 -0.24878710339E+02 -0.31202347146E+02  0.35559470035E+02  0.53614223903E+02  0.41800000000E+01 0.  1.
         -5    1    3    3    0  502 -0.22782570418E+03  0.42857057793E+02  0.52761482553E+03  0.57631255010E+03  0.41800000000E+01 0.  1.
        -11    1    1    2    0    0  0.11526000895E+03 -0.50274790311E+02  0.15938579085E+03  0.20301786751E+03  0.00000000000E+00 0. -1.
         11    1    1    2    0    0  0.13744440557E+03  0.38620079664E+02  0.17856264675E+03  0.22861997723E+03  0.00000000000E+00 0.  1.
</event>
<event>
 7    1  0.2788485E-009  0.8383540E+02  0.7561462E-02  0.1318506E+00
         -2   -1    0    0    0  501 -0.00000000000E+00  0.00000000000E+00  0.92527321738E+02  0.92527321738E+02  0.00000000000E+00 0.  1.
          2   -1    0    0  501    0  0.00000000000E+00 -0.00000000000E+00 -0.14626596618E+03  0.14626596618E+03  0.00000000000E+00 0. -1.
         25    2    1    2    0    0 -0.41515564484E+02 -0.14390143756E+01 -0.24104265509E+02  0.13399492826E+03  0.12509201544E+03 0.  0.
          5    1    3    3  502    0  0.34088180638E+02  0.28569503833E+02 -0.27528944399E+02  0.52474143997E+02  0.41800000000E+01 0. -1.
         -5    1    3    3    0  502 -0.75603745122E+02 -0.30008518208E+02  0.34246788899E+01  0.81520784264E+02  0.41800000000E+01 0. -1.
        -11    1    1    2    0    0  0.30230581205E+02  0.67796684994E+00  0.30889760421E+02  0.43226438414E+02  0.00000000000E+00 0.  1.
         11    1    1    2    0    0  0.11284983279E+02  0.76104752569E+00 -0.60524139356E+02  0.61571921245E+02  0.00000000000E+00 0. -1.
</event>
<event>
 7    1  0.2788485E-009  0.5957973E+02  0.7561462E-02  0.1399604E+00
         -3   -1    0    0    0  501 -0.00000000000E+00  0.00000000000E+00  0.75971219561E+02  0.75971219561E+02  0.00000000000E+00 0.  1.
          3   -1    0    0  501    0  0.00000000000E+00 -0.00000000000E+00 -0.15950640944E+03  0.15950640944E+03  0.00000000000E+00 0. -1.
         25    2    1    2    0    0  0.93249345254E+01 -0.15599663982E+02 -0.53387717134E+02  0.13721547025E+03  0.12509009958E+03 0.  0.
          5    1    3    3  502    0 -0.18337518110E+01 -0.13053297711E+02  0.40368227496E+02  0.42671037226E+02  0.41800000000E+01 0. -1.
         -5    1    3    3    0  502  0.11158686336E+02 -0.25463662711E+01 -0.93755944629E+02  0.94544433021E+02  0.41800000000E+01 0. -1.
        -11    1    1    2    0    0  0.28159915063E+01  0.53384480026E+02 -0.12925397389E+02  0.54999076479E+02  0.00000000000E+00 0. -1.
         11    1    1    2    0    0 -0.12140926032E+02 -0.37784816044E+02 -0.17222075356E+02  0.43263082276E+02  0.00000000000E+00 0.  1.
</event>
<event>
 7    1  0.2788485E-009  0.3832484E+03  0.7561462E-02  0.1049740E+00
         -2   -1    0    0    0  501 -0.00000000000E+00  0.00000000000E+00  0.36013811175E+03  0.36013811175E+03  0.00000000000E+00 0.  1.
          2   -1    0    0  501    0  0.00000000000E+00 -0.00000000000E+00 -0.44397536139E+03  0.44397536139E+03  0.00000000000E+00 0. -1.
         25    2    1    2    0    0 -0.82752881522E+02  0.36812464262E+03 -0.11720098039E+03  0.41442493215E+03  0.12509261640E+03 0.  0.
          5    1    3    3  502    0 -0.44870903311E+02  0.13582674666E+03  0.15916432322E+02  0.14398995899E+03  0.41800000000E+01 0.  1.
         -5    1    3    3    0  502 -0.37881978211E+02  0.23229789596E+03 -0.13311741271E+03  0.27043497316E+03  0.41800000000E+01 0.  1.
        -11    1    1    2    0    0 -0.17371434534E+02 -0.10553308933E+03  0.26892688830E+01  0.10698706393E+03  0.00000000000E+00 0. -1.
         11    1    1    2    0    0  0.10012431606E+03 -0.26259155329E+03  0.30674461873E+02  0.28270147707E+03  0.00000000000E+00 0.  1.
</event>
<event>
 7    1  0.2788485E-009  0.1001112E+03  0.7561462E-02  0.1280062E+00
          1   -1    0    0  501    0  0.00000000000E+00  0.00000000000E+00  0.41605720282E+02  0.41605720282E+02  0.00000000000E+00 0. -1.
         -1   -1    0    0    0  501 -0.00000000000E+00 -0.00000000000E+00 -0.37793737708E+03  0.37793737708E+03  0.00000000000E+00 0.  1.
         25    2    1    2    0    0  0.33763354124E+02 -0.18530369888E+01 -0.27730069542E+03  0.30608250732E+03  0.12508967897E+03 0.  0.
          5    1    3    3  502    0  0.56356160461E+02  0.31711473454E+02 -0.24700747916E+03  0.25536601483E+03  0.41800000000E+01 0.  1.
         -5    1    3    3    0  502 -0.22592806336E+02 -0.33564510442E+02 -0.30293216253E+02  0.50716492489E+02  0.41800000000E+01 0.  1.
        -11    1    1    2    0    0 -0.59993189483E+02  0.19557910909E+02 -0.50121191218E+02  0.80584294205E+02  0.00000000000E+00 0.  1.
         11    1    1    2    0    0  0.26229835359E+02 -0.17704873920E+02 -0.89097701675E+01  0.32876295836E+02  0.00000000000E+00 0. -1.
</event>
<event>
 7    1  0.2788485E-009  0.1135198E+03  0.7561462E-02  0.1254187E+00
          2   -1    0    0  501    0  0.00000000000E+00  0.00000000000E+00  0.50378233068E+03  0.50378233068E+03  0.00000000000E+00 0. -1.
         -2   -1    0    0    0  501 -0.00000000000E+00 -0.00000000000E+00 -0.32383834784E+02  0.32383834784E+02  0.00000000000E+00 0.  1.
         25    2    1    2    0    0  0.17403871738E+02 -0.47476768481E+02  0.36882609262E+03  0.39273105794E+03  0.12509220188E+03 0.  0.
          5    1    3    3  502    0  0.59749830782E+02  0.12592312228E+02  0.15967576703E+03  0.17100418586E+03  0.41800000000E+01 0.  1.
         -5    1    3    3    0  502 -0.42345959045E+02 -0.60069080709E+02  0.20915032559E+03  0.22172687207E+03  0.41800000000E+01 0.  1.
        -11    1    1    2    0    0  0.86342087504E+01  0.61869868224E+02  0.40078508578E+02  0.74220731636E+02  0.00000000000E+00 0.  1.
         11    1    1    2    0    0 -0.26038080488E+02 -0.14393099743E+02  0.62493894695E+02  0.69214375890E+02  0.00000000000E+00 0. -1.
</event>
<event>
 7    1  0.2788485E-009  0.9671760E+02  0.7561462E-02  0.1287354E+00
          2   -1    0    0  501    0  0.00000000000E+00  0.00000000000E+00  0.39671306912E+03  0.39671306912E+03  0.00000000000E+00 0. -1.
         -2   -1    0    0    0  501 -0.00000000000E+00 -0.00000000000E+00 -0.36769820110E+02  0.36769820110E+02  0.00000000000E+00 0.  1.
         25    2    1    2    0    0 -0.15335078537E+02  0.52179721737E+02  0.20523632918E+03  0.24642423647E+03  0.12508023628E+03 0.  0.
          5    1    3    3  502    0  0.32971603668E+02  0.34308486929E+02  0.18476770864E+03  0.19084228430E+03  0.41800000000E+01 0.  1.
         -5    1    3    3    0  502 -0.48306682205E+02  0.17871234808E+02  0.20468620545E+02  0.55581952163E+02  0.41800000000E+01 0.  1.
        -11    1    1    2    0    0  0.46229099989E+02 -0.23591912342E+02  0.42057419823E+02  0.66802204873E+02  0.00000000000E+00 0. -1.
         11    1    1    2    0    0 -0.30894021452E+02 -0.28587809395E+02  0.11264950001E+03  0.12025644789E+03  0.00000000000E+00 0.  1.
</event>
<event>
 7    1  0.2788485E-009  0.8425826E+02  0.7561462E-02  0.1317384E+00
         -2   -1    0    0    0  501 -0.00000000000E+00  0.00000000000E+00  0.30162463990E+03  0.30162463990E+03  0.00000000000E+00 0.  1.
          2   -1    0    0  501    0  0.00000000000E+00 -0.00000000000E+00 -0.51120193638E+02  0.51120193638E+02  0.00000000000E+00 0. -1.
         25    2    1    2    0    0 -0.41230028019E+02  0.24691486207E+02  0.19546336460E+03  0.23698998600E+03  0.12509493141E+03 0.  0.
          5    1    3    3  502    0  0.98225921919E+01  0.90186824409E+00 -0.15363171918E+02  0.18729552453E+02  0.41800000000E+01 0.  1.
         -5    1    3    3    0  502 -0.51052620211E+02  0.23789617963E+02  0.21082653652E+03  0.21826043355E+03  0.41800000000E+01 0.  1.
        -11    1    1    2    0    0 -0.50682354229E+01 -0.48843701042E+02  0.20921898387E+02  0.53377148424E+02  0.00000000000E+00 0. -1.
         11    1    1    2    0    0  0.46298263442E+02  0.24152214835E+02  0.34119183278E+02  0.62377699114E+02  0.00000000000E+00 0.  1.
</event>
<event>
 7    1  0.2788485E-009  0.2060482E+03  0.7561462E-02  0.1144734E+00
          2   -1    0    0  501    0  0.00000000000E+00  0.00000000000E+00  0.67203551820E+03  0.67203551820E+03  0.00000000000E+00 0. -1.
         -2   -1    0    0    0  501 -0.00000000000E+00 -0.00000000000E+00 -0.79694395918E+02  0.79694395918E+02  0.00000000000E+00 0.  1.
         25    2    1    2    0    0  0.18522917935E+03 -0.71398914550E+02  0.38197809787E+03  0.44828856013E+03  0.12509081505E+03 0.  0.
          5    1    3    3  502    0  0.11542227573E+03 -0.27353117044E+02  0.10243127792E+03  0.15678052763E+03  0.41800000000E+01 0. -1.
         -5    1    3    3    0  502  0.69806903626E+02 -0.44045797506E+02  0.27954681995E+03  0.29150803250E+03  0.41800000000E+01 0. -1.
        -11    1    1    2    0    0 -0.11433257497E+03  0.63000183207E+01  0.73297005401E+02  0.13595616548E+03  0.00000000000E+00 0.  1.
         11    1    1    2    0    0 -0.70896604383E+02  0.65098896229E+02  0.13706601901E+03  0.16748518851E+03  0.00000000000E+00 0. -1.
</event>
<event>
 7    1  0.2788485E-009  0.1127027E+03  0.7561462E-02  0.1255645E+00
         -2   -1    0    0    0  501 -0.00000000000E+00  0.00000000000E+00  0.26335055583E+02  0.26335055583E+02  0.00000000000E+00 0.  1.
          2   -1    0    0  501    0  0.00000000000E+00 -0.00000000000E+00 -0.70477304028E+03  0.70477304028E+03  0.00000000000E+00 0. -1.
         25    2    1    2    0    0  0.70120049572E+02  0.43257623250E+02 -0.33841141986E+03  0.37007827309E+03  0.12509035055E+03 0.  0.
          5    1    3    3  502    0  0.60895001277E+02  0.79983096297E+02 -0.17114700742E+03  0.19853026828E+03  0.41800000000E+01 0. -1.
         -5    1    3    3    0  502  0.92250482947E+01 -0.36725473047E+02 -0.16726441244E+03  0.17154800481E+03  0.41800000000E+01 0. -1.
        -11    1    1    2    0    0 -0.28795812861E+02 -0.29122076671E+01 -0.18483315068E+02  0.34341122983E+02  0.00000000000E+00 0.  1.
         11    1    1    2    0    0 -0.41324236710E+02 -0.40345415583E+02 -0.32154324977E+03  0.32668869979E+03  0.00000000000E+00 0. -1.
</event>
<event>
 7    1  0.2788485E-009  0.9801195E+02  0.7561462E-02  0.1284533E+00
         -3   -1    0    0    0  501 -0.00000000000E+00  0.00000000000E+00  0.61201593307E+02  0.61201593307E+02  0.00000000000E+00 0.  1.
          3   -1    0    0  501    0  0.00000000000E+00 -0.00000000000E+00 -0.26715440105E+03  0.26715440105E+03  0.00000000000E+00 0. -1.
         25    2    1    2    0    0  0.59952925858E+02  0.32963858890E+02 -0.12269095376E+03  0.18809819352E+03  0.12508753320E+03 0.  0.
          5    1    3    3  502    0  0.75192667021E+02  0.17023331369E+02 -0.15713901914E+02  0.78791688000E+02  0.41800000000E+01 0. -1.
         -5    1    3    3    0  502 -0.15239741163E+02  0.15940527521E+02 -0.10697705184E+03  0.10930650552E+03  0.41800000000E+01 0. -1.
        -11    1    1    2    0    0 -0.46653482681E+02 -0.54074472485E+02 -0.89535684514E+02  0.11453049735E+03  0.00000000000E+00 0. -1.
         11    1    1    2    0    0 -0.13299443177E+02  0.21110613595E+02  0.62738305302E+01  0.25727303487E+02  0.00000000000E+00 0.  1.
</event>
<event>
 7    1  0.2788485E-009  0.1283309E+03  0.7561462E-02  0.1229954E+00
         -2   -1    0    0    0  501 -0.00000000000E+00  0.00000000000E+00  0.20038729461E+02  0.20038729461E+02  0.00000000000E+00 0.  1.
          2   -1    0    0  501    0  0.00000000000E+00 -0.00000000000E+00 -0.89074926393E+03  0.89074926393E+03  0.00000000000E+00 0. -1.
         25    2    1    2    0    0 -0.76806399655E+02 -0.84112917361E+01 -0.44051144303E+03  0.46440096621E+03  0.12509177877E+03 0.  0.
          5    1    3    3  502    0  0.24170957624E+01  0.48889713968E+02 -0.14219595335E+03  0.15044337151E+03  0.41800000000E+01 0.  1.
         -5    1    3    3    0  502 -0.79223495418E+02 -0.57301005705E+02 -0.29831548968E+03  0.31395759469E+03  0.41800000000E+01 0.  1.
        -11    1    1    2    0    0  0.46171802849E+02  0.43260030358E+02 -0.15689806437E+03  0.16917525885E+03  0.00000000000E+00 0.  1.
         11    1    1    2    0    0  0.30634596806E+02 -0.34848738622E+02 -0.27330102707E+03  0.27721176833E+03  0.00000000000E+00 0. -1.
</event>
<event>
 7    1  0.2788485E-009  0.1148110E+03  0.7561462E-02  0.1251911E+00
          1   -1    0    0  501    0  0.00000000000E+00  0.00000000000E+00  0.71195480577E+03  0.71195480577E+03  0.00000000000E+00 0. -1.
         -1   -1    0    0    0  501 -0.00000000000E+00 -0.00000000000E+00 -0.28465020384E+02  0.28465020384E+02  0.00000000000E+00 0.  1.
         25    2    1    2    0    0  0.24820282333E+02 -0.81702695465E+02  0.29406812854E+03  0.33077829645E+03  0.12508733075E+03 0.  0.
          5    1    3    3  502    0 -0.15352678469E+02 -0.46205944906E+02  0.22255389763E+02  0.53697940876E+02  0.41800000000E+01 0.  1.
         -5    1    3    3    0  502  0.40172960802E+02 -0.35496750559E+02  0.27181273878E+03  0.27708035557E+03  0.41800000000E+01 0.  1.
        -11    1    1    2    0    0 -0.58776042751E+02  0.32391995786E+02  0.21497017267E+03  0.22520221964E+03  0.00000000000E+00 0. -1.
         11    1    1    2    0    0  0.33955760418E+02  0.49310699680E+02  0.17445148418E+03  0.18443931007E+03  0.00000000000E+00 0.  1.
</event>
<event>
 7    1  0.2788485E-009  0.1058837E+03  0.7561462E-02  0.1268388E+00
         -2   -1    0    0    0  501 -0.00000000000E+00  0.00000000000E+00  0.15876336537E+02  0.15876336537E+02  0.00000000000E+00 0.  1.
          2   -1    0    0  501    0  0.00000000000E+00 -0.00000000000E+00 -0.81729876631E+03  0.81729876631E+03  0.00000000000E+00 0. -1.
         25    2    1    2    0    0 -0.10920114259E+02  0.21040403118E+02 -0.52912263252E+03  0.54422418916E+03  0.12508900975E+03 0.  0.
          5    1    3    3  502    0  0.14480152351E+02 -0.49553629751E+02 -0.23683266291E+03  0.24243023668E+03  0.41800000000E+01 0. -1.
         -5    1    3    3    0  502 -0.25400266610E+02  0.70594032869E+02 -0.29228996961E+03  0.30179395248E+03  0.41800000000E+01 0. -1.
        -11    1    1    2    0    0  0.41925524449E+02 -0.31137426108E+02 -0.22823261016E+03  0.23413118811E+03  0.00000000000E+00 0. -1.
         11    1    1    2    0    0 -0.31005410190E+02  0.10097022990E+02 -0.44067187099E+02  0.54819725584E+02  0.00000000000E+00 0.  1.
</event>
<event>
 7    1  0.2788485E-009  0.6913127E+02  0.7561462E-02  0.1363072E+00
         -2   -1    0    0    0  501 -0.00000000000E+00  0.00000000000E+00  0.64902708481E+02  0.64902708481E+02  0.00000000000E+00 0. -1.
          2   -1    0    0  501    0  0.00000000000E+00 -0.00000000000E+00 -0.21359312512E+03  0.21359312512E+03  0.00000000000E+00 0.  1.
         25    2    1    2    0    0  0.36136153694E+02 -0.19484313491E+02 -0.10765822966E+03  0.17006425758E+03  0.12508436040E+03 0.  0.
          5    1    3    3  502    0  0.15010519586E+02 -0.43225732087E+01  0.27750530125E+02  0.32117980316E+02  0.41800000000E+01 0.  1.
         -5    1    3    3    0  502  0.21125634108E+02 -0.15161740282E+02 -0.13540875979E+03  0.13794627727E+03  0.41800000000E+01 0.  1.
        -11    1    1    2    0    0  0.17023206366E+02  0.36222356189E+02 -0.33499569134E+02  0.52192621844E+02  0.00000000000E+00 0. -1.
         11    1    1    2    0    0 -0.53159360060E+02 -0.16738042697E+02 -0.75326178473E+01  0.56238954177E+02  0.00000000000E+00 0.  1.
</event>
<event>
 7    1  0.2788485E-009  0.1415422E+03  0.7561462E-02  0.1211269E+00
         -1   -1    0    0    0  501 -0.00000000000E+00  0.00000000000E+00  0.22183070761E+02  0.22183070761E+02  0.00000000000E+00 0.  1.
          1   -1    0    0  501    0  0.00000000000E+00 -0.00000000000E+00 -0.12248831661E+04  0.12248831661E+04  0.00000000000E+00 0. -1.
         25    2    1    2    0    0 -0.11079536394E+03 -0.28093890672E+02 -0.80759360842E+03  0.82517905308E+03  0.12509258133E+03 0.  0.
          5    1    3    3  502    0 -0.13129868051E+03 -0.31440695054E+02 -0.77221355119E+03  0.78393820027E+03  0.41800000000E+01 0.  1.
         -5    1    3    3    0  502  0.20503316569E+02  0.33468043819E+01 -0.35380057236E+02  0.41240852803E+02  0.41800000000E+01 0.  1.
        -11    1    1    2    0    0 -0.32313700545E+01  0.11064653325E+02 -0.13576818180E+01  0.11606532882E+02  0.00000000000E+00 0.  1.
         11    1    1    2    0    0  0.11402673400E+03  0.17029237347E+02 -0.39374880513E+03  0.41028065094E+03  0.00000000000E+00 0. -1.
</event>
<event>
 7    1  0.2788485E-009  0.9164273E+02  0.7561462E-02  0.1298922E+00
          1   -1    0    0  501    0  0.00000000000E+00  0.00000000000E+00  0.65365254632E+02  0.65365254632E+02  0.00000000000E+00 0. -1.
         -1   -1    0    0    0  501 -0.00000000000E+00 -0.00000000000E+00 -0.20352595850E+03  0.20352595850E+03  0.00000000000E+00 0.  1.
         25    2    1    2    0    0 -0.11918112636E+02 -0.14171202305E+02 -0.38548738067E+02  0.13219885209E+03  0.12509063476E+03 0.  0.
          5    1    3    3  502    0 -0.53086577637E+02 -0.16489960302E+02  0.21065816945E+02  0.59593158664E+02  0.41800000000E+01 0. -1.
         -5    1    3    3    0  502  0.41168465002E+02  0.23187579964E+01 -0.59614555012E+02  0.72605693430E+02  0.41800000000E+01 0. -1.
        -11    1    1    2    0    0  0.44874841660E+02  0.25044784869E+02 -0.31575035792E+02  0.60315632704E+02  0.00000000000E+00 0. -1.
         11    1    1    2    0    0 -0.32956729025E+02 -0.10873582564E+02 -0.68036930008E+02  0.76376728332E+02  0.00000000000E+00 0.  1.
</event>
<event>
 7    1  0.2788485E-009  0.2097995E+03  0.7561462E-02  0.1141725E+00
          1   -1    0    0  501    0  0.00000000000E+00  0.00000000000E+00  0.17339667859E+03  0.17339667859E+03  0.00000000000E+00 0. -1.
         -1   -1    0    0    0  501 -0.00000000000E+00 -0.00000000000E+00 -0.28112493475E+03  0.28112493475E+03  0.00000000000E+00 0.  1.
         25    2    1    2    0    0 -0.11472381213E+03 -0.14944363033E+03 -0.18987508017E+02  0.22694530141E+03  0.12509473473E+03 0.  0.
          5    1    3    3  502    0 -0.87492403939E+02 -0.14964965732E+02 -0.61233132708E+01  0.89072096146E+02  0.41800000000E+01 0. -1.
         -5    1    3    3    0  502 -0.27231408193E+02 -0.13447866460E+03 -0.12864194746E+02  0.13787320527E+03  0.41800000000E+01 0. -1.
        -11    1    1    2    0    0  0.10177513708E+03  0.14908559954E+03 -0.50857782419E+02  0.18753988523E+03  0.00000000000E+00 0. -1.
         11    1    1    2    0    0  0.12948675052E+02  0.35803078469E+00 -0.37882965719E+02  0.40036426705E+02  0.00000000000E+00 0.  1.
</event>
<event>
 7    1  0.2788485E-009  0.7614131E+02  0.7561462E-02  0.1340373E+00
          2   -1    0    0  501    0  0.00000000000E+00  0.00000000000E+00  0.57995421997E+03  0.57995421997E+03  0.00000000000E+00 0. -1.
         -2   -1    0    0    0  501 -0.00000000000E+00 -0.00000000000E+00 -0.25491825667E+02  0.25491825667E+02  0.00000000000E+00 0.  1.
         25    2    1    2    0    0 -0.51478966615E+02  0.13517371825E+02  0.28603442789E+03  0.31669723179E+03  0.12509452162E+03 0.  0.
          5    1    3    3  502    0 -0.25673188717E+02  0.13457950244E+02 -0.18429642039E+00  0.29287120187E+02  0.41800000000E+01 0. -1.
         -5    1    3    3    0  502 -0.25805777898E+02  0.59421581109E-01  0.28621872431E+03  0.28741011160E+03  0.41800000000E+01 0. -1.
        -11    1    1    2    0    0 -0.16507466961E+02  0.15768095007E+02  0.23022758950E+02  0.32421855519E+02  0.00000000000E+00 0.  1.
         11    1    1    2    0    0  0.67986433576E+02 -0.29285466832E+02  0.24540520746E+03  0.25632695833E+03  0.00000000000E+00 0. -1.
</event>
<event>
 7    1  0.2788485E-009  0.1178301E+03  0.7561462E-02  0.1246720E+00
          1   -1    0    0  501    0  0.00000000000E+00  0.00000000000E+00  0.14593700035E+03  0.14593700035E+03  0.00000000000E+00 0. -1.
         -1   -1    0    0    0  501 -0.00000000000E+00 -0.00000000000E+00 -0.99751056809E+02  0.99751056809E+02  0.00000000000E+00 0.  1.
         25    2    1    2    0    0  0.53409606653E+02 -0.25445109761E+01  0.17768163716E+02  0.13719578176E+03  0.12509162351E+03 0.  0.
          5    1    3    3  502    0  0.90106526629E+02  0.19431138154E+02  0.18966074560E+02  0.94201590514E+02  0.41800000000E+01 0.  1.
         -5    1    3    3    0  502 -0.36696919976E+02 -0.21975649131E+02 -0.11979108436E+01  0.42994191245E+02  0.41800000000E+01 0.  1.
        -11    1    1    2    0    0 -0.41066018265E+01  0.38922805697E+02 -0.37000804810E+01  0.39313351135E+02  0.00000000000E+00 0.  1.
         11    1    1    2    0    0 -0.49303004827E+02 -0.36378294721E+02  0.32117860304E+02  0.69178924263E+02  0.00000000000E+00 0. -1.
</event>
<event>
 7    1  0.2788485E-009  0.9393607E+02  0.7561462E-02  0.1293590E+00
         -1   -1    0    0    0  501 -0.00000000000E+00  0.00000000000E+00  0.38908497349E+02  0.38908497349E+02  0.00000000000E+00 0.  1.
          1   -1    0    0  501    0  0.00000000000E+00 -0.00000000000E+00 -0.42469377352E+03  0.42469377352E+03  0.00000000000E+00 0. -1.
         25    2    1    2    0    0  0.24670260326E+02 -0.23589376573E+02 -0.10664335520E+03  0.16788375064E+03  0.12508824122E+03 0.  0.
          5    1    3    3  502    0  0.12422294870E+02  0.40690245833E+02 -0.63221880980E-01  0.42749104234E+02  0.41800000000E+01 0.  1.
         -5    1    3    3    0  502  0.12247965455E+02 -0.64279622406E+02 -0.10658013331E+03  0.12513464641E+03  0.41800000000E+01 0.  1.
        -11    1    1    2    0    0 -0.53658137181E+01 -0.25890815165E+02 -0.26064830785E+02  0.37128178929E+02  0.00000000000E+00 0.  1.
         11    1    1    2    0    0 -0.19304446607E+02  0.49480191738E+02 -0.25307709019E+03  0.25859034129E+03  0.00000000000E+00 0. -1.
</event>
<event>
 7    1  0.3192576E-009  0.1034587E+03  0.7561462E-02  0.1273187E+00
          2   -1    0    0  501    0  0.00000000000E+00  0.00000000000E+00  0.14789727993E+03  0.14789727993E+03  0.00000000000E+00 0. -1.
         -2   -1    0    0    0  501 -0.00000000000E+00 -0.00000000000E+00 -0.12918285929E+03  0.12918285929E+03  0.00000000000E+00 0.  1.
         25    2    1    2    0    0  0.55472086110E+02  0.63483039100E+02  0.67814117193E+01  0.15099841071E+03  0.12508910384E+03 0.  0.
          5    1    3    3  502    0  0.18134796525E+01  0.68266828212E+02  0.47542232958E+02  0.83314973787E+02  0.41800000000E+01 0.  1.
         -5    1    3    3    0  502  0.53658606457E+02 -0.47837891119E+01 -0.40760821239E+02  0.67683436920E+02  0.41800000000E+01 0.  1.
        -11    1    1    2    0    0 -0.37837144554E+02 -0.39520789129E+02  0.52464415471E+02  0.75802751745E+02  0.00000000000E+00 0. -1.
         11    1    1    2    0    0 -0.17634941556E+02 -0.23962249971E+02 -0.40531406558E+02  0.50278976768E+02  0.00000000000E+00 0.  1.
</event>
<event>
 7    1  0.2788485E-009  0.2501023E+03  0.7561462E-02  0.1113240E+00
         -1   -1    0    0    0  501 -0.00000000000E+00  0.00000000000E+00  0.10225037323E+03  0.10225037323E+03  0.00000000000E+00 0.  1.
          1   -1    0    0  501    0  0.00000000000E+00 -0.00000000000E+00 -0.79421617595E+03  0.79421617595E+03  0.00000000000E+00 0. -1.
         25    2    1    2    0    0 -0.22457001874E+03  0.42977598326E+02 -0.55941959363E+03  0.61715359836E+03  0.12509802141E+03 0.  0.
          5    1    3    3  502    0 -0.16683820761E+03 -0.20992347577E+02 -0.30228387240E+03  0.34593160897E+03  0.41800000000E+01 0.  1.
         -5    1    3    3    0  502 -0.57731811134E+02  0.63969945902E+02 -0.25713572123E+03  0.27122198939E+03  0.41800000000E+01 0.  1.
        -11    1    1    2    0    0  0.15967815288E+03  0.12757464628E+02 -0.90738055899E+02  0.18410122270E+03  0.00000000000E+00 0. -1.
         11    1    1    2    0    0  0.64891865859E+02 -0.55735062954E+02 -0.41808153192E+02  0.95211728114E+02  0.00000000000E+00 0.  1.
</event>
<event>
 7    1  0.2788485E-009  0.1020257E+03  0.7561462E-02  0.1276093E+00
          1   -1    0    0  501    0  0.00000000000E+00  0.00000000000E+00  0.51839654739E+02  0.51839654739E+02  0.00000000000E+00 0. -1.
         -1   -1    0    0    0  501 -0.00000000000E+00 -0.00000000000E+00 -0.26264169480E+03  0.26264169480E+03  0.00000000000E+00 0.  1.
         25    2    1    2    0    0 -0.39051579097E+02 -0.12817177333E+02 -0.13781157620E+03  0.19060254851E+03  0.12509194658E+03 0.  0.
          5    1    3    3  502    0  0.69046031723E+01  0.51613965025E+02 -0.59643075493E+02  0.79287097216E+02  0.41800000000E+01 0. -1.
         -5    1    3    3    0  502 -0.45956182269E+02 -0.64431142358E+02 -0.78168500709E+02  0.11131545130E+03  0.41800000000E+01 0. -1.
        -11    1    1    2    0    0 -0.90022599031E+01 -0.14660210715E+02  0.13033801232E+02  0.21583383334E+02  0.00000000000E+00 0. -1.
         11    1    1    2    0    0  0.48053839000E+02  0.27477388048E+02 -0.86024265089E+02  0.10229541769E+03  0.00000000000E+00 0.  1.
</event>
<event>
 7    1  0.2788485E-009  0.7656011E+02  0.7561462E-02  0.1339107E+00
          1   -1    0    0  501    0  0.00000000000E+00  0.00000000000E+00  0.28613180338E+03  0.28613180338E+03  0.00000000000E+00 0. -1.
         -1   -1    0    0    0  501 -0.00000000000E+00 -0.00000000000E+00 -0.45972496107E+02  0.45972496107E+02  0.00000000000E+00 0.  1.
         25    2    1    2    0    0 -0.14851498442E+02 -0.23889930826E+02  0.18149051521E+03  0.22221474003E+03  0.12509711337E+03 0.  0.
          5    1    3    3  502    0 -0.45370422430E+02 -0.38878719385E+02  0.17796843743E+03  0.18777717426E+03  0.41800000000E+01 0. -1.
         -5    1    3    3    0  502  0.30518923988E+02  0.14988788559E+02  0.35220777802E+01  0.34437565764E+02  0.41800000000E+01 0. -1.
        -11    1    1    2    0    0 -0.29042804656E-01  0.38272395660E+02 -0.88398760545E+01  0.39280027007E+02  0.00000000000E+00 0.  1.
         11    1    1    2    0    0  0.14880541247E+02 -0.14382464834E+02  0.67508668118E+02  0.70609532455E+02  0.00000000000E+00 0. -1.
</event>
<event>
 7    1  0.2788485E-009  0.1095990E+03  0.7561462E-02  0.1261314E+00
         -2   -1    0    0    0  501 -0.00000000000E+00  0.00000000000E+00  0.78370290309E+02  0.78370290309E+02  0.00000000000E+00 0.  1.
          2   -1    0    0  501    0  0.00000000000E+00 -0.00000000000E+00 -0.21174019788E+03  0.21174019788E+03  0.00000000000E+00 0. -1.
         25    2    1    2    0    0  0.52547085855E+02  0.30306416789E+02 -0.35905919721E+02  0.14358833339E+03  0.12509476121E+03 0.  0.
          5    1    3    3  502    0  0.22555159341E+02 -0.33945752945E+02 -0.56354354886E+02  0.69673058427E+02  0.41800000000E+01 0. -1.
         -5    1    3    3    0  502  0.29991926514E+02  0.64252169735E+02  0.20448435166E+02  0.73915274960E+02  0.41800000000E+01 0. -1.
        -11    1    1    2    0    0  0.22780666751E+02 -0.21557357534E+02 -0.42701662024E+02  0.52982170407E+02  0.00000000000E+00 0.  1.
         11    1    1    2    0    0 -0.75327752606E+02 -0.87490592551E+01 -0.54762325826E+02  0.93539984394E+02  0.00000000000E+00 0. -1.
</event>
<event>
 7    1  0.2788485E-009  0.1329993E+03  0.7561462E-02  0.1223072E+00
          2   -1    0    0  501    0  0.00000000000E+00  0.00000000000E+00  0.16806856185E+03  0.16806856185E+03  0.00000000000E+00 0.  1.
         -2   -1    0    0    0  501 -0.00000000000E+00 -0.00000000000E+00 -0.12132274665E+03  0.12132274665E+03  0.00000000000E+00 0. -1.
         25    2    1    2    0    0  0.88835593476E+02  0.25685732952E+02  0.17624911411E+02  0.15656032555E+03  0.12509587719E+03 0.  0.
          5    1    3    3  502    0 -0.24067987377E+02  0.33582494931E+02 -0.21826927105E+01  0.41584715096E+02  0.41800000000E+01 0.  1.
         -5    1    3    3    0  502  0.11290358085E+03 -0.78967619786E+01  0.19807604122E+02  0.11497561046E+03  0.41800000000E+01 0.  1.
        -11    1    1    2    0    0 -0.49153506507E+02  0.17862410384E+02 -0.20131791581E+02  0.56039467690E+02  0.00000000000E+00 0.  1.
         11    1    1    2    0    0 -0.39682086968E+02 -0.43548143336E+02  0.49252695375E+02  0.76791515259E+02  0.00000000000E+00 0. -1.
</event>
<event>
 7    1  0.2788485E-009  0.9676642E+02  0.7561462E-02  0.1287246E+00
          2   -1    0    0  501    0  0.00000000000E+00  0.00000000000E+00  0.53165659684E+03  0.53165659684E+03  0.00000000000E+00 0. -1.
         -2   -1    0    0    0  501 -0.00000000000E+00 -0.00000000000E+00 -0.20934411383E+02  0.20934411383E+02  0.00000000000E+00 0.  1.
         25    2    1    2    0    0  0.10922422774E+01 -0.88443434154E+01  0.36880830808E+03  0.38954656582E+03  0.12509014121E+03 0.  0.
          5    1    3    3  502    0 -0.42899073680E+02  0.31930917643E+02  0.93918479364E+02  0.10815760348E+03  0.41800000000E+01 0.  1.
         -5    1    3    3    0  502  0.43991315957E+02 -0.40775261058E+02  0.27488982872E+03  0.28138896234E+03  0.41800000000E+01 0.  1.
        -11    1    1    2    0    0 -0.33076346603E+02 -0.18311269855E+02  0.58147023600E+02  0.69357217807E+02  0.00000000000E+00 0. -1.
         11    1    1    2    0    0  0.31984104326E+02  0.27155613271E+02  0.83766853776E+02  0.93687224599E+02  0.00000000000E+00 0.  1.
</event>
<event>
 7    1  0.2788485E-009  0.1235701E+03  0.7561462E-02  0.1237321E+00
          2   -1    0    0  501    0  0.00000000000E+00  0.00000000000E+00  0.53913246235E+02  0.53913246235E+02  0.00000000000E+00 0. -1.
         -2   -1    0    0    0  501 -0.00000000000E+00 -0.00000000000E+00 -0.40441708812E+03  0.40441708812E+03  0.00000000000E+00 0.  1.
         25    2    1    2    0    0 -0.66198650025E+02  0.43415218851E+02 -0.28767177803E+03  0.32352614054E+03  0.12508784611E+03 0.  0.
          5    1    3    3  502    0  0.29792805955E+02  0.11248504333E+02 -0.14512839720E+03  0.14864004915E+03  0.41800000000E+01 0. -1.
         -5    1    3    3    0  502 -0.95991455981E+02  0.32166714519E+02 -0.14254338083E+03  0.17488609139E+03  0.41800000000E+01 0. -1.
        -11    1    1    2    0    0  0.42919967028E+02 -0.67635417953E+02 -0.61838349454E+02  0.10119612045E+03  0.00000000000E+00 0.  1.
         11    1    1    2    0    0  0.23278682998E+02  0.24220199102E+02 -0.99371439648E+00  0.33608073360E+02  0.00000000000E+00 0. -1.
</event>
<event>
 7    1  0.2788485E-009  0.1127458E+03  0.7561462E-02  0.1255568E+00
         -1   -1    0    0    0  501 -0.00000000000E+00  0.00000000000E+00  0.55000096381E+02  0.55000096381E+02  0.00000000000E+00 0.  1.
          1   -1    0    0  501    0  0.00000000000E+00 -0.00000000000E+00 -0.55182230529E+03  0.55182230529E+03  0.00000000000E+00 0. -1.
         25    2    1    2    0    0 -0.41576433927E+02 -0.41777881130E+02 -0.49214855786E+02  0.14677646678E+03  0.12508892021E+03 0.  0.
          5    1    3    3  502    0  0.29910103167E+02  0.20263845223E+02  0.63780282947E+01  0.36924102421E+02  0.41800000000E+01 0. -1.
         -5    1    3    3    0  502 -0.71486537094E+02 -0.62041726353E+02 -0.55592884081E+02  0.10985236436E+03  0.41800000000E+01 0. -1.
        -11    1    1    2    0    0 -0.10455283656E+02 -0.14405435850E+02 -0.25802003802E+02  0.31346019501E+02  0.00000000000E+00 0.  1.
         11    1    1    2    0    0  0.52031717583E+02  0.56183316979E+02 -0.42180534932E+03  0.42869991539E+03  0.00000000000E+00 0. -1.
</event>
<event>
 7    1  0.2788485E-009  0.1142127E+03  0.7561462E-02  0.1252962E+00
         -1   -1    0    0    0  501 -0.00000000000E+00  0.00000000000E+00  0.17982711793E+02  0.17982711793E+02  0.00000000000E+00 0.  1.
          1   -1    0    0  501    0  0.00000000000E+00 -0.00000000000E+00 -0.77409689159E+03  0.77409689159E+03  0.00000000000E+00 0. -1.
         25    2    1    2    0    0  0.37732878509E+02  0.12605595851E+02 -0.35232197087E+03  0.37598039091E+03  0.12509121481E+03 0.  0.
          5    1    3    3  502    0  0.82561135147E+02 -0.63412763418E-01 -0.19360091666E+03  0.21051159681E+03  0.41800000000E+01 0. -1.
         -5    1    3    3    0  502 -0.44828256639E+02  0.12669008614E+02 -0.15872105421E+03  0.16546879410E+03  0.41800000000E+01 0. -1.
        -11    1    1    2    0    0  0.36500167175E+01  0.35410891760E+02 -0.11284764584E+03  0.11832939216E+03  0.00000000000E+00 0. -1.
         11    1    1    2    0    0 -0.41382895226E+02 -0.48016487610E+02 -0.29094456309E+03  0.29776982032E+03  0.00000000000E+00 0.  1.
</event>
<event>
 7    1  0.2788485E-009  0.9373948E+02  0.7561462E-02  0.1294041E+00
         -1   -1    0    0    0  501 -0.00000000000E+00  0.00000000000E+00  0.61642876103E+02  0.61642876103E+02  0.00000000000E+00 0. -1.
          1   -1    0    0  501    0  0.00000000000E+00 -0.00000000000E+00 -0.21738696447E+03  0.21738696447E+03  0.00000000000E+00 0.  1.
         25    2    1    2    0    0 -0.21057524004E+02  0.21288515162E+02 -0.12370188061E+03  0.17846118037E+03  0.12509843101E+03 0.  0.
          5    1    3    3  502    0 -0.51118623900E+00 -0.44331800545E+02 -0.92855971322E+02  0.10298190939E+03  0.41800000000E+01 0.  1.
         -5    1    3    3    0  502 -0.20546337765E+02  0.65620315707E+02 -0.30845909284E+02  0.75479270986E+02  0.41800000000E+01 0.  1.
        -11    1    1    2    0    0 -0.24923870551E+02 -0.64927119320E+01  0.17685406697E+02  0.31243051091E+02  0.00000000000E+00 0. -1.
         11    1    1    2    0    0  0.45981394555E+02 -0.14795803230E+02 -0.49727614453E+02  0.69325609104E+02  0.00000000000E+00 0.  1.
</event>
<event>
 7    1  0.2788485E-009  0.8936816E+02  0.7561462E-02  0.1304389E+00
         -4   -1    0    0    0  501 -0.00000000000E+00  0.00000000000E+00  0.75055393396E+03  0.75055393396E+03  0.00000000000E+00 0.  1.
          4   -1    0    0  501    0  0.00000000000E+00 -0.00000000000E+00 -0.21385061562E+02  0.21385061562E+02  0.00000000000E+00 0. -1.
         25    2    1    2    0    0 -0.31554132425E+02  0.32843067692E+02  0.55969572085E+03  0.57530936124E+03  0.12508889170E+03 0.  0.
          5    1    3    3  502    0 -0.58307127457E+02  0.21644480957E+02  0.12552171518E+03  0.14014770084E+03  0.41800000000E+01 0.  1.
         -5    1    3    3    0  502  0.26752995032E+02  0.11198586735E+02  0.43417400567E+03  0.43516166040E+03  0.41800000000E+01 0.  1.
        -11    1    1    2    0    0 -0.11631482697E+01 -0.50097410214E+02  0.14191932226E+03  0.15050646981E+03  0.00000000000E+00 0.  1.
         11    1    1    2    0    0  0.32717280695E+02  0.17254342522E+02  0.27553829285E+02  0.46123164464E+02  0.00000000000E+00 0. -1.
</event>
<event>
 7    1  0.2788485E-009  0.1142131E+03  0.7561462E-02  0.1252961E+00
         -2   -1    0    0    0  501 -0.00000000000E+00  0.00000000000E+00  0.79605341838E+02  0.79605341838E+02  0.00000000000E+00 0.  1.
          2   -1    0    0  501    0  0.00000000000E+00 -0.00000000000E+00 -0.39357866534E+03  0.39357866534E+03  0.00000000000E+00 0. -1.
         25    2    1    2    0    0 -0.11218760344E+03  0.75292361168E+01 -0.27828758912E+03  0.32516816750E+03  0.12509039585E+03 0.  0.
          5    1    3    3  502    0 -0.58013448330E+02 -0.92739826043E+01 -0.22364542525E+02  0.63001683334E+02  0.41800000000E+01 0.  1.
         -5    1    3    3    0  502 -0.54174155105E+02  0.16803218721E+02 -0.25592304659E+03  0.26216648416E+03  0.41800000000E+01 0.  1.
        -11    1    1    2    0    0  0.48739705723E+02  0.17150804872E+00  0.29298531737E+02  0.56868201052E+02  0.00000000000E+00 0.  1.
         11    1    1    2    0    0  0.63447897712E+02 -0.77007441655E+01 -0.64984266126E+02  0.91147638635E+02  0.00000000000E+00 0. -1.
</event>
<event>
 7    1  0.2788485E-009  0.7317154E+02  0.7561462E-02  0.1349628E+00
         -2   -1    0    0    0  501 -0.00000000000E+00  0.00000000000E+00  0.68395171897E+02  0.68395171897E+02  0.00000000000E+00 0.  1.
          2   -1    0    0  501    0  0.00000000000E+00 -0.00000000000E+00 -0.17861335559E+03  0.17861335559E+03  0.00000000000E+00 0. -1.
         25    2    1    2    0    0  0.98474312901E+01  0.86510987740E+01 -0.81226802132E+02  0.14972628604E+03  0.12509338085E+03 0.  0.
          5    1    3    3  502    0 -0.18534516410E+02  0.45103586371E+02  0.75882902818E+01  0.49526925520E+02  0.41800000000E+01 0.  1.
         -5    1    3    3    0  502  0.28381947700E+02 -0.36452487596E+02 -0.88815092414E+02  0.10019936052E+03  0.41800000000E+01 0.  1.
        -11    1    1    2    0    0  0.50975805927E+01  0.18951299282E+02 -0.53803676863E+02  0.57271046056E+02  0.00000000000E+00 0. -1.
         11    1    1    2    0    0 -0.14945011883E+02 -0.27602398056E+02  0.24812295304E+02  0.40011195394E+02  0.00000000000E+00 0.  1.
</event>
<event>
 7    1  0.2788485E-009  0.9466398E+02  0.7561462E-02  0.1291935E+00
          2   -1    0    0  501    0  0.00000000000E+00  0.00000000000E+00  0.12848864975E+04  0.12848864975E+04  0.00000000000E+00 0. -1.
         -2   -1    0    0    0  501 -0.00000000000E+00 -0.00000000000E+00 -0.10760503133E+02  0.10760503133E+02  0.00000000000E+00 0.  1.
         25    2    1    2    0    0  0.32989517456E+02  0.20232203288E+02  0.83458156946E+03  0.84479109967E+03  0.12509178903E+03 0.  0.
          5    1    3    3  502    0  0.54392997993E+02 -0.75962862178E+01  0.15871967951E+03  0.16800509177E+03  0.41800000000E+01 0.  1.
         -5    1    3    3    0  502 -0.21403480538E+02  0.27828489506E+02  0.67586188994E+03  0.67678600790E+03  0.41800000000E+01 0.  1.
        -11    1    1    2    0    0 -0.42548641108E+01  0.35731130560E+02  0.12469582759E+03  0.12978392419E+03  0.00000000000E+00 0.  1.
         11    1    1    2    0    0 -0.28734653345E+02 -0.55963333848E+02  0.31484859730E+03  0.32107197676E+03  0.00000000000E+00 0. -1.
</event>
<event>
 7    1  0.2788485E-009  0.1754710E+03  0.7561462E-02  0.1172260E+00
          1   -1    0    0  501    0  0.00000000000E+00  0.00000000000E+00  0.17967331666E+04  0.17967331666E+04  0.00000000000E+00 0. -1.
         -1   -1    0    0    0  501 -0.00000000000E+00 -0.00000000000E+00 -0.25551239704E+02  0.25551239704E+02  0.00000000000E+00 0.  1.
         25    2    1    2    0    0 -0.14513700483E+03 -0.72769535219E+02  0.12919648475E+04  0.13081210814E+04  0.12508973208E+03 0.  0.
          5    1    3    3  502    0 -0.12931391560E+03 -0.53080877654E+02  0.12571572501E+04  0.12649116539E+04  0.41800000000E+01 0.  1.
         -5    1    3    3    0  502 -0.15823089231E+02 -0.19688657565E+02  0.34807597441E+02  0.43209427549E+02  0.41800000000E+01 0.  1.
        -11    1    1    2    0    0  0.10931383753E+03  0.93723175403E+02  0.35062587147E+03  0.37904096141E+03  0.00000000000E+00 0.  1.
         11    1    1    2    0    0  0.35823167301E+02 -0.20953640184E+02  0.12859120792E+03  0.13512236346E+03  0.00000000000E+00 0. -1.
</event>
<event>
 7    1  0.2788485E-009  0.9241687E+02  0.7561462E-02  0.1297102E+00
         -2   -1    0    0    0  501 -0.00000000000E+00  0.00000000000E+00  0.23585964635E+02  0.23585964635E+02  0.00000000000E+00 0.  1.
          2   -1    0    0  501    0  0.00000000000E+00 -0.00000000000E+00 -0.50733403104E+03  0.50733403104E+03  0.00000000000E+00 0. -1.
         25    2    1    2    0    0  0.85777330584E+01 -0.15854790024E+02 -0.28243749900E+03  0.30942548810E+03  0.12509292536E+03 0.  0.
          5    1    3    3  502    0  0.36214490625E+02 -0.61974337144E+02 -0.17555481823E+03  0.18970839307E+03  0.41800000000E+01 0.  1.
         -5    1    3    3    0  502 -0.27636757566E+02  0.46119547120E+02 -0.10688268077E+03  0.11971709504E+03  0.41800000000E+01 0.  1.
        -11    1    1    2    0    0 -0.39484129634E+01  0.37075090265E+02 -0.19548297393E+03  0.19900689782E+03  0.00000000000E+00 0. -1.
         11    1    1    2    0    0 -0.46293200950E+01 -0.21220300241E+02 -0.58275934791E+01  0.22487609758E+02  0.00000000000E+00 0.  1.
</event>
<event>
 7    1  0.2788485E-009  0.1050236E+03  0.7561462E-02  0.1270073E+00
         -2   -1    0    0    0  501 -0.00000000000E+00  0.00000000000E+00  0.14080151247E+03  0.14080151247E+03  0.00000000000E+00 0.  1.
          2   -1    0    0  501    0  0.00000000000E+00 -0.00000000000E+00 -0.19964755924E+03  0.19964755924E+03  0.00000000000E+00 0. -1.
         25    2    1    2    0    0 -0.71027685711E+02 -0.48826269741E+02  0.63323999095E+02  0.16458653617E+03  0.12509940956E+03 0.  0.
          5    1    3    3  502    0 -0.52576358327E+02 -0.67633629899E+02  0.91755779915E+02  0.12559927108E+03  0.41800000000E+01 0.  1.
         -5    1    3    3    0  502 -0.18451327384E+02  0.18807360158E+02 -0.28431780820E+02  0.38987265086E+02  0.41800000000E+01 0.  1.
        -11    1    1    2    0    0  0.15426822281E+01  0.23646231771E+02 -0.93719545442E+02  0.96668905772E+02  0.00000000000E+00 0. -1.
         11    1    1    2    0    0  0.69485003482E+02  0.25180037970E+02 -0.28450500426E+02  0.79193629767E+02  0.00000000000E+00 0.  1.
</event>
<event>
 7    1  0.2788485E-009  0.1125426E+03  0.7561462E-02  0.1255933E+00
         -1   -1    0    0    0  501 -0.00000000000E+00  0.00000000000E+00  0.60795240954E+02  0.60795240954E+02  0.00000000000E+00 0.  1.
          1   -1    0    0  501    0  0.00000000000E+00 -0.00000000000E+00 -0.34337646509E+03  0.34337646509E+03  0.00000000000E+00 0. -1.
         25    2    1    2    0    0  0.63287073973E+02  0.59275659262E+02 -0.21040208585E+03  0.25968406495E+03  0.12509163980E+03 0.  0.
          5    1    3    3  502    0  0.41124351232E+02  0.53606202073E+01 -0.38189348764E+00  0.41684130744E+02  0.41800000000E+01 0.  1.
         -5    1    3    3    0  502  0.22162722741E+02  0.53915039055E+02 -0.21002019236E+03  0.21799993421E+03  0.41800000000E+01 0.  1.
        -11    1    1    2    0    0 -0.70781710508E+02 -0.58623304260E+01 -0.36897410475E+02  0.80036468939E+02  0.00000000000E+00 0.  1.
         11    1    1    2    0    0  0.74946365352E+01 -0.53413328836E+02 -0.35281727809E+02  0.64451172149E+02  0.00000000000E+00 0. -1.
</event>
<event>
 7    1  0.2788485E-009  0.8132915E+02  0.7561462E-02  0.1325321E+00
         -2   -1    0    0    0  501 -0.00000000000E+00  0.00000000000E+00  0.32985201872E+03  0.32985201872E+03  0.00000000000E+00 0.  1.
          2   -1    0    0  501    0  0.00000000000E+00 -0.00000000000E+00 -0.50504135946E+02  0.50504135946E+02  0.00000000000E+00 0. -1.
         25    2    1    2    0    0 -0.41524185784E+02 -0.13392062690E+02  0.24963182791E+03  0.28260839008E+03  0.12509135578E+03 0.  0.
          5    1    3    3  502    0  0.12975854752E+02  0.96344701003E+01  0.21136457742E+03  0.21202276484E+03  0.41800000000E+01 0.  1.
         -5    1    3    3    0  502 -0.54500040537E+02 -0.23026532790E+02  0.38267250486E+02  0.70585625241E+02  0.41800000000E+01 0.  1.
        -11    1    1    2    0    0  0.39883403264E+02 -0.25751660001E+02 -0.17367640319E+01  0.47506317454E+02  0.00000000000E+00 0. -1.
         11    1    1    2    0    0  0.16407825203E+01  0.39143722691E+02  0.31452818895E+02  0.50241447131E+02  0.00000000000E+00 0.  1.
</event>
<event>
 7    1  0.2788485E-009  0.8591650E+02  0.7561462E-02  0.1313053E+00
          4   -1    0    0  501    0  0.00000000000E+00  0.00000000000E+00  0.97084033385E+02  0.97084033385E+02  0.00000000000E+00 0. -1.
         -4   -1    0    0    0  501 -0.00000000000E+00 -0.00000000000E+00 -0.14654428281E+03  0.14654428281E+03  0.00000000000E+00 0.  1.
         25    2    1    2    0    0 -0.40216493228E+02  0.41282481608E+02 -0.40391083627E+02  0.14352566389E+03  0.12508623802E+03 0.  0.
          5    1    3    3  502    0  0.10623348070E+02  0.39272970956E+01 -0.71883584714E+02  0.72890337755E+02  0.41800000000E+01 0. -1.
         -5    1    3    3    0  502 -0.50839841298E+02  0.37355184513E+02  0.31492501087E+02  0.70635326133E+02  0.41800000000E+01 0. -1.
        -11    1    1    2    0    0 -0.23238243579E+02 -0.63090343009E+01 -0.13330296624E+02  0.27523021029E+02  0.00000000000E+00 0.  1.
         11    1    1    2    0    0  0.63454736807E+02 -0.34973447307E+02  0.42611308302E+01  0.72579631273E+02  0.00000000000E+00 0. -1.
</event>
<event>
 7    1  0.2788485E-009  0.9648582E+02  0.7561462E-02  0.1287864E+00
         -1   -1    0    0    0  501 -0.00000000000E+00  0.00000000000E+00  0.14594004531E+03  0.14594004531E+03  0.00000000000E+00 0.  1.
          1   -1    0    0  501    0  0.00000000000E+00 -0.00000000000E+00 -0.81934546805E+02  0.81934546805E+02  0.00000000000E+00 0. -1.
         25    2    1    2    0    0  0.18255671310E+02  0.12533642730E+02  0.29360293017E+02  0.13037915325E+03  0.12508531114E+03 0.  0.
          5    1    3    3  502    0 -0.27371085627E+02 -0.36805174381E+02  0.41459180129E+02  0.61968808336E+02  0.41800000000E+01 0.  1.
         -5    1    3    3    0  502  0.45626756937E+02  0.49338817111E+02 -0.12098887112E+02  0.68410344918E+02  0.41800000000E+01 0.  1.
        -11    1    1    2    0    0  0.40704947340E+01 -0.42232182206E+02  0.41910319555E+02  0.59637245295E+02  0.00000000000E+00 0.  1.
         11    1    1    2    0    0 -0.22326166044E+02  0.29698539476E+02 -0.72651140705E+01  0.37858193561E+02  0.00000000000E+00 0. -1.
</event>
<event>
 7    1  0.2788485E-009  0.1407932E+03  0.7561462E-02  0.1212266E+00
          1   -1    0    0  501    0  0.00000000000E+00  0.00000000000E+00  0.21224220025E+03  0.21224220025E+03  0.00000000000E+00 0. -1.
         -1   -1    0    0    0  501 -0.00000000000E+00 -0.00000000000E+00 -0.14165432182E+03  0.14165432182E+03  0.00000000000E+00 0.  1.
         25    2    1    2    0    0 -0.74462814457E+02  0.11094731469E+03  0.56455715266E+02  0.19154445982E+03  0.12509202584E+03 0.  0.
          5    1    3    3  502    0 -0.27306549846E+02  0.74571121120E+02 -0.31253078087E+02  0.85444292141E+02  0.41800000000E+01 0.  1.
         -5    1    3    3    0  502 -0.47156264611E+02  0.36376193569E+02  0.87708793352E+02  0.10610016768E+03  0.41800000000E+01 0.  1.
        -11    1    1    2    0    0  0.15209800463E+02  0.14725848652E+01 -0.25073002090E+02  0.29362594744E+02  0.00000000000E+00 0.  1.
         11    1    1    2    0    0  0.59253013994E+02 -0.11241989955E+03  0.39205165254E+02  0.13298946750E+03  0.00000000000E+00 0. -1.
</event>
<event>
 7    1  0.2788485E-009  0.1266141E+03  0.7561462E-02  0.1232568E+00
         -2   -1    0    0    0  501 -0.00000000000E+00  0.00000000000E+00  0.20116678751E+02  0.20116678751E+02  0.00000000000E+00 0.  1.
          2   -1    0    0  501    0  0.00000000000E+00 -0.00000000000E+00 -0.89873502121E+03  0.89873502121E+03  0.00000000000E+00 0. -1.
         25    2    1    2    0    0  0.60575590343E+02 -0.51814092104E+01 -0.43255265293E+03  0.45436302507E+03  0.12509081439E+03 0.  0.
          5    1    3    3  502    0  0.92777740061E+02 -0.19607841860E+02 -0.23165319665E+03  0.25034546617E+03  0.41800000000E+01 0. -1.
         -5    1    3    3    0  502 -0.32202149717E+02  0.14426432650E+02 -0.20089945628E+03  0.20401755890E+03  0.41800000000E+01 0. -1.
        -11    1    1    2    0    0 -0.62665450880E+02 -0.42070796052E+02 -0.34121734887E+03  0.34946557740E+03  0.00000000000E+00 0. -1.
         11    1    1    2    0    0  0.20898605366E+01  0.47252205262E+02 -0.10484834066E+03  0.11502309749E+03  0.00000000000E+00 0.  1.
</event>
<event>
 7    1  0.2788485E-009  0.1621221E+03  0.7561462E-02  0.1186322E+00
         -4   -1    0    0    0  501 -0.00000000000E+00  0.00000000000E+00  0.10688187765E+03  0.10688187765E+03  0.00000000000E+00 0.  1.
          4   -1    0    0  501    0  0.00000000000E+00 -0.00000000000E+00 -0.32153432748E+03  0.32153432748E+03  0.00000000000E+00 0. -1.
         25    2    1    2    0    0 -0.88358141273E+02  0.97413200780E+02 -0.30332833802E+02  0.18401974039E+03  0.12508673483E+03 0.  0.
          5    1    3    3  502    0 -0.72900100998E+02  0.12760234396E+03 -0.20359299909E+02  0.14842087590E+03  0.41800000000E+01 0.  1.
         -5    1    3    3    0  502 -0.15458040275E+02 -0.30189143177E+02 -0.99735338923E+01  0.35598864494E+02  0.41800000000E+01 0.  1.
        -11    1    1    2    0    0  0.92681403807E+02 -0.72234670374E+02 -0.93836798293E+02  0.15037631106E+03  0.00000000000E+00 0.  1.
         11    1    1    2    0    0 -0.43232625334E+01 -0.25178530407E+02 -0.90482817735E+02  0.94020153678E+02  0.00000000000E+00 0. -1.
</event>
<event>
 7    1  0.2788485E-009  0.2205126E+03  0.7561462E-02  0.1133501E+00
          2   -1    0    0  501    0  0.00000000000E+00  0.00000000000E+00  0.24788344510E+03  0.24788344510E+03  0.00000000000E+00 0. -1.
         -2   -1    0    0    0  501 -0.00000000000E+00 -0.00000000000E+00 -0.37901856374E+03  0.37901856374E+03  0.00000000000E+00 0.  1.
         25    2    1    2    0    0  0.10371970596E+03 -0.18892369189E+03  0.12650383063E+03  0.27946510938E+03  0.12509032510E+03 0.  0.
          5    1    3    3  502    0  0.11037937154E+03 -0.17023887892E+03  0.14704263067E+03  0.25060704138E+03  0.41800000000E+01 0.  1.
         -5    1    3    3    0  502 -0.66596655803E+01 -0.18684812976E+02 -0.20538800038E+02  0.28858067998E+02  0.41800000000E+01 0.  1.
        -11    1    1    2    0    0 -0.80554218676E+02  0.11541485980E+03 -0.10219599287E+03  0.17393560006E+03  0.00000000000E+00 0.  1.
         11    1    1    2    0    0 -0.23165487282E+02  0.73508832096E+02 -0.15544295640E+03  0.17350129940E+03  0.00000000000E+00 0. -1.
</event>
<event>
 7    1  0.2788485E-009  0.1725124E+03  0.7561462E-02  0.1175253E+00
         -2   -1    0    0    0  501 -0.00000000000E+00  0.00000000000E+00  0.47004885563E+02  0.47004885563E+02  0.00000000000E+00 0.  1.
          2   -1    0    0  501    0  0.00000000000E+00 -0.00000000000E+00 -0.90720434763E+03  0.90720434763E+03  0.00000000000E+00 0. -1.
         25    2    1    2    0    0  0.14341375310E+03 -0.80026371942E+02 -0.59457821028E+03  0.62939837317E+03  0.12508932498E+03 0.  0.
          5    1    3    3  502    0  0.10654144607E+03 -0.69831843374E+02 -0.23134015190E+03  0.26412743962E+03  0.41800000000E+01 0. -1.
         -5    1    3    3    0  502  0.36872307025E+02 -0.10194528569E+02 -0.36323805838E+03  0.36527093354E+03  0.41800000000E+01 0. -1.
        -11    1    1    2    0    0 -0.99728608427E+02  0.89934382245E+02 -0.23462238903E+03  0.27033618678E+03  0.00000000000E+00 0. -1.
         11    1    1    2    0    0 -0.43685144673E+02 -0.99080103029E+01 -0.30998862767E+02  0.54474673254E+02  0.00000000000E+00 0.  1.
</event>
<event>
 7    1  0.2788485E-009  0.1242049E+03  0.7561462E-02  0.1236317E+00
         -2   -1    0    0    0  501 -0.00000000000E+00  0.00000000000E+00  0.10304732655E+02  0.10304732655E+02  0.00000000000E+00 0. -1.
          2   -1    0    0  501    0  0.00000000000E+00 -0.00000000000E+00 -0.23188932937E+04  0.23188932937E+04  0.00000000000E+00 0.  1.
         25    2    1    2    0    0 -0.35908317178E+02  0.57966714371E+02 -0.19147800692E+04  0.19200728876E+04  0.12509049886E+03 0.  0.
          5    1    3    3  502    0 -0.63571063403E+02 -0.10358488783E+02 -0.66882287530E+03  0.67193012235E+03  0.41800000000E+01 0. -1.
         -5    1    3    3    0  502  0.27662746225E+02  0.68325203153E+02 -0.12459571939E+04  0.12481427652E+04  0.41800000000E+01 0. -1.
        -11    1    1    2    0    0  0.50019970642E+02 -0.73590304616E+02 -0.33671613013E+03  0.34827472301E+03  0.00000000000E+00 0.  1.
         11    1    1    2    0    0 -0.14111653464E+02  0.15623590245E+02 -0.57092361692E+02  0.60850415768E+02  0.00000000000E+00 0. -1.
</event>
<event>
 7    1  0.2788485E-009  0.1035631E+03  0.7561462E-02  0.1272977E+00
          1   -1    0    0  501    0  0.00000000000E+00  0.00000000000E+00  0.76850168754E+03  0.76850168754E+03  0.00000000000E+00 0. -1.
         -1   -1    0    0    0  501 -0.00000000000E+00 -0.00000000000E+00 -0.23340638483E+02  0.23340638483E+02  0.00000000000E+00 0.  1.
         25    2    1    2    0    0 -0.33960940338E+02 -0.13535978058E+02  0.61950333513E+03  0.63306238297E+03  0.12508809025E+03 0.  0.
          5    1    3    3  502    0  0.19952067214E+02 -0.48928832422E+02  0.42050735592E+03  0.42383490231E+03  0.41800000000E+01 0. -1.
         -5    1    3    3    0  502 -0.53913007552E+02  0.35392854363E+02  0.19899597921E+03  0.20922748066E+03  0.41800000000E+01 0. -1.
        -11    1    1    2    0    0 -0.26670185383E+02 -0.24713570871E+01  0.12834424080E+02  0.29700653792E+02  0.00000000000E+00 0.  1.
         11    1    1    2    0    0  0.60631125721E+02  0.16007335146E+02  0.11282328985E+03  0.12907928926E+03  0.00000000000E+00 0. -1.
</event>
<event>
 7    1  0.2788485E-009  0.1623571E+03  0.7561462E-02  0.1186061E+00
          1   -1    0    0  501    0  0.00000000000E+00  0.00000000000E+00  0.83082962976E+03  0.83082962976E+03  0.00000000000E+00 0. -1.
         -1   -1    0    0    0  501 -0.00000000000E+00 -0.00000000000E+00 -0.79728399375E+02  0.79728399375E+02  0.00000000000E+00 0.  1.
         25    2    1    2    0    0 -0.12261996495E+03 -0.59430060418E+02  0.71981372908E+03  0.74319981123E+03  0.12508623810E+03 0.  0.
          5    1    3    3  502    0 -0.67138532939E+02  0.19735201920E+02  0.47178236291E+03  0.47696240014E+03  0.41800000000E+01 0. -1.
         -5    1    3    3    0  502 -0.55481432013E+02 -0.79165262339E+02  0.24803136617E+03  0.26623741109E+03  0.41800000000E+01 0. -1.
        -11    1    1    2    0    0  0.86658613522E+02 -0.19833258541E+01 -0.62340486374E+01  0.86905191107E+02  0.00000000000E+00 0. -1.
         11    1    1    2    0    0  0.35961351431E+02  0.61413386272E+02  0.37521549946E+02  0.80453026795E+02  0.00000000000E+00 0.  1.
</event>
<event>
 7    1  0.2788485E-009  0.2346187E+03  0.7561462E-02  0.1123430E+00
          1   -1    0    0  501    0  0.00000000000E+00  0.00000000000E+00  0.61184612205E+02  0.61184612205E+02  0.00000000000E+00 0. -1.
         -1   -1    0    0    0  501 -0.00000000000E+00 -0.00000000000E+00 -0.98975295281E+03  0.98975295281E+03  0.00000000000E+00 0.  1.
         25    2    1    2    0    0  0.19622274245E+03  0.90867642135E+02 -0.38395315825E+03  0.45806925407E+03  0.12508845173E+03 0.  0.
          5    1    3    3  502    0  0.21177880122E+03  0.79218363428E+02 -0.32567501379E+03  0.39649400596E+03  0.41800000000E+01 0. -1.
         -5    1    3    3    0  502 -0.15556058777E+02  0.11649278708E+02 -0.58278144454E+02  0.61575248112E+02  0.41800000000E+01 0. -1.
        -11    1    1    2    0    0 -0.61029708820E+02 -0.57744600161E+02 -0.12369604093E+03  0.14953185195E+03  0.00000000000E+00 0. -1.
         11    1    1    2    0    0 -0.13519303363E+03 -0.33123041974E+02 -0.42091914143E+03  0.44333645899E+03  0.00000000000E+00 0.  1.
</event>
<event>
 7    1  0.2788485E-009  0.1523752E+03  0.7561462E-02  0.1197584E+00
         -2   -1    0    0    0  501 -0.00000000000E+00  0.00000000000E+00  0.30502036109E+02  0.30502036109E+02  0.00000000000E+00 0.  1.
          2   -1    0    0  501    0  0.00000000000E+00 -0.00000000000E+00 -0.11914873449E+04  0.11914873449E+04  0.00000000000E+00 0. -1.
         25    2    1    2    0    0  0.95305334906E+02 -0.66191007262E+02 -0.94618406384E+03  0.96144499559E+03  0.12509132896E+03 0.  0.
          5    1    3    3  502    0  0.23002869278E+02 -0.81633838252E+02 -0.32688375225E+03  0.33773314233E+03  0.41800000000E+01 0. -1.
         -5    1    3    3    0  502  0.72302465628E+02  0.15442830990E+02 -0.61930031159E+03  0.62371185327E+03  0.41800000000E+01 0. -1.
        -11    1    1    2    0    0 -0.43589886013E+02 -0.17851607232E+02 -0.88602633303E+02  0.10034532710E+03  0.00000000000E+00 0.  1.
         11    1    1    2    0    0 -0.51715448893E+02  0.84042614494E+02 -0.12619861169E+03  0.16019905836E+03  0.00000000000E+00 0. -1.
</event>
<event>
 7    1  0.3385171E-009  0.9599273E+02  0.7561462E-02  0.1288956E+00
         -1   -1    0    0    0  501 -0.00000000000E+00  0.00000000000E+00  0.51142494111E+02  0.51142494111E+02  0.00000000000E+00 0.  1.
          1   -1    0    0  501    0  0.00000000000E+00 -0.00000000000E+00 -0.35783352987E+03  0.35783352987E+03  0.00000000000E+00 0. -1.
         25    2    1    2    0    0 -0.70345953644E+02 -0.32927944978E+02 -0.19742290957E+03  0.24628483498E+03  0.12509041515E+03 0.  0.
          5    1    3    3  502    0 -0.41835257019E+02  0.16521551749E+02 -0.49037961612E+01  0.45438640152E+02  0.41800000000E+01 0. -1.
         -5    1    3    3    0  502 -0.28510696625E+02 -0.49449496727E+02 -0.19251911341E+03  0.20084619483E+03  0.41800000000E+01 0. -1.
        -11    1    1    2    0    0  0.20831790740E+02  0.34204495585E+02  0.28191656178E+01  0.40147960327E+02  0.00000000000E+00 0.  1.
         11    1    1    2    0    0  0.49514162904E+02 -0.12765506076E+01 -0.11208729180E+03  0.12254322867E+03  0.00000000000E+00 0. -1.
</event>
<event>
 7    1  0.2788485E-009  0.1945034E+03  0.7561462E-02  0.1154461E+00
         -2   -1    0    0    0  501 -0.00000000000E+00  0.00000000000E+00  0.47617296555E+03  0.47617296555E+03  0.00000000000E+00 0.  1.
          2   -1    0    0  501    0  0.00000000000E+00 -0.00000000000E+00 -0.11994435574E+03  0.11994435574E+03  0.00000000000E+00 0. -1.
         25    2    1    2    0    0 -0.44353798518E+02 -0.17424718910E+03  0.42018033468E+02  0.22303156483E+03  0.12509285121E+03 0.  0.
          5    1    3    3  502    0 -0.79705039654E+02 -0.12783767814E+03  0.59434555907E+02  0.16200402506E+03  0.41800000000E+01 0.  1.
         -5    1    3    3    0  502  0.35351241136E+02 -0.46409510962E+02 -0.17416522439E+02  0.61027539779E+02  0.41800000000E+01 0.  1.
        -11    1    1    2    0    0  0.38556422823E+02  0.14941371205E+03  0.31126542226E+03  0.34741505176E+03  0.00000000000E+00 0.  1.
         11    1    1    2    0    0  0.57973756951E+01  0.24833477050E+02  0.29451540793E+01  0.25670704702E+02  0.00000000000E+00 0. -1.
</event>
<event>
 7    1  0.2788485E-009  0.1148160E+03  0.7561462E-02  0.1251903E+00
          2   -1    0    0  501    0  0.00000000000E+00  0.00000000000E+00  0.43033648352E+03  0.43033648352E+03  0.00000000000E+00 0. -1.
         -2   -1    0    0    0  501 -0.00000000000E+00 -0.00000000000E+00 -0.33969733801E+02  0.33969733801E+02  0.00000000000E+00 0.  1.
         25    2    1    2    0    0  0.35393130736E+01 -0.49672433984E+02  0.18056654556E+03  0.22523402835E+03  0.12508482209E+03 0.  0.
          5    1    3    3  502    0 -0.49103526544E+02 -0.56301079148E+02  0.13840405583E+03  0.15733443012E+03  0.41800000000E+01 0. -1.
         -5    1    3    3    0  502  0.52642839617E+02  0.66286451642E+01  0.42162489733E+02  0.67899598233E+02  0.41800000000E+01 0. -1.
        -11    1    1    2    0    0  0.30828143972E+02 -0.10267303970E+02  0.52292531427E+02  0.61565419146E+02  0.00000000000E+00 0.  1.
         11    1    1    2    0    0 -0.34367457046E+02  0.59939737954E+02  0.16350767273E+03  0.17750676982E+03  0.00000000000E+00 0. -1.
</event>
<event>
 7    1  0.2788485E-009  0.2080592E+03  0.7561462E-02  0.1143112E+00
         -1   -1    0    0    0  501 -0.00000000000E+00  0.00000000000E+00  0.46737315095E+02  0.46737315095E+02  0.00000000000E+00 0.  1.
          1   -1    0    0  501    0  0.00000000000E+00 -0.00000000000E+00 -0.12485581339E+04  0.12485581339E+04  0.00000000000E+00 0. -1.
         25    2    1    2    0    0 -0.32935575831E+02 -0.19929985821E+03 -0.41667921265E+03  0.47966075318E+03  0.12509071208E+03 0.  0.
          5    1    3    3  502    0  0.12882737660E+01 -0.58891821573E+02 -0.25935249564E+03  0.26599078121E+03  0.41800000000E+01 0. -1.
         -5    1    3    3    0  502 -0.34223849597E+02 -0.14040803664E+03 -0.15732671701E+03  0.21366997196E+03  0.41800000000E+01 0. -1.
        -11    1    1    2    0    0  0.27368046663E+02  0.22044127464E+02 -0.64066950061E+02  0.73072071436E+02  0.00000000000E+00 0.  1.
         11    1    1    2    0    0  0.55675291676E+01  0.17725573075E+03 -0.72107465613E+03  0.74256262442E+03  0.00000000000E+00 0. -1.
</event>
<event>
 7    1  0.2788485E-009  0.7048144E+02  0.7561462E-02  0.1358463E+00
         -2   -1    0    0    0  501 -0.00000000000E+00  0.00000000000E+00  0.24372018282E+02  0.24372018282E+02  0.00000000000E+00 0. -1.
          2   -1    0    0  501    0  0.00000000000E+00 -0.00000000000E+00 -0.57040930076E+03  0.57040930076E+03  0.00000000000E+00 0.  1.
         25    2    1    2    0    0  0.19710737868E+02  0.18769629526E+02 -0.41226840151E+03  0.43168757692E+03  0.12509243384E+03 0.  0.
          5    1    3    3  502    0  0.17932977657E+02  0.33166558358E+02 -0.41466968746E+03  0.41640129007E+03  0.41800000000E+01 0.  1.
         -5    1    3    3    0  502  0.17777602109E+01 -0.14396928832E+02  0.24012859503E+01  0.15286286841E+02  0.41800000000E+01 0.  1.
        -11    1    1    2    0    0 -0.21776624433E+02 -0.51093820694E+02 -0.56106783276E+02  0.78947900633E+02  0.00000000000E+00 0. -1.
         11    1    1    2    0    0  0.20658865645E+01  0.32324191168E+02 -0.77662097692E+02  0.84145841489E+02  0.00000000000E+00 0.  1.
</event>
<event>
 7    1  0.2788485E-009  0.1041750E+03  0.7561462E-02  0.1271754E+00
         -2   -1    0    0    0  501 -0.00000000000E+00  0.00000000000E+00  0.33848712559E+02  0.33848712559E+02  0.00000000000E+00 0.  1.
          2   -1    0    0  501    0  0.00000000000E+00 -0.00000000000E+00 -0.43559905151E+03  0.43559905151E+03  0.00000000000E+00 0. -1.
         25    2    1    2    0    0  0.30870611408E+02  0.11847517249E+02 -0.30793284035E+03  0.33401090226E+03  0.12508912962E+03 0.  0.
          5    1    3    3  502    0 -0.33223789504E+02  0.45611786558E+02 -0.14502071491E+03  0.15566867191E+03  0.41800000000E+01 0. -1.
         -5    1    3    3    0  502  0.64094400912E+02 -0.33764269309E+02 -0.16291212544E+03  0.17834223035E+03  0.41800000000E+01 0. -1.
        -11    1    1    2    0    0 -0.24195047003E+02  0.29025511607E+02 -0.58891910946E+01  0.38243472584E+02  0.00000000000E+00 0.  1.
         11    1    1    2    0    0 -0.66755644051E+01 -0.40873028857E+02 -0.87928307504E+02  0.97193389223E+02  0.00000000000E+00 0. -1.
</event>
<event>
 7    1  0.2788485E-009  0.1552394E+03  0.7561462E-02  0.1194179E+00
          2   -1    0    0  501    0  0.00000000000E+00  0.00000000000E+00  0.57744546392E+03  0.57744546392E+03  0.00000000000E+00 0. -1.
         -2   -1    0    0    0  501 -0.00000000000E+00 -0.00000000000E+00 -0.68327234672E+02  0.68327234672E+02  0.00000000000E+00 0.  1.
         25    2    1    2    0    0 -0.15066224730E+03  0.10031924804E+02  0.15255263423E+03  0.24843599799E+03  0.12509351146E+03 0.  0.
          5    1    3    3  502    0 -0.12643447467E+03 -0.30233468008E+01  0.17268269646E+03  0.21408316858E+03  0.41800000000E+01 0. -1.
         -5    1    3    3    0  502 -0.24227772628E+02  0.13055271605E+02 -0.20130062229E+02  0.34352829411E+02  0.41800000000E+01 0. -1.
        -11    1    1    2    0    0  0.78889697743E+02  0.14582321447E+02  0.91811520136E+02  0.12192450016E+03  0.00000000000E+00 0.  1.
         11    1    1    2    0    0  0.71772549557E+02 -0.24614246251E+02  0.26475407488E+03  0.27541220045E+03  0.00000000000E+00 0. -1.
</event>
<event>
 7    1  0.2788485E-009  0.2317411E+03  0.7561462E-02  0.1125420E+00
         -1   -1    0    0    0  501 -0.00000000000E+00  0.00000000000E+00  0.88070920836E+03  0.88070920836E+03  0.00000000000E+00 0.  1.
          1   -1    0    0  501    0  0.00000000000E+00 -0.00000000000E+00 -0.63232362294E+02  0.63232362294E+02  0.00000000000E+00 0. -1.
         25    2    1    2    0    0  0.44187692712E+02  0.20410227407E+03  0.39442848842E+03  0.46349883290E+03  0.12508814957E+03 0.  0.
          5    1    3    3  502    0 -0.40877430596E+02  0.90438823124E+02  0.19254357765E+03  0.21665790259E+03  0.41800000000E+01 0. -1.
         -5    1    3    3    0  502  0.85065123308E+02  0.11366345094E+03  0.20188491077E+03  0.24684093032E+03  0.41800000000E+01 0. -1.
        -11    1    1    2    0    0 -0.65712095447E+02 -0.16225402710E+03  0.28369153330E+03  0.33335466828E+03  0.00000000000E+00 0. -1.
         11    1    1    2    0    0  0.21524402735E+02 -0.41848246968E+02  0.13935682435E+03  0.14708806947E+03  0.00000000000E+00 0.  1.
</event>
<event>
 7    1  0.2788485E-009  0.1525247E+03  0.7561462E-02  0.1197405E+00
          2   -1    0    0  501    0  0.00000000000E+00  0.00000000000E+00  0.44520162012E+02  0.44520162012E+02  0.00000000000E+00 0. -1.
         -2   -1    0    0    0  501 -0.00000000000E+00 -0.00000000000E+00 -0.68683618433E+03  0.68683618433E+03  0.00000000000E+00 0.  1.
         25    2    1    2    0    0  0.54283251100E+01  0.12181879005E+03 -0.47277545963E+03  0.50401761573E+03  0.12509131629E+03 0.  0.
          5    1    3    3  502    0 -0.36338659000E+02  0.11336029013E+03 -0.24705011172E+03  0.27426681100E+03  0.41800000000E+01 0.  1.
         -5    1    3    3    0  502  0.41766984110E+02  0.84584999187E+01 -0.22572534791E+03  0.22975080472E+03  0.41800000000E+01 0.  1.
        -11    1    1    2    0    0 -0.38046387252E+02 -0.40854501049E+02 -0.31740130676E+02  0.64218795802E+02  0.00000000000E+00 0.  1.
         11    1    1    2    0    0  0.32618062142E+02 -0.80964288999E+02 -0.13780043201E+03  0.16311993481E+03  0.00000000000E+00 0. -1.
</event>
<event>
 7    1  0.2788485E-009  0.1259804E+03  0.7561462E-02  0.1233545E+00
          1   -1    0    0  501    0  0.00000000000E+00  0.00000000000E+00  0.11434682525E+04  0.11434682525E+04  0.00000000000E+00 0. -1.
         -1   -1    0    0    0  501 -0.00000000000E+00 -0.00000000000E+00 -0.21618841205E+02  0.21618841205E+02  0.00000000000E+00 0.  1.
         25    2    1    2    0    0  0.75966312714E+02  0.83156502403E+02  0.52672889889E+03  0.55296956523E+03  0.12508446180E+03 0.  0.
          5    1    3    3  502    0  0.32660207737E+02  0.20525501008E+02  0.42003987516E+03  0.42182811012E+03  0.41800000000E+01 0.  1.
         -5    1    3    3    0  502  0.43306104977E+02  0.62631001395E+02  0.10668902373E+03  0.13114145511E+03  0.41800000000E+01 0.  1.
        -11    1    1    2    0    0 -0.10032197337E+02 -0.68663774695E+02  0.21122775394E+03  0.22233425956E+03  0.00000000000E+00 0.  1.
         11    1    1    2    0    0 -0.65934115377E+02 -0.14492727707E+02  0.38389275843E+03  0.38978326889E+03  0.00000000000E+00 0. -1.
</event>
<event>
 7    1  0.2788485E-009  0.1414515E+03  0.7561462E-02  0.1211389E+00
         -2   -1    0    0    0  501 -0.00000000000E+00  0.00000000000E+00  0.37808464969E+02  0.37808464969E+02  0.00000000000E+00 0.  1.
          2   -1    0    0  501    0  0.00000000000E+00 -0.00000000000E+00 -0.78946812223E+03  0.78946812223E+03  0.00000000000E+00 0. -1.
         25    2    1    2    0    0  0.66704738281E+02  0.87711652848E+02 -0.58193911182E+03  0.60534558464E+03  0.12508913149E+03 0.  0.
          5    1    3    3  502    0  0.93502250571E+02  0.92945144228E+02 -0.39661137662E+03  0.41797072524E+03  0.41800000000E+01 0. -1.
         -5    1    3    3    0  502 -0.26797512290E+02 -0.52334913801E+01 -0.18532773520E+03  0.18737485939E+03  0.41800000000E+01 0. -1.
        -11    1    1    2    0    0  0.93355477950E+01 -0.17713441082E+02  0.33966302749E+01  0.20309001571E+02  0.00000000000E+00 0.  1.
         11    1    1    2    0    0 -0.76040286076E+02 -0.69998211766E+02 -0.17311717572E+03  0.20162200099E+03  0.00000000000E+00 0. -1.
</event>
<event>
 7    1  0.2788485E-009  0.4303784E+03  0.7561462E-02  0.1033741E+00
         -4   -1    0    0    0  501 -0.00000000000E+00  0.00000000000E+00  0.10393962361E+04  0.10393962361E+04  0.00000000000E+00 0.  1.
          4   -1    0    0  501    0  0.00000000000E+00 -0.00000000000E+00 -0.17929726893E+03  0.17929726893E+03  0.00000000000E+00 0. -1.
         25    2    1    2    0    0  0.41697058043E+03 -0.28733228458E+02  0.42828782537E+03  0.61136543075E+03  0.12508862937E+03 0.  0.
          5    1    3    3  502    0  0.26808404205E+03 -0.77923506713E+02  0.28323343168E+03  0.39771821146E+03  0.41800000000E+01 0. -1.
         -5    1    3    3    0  502  0.14888653838E+03  0.49190278255E+02  0.14505439368E+03  0.21364721929E+03  0.41800000000E+01 0. -1.
        -11    1    1    2    0    0 -0.27510881366E+03 -0.17009396131E+02  0.31011159479E+03  0.41490165116E+03  0.00000000000E+00 0. -1.
         11    1    1    2    0    0 -0.14186176677E+03  0.45742624589E+02  0.12169954703E+03  0.19242642314E+03  0.00000000000E+00 0.  1.
</event>
<event>
 7    1  0.2788485E-009  0.1406125E+03  0.7561462E-02  0.1212507E+00
          1   -1    0    0  501    0  0.00000000000E+00  0.00000000000E+00  0.14245050071E+03  0.14245050071E+03  0.00000000000E+00 0. -1.
         -1   -1    0    0    0  501 -0.00000000000E+00 -0.00000000000E+00 -0.17915306453E+03  0.17915306453E+03  0.00000000000E+00 0.  1.
         25    2    1    2    0    0  0.77455905051E+02  0.64320636282E+02  0.42075512510E+02  0.16601025342E+03  0.12510992769E+03 0.  0.
          5    1    3    3  502    0 -0.19430647615E+02  0.58556004735E+02  0.27876804943E+02  0.67830261765E+02  0.41800000000E+01 0.  1.
         -5    1    3    3    0  502  0.96886552666E+02  0.57646315476E+01  0.14198707567E+02  0.98179991652E+02  0.41800000000E+01 0.  1.
        -11    1    1    2    0    0 -0.50502543387E+02  0.21130912493E+01 -0.20573544016E+01  0.50588583201E+02  0.00000000000E+00 0. -1.
         11    1    1    2    0    0 -0.26953361664E+02 -0.66433727531E+02 -0.76720721929E+02  0.10500472862E+03  0.00000000000E+00 0.  1.
</event>
<event>
 7    1  0.2788485E-009  0.7567523E+02  0.7561462E-02  0.1341793E+00
         -3   -1    0    0    0  501 -0.00000000000E+00  0.00000000000E+00  0.10385381527E+03  0.10385381527E+03  0.00000000000E+00 0.  1.
          3   -1    0    0  501    0  0.00000000000E+00 -0.00000000000E+00 -0.11731359067E+03  0.11731359067E+03  0.00000000000E+00 0. -1.
         25    2    1    2    0    0 -0.55166159016E+01 -0.20155562920E+02  0.84674001750E+01  0.12711250432E+03  0.12509681100E+03 0.  0.
          5    1    3    3  502    0 -0.68856240856E-01 -0.41149957728E+02 -0.49836417881E+02  0.64764687210E+02  0.41800000000E+01 0.  1.
         -5    1    3    3    0  502 -0.54477596607E+01  0.20994394808E+02  0.58303818056E+02  0.62347817112E+02  0.41800000000E+01 0.  1.
        -11    1    1    2    0    0  0.13965449229E+02 -0.32078666164E+02  0.38481085353E+01  0.35197763200E+02  0.00000000000E+00 0.  1.
         11    1    1    2    0    0 -0.84488333278E+01  0.52234229084E+02 -0.25775284112E+02  0.58857138425E+02  0.00000000000E+00 0. -1.
</event>
<event>
 7    1  0.2788485E-009  0.1155477E+03  0.7561462E-02  0.1250628E+00
         -3   -1    0    0    0  501 -0.00000000000E+00  0.00000000000E+00  0.53885945623E+02  0.53885945623E+02  0.00000000000E+00 0.  1.
          3   -1    0    0  501    0  0.00000000000E+00 -0.00000000000E+00 -0.27752972747E+03  0.27752972747E+03  0.00000000000E+00 0. -1.
         25    2    1    2    0    0  0.29726029826E+02  0.30342956605E+02 -0.72775502885E+02  0.15081950119E+03  0.12508363704E+03 0.  0.
          5    1    3    3  502    0 -0.49050438449E+02  0.15018530235E+02 -0.33140749485E+02  0.61215058923E+02  0.41800000000E+01 0. -1.
         -5    1    3    3    0  502  0.78776468275E+02  0.15324426370E+02 -0.39634753400E+02  0.89604442270E+02  0.41800000000E+01 0. -1.
        -11    1    1    2    0    0 -0.59627265913E+02 -0.45919337115E+01 -0.91252809012E+02  0.10910349146E+03  0.00000000000E+00 0.  1.
         11    1    1    2    0    0  0.29901236088E+02 -0.25751022893E+02 -0.59615469954E+02  0.71492680446E+02  0.00000000000E+00 0. -1.
</event>
<event>
 7    1  0.2788485E-009  0.2887552E+03  0.7561462E-02  0.1091001E+00
          2   -1    0    0  501    0  0.00000000000E+00  0.00000000000E+00  0.17710515174E+04  0.17710515174E+04  0.00000000000E+00 0. -1.
         -2   -1    0    0    0  501 -0.00000000000E+00 -0.00000000000E+00 -0.49652337088E+02  0.49652337088E+02  0.00000000000E+00 0.  1.
         25    2    1    2    0    0 -0.18675776405E+03  0.19705109060E+03  0.89820079816E+03  0.94663806423E+03  0.12510537995E+03 0.  0.
          5    1    3    3  502    0 -0.51315044836E+02  0.11312821409E+03  0.54726053088E+03  0.56119763694E+03  0.41800000000E+01 0.  1.
         -5    1    3    3    0  502 -0.13544271921E+03  0.83922876508E+02  0.35094026729E+03  0.38544042729E+03  0.41800000000E+01 0.  1.
        -11    1    1    2    0    0 -0.11453525718E+02 -0.38009287332E+02  0.11218603176E+03  0.11900249954E+03  0.00000000000E+00 0.  1.
         11    1    1    2    0    0  0.19821128976E+03 -0.15904180327E+03  0.71101235034E+03  0.75506329067E+03  0.00000000000E+00 0. -1.
</event>
<event>
 7    1  0.2788485E-009  0.1100985E+03  0.7561462E-02  0.1260388E+00
          1   -1    0    0  501    0  0.00000000000E+00  0.00000000000E+00  0.10927433067E+03  0.10927433067E+03  0.00000000000E+00 0. -1.
         -1   -1    0    0    0  501 -0.00000000000E+00 -0.00000000000E+00 -0.14048714915E+03  0.14048714915E+03  0.00000000000E+00 0.  1.
         25    2    1    2    0    0  0.54451851204E+02 -0.16621732016E+02  0.52350473276E+01  0.13753481305E+03  0.12508850069E+03 0.  0.
          5    1    3    3  502    0  0.27316436504E+02  0.46630672682E+02 -0.27977939247E+02  0.60998728040E+02  0.41800000000E+01 0.  1.
         -5    1    3    3    0  502  0.27135414700E+02 -0.63252404697E+02  0.33212986575E+02  0.76536085007E+02  0.41800000000E+01 0.  1.
        -11    1    1    2    0    0  0.89552155997E+01  0.30791858069E+02  0.85581811029E+01  0.33190011654E+02  0.00000000000E+00 0. -1.
         11    1    1    2    0    0 -0.63407066803E+02 -0.14170126054E+02 -0.45006046914E+02  0.79036655116E+02  0.00000000000E+00 0.  1.
</event>
<event>
 7    1  0.2788485E-009  0.1606280E+03  0.7561462E-02  0.1187990E+00
         -2   -1    0    0    0  501 -0.00000000000E+00  0.00000000000E+00  0.10455422529E+03  0.10455422529E+03  0.00000000000E+00 0.  1.
          2   -1    0    0  501    0  0.00000000000E+00 -0.00000000000E+00 -0.39684651790E+03  0.39684651790E+03  0.00000000000E+00 0. -1.
         25    2    1    2    0    0  0.87495513066E+02 -0.82864545656E+02 -0.16043131095E+01  0.17369692875E+03  0.12508417766E+03 0.  0.
          5    1    3    3  502    0  0.61887613028E+02 -0.11418216396E+03  0.12753641229E+02  0.13056711292E+03  0.41800000000E+01 0. -1.
         -5    1    3    3    0  502  0.25607900038E+02  0.31317618300E+02 -0.14357954339E+02  0.43129815825E+02  0.41800000000E+01 0. -1.
        -11    1    1    2    0    0  0.19132680045E+02  0.11192658124E+02 -0.32843576497E+02  0.39623674220E+02  0.00000000000E+00 0.  1.
         11    1    1    2    0    0 -0.10662819311E+03  0.71671887532E+02 -0.25784440301E+03  0.28808014022E+03  0.00000000000E+00 0. -1.
</event>
<event>
 7    1  0.2788485E-009  0.1221004E+03  0.7561462E-02  0.1239672E+00
          2   -1    0    0  501    0  0.00000000000E+00  0.00000000000E+00  0.70308333782E+03  0.70308333782E+03  0.00000000000E+00 0. -1.
         -2   -1    0    0    0  501 -0.00000000000E+00 -0.00000000000E+00 -0.34952578731E+02  0.34952578731E+02  0.00000000000E+00 0.  1.
         25    2    1    2    0    0  0.69237219698E+02 -0.33399685793E+02  0.16376650553E+03  0.21994572069E+03  0.12508924860E+03 0.  0.
          5    1    3    3  502    0  0.72580748130E+02 -0.64424239117E+02  0.66525296456E+02  0.11773502051E+03  0.41800000000E+01 0. -1.
         -5    1    3    3    0  502 -0.33435284324E+01  0.31024553324E+02  0.97241209072E+02  0.10221070019E+03  0.41800000000E+01 0. -1.
        -11    1    1    2    0    0 -0.38606757639E+02  0.62413470443E+02  0.26214697784E+03  0.27222593745E+03  0.00000000000E+00 0. -1.
         11    1    1    2    0    0 -0.30630462059E+02 -0.29013784649E+02  0.24221727571E+03  0.24586425840E+03  0.00000000000E+00 0.  1.
</event>
<event>
 7    1  0.2788485E-009  0.1358764E+03  0.7561462E-02  0.1218988E+00
         -2   -1    0    0    0  501 -0.00000000000E+00  0.00000000000E+00  0.71061792327E+02  0.71061792327E+02  0.00000000000E+00 0. -1.
          2   -1    0    0  501    0  0.00000000000E+00 -0.00000000000E+00 -0.29855953212E+03  0.29855953212E+03  0.00000000000E+00 0.  1.
         25    2    1    2    0    0 -0.96861441652E+02 -0.57199091413E+01 -0.12232698122E+03  0.20006470589E+03  0.12508852853E+03 0.  0.
          5    1    3    3  502    0  0.74710362725E+01 -0.44964221666E+02 -0.46071448783E+02  0.64943424655E+02  0.41800000000E+01 0.  1.
         -5    1    3    3    0  502 -0.10433247792E+03  0.39244312524E+02 -0.76255532436E+02  0.13512128123E+03  0.41800000000E+01 0.  1.
        -11    1    1    2    0    0  0.96257532001E+02 -0.11733015590E+02 -0.44999547790E+02  0.10690245752E+03  0.00000000000E+00 0. -1.
         11    1    1    2    0    0  0.60390965111E+00  0.17452924731E+02 -0.60171210782E+02  0.62654161039E+02  0.00000000000E+00 0.  1.
</event>
<event>
 7    1  0.2788485E-009  0.9281464E+02  0.7561462E-02  0.1296175E+00
          1   -1    0    0  501    0  0.00000000000E+00  0.00000000000E+00  0.35518840806E+02  0.35518840806E+02  0.00000000000E+00 0. -1.
         -1   -1    0    0    0  501 -0.00000000000E+00 -0.00000000000E+00 -0.41352446660E+03  0.41352446660E+03  0.00000000000E+00 0.  1.
         25    2    1    2    0    0  0.35461764454E+02 -0.16858905276E+01 -0.13834396566E+03  0.18986674514E+03  0.12509975664E+03 0.  0.
          5    1    3    3  502    0  0.81756602932E+01 -0.39711972945E+02 -0.13691767144E+03  0.14285588321E+03  0.41800000000E+01 0. -1.
         -5    1    3    3    0  502  0.27286104161E+02  0.38026082418E+02 -0.14262942238E+01  0.47010861931E+02  0.41800000000E+01 0. -1.
        -11    1    1    2    0    0 -0.66499861308E+02  0.48780562324E+01 -0.14735580971E+03  0.16173979610E+03  0.00000000000E+00 0. -1.
         11    1    1    2    0    0  0.31038096854E+02 -0.31921657048E+01 -0.92305850420E+02  0.97436766161E+02  0.00000000000E+00 0.  1.
</event>
<event>
 7    1  0.2788485E-009  0.1062564E+03  0.7561462E-02  0.1267664E+00
          1   -1    0    0  501    0  0.00000000000E+00  0.00000000000E+00  0.89482068365E+02  0.89482068365E+02  0.00000000000E+00 0. -1.
         -1   -1    0    0    0  501 -0.00000000000E+00 -0.00000000000E+00 -0.15175304123E+03  0.15175304123E+03  0.00000000000E+00 0.  1.
         25    2    1    2    0    0 -0.10294964303E+02  0.30092052185E+02 -0.22087214907E+02  0.13094719433E+03  0.12509118573E+03 0.  0.
          5    1    3    3  502    0 -0.46251647769E+02 -0.19856406455E+02 -0.42460270007E+02  0.65983624693E+02  0.41800000000E+01 0. -1.
         -5    1    3    3    0  502  0.35956683466E+02  0.49948458640E+02  0.20373055100E+02  0.64963569641E+02  0.41800000000E+01 0. -1.
        -11    1    1    2    0    0  0.10658875244E+02  0.34304287751E+02 -0.32938427483E+01  0.36072776157E+02  0.00000000000E+00 0. -1.
         11    1    1    2    0    0 -0.36391094152E+00 -0.64396339936E+02 -0.36889915213E+02  0.74215139108E+02  0.00000000000E+00 0.  1.
</event>
<event>
 7    1  0.2788485E-009  0.2299031E+03  0.7561462E-02  0.1126708E+00
          1   -1    0    0  501    0  0.00000000000E+00  0.00000000000E+00  0.30506054802E+03  0.30506054802E+03  0.00000000000E+00 0. -1.
         -1   -1    0    0    0  501 -0.00000000000E+00 -0.00000000000E+00 -0.19402409699E+03  0.19402409699E+03  0.00000000000E+00 0.  1.
         25    2    1    2    0    0  0.13018046263E+03  0.17039757687E+03  0.19683839028E+02  0.24903856168E+03  0.12510181705E+03 0.  0.
          5    1    3    3  502    0  0.53990700285E+02  0.17807533041E+02 -0.38496020695E+02  0.68786044803E+02  0.41800000000E+01 0.  1.
         -5    1    3    3    0  502  0.76189762346E+02  0.15259004383E+03  0.58179859724E+02  0.18025251688E+03  0.41800000000E+01 0.  1.
        -11    1    1    2    0    0 -0.51060591258E+02 -0.13720074226E+03  0.65943842739E+02  0.16056094809E+03  0.00000000000E+00 0. -1.
         11    1    1    2    0    0 -0.79119871373E+02 -0.33196834614E+02  0.25408769258E+02  0.89485135245E+02  0.00000000000E+00 0.  1.
</event>
<event>
 7    1  0.2788485E-009  0.1075740E+03  0.7561462E-02  0.1265130E+00
         -2   -1    0    0    0  501 -0.00000000000E+00  0.00000000000E+00  0.81426602536E+03  0.81426602536E+03  0.00000000000E+00 0.  1.
          2   -1    0    0  501    0  0.00000000000E+00 -0.00000000000E+00 -0.17123408939E+02  0.17123408939E+02  0.00000000000E+00 0. -1.
         25    2    1    2    0    0 -0.16850878321E+01  0.36896184675E+02  0.43855891846E+03  0.45754235593E+03  0.12508762748E+03 0.  0.
          5    1    3    3  502    0  0.43574102953E+02  0.45757249839E+02  0.36619712152E+03  0.37163185085E+03  0.41800000000E+01 0.  1.
         -5    1    3    3    0  502 -0.45259190785E+02 -0.88610651636E+01  0.72361796944E+02  0.85910505081E+02  0.41800000000E+01 0.  1.
        -11    1    1    2    0    0  0.55431613182E+01 -0.70989630760E+02  0.25291249101E+03  0.26274509019E+03  0.00000000000E+00 0.  1.
         11    1    1    2    0    0 -0.38580734861E+01  0.34093446085E+02  0.10567120695E+03  0.11110198817E+03  0.00000000000E+00 0. -1.
</event>
<event>
 7    1  0.2788485E-009  0.1189804E+03  0.7561462E-02  0.1244789E+00
          1   -1    0    0  501    0  0.00000000000E+00  0.00000000000E+00  0.35722173597E+03  0.35722173597E+03  0.00000000000E+00 0. -1.
         -1   -1    0    0    0  501 -0.00000000000E+00 -0.00000000000E+00 -0.64276278537E+02  0.64276278537E+02  0.00000000000E+00 0.  1.
         25    2    1    2    0    0  0.10079018158E+03  0.20106737880E+02  0.18953240246E+03  0.24926529399E+03  0.12509082138E+03 0.  0.
          5    1    3    3  502    0  0.56247800450E+01  0.12036701126E+02 -0.16823586701E+02  0.21840920174E+02  0.41800000000E+01 0.  1.
         -5    1    3    3    0  502  0.95165401531E+02  0.80700367538E+01  0.20635598916E+03  0.22742437381E+03  0.41800000000E+01 0.  1.
        -11    1    1    2    0    0  0.12399302648E+02  0.33411134447E+01 -0.49759117701E+01  0.13771907753E+02  0.00000000000E+00 0.  1.
         11    1    1    2    0    0 -0.11318948422E+03 -0.23447851325E+02  0.10838896674E+03  0.15846081276E+03  0.00000000000E+00 0. -1.
</event>
<event>
 7    1  0.2788485E-009  0.9857807E+02  0.7561462E-02  0.1283315E+00
         -1   -1    0    0    0  501 -0.00000000000E+00  0.00000000000E+00  0.95012732975E+02  0.95012732975E+02  0.00000000000E+00 0.  1.
          1   -1    0    0  501    0  0.00000000000E+00 -0.00000000000E+00 -0.66228251707E+03  0.66228251707E+03  0.00000000000E+00 0. -1.
         25    2    1    2    0    0 -0.43322867634E+02 -0.30702030305E+02 -0.62720200329E+03  0.64175513729E+03  0.12509123783E+03 0.  0.
          5    1    3    3  502    0 -0.56528710681E+01  0.29298309113E+02 -0.38978874871E+02  0.49266326780E+02  0.41800000000E+01 0. -1.
         -5    1    3    3    0  502 -0.37669996565E+02 -0.60000339418E+02 -0.58822312842E+03  0.59248881051E+03  0.41800000000E+01 0. -1.
        -11    1    1    2    0    0 -0.18669059623E+02 -0.10693723708E+02  0.25688877849E+02  0.33508326712E+02  0.00000000000E+00 0.  1.
         11    1    1    2    0    0  0.61991927257E+02  0.41395754013E+02  0.34243341344E+02  0.82031786045E+02  0.00000000000E+00 0. -1.
</event>
<event>
 7    1  0.2788485E-009  0.1586920E+03  0.7561462E-02  0.1190181E+00
         -2   -1    0    0    0  501 -0.00000000000E+00  0.00000000000E+00  0.12117987499E+03  0.12117987499E+03  0.00000000000E+00 0.  1.
          2   -1    0    0  501    0  0.00000000000E+00 -0.00000000000E+00 -0.25420957254E+03  0.25420957254E+03  0.00000000000E+00 0. -1.
         25    2    1    2    0    0  0.13532096911E+03  0.23880583100E+02 -0.76679207723E+02  0.20101792415E+03  0.12508580256E+03 0.  0.
          5    1    3    3  502    0  0.11992786431E+03  0.46168926955E+02 -0.10045458840E+02  0.12896761647E+03  0.41800000000E+01 0.  1.
         -5    1    3    3    0  502  0.15393104801E+02 -0.22288343855E+02 -0.66633748884E+02  0.72050307685E+02  0.41800000000E+01 0.  1.
        -11    1    1    2    0    0 -0.93941888683E+02 -0.55689571319E+02 -0.20665759401E+02  0.11114621188E+03  0.00000000000E+00 0. -1.
         11    1    1    2    0    0 -0.41379080427E+02  0.31808988219E+02 -0.35684730431E+02  0.63225311501E+02  0.00000000000E+00 0.  1.
</event>
<event>
 7    1  0.2788485E-009  0.9790811E+02  0.7561462E-02  0.1284757E+00
          1   -1    0    0  501    0  0.00000000000E+00  0.00000000000E+00  0.10081516207E+03  0.10081516207E+03  0.00000000000E+00 0. -1.
         -1   -1    0    0    0  501 -0.00000000000E+00 -0.00000000000E+00 -0.11986965461E+03  0.11986965461E+03  0.00000000000E+00 0.  1.
         25    2    1    2    0    0 -0.10300993646E+01 -0.19466330137E+02 -0.17358537949E+02  0.12778597984E+03  0.12509172111E+03 0.  0.
          5    1    3    3  502    0 -0.43509145729E+02  0.16914289558E+02 -0.45251234268E+02  0.65148181526E+02  0.41800000000E+01 0.  1.
         -5    1    3    3    0  502  0.42479046364E+02 -0.36380619695E+02  0.27892696319E+02  0.62637798312E+02  0.41800000000E+01 0.  1.
        -11    1    1    2    0    0 -0.42570281770E+02  0.24264441162E+02 -0.18533975368E+01  0.49034957707E+02  0.00000000000E+00 0. -1.
         11    1    1    2    0    0  0.43600381135E+02 -0.47981110242E+01  0.15744295012E+00  0.43863879135E+02  0.00000000000E+00 0.  1.
</event>
<event>
 7    1  0.2788485E-009  0.6341692E+02  0.7561462E-02  0.1384027E+00
         -1   -1    0    0    0  501 -0.00000000000E+00  0.00000000000E+00  0.19630454711E+03  0.19630454711E+03  0.00000000000E+00 0.  1.
          1   -1    0    0  501    0  0.00000000000E+00 -0.00000000000E+00 -0.69123036980E+02  0.69123036980E+02  0.00000000000E+00 0. -1.
         25    2    1    2    0    0 -0.40446396684E+02  0.61592423071E+00  0.51328873508E+02  0.14113293049E+03  0.12509020923E+03 0.  0.
          5    1    3    3  502    0 -0.12712639464E+02 -0.30748392181E+02 -0.32900813039E+02  0.46978832707E+02  0.41800000000E+01 0. -1.
         -5    1    3    3    0  502 -0.27733757221E+02  0.31364316411E+02  0.84229686547E+02  0.94154097783E+02  0.41800000000E+01 0. -1.
        -11    1    1    2    0    0  0.31115602534E+02 -0.14633493017E+02  0.93668410873E+02  0.99780213641E+02  0.00000000000E+00 0.  1.
         11    1    1    2    0    0  0.93307941504E+01  0.14017568786E+02 -0.17815774253E+02  0.24514439957E+02  0.00000000000E+00 0. -1.
</event>
<event>
 7    1  0.2788485E-009  0.8832776E+02  0.7561462E-02  0.1306953E+00
          2   -1    0    0  501    0  0.00000000000E+00  0.00000000000E+00  0.10749737807E+03  0.10749737807E+03  0.00000000000E+00 0. -1.
         -2   -1    0    0    0  501 -0.00000000000E+00 -0.00000000000E+00 -0.13646266554E+03  0.13646266554E+03  0.00000000000E+00 0.  1.
         25    2    1    2    0    0 -0.41574396104E+02  0.13399650599E+01 -0.50532802076E+02  0.14118034352E+03  0.12509236345E+03 0.  0.
          5    1    3    3  502    0 -0.64029114018E+02 -0.46002928041E+02 -0.35052053906E+02  0.86383538439E+02  0.41800000000E+01 0.  1.
         -5    1    3    3    0  502  0.22454717913E+02  0.47342893101E+02 -0.15480748170E+02  0.54796805086E+02  0.41800000000E+01 0.  1.
        -11    1    1    2    0    0  0.96431259616E+01  0.72588247625E+01 -0.35128647383E+02  0.37144343879E+02  0.00000000000E+00 0.  1.
         11    1    1    2    0    0  0.31931270143E+02 -0.85987898224E+01  0.56696161992E+02  0.65635356203E+02  0.00000000000E+00 0. -1.
</event>
<event>
 7    1  0.2788485E-009  0.1776519E+03  0.7561462E-02  0.1170095E+00
         -1   -1    0    0    0  501 -0.00000000000E+00  0.00000000000E+00  0.24404948326E+03  0.24404948326E+03  0.00000000000E+00 0.  1.
          1   -1    0    0  501    0  0.00000000000E+00 -0.00000000000E+00 -0.15143007663E+03  0.15143007663E+03  0.00000000000E+00 0. -1.
         25    2    1    2    0    0  0.15114829539E+03  0.27354344807E+02  0.76402070674E+01  0.19824328737E+03  0.12509180965E+03 0.  0.
          5    1    3    3  502    0  0.10295862041E+03  0.74642047211E+02  0.21908431481E+02  0.12910989311E+03  0.41800000000E+01 0. -1.
         -5    1    3    3    0  502  0.48189674981E+02 -0.47287702404E+02 -0.14268224414E+02  0.69133394256E+02  0.41800000000E+01 0. -1.
        -11    1    1    2    0    0 -0.36177484775E+02  0.13195867795E+02  0.62287293334E+02  0.73230104755E+02  0.00000000000E+00 0.  1.
         11    1    1    2    0    0 -0.11497081062E+03 -0.40550212602E+02  0.22691906225E+02  0.12400616777E+03  0.00000000000E+00 0. -1.
</event>
<event>
 7    1  0.2788485E-009  0.1171881E+03  0.7561462E-02  0.1247809E+00
         -1   -1    0    0    0  501 -0.00000000000E+00  0.00000000000E+00  0.69678042431E+02  0.69678042431E+02  0.00000000000E+00 0.  1.
          1   -1    0    0  501    0  0.00000000000E+00 -0.00000000000E+00 -0.40634950953E+03  0.40634950953E+03  0.00000000000E+00 0. -1.
         25    2    1    2    0    0 -0.76658040368E+02 -0.96136730862E+01 -0.32315482075E+03  0.35502904763E+03  0.12509080151E+03 0.  0.
          5    1    3    3  502    0  0.32759991991E+02 -0.17254869345E+02 -0.81674447011E+02  0.89772686748E+02  0.41800000000E+01 0. -1.
         -5    1    3    3    0  502 -0.10941803236E+03  0.76411962584E+01 -0.24148037374E+03  0.26525636088E+03  0.41800000000E+01 0. -1.
        -11    1    1    2    0    0  0.86964179141E+01 -0.13073838907E+02  0.32327124525E+02  0.35938780285E+02  0.00000000000E+00 0.  1.
         11    1    1    2    0    0  0.67961622454E+02  0.22687511994E+02 -0.45843770869E+02  0.85059724044E+02  0.00000000000E+00 0. -1.
</event>
<event>
 7    1  0.2788485E-009  0.8191804E+02  0.7561462E-02  0.1323695E+00
          2   -1    0    0  501    0  0.00000000000E+00  0.00000000000E+00  0.10770610257E+03  0.10770610257E+03  0.00000000000E+00 0. -1.
         -2   -1    0    0    0  501 -0.00000000000E+00 -0.00000000000E+00 -0.12115629594E+03  0.12115629594E+03  0.00000000000E+00 0.  1.
         25    2    1    2    0    0  0.32957879554E+02 -0.34267948741E+01 -0.13722864432E+02  0.13012986395E+03  0.12508996657E+03 0.  0.
          5    1    3    3  502    0  0.58577206270E+02  0.90503717131E+01 -0.54217522089E+02  0.80437618215E+02  0.41800000000E+01 0.  1.
         -5    1    3    3    0  502 -0.25619326716E+02 -0.12477166587E+02  0.40494657657E+02  0.49692245735E+02  0.41800000000E+01 0.  1.
        -11    1    1    2    0    0 -0.28864255665E+02 -0.30179654858E+02  0.31785312521E+02  0.52481071964E+02  0.00000000000E+00 0. -1.
         11    1    1    2    0    0 -0.40936238891E+01  0.33606449732E+02 -0.31512641468E+02  0.46251462597E+02  0.00000000000E+00 0.  1.
</event>
<event>
 7    1  0.2788485E-009  0.1252396E+03  0.7561462E-02  0.1234695E+00
         -1   -1    0    0    0  501 -0.00000000000E+00  0.00000000000E+00  0.10671603902E+03  0.10671603902E+03  0.00000000000E+00 0.  1.
          1   -1    0    0  501    0  0.00000000000E+00 -0.00000000000E+00 -0.19307853133E+03  0.19307853133E+03  0.00000000000E+00 0. -1.
         25    2    1    2    0    0 -0.43715676687E+02 -0.58550996499E+02  0.13913919104E+02  0.14553328324E+03  0.12508820811E+03 0.  0.
          5    1    3    3  502    0 -0.29146939755E+02 -0.93963506920E+02 -0.11867951432E+02  0.99181678756E+02  0.41800000000E+01 0. -1.
         -5    1    3    3    0  502 -0.14568736932E+02  0.35412510421E+02  0.25781870536E+02  0.46351604486E+02  0.41800000000E+01 0. -1.
        -11    1    1    2    0    0 -0.26461249366E+02  0.21730269055E+02 -0.49328113699E+02  0.60047190711E+02  0.00000000000E+00 0. -1.
         11    1    1    2    0    0  0.70176926054E+02  0.36820727444E+02 -0.50948297714E+02  0.94214096396E+02  0.00000000000E+00 0.  1.
</event>
<event>
 7    1  0.2788485E-009  0.1371065E+03  0.7561462E-02  0.1217276E+00
          1   -1    0    0  501    0  0.00000000000E+00  0.00000000000E+00  0.19141810374E+03  0.19141810374E+03  0.00000000000E+00 0. -1.
         -1   -1    0    0    0  501 -0.00000000000E+00 -0.00000000000E+00 -0.19097258528E+03  0.19097258528E+03  0.00000000000E+00 0.  1.
         25    2    1    2    0    0  0.10861910392E+03 -0.35860024624E+02 -0.10698881664E+03  0.20044411316E+03  0.12508870657E+03 0.  0.
          5    1    3    3  502    0  0.12629147616E+03 -0.11027052913E+02 -0.11207563492E+03  0.16926178892E+03  0.41800000000E+01 0.  1.
         -5    1    3    3    0  502 -0.17672372238E+02 -0.24832971711E+02  0.50868182861E+01  0.31182324236E+02  0.41800000000E+01 0.  1.
        -11    1    1    2    0    0 -0.65979873689E+02  0.33260499213E+02  0.87404706594E+01  0.74404303419E+02  0.00000000000E+00 0.  1.
         11    1    1    2    0    0 -0.42639230229E+02  0.25995254107E+01  0.98693864431E+02  0.10754227245E+03  0.00000000000E+00 0. -1.
</event>
<event>
 7    1  0.2788485E-009  0.7799204E+02  0.7561462E-02  0.1334848E+00
         -1   -1    0    0    0  501 -0.00000000000E+00  0.00000000000E+00  0.33411966138E+03  0.33411966138E+03  0.00000000000E+00 0.  1.
          1   -1    0    0  501    0  0.00000000000E+00 -0.00000000000E+00 -0.51793861533E+02  0.51793861533E+02  0.00000000000E+00 0. -1.
         25    2    1    2    0    0 -0.28440511167E+02  0.40816914226E+02  0.74396609808E+02  0.15380948951E+03  0.12509044868E+03 0.  0.
          5    1    3    3  502    0  0.64013378034E+00  0.20824240968E+02 -0.33800990970E+02  0.39925407621E+02  0.41800000000E+01 0. -1.
         -5    1    3    3    0  502 -0.29080644947E+02  0.19992673257E+02  0.10819760078E+03  0.11388408189E+03  0.41800000000E+01 0. -1.
        -11    1    1    2    0    0  0.26064345258E+02 -0.67526904249E+02  0.11963495209E+03  0.13982758903E+03  0.00000000000E+00 0.  1.
         11    1    1    2    0    0  0.23761659090E+01  0.26709990023E+02  0.88294237946E+02  0.92276444372E+02  0.00000000000E+00 0. -1.
</event>
<event>
 7    1  0.2788485E-009  0.1679312E+03  0.7561462E-02  0.1180023E+00
         -1   -1    0    0    0  501 -0.00000000000E+00  0.00000000000E+00  0.51670486587E+03  0.51670486587E+03  0.00000000000E+00 0.  1.
          1   -1    0    0  501    0  0.00000000000E+00 -0.00000000000E+00 -0.71582154980E+02  0.71582154980E+02  0.00000000000E+00 0. -1.
         25    2    1    2    0    0  0.16028648673E+02 -0.15487762318E+03  0.18271093729E+03  0.27069463032E+03  0.12509316742E+03 0.  0.
          5    1    3    3  502    0  0.26121615689E+02 -0.11120259143E+02  0.10095717571E+03  0.10495628946E+03  0.41800000000E+01 0. -1.
         -5    1    3    3    0  502 -0.10092967016E+02 -0.14375736403E+03  0.81753761583E+02  0.16573834086E+03  0.41800000000E+01 0. -1.
        -11    1    1    2    0    0  0.10578175908E+02  0.11223173733E+03  0.11160879781E+03  0.15863286046E+03  0.00000000000E+00 0. -1.
         11    1    1    2    0    0 -0.26606824581E+02  0.42645885845E+02  0.15080297579E+03  0.15895953007E+03  0.00000000000E+00 0.  1.
</event>
<event>
 7    1  0.2788485E-009  0.1326390E+03  0.7561462E-02  0.1223592E+00
          3   -1    0    0  501    0  0.00000000000E+00  0.00000000000E+00  0.98288055739E+02  0.98288055739E+02  0.00000000000E+00 0. -1.
         -3   -1    0    0    0  501 -0.00000000000E+00 -0.00000000000E+00 -0.21578617985E+03  0.21578617985E+03  0.00000000000E+00 0.  1.
         25    2    1    2    0    0  0.62500046351E+02  0.74195957911E+02 -0.70021831338E+02  0.17309482190E+03  0.12508982589E+03 0.  0.
          5    1    3    3  502    0  0.80927720520E+02  0.81714537768E+02 -0.17031634682E+02  0.11633619648E+03  0.41800000000E+01 0. -1.
         -5    1    3    3    0  502 -0.18427674169E+02 -0.75185798566E+01 -0.52990196657E+02  0.56758625424E+02  0.41800000000E+01 0. -1.
        -11    1    1    2    0    0 -0.83777253165E+02 -0.49691190595E+02 -0.22351192826E+02  0.99937072157E+02  0.00000000000E+00 0.  1.
         11    1    1    2    0    0  0.21277206814E+02 -0.24504767317E+02 -0.25125099948E+02  0.41042341532E+02  0.00000000000E+00 0. -1.
</event>
<event>
 7    1  0.2788485E-009  0.1485996E+03  0.7561462E-02  0.1202204E+00
         -1   -1    0    0    0  501 -0.00000000000E+00  0.00000000000E+00  0.26424505505E+02  0.26424505505E+02  0.00000000000E+00 0.  1.
          1   -1    0    0  501    0  0.00000000000E+00 -0.00000000000E+00 -0.87549270814E+03  0.87549270814E+03  0.00000000000E+00 0. -1.
         25    2    1    2    0    0  0.95902755997E+02 -0.38608523037E+02 -0.52552776025E+03  0.55001216979E+03  0.12508398565E+03 0.  0.
          5    1    3    3  502    0  0.27971859387E+02  0.44609232160E+02 -0.13522909492E+03  0.14517847301E+03  0.41800000000E+01 0. -1.
         -5    1    3    3    0  502  0.67930896610E+02 -0.83217755197E+02 -0.39029866533E+03  0.40483369678E+03  0.41800000000E+01 0. -1.
        -11    1    1    2    0    0 -0.92005716597E+02  0.63428752617E+02 -0.28230084565E+03  0.30361493046E+03  0.00000000000E+00 0.  1.
         11    1    1    2    0    0 -0.38970393997E+01 -0.24820229579E+02 -0.41239596737E+02  0.48290113393E+02  0.00000000000E+00 0. -1.
</event>
<event>
 7    1  0.2788485E-009  0.2102317E+03  0.7561462E-02  0.1141383E+00
         -4   -1    0    0    0  501 -0.00000000000E+00  0.00000000000E+00  0.59645003479E+02  0.59645003479E+02  0.00000000000E+00 0.  1.
          4   -1    0    0  501    0  0.00000000000E+00 -0.00000000000E+00 -0.80164508661E+03  0.80164508661E+03  0.00000000000E+00 0. -1.
         25    2    1    2    0    0  0.10377786474E+03 -0.15906611730E+03 -0.35227210852E+03  0.41930307228E+03  0.12509017988E+03 0.  0.
          5    1    3    3  502    0  0.11780625355E+03 -0.93994679304E+02 -0.18139613936E+03  0.23587145840E+03  0.41800000000E+01 0.  1.
         -5    1    3    3    0  502 -0.14028388810E+02 -0.65071437997E+02 -0.17087596916E+03  0.18343161388E+03  0.41800000000E+01 0.  1.
        -11    1    1    2    0    0 -0.61153903768E+02  0.14620043829E+03 -0.34073534379E+03  0.37578576691E+03  0.00000000000E+00 0.  1.
         11    1    1    2    0    0 -0.42623960974E+02  0.12865679013E+02 -0.48992630817E+02  0.66201250894E+02  0.00000000000E+00 0. -1.
</event>
<event>
 7    1  0.2788485E-009  0.1140549E+03  0.7561462E-02  0.1253240E+00
          1   -1    0    0  501    0  0.00000000000E+00  0.00000000000E+00  0.14234801452E+03  0.14234801452E+03  0.00000000000E+00 0. -1.
         -1   -1    0    0    0  501 -0.00000000000E+00 -0.00000000000E+00 -0.12352298047E+03  0.12352298047E+03  0.00000000000E+00 0.  1.
         25    2    1    2    0    0 -0.66547296545E+02 -0.49692474054E+02 -0.10590601575E+02  0.15052297346E+03  0.12508844888E+03 0.  0.
          5    1    3    3  502    0 -0.32821529130E+02  0.21498390727E+02  0.40495235787E+02  0.56539986732E+02  0.41800000000E+01 0.  1.
         -5    1    3    3    0  502 -0.33725767416E+02 -0.71190864781E+02 -0.51085837362E+02  0.93982986731E+02  0.41800000000E+01 0.  1.
        -11    1    1    2    0    0  0.10751933190E+02  0.52800513920E+02  0.42211389749E+01  0.54049203063E+02  0.00000000000E+00 0.  1.
         11    1    1    2    0    0  0.55795363355E+02 -0.31080398659E+01  0.25194496654E+02  0.61298818466E+02  0.00000000000E+00 0. -1.
</event>
<event>
 7    1  0.2788485E-009  0.1195494E+03  0.7561462E-02  0.1243842E+00
         -1   -1    0    0    0  501 -0.00000000000E+00  0.00000000000E+00  0.73691433639E+02  0.73691433639E+02  0.00000000000E+00 0.  1.
          1   -1    0    0  501    0  0.00000000000E+00 -0.00000000000E+00 -0.28049508098E+03  0.28049508098E+03  0.00000000000E+00 0. -1.
         25    2    1    2    0    0  0.98872825297E+02 -0.18134577141E+02 -0.11877571571E+03  0.19964685126E+03  0.12508595486E+03 0.  0.
          5    1    3    3  502    0 -0.99819094467E+01 -0.26160822944E+02  0.10686520159E+02  0.30260556611E+02  0.41800000000E+01 0. -1.
         -5    1    3    3    0  502  0.10885473474E+03  0.80262458032E+01 -0.12946223587E+03  0.16938629465E+03  0.41800000000E+01 0. -1.
        -11    1    1    2    0    0 -0.69338270956E+02  0.58979435386E+01 -0.98762493651E+02  0.12081643808E+03  0.00000000000E+00 0.  1.
         11    1    1    2    0    0 -0.29534554341E+02  0.12236633602E+02  0.10734562020E+02  0.33723225288E+02  0.00000000000E+00 0. -1.
</event>
<event>
 7    1  0.2788485E-009  0.1474761E+03  0.7561462E-02  0.1203609E+00
         -3   -1    0    0    0  501 -0.00000000000E+00  0.00000000000E+00  0.15162254056E+03  0.15162254056E+03  0.00000000000E+00 0.  1.
          3   -1    0    0  501    0  0.00000000000E+00 -0.00000000000E+00 -0.20706467054E+03  0.20706467054E+03  0.00000000000E+00 0. -1.
         25    2    1    2    0    0 -0.54458571423E+02  0.11280314989E+03 -0.28009909861E+02  0.17922687199E+03  0.12508968769E+03 0.  0.
          5    1    3    3  502    0 -0.35463166299E+02  0.13427122055E+03 -0.10125875350E-01  0.13893836523E+03  0.41800000000E+01 0. -1.
         -5    1    3    3    0  502 -0.18995405124E+02 -0.21468070655E+02 -0.27999783986E+02  0.40288506757E+02  0.41800000000E+01 0. -1.
        -11    1    1    2    0    0  0.12806477592E+02 -0.10407210386E+02  0.44575881532E+02  0.47532358564E+02  0.00000000000E+00 0.  1.
         11    1    1    2    0    0  0.41652093831E+02 -0.10239593951E+03 -0.72008101656E+02  0.13192798055E+03  0.00000000000E+00 0. -1.
</event>
<event>
 7    1  0.2788485E-009  0.2035147E+03  0.7561462E-02  0.1146807E+00
         -2   -1    0    0    0  501 -0.00000000000E+00  0.00000000000E+00  0.24068838181E+03  0.24068838181E+03  0.00000000000E+00 0.  1.
          2   -1    0    0  501    0  0.00000000000E+00 -0.00000000000E+00 -0.17547335001E+03  0.17547335001E+03  0.00000000000E+00 0. -1.
         25    2    1    2    0    0 -0.57385674041E+02  0.16258889768E+03  0.58872212282E+02  0.22100170935E+03  0.12509017917E+03 0.  0.
          5    1    3    3  502    0 -0.55222740704E+02  0.60082712849E+01  0.23177824117E+02  0.60335183314E+02  0.41800000000E+01 0. -1.
         -5    1    3    3    0  502 -0.21629333368E+01  0.15658062639E+03  0.35694388165E+02  0.16066652604E+03  0.41800000000E+01 0. -1.
        -11    1    1    2    0    0 -0.23711867327E+02 -0.55403128188E+02  0.76325930628E+01  0.60745499767E+02  0.00000000000E+00 0. -1.
         11    1    1    2    0    0  0.81097541367E+02 -0.10718576949E+03 -0.12897735494E+01  0.13441452270E+03  0.00000000000E+00 0.  1.
</event>
<event>
 7    1  0.2788485E-009  0.5539115E+02  0.7561462E-02  0.1418258E+00
          2   -1    0    0  501    0  0.00000000000E+00  0.00000000000E+00  0.13508881919E+03  0.13508881919E+03  0.00000000000E+00 0. -1.
         -2   -1    0    0    0  501 -0.00000000000E+00 -0.00000000000E+00 -0.81966843001E+02  0.81966843001E+02  0.00000000000E+00 0.  1.
         25    2    1    2    0    0 -0.95116273975E+01 -0.68081784372E+01  0.37092557960E+02  0.13100107309E+03  0.12509436816E+03 0.  0.
          5    1    3    3  502    0  0.29286485796E+02 -0.20883681937E+02  0.69494364648E+02  0.78363036818E+02  0.41800000000E+01 0.  1.
         -5    1    3    3    0  502 -0.38798113194E+02  0.14075503500E+02 -0.32401806689E+02  0.52638036275E+02  0.41800000000E+01 0.  1.
        -11    1    1    2    0    0  0.10369305013E+02 -0.11081664262E+02 -0.31661778583E+02  0.35111166205E+02  0.00000000000E+00 0.  1.
         11    1    1    2    0    0 -0.85767761578E+00  0.17889842699E+02  0.47691196815E+02  0.50943422896E+02  0.00000000000E+00 0. -1.
</event>
<event>
 7    1  0.3357709E-009  0.1433962E+03  0.7561462E-02  0.1208831E+00
          1   -1    0    0  501    0  0.00000000000E+00  0.00000000000E+00  0.49458713662E+03  0.49458713662E+03  0.00000000000E+00 0. -1.
         -1   -1    0    0    0  501 -0.00000000000E+00 -0.00000000000E+00 -0.67705351493E+02  0.67705351493E+02  0.00000000000E+00 0.  1.
         25    2    1    2    0    0  0.96159817800E+02 -0.10472019164E+03  0.16700315345E+03  0.25248786632E+03  0.12508813006E+03 0.  0.
          5    1    3    3  502    0  0.13180967164E+02 -0.19525202760E+02  0.12348204517E+03  0.12577861232E+03  0.41800000000E+01 0. -1.
         -5    1    3    3    0  502  0.82978850636E+02 -0.85194988877E+02  0.43521108274E+02  0.12670925400E+03  0.41800000000E+01 0. -1.
        -11    1    1    2    0    0 -0.59826994360E+02  0.80102848691E+02  0.24303524991E+03  0.26279624869E+03  0.00000000000E+00 0. -1.
         11    1    1    2    0    0 -0.36332823440E+02  0.24617342946E+02  0.16843381764E+02  0.47008373106E+02  0.00000000000E+00 0.  1.
</event>
<event>
 7    1  0.2788485E-009  0.1026761E+03  0.7561462E-02  0.1274767E+00
          1   -1    0    0  501    0  0.00000000000E+00  0.00000000000E+00  0.15240637541E+03  0.15240637541E+03  0.00000000000E+00 0. -1.
         -1   -1    0    0    0  501 -0.00000000000E+00 -0.00000000000E+00 -0.91170490117E+02  0.91170490117E+02  0.00000000000E+00 0.  1.
         25    2    1    2    0    0 -0.12241543137E+02  0.36996690378E+02  0.58312271125E+02  0.14340881996E+03  0.12508860141E+03 0.  0.
          5    1    3    3  502    0 -0.19259866299E+02  0.73732830272E+02  0.70450465678E+02  0.10386632382E+03  0.41800000000E+01 0.  1.
         -5    1    3    3    0  502  0.70183231616E+01 -0.36736139894E+02 -0.12138194553E+02  0.39542496144E+02  0.41800000000E+01 0.  1.
        -11    1    1    2    0    0  0.47766923611E+02 -0.24912167521E+02 -0.18497138716E+02  0.56959979131E+02  0.00000000000E+00 0.  1.
         11    1    1    2    0    0 -0.35525380474E+02 -0.12084522856E+02  0.21420752881E+02  0.43208066429E+02  0.00000000000E+00 0. -1.
</event>
<event>
 7    1  0.2788485E-009  0.1193226E+03  0.7561462E-02  0.1244219E+00
         -1   -1    0    0    0  501 -0.00000000000E+00  0.00000000000E+00  0.38775861021E+02  0.38775861021E+02  0.00000000000E+00 0.  1.
          1   -1    0    0  501    0  0.00000000000E+00 -0.00000000000E+00 -0.47548237012E+03  0.47548237012E+03  0.00000000000E+00 0. -1.
         25    2    1    2    0    0  0.76363887755E+02  0.28460579162E+02 -0.22102627271E+03  0.26672212815E+03  0.12508650007E+03 0.  0.
          5    1    3    3  502    0 -0.17942747889E+02  0.10202041314E+02  0.45183363561E+01  0.21538607481E+02  0.41800000000E+01 0. -1.
         -5    1    3    3    0  502  0.94306635644E+02  0.18258537847E+02 -0.22554460906E+03  0.24518352067E+03  0.41800000000E+01 0. -1.
        -11    1    1    2    0    0 -0.87729295977E+02  0.32109094398E+01 -0.15312052467E+03  0.17650108891E+03  0.00000000000E+00 0. -1.
         11    1    1    2    0    0  0.11365408222E+02 -0.31671488601E+02 -0.62559711726E+02  0.71035014082E+02  0.00000000000E+00 0.  1.
</event>
<event>
 7    1  0.2788485E-009  0.1268015E+03  0.7561462E-02  0.1232280E+00
          2   -1    0    0  501    0  0.00000000000E+00  0.00000000000E+00  0.11071940926E+03  0.11071940926E+03  0.00000000000E+00 0. -1.
         -2   -1    0    0    0  501 -0.00000000000E+00 -0.00000000000E+00 -0.17088512860E+03  0.17088512860E+03  0.00000000000E+00 0.  1.
         25    2    1    2    0    0  0.50115749546E+02 -0.45742782532E+02 -0.83007714515E+02  0.16474833041E+03  0.12509093172E+03 0.  0.
          5    1    3    3  502    0  0.47207821392E+02  0.36460629494E+02 -0.31162576478E+02  0.67427994753E+02  0.41800000000E+01 0. -1.
         -5    1    3    3    0  502  0.29079281537E+01 -0.82203412026E+02 -0.51845138038E+02  0.97320335660E+02  0.41800000000E+01 0. -1.
        -11    1    1    2    0    0 -0.74199450856E+02  0.21445641879E+02  0.28209750554E+02  0.82226906116E+02  0.00000000000E+00 0. -1.
         11    1    1    2    0    0  0.24083701310E+02  0.24297140652E+02 -0.53677553748E+01  0.34629301328E+02  0.00000000000E+00 0.  1.
</event>
<event>
 7    1  0.2788485E-009  0.9830369E+02  0.7561462E-02  0.1283904E+00
         -2   -1    0    0    0  501 -0.00000000000E+00  0.00000000000E+00  0.18879316041E+03  0.18879316041E+03  0.00000000000E+00 0.  1.
          2   -1    0    0  501    0  0.00000000000E+00 -0.00000000000E+00 -0.77115120959E+02  0.77115120959E+02  0.00000000000E+00 0. -1.
         25    2    1    2    0    0  0.94995886588E+01  0.22275379076E+02  0.11597675281E+03  0.17229018626E+03  0.12508743499E+03 0.  0.
          5    1    3    3  502    0 -0.31464290051E+02  0.50584170760E+02  0.10550850923E+03  0.12123645408E+03  0.41800000000E+01 0. -1.
         -5    1    3    3    0  502  0.40963878710E+02 -0.28308791684E+02  0.10468243588E+02  0.51053732179E+02  0.41800000000E+01 0. -1.
        -11    1    1    2    0    0  0.14725799907E+02  0.27706736773E+02  0.15051748170E+02  0.34800396096E+02  0.00000000000E+00 0.  1.
         11    1    1    2    0    0 -0.24225388566E+02 -0.49982115848E+02 -0.19350461528E+02  0.58817699013E+02  0.00000000000E+00 0. -1.
</event>
<event>
 7    1  0.2788485E-009  0.2035640E+03  0.7561462E-02  0.1146766E+00
         -2   -1    0    0    0  501 -0.00000000000E+00  0.00000000000E+00  0.49138064829E+02  0.49138064829E+02  0.00000000000E+00 0.  1.
          2   -1    0    0  501    0  0.00000000000E+00 -0.00000000000E+00 -0.86096184204E+03  0.86096184204E+03  0.00000000000E+00 0. -1.
         25    2    1    2    0    0 -0.33302764695E+02 -0.17101996508E+03 -0.47995450951E+03  0.52570304561E+03  0.12510179207E+03 0.  0.
          5    1    3    3  502    0 -0.48992181382E+01  0.20127723403E+02 -0.43458793849E+02  0.48324597779E+02  0.41800000000E+01 0.  1.
         -5    1    3    3    0  502 -0.28403546557E+02 -0.19114768848E+03 -0.43649571566E+03  0.47737844784E+03  0.41800000000E+01 0.  1.
        -11    1    1    2    0    0 -0.27724307257E+02  0.50283265055E+02 -0.11982936611E+03  0.13287633702E+03  0.00000000000E+00 0. -1.
         11    1    1    2    0    0  0.61027071952E+02  0.12073670002E+03 -0.21203990159E+03  0.25152052423E+03  0.00000000000E+00 0.  1.
</event>
<event>
 7    1  0.2788485E-009  0.1157950E+03  0.7561462E-02  0.1250200E+00
          2   -1    0    0  501    0  0.00000000000E+00  0.00000000000E+00  0.49390588849E+03  0.49390588849E+03  0.00000000000E+00 0. -1.
         -2   -1    0    0    0  501 -0.00000000000E+00 -0.00000000000E+00 -0.49512676738E+02  0.49512676738E+02  0.00000000000E+00 0.  1.
         25    2    1    2    0    0 -0.12540483096E+02 -0.10202781323E+03  0.31624018985E+03  0.35527772543E+03  0.12508983219E+03 0.  0.
          5    1    3    3  502    0 -0.30160810325E+02 -0.90734476476E+02  0.10160171819E+03  0.13958080542E+03  0.41800000000E+01 0.  1.
         -5    1    3    3    0  502  0.17620327229E+02 -0.11293336759E+02  0.21463847166E+03  0.21569692001E+03  0.41800000000E+01 0.  1.
        -11    1    1    2    0    0  0.31867887583E+02  0.73166735718E+02  0.32133778464E+02  0.86032047477E+02  0.00000000000E+00 0.  1.
         11    1    1    2    0    0 -0.19327404487E+02  0.28861077516E+02  0.96019243434E+02  0.10210879232E+03  0.00000000000E+00 0. -1.
</event>
<event>
 7    1  0.2788485E-009  0.1330748E+03  0.7561462E-02  0.1222963E+00
         -2   -1    0    0    0  501 -0.00000000000E+00  0.00000000000E+00  0.41429766882E+02  0.41429766882E+02  0.00000000000E+00 0.  1.
          2   -1    0    0  501    0  0.00000000000E+00 -0.00000000000E+00 -0.53852638749E+03  0.53852638749E+03  0.00000000000E+00 0. -1.
         25    2    1    2    0    0  0.24694450383E+02 -0.95989011350E+02 -0.32099622746E+03  0.35848200840E+03  0.12508823335E+03 0.  0.
          5    1    3    3  502    0  0.56872373175E+02 -0.35917650883E+02 -0.25414141729E+03  0.26292561088E+03  0.41800000000E+01 0. -1.
         -5    1    3    3    0  502 -0.32177922792E+02 -0.60071360467E+02 -0.66854810173E+02  0.95556397519E+02  0.41800000000E+01 0. -1.
        -11    1    1    2    0    0  0.54583465747E+01 -0.14740534377E+02 -0.72363279250E+01  0.17304373519E+02  0.00000000000E+00 0.  1.
         11    1    1    2    0    0 -0.30152796957E+02  0.11072954573E+03 -0.16886406523E+03  0.20416977246E+03  0.00000000000E+00 0. -1.
</event>
<event>
 7    1  0.2788485E-009  0.1066069E+03  0.7561462E-02  0.1266985E+00
         -2   -1    0    0    0  501 -0.00000000000E+00  0.00000000000E+00  0.24168465699E+02  0.24168465699E+02  0.00000000000E+00 0.  1.
          2   -1    0    0  501    0  0.00000000000E+00 -0.00000000000E+00 -0.78230576327E+03  0.78230576327E+03  0.00000000000E+00 0. -1.
         25    2    1    2    0    0  0.80433744297E+02 -0.17410852053E+02 -0.47428778523E+03  0.49736253923E+03  0.12509143542E+03 0.  0.
          5    1    3    3  502    0  0.94179883622E+02 -0.66935707357E+01 -0.18709321354E+03  0.20960915371E+03  0.41800000000E+01 0.  1.
         -5    1    3    3    0  502 -0.13746139325E+02 -0.10717281318E+02 -0.28719457169E+03  0.28775338551E+03  0.41800000000E+01 0.  1.
        -11    1    1    2    0    0 -0.46708005274E+02  0.38903430212E+02 -0.75357233694E+02  0.96818527715E+02  0.00000000000E+00 0.  1.
         11    1    1    2    0    0 -0.33725739023E+02 -0.21492578158E+02 -0.20849227865E+03  0.21229316203E+03  0.00000000000E+00 0. -1.
</event>
<event>
 7    1  0.2788485E-009  0.1698797E+03  0.7561462E-02  0.1177973E+00
          1   -1    0    0  501    0  0.00000000000E+00  0.00000000000E+00  0.10863936862E+03  0.10863936862E+03  0.00000000000E+00 0. -1.
         -1   -1    0    0    0  501 -0.00000000000E+00 -0.00000000000E+00 -0.27716135996E+03  0.27716135996E+03  0.00000000000E+00 0.  1.
         25    2    1    2    0    0  0.47834589424E+02  0.12148194725E+03 -0.12462053159E+03  0.21959877274E+03  0.12508929867E+03 0.  0.
          5    1    3    3  502    0  0.85619233080E+02  0.49346359280E+02 -0.75210688301E+02  0.12425713775E+03  0.41800000000E+01 0. -1.
         -5    1    3    3    0  502 -0.37784643655E+02  0.72135587974E+02 -0.49409843290E+02  0.95341634989E+02  0.41800000000E+01 0. -1.
        -11    1    1    2    0    0 -0.44613580103E+02 -0.74486335002E+01 -0.20904771626E+02  0.49828336791E+02  0.00000000000E+00 0.  1.
         11    1    1    2    0    0 -0.32210093215E+01 -0.11403331375E+03 -0.22996688119E+02  0.11637361905E+03  0.00000000000E+00 0. -1.
</event>
<event>
 7    1  0.2921294E-009  0.1049083E+03  0.7561462E-02  0.1270300E+00
          1   -1    0    0  501    0  0.00000000000E+00  0.00000000000E+00  0.11010906369E+03  0.11010906369E+03  0.00000000000E+00 0. -1.
         -1   -1    0    0    0  501 -0.00000000000E+00 -0.00000000000E+00 -0.17604130855E+03  0.17604130855E+03  0.00000000000E+00 0.  1.
         25    2    1    2    0    0 -0.86426379867E+02 -0.88646642135E+01 -0.37911645468E+02  0.15695317522E+03  0.12509558322E+03 0.  0.
          5    1    3    3  502    0  0.13483242332E+02  0.84183675927E+01 -0.51967584278E+02  0.54504760823E+02  0.41800000000E+01 0. -1.
         -5    1    3    3    0  502 -0.99909622199E+02 -0.17283031806E+02  0.14055938811E+02  0.10244841440E+03  0.41800000000E+01 0. -1.
        -11    1    1    2    0    0  0.44116300535E+02  0.19563194357E+02 -0.58595845655E+02  0.75910734908E+02  0.00000000000E+00 0.  1.
         11    1    1    2    0    0  0.42310079332E+02 -0.10698530143E+02  0.30575246260E+02  0.53286462110E+02  0.00000000000E+00 0. -1.
</event>
<event>
 7    1  0.3179808E-009  0.3160780E+03  0.7561462E-02  0.1077469E+00
         -2   -1    0    0    0  501 -0.00000000000E+00  0.00000000000E+00  0.17223098522E+03  0.17223098522E+03  0.00000000000E+00 0.  1.
          2   -1    0    0  501    0  0.00000000000E+00 -0.00000000000E+00 -0.66275209336E+03  0.66275209336E+03  0.00000000000E+00 0. -1.
         25    2    1    2    0    0 -0.28722702133E+03 -0.12855272926E+03 -0.17981791759E+03  0.38341796213E+03  0.12509869789E+03 0.  0.
          5    1    3    3  502    0 -0.14795995146E+03 -0.51216000920E+02 -0.15817135941E+03  0.22260026353E+03  0.41800000000E+01 0.  1.
         -5    1    3    3    0  502 -0.13926706987E+03 -0.77336728342E+02 -0.21646558181E+02  0.16081769860E+03  0.41800000000E+01 0.  1.
        -11    1    1    2    0    0  0.65058304219E+02  0.15433814420E+02 -0.22626099045E+02  0.70588426342E+02  0.00000000000E+00 0.  1.
         11    1    1    2    0    0  0.22216871711E+03  0.11311891484E+03 -0.28807709150E+03  0.38097669011E+03  0.00000000000E+00 0. -1.
</event>
<event>
 7    1  0.3026731E-009  0.1132230E+03  0.7561462E-02  0.1254715E+00
          1   -1    0    0  501    0  0.00000000000E+00  0.00000000000E+00  0.88249684886E+02  0.88249684886E+02  0.00000000000E+00 0. -1.
         -1   -1    0    0    0  501 -0.00000000000E+00 -0.00000000000E+00 -0.23128108806E+03  0.23128108806E+03  0.00000000000E+00 0.  1.
         25    2    1    2    0    0  0.87783092322E+02 -0.10746389527E+02 -0.10862970539E+03  0.18780124150E+03  0.12509011643E+03 0.  0.
          5    1    3    3  502    0  0.11221153698E+03 -0.75365136130E+01 -0.48240195213E+02  0.12244515875E+03  0.41800000000E+01 0.  1.
         -5    1    3    3    0  502 -0.24428444654E+02 -0.32098759144E+01 -0.60389510181E+02  0.65356082742E+02  0.41800000000E+01 0.  1.
        -11    1    1    2    0    0 -0.38360884248E+02  0.92905696444E+01 -0.63198531082E+02  0.74511250530E+02  0.00000000000E+00 0.  1.
         11    1    1    2    0    0 -0.49422208074E+02  0.14558198831E+01  0.28796833306E+02  0.57218280916E+02  0.00000000000E+00 0. -1.
</event>
<event>
 7    1  0.2788485E-009  0.1088795E+03  0.7561462E-02  0.1262659E+00
         -1   -1    0    0    0  501 -0.00000000000E+00  0.00000000000E+00  0.89467789047E+02  0.89467789047E+02  0.00000000000E+00 0.  1.
          1   -1    0    0  501    0  0.00000000000E+00 -0.00000000000E+00 -0.18862661385E+03  0.18862661385E+03  0.00000000000E+00 0. -1.
         25    2    1    2    0    0  0.57279926921E+02 -0.43769529123E+02 -0.45823511986E+02  0.15147528642E+03  0.12509279131E+03 0.  0.
          5    1    3    3  502    0  0.85320430182E+01 -0.60890764357E+02 -0.70859767932E+02  0.93909850673E+02  0.41800000000E+01 0. -1.
         -5    1    3    3    0  502  0.48747883903E+02  0.17121235234E+02  0.25036255947E+02  0.57565435747E+02  0.41800000000E+01 0. -1.
        -11    1    1    2    0    0  0.16641308063E+02  0.21309293547E+02 -0.39905653148E+02  0.48202492453E+02  0.00000000000E+00 0. -1.
         11    1    1    2    0    0 -0.73921234984E+02  0.22460235576E+02 -0.13429659664E+02  0.78416624018E+02  0.00000000000E+00 0.  1.
</event>
<event>
 7    1  0.3536955E-009  0.1663787E+03  0.7561462E-02  0.1181678E+00
         -1   -1    0    0    0  501 -0.00000000000E+00  0.00000000000E+00  0.57258199635E+02  0.57258199635E+02  0.00000000000E+00 0.  1.
          1   -1    0    0  501    0  0.00000000000E+00 -0.00000000000E+00 -0.49795911811E+03  0.49795911811E+03  0.00000000000E+00 0. -1.
         25    2    1    2    0    0 -0.61242276720E+02  0.11323903255E+03 -0.23584225784E+03  0.29638228730E+03  0.12508874726E+03 0.  0.
          5    1    3    3  502    0  0.35343367751E+02  0.23371324116E+02 -0.90702024446E+02  0.10019831373E+03  0.41800000000E+01 0.  1.
         -5    1    3    3    0  502 -0.96585644471E+02  0.89867708439E+02 -0.14514023340E+03  0.19618397358E+03  0.41800000000E+01 0.  1.
        -11    1    1    2    0    0 -0.14002638702E+02 -0.70031427654E+02 -0.94452610425E+02  0.11841355651E+03  0.00000000000E+00 0.  1.
         11    1    1    2    0    0  0.75244915422E+02 -0.43207604900E+02 -0.11040605021E+03  0.14042147393E+03  0.00000000000E+00 0. -1.
</event>
<event>
 7    1  0.2788485E-009  0.7730746E+02  0.7561462E-02  0.1336871E+00
          3   -1    0    0  501    0  0.00000000000E+00  0.00000000000E+00  0.87877067474E+02  0.87877067474E+02  0.00000000000E+00 0. -1.
         -3   -1    0    0    0  501 -0.00000000000E+00 -0.00000000000E+00 -0.14347736237E+03  0.14347736237E+03  0.00000000000E+00 0.  1.
         25    2    1    2    0    0 -0.18095598103E+02 -0.91176699639E+01 -0.49312404982E+02  0.13597699411E+03  0.12508975604E+03 0.  0.
          5    1    3    3  502    0 -0.18926582523E+01  0.48531006129E+02 -0.57511439529E+02  0.75391503419E+02  0.41800000000E+01 0.  1.
         -5    1    3    3    0  502 -0.16202939851E+02 -0.57648676092E+02  0.81990345472E+01  0.60585490693E+02  0.41800000000E+01 0.  1.
        -11    1    1    2    0    0 -0.12381648073E+02  0.90932989046E+01  0.38358551916E+02  0.41320355747E+02  0.00000000000E+00 0. -1.
         11    1    1    2    0    0  0.30477246176E+02  0.24371059276E-01 -0.44646441828E+02  0.54057079984E+02  0.00000000000E+00 0.  1.
</event>
<event>
 7    1  0.2788485E-009  0.1012231E+03  0.7561462E-02  0.1277745E+00
          1   -1    0    0  501    0  0.00000000000E+00  0.00000000000E+00  0.19465471138E+03  0.19465471138E+03  0.00000000000E+00 0. -1.
         -1   -1    0    0    0  501 -0.00000000000E+00 -0.00000000000E+00 -0.14801865345E+03  0.14801865345E+03  0.00000000000E+00 0.  1.
         25    2    1    2    0    0 -0.97983716084E+01  0.84323596517E+02 -0.75285560890E+02  0.16888415860E+03  0.12508983305E+03 0.  0.
          5    1    3    3  502    0 -0.42238157412E+02  0.46610964900E+02  0.15822652162E+02  0.64995943811E+02  0.41800000000E+01 0. -1.
         -5    1    3    3    0  502  0.32439785804E+02  0.37712631617E+02 -0.91108213052E+02  0.10388821479E+03  0.41800000000E+01 0. -1.
        -11    1    1    2    0    0  0.19453958697E+02 -0.45611182406E+02  0.45189312121E+01  0.49792140029E+02  0.00000000000E+00 0.  1.
         11    1    1    2    0    0 -0.96555870885E+01 -0.38712414112E+02  0.11740268761E+03  0.12399706620E+03  0.00000000000E+00 0. -1.
</event>
<event>
 7    1  0.2788485E-009  0.1331570E+03  0.7561462E-02  0.1222845E+00
         -1   -1    0    0    0  501 -0.00000000000E+00  0.00000000000E+00  0.15670945703E+02  0.15670945703E+02  0.00000000000E+00 0.  1.
          1   -1    0    0  501    0  0.00000000000E+00 -0.00000000000E+00 -0.20805186273E+04  0.20805186273E+04  0.00000000000E+00 0. -1.
         25    2    1    2    0    0 -0.44564890100E+02 -0.12442759361E+03 -0.15193382643E+04  0.15301975745E+04  0.12509036739E+03 0.  0.
          5    1    3    3  502    0 -0.40305217814E+02 -0.83800525812E+02 -0.42433171982E+03  0.43442136176E+03  0.41800000000E+01 0.  1.
         -5    1    3    3    0  502 -0.42596722856E+01 -0.40627067800E+02 -0.10950065445E+04  0.10957762127E+04  0.41800000000E+01 0.  1.
        -11    1    1    2    0    0  0.30550955578E+02  0.85125706211E+02 -0.47910229444E+03  0.48756410377E+03  0.00000000000E+00 0.  1.
         11    1    1    2    0    0  0.14013934521E+02  0.39301887401E+02 -0.66407122864E+02  0.78427894789E+02  0.00000000000E+00 0. -1.
</event>
<event>
 7    1  0.2788485E-009  0.1199125E+03  0.7561462E-02  0.1243241E+00
         -2   -1    0    0    0  501 -0.00000000000E+00  0.00000000000E+00  0.36311161642E+02  0.36311161642E+02  0.00000000000E+00 0.  1.
          2   -1    0    0  501    0  0.00000000000E+00 -0.00000000000E+00 -0.43354305557E+03  0.43354305557E+03  0.00000000000E+00 0. -1.
         25    2    1    2    0    0 -0.22100178352E+02  0.59043839969E+02 -0.24250848197E+03  0.28005766645E+03  0.12508932723E+03 0.  0.
          5    1    3    3  502    0  0.26770847847E+02  0.74325137879E+02 -0.93696450262E+02  0.12262708350E+03  0.41800000000E+01 0. -1.
         -5    1    3    3    0  502 -0.48871026199E+02 -0.15281297909E+02 -0.14881203171E+03  0.15743058295E+03  0.41800000000E+01 0. -1.
        -11    1    1    2    0    0 -0.20805657931E+02 -0.62909561752E+02 -0.84038898081E+02  0.10701880560E+03  0.00000000000E+00 0. -1.
         11    1    1    2    0    0  0.42905836283E+02  0.38657217820E+01 -0.70684513876E+02  0.82777745161E+02  0.00000000000E+00 0.  1.
</event>
<event>
 7    1  0.2788485E-009  0.9569141E+02  0.7561462E-02  0.1289626E+00
          2   -1    0    0  501    0  0.00000000000E+00  0.00000000000E+00  0.31769109238E+03  0.31769109238E+03  0.00000000000E+00 0. -1.
         -2   -1    0    0    0  501 -0.00000000000E+00 -0.00000000000E+00 -0.68477810928E+02  0.68477810928E+02  0.00000000000E+00 0.  1.
         25    2    1    2    0    0 -0.55499912641E+02  0.13143909945E+02  0.27851691058E+02  0.14027175790E+03  0.12508975457E+03 0.  0.
          5    1    3    3  502    0 -0.61152673459E+02 -0.87149024192E+01  0.69275645154E+02  0.92909560363E+02  0.41800000000E+01 0.  1.
         -5    1    3    3    0  502  0.56527608182E+01  0.21858812364E+02 -0.41423954096E+02  0.47362197539E+02  0.41800000000E+01 0.  1.
        -11    1    1    2    0    0 -0.23611517095E+02  0.74545926654E+01  0.41423553091E+02  0.48259563218E+02  0.00000000000E+00 0.  1.
         11    1    1    2    0    0  0.79111429736E+02 -0.20598502610E+02  0.17993803730E+03  0.19763758219E+03  0.00000000000E+00 0. -1.
</event>
<event>
 7    1  0.2788485E-009  0.8963495E+02  0.7561462E-02  0.1303738E+00
         -2   -1    0    0    0  501 -0.00000000000E+00  0.00000000000E+00  0.84032829116E+02  0.84032829116E+02  0.00000000000E+00 0.  1.
          2   -1    0    0  501    0  0.00000000000E+00 -0.00000000000E+00 -0.18789409308E+03  0.18789409308E+03  0.00000000000E+00 0. -1.
         25    2    1    2    0    0  0.12280617291E+02  0.34138585448E+02 -0.11432158287E+03  0.17330439666E+03  0.12509489603E+03 0.  0.
          5    1    3    3  502    0 -0.37110610118E+02  0.27468453614E+02 -0.11424176960E+03  0.12328977106E+03  0.41800000000E+01 0.  1.
         -5    1    3    3    0  502  0.49391227409E+02  0.66701318341E+01 -0.79813271790E-01  0.50014625599E+02  0.41800000000E+01 0.  1.
        -11    1    1    2    0    0  0.30178573945E+02 -0.31736315012E+01 -0.21432715862E+02  0.37150768114E+02  0.00000000000E+00 0. -1.
         11    1    1    2    0    0 -0.42459191236E+02 -0.30964953947E+02  0.31893034770E+02  0.61471757419E+02  0.00000000000E+00 0.  1.
</event>
<event>
 7    1  0.2788485E-009  0.1153519E+03  0.7561462E-02  0.1250968E+00
         -1   -1    0    0    0  501 -0.00000000000E+00  0.00000000000E+00  0.21966398671E+02  0.21966398671E+02  0.00000000000E+00 0.  1.
          1   -1    0    0  501    0  0.00000000000E+00 -0.00000000000E+00 -0.10427243870E+04  0.10427243870E+04  0.00000000000E+00 0. -1.
         25    2    1    2    0    0  0.80950895965E+02  0.37936058419E+02 -0.74590646769E+03  0.76158817628E+03  0.12509156498E+03 0.  0.
          5    1    3    3  502    0  0.61896800800E+02  0.53616486955E+02 -0.72307931584E+03  0.72771361882E+03  0.41800000000E+01 0.  1.
         -5    1    3    3    0  502  0.19054095165E+02 -0.15680428536E+02 -0.22827151846E+02  0.33874557459E+02  0.41800000000E+01 0.  1.
        -11    1    1    2    0    0 -0.57901425466E+02 -0.65713958391E+02 -0.22588185706E+03  0.24226744055E+03  0.00000000000E+00 0. -1.
         11    1    1    2    0    0 -0.23049470499E+02  0.27777899972E+02 -0.48969663575E+02  0.60835168839E+02  0.00000000000E+00 0.  1.
</event>
<event>
 7    1  0.2788485E-009  0.9317832E+02  0.7561462E-02  0.1295332E+00
          1   -1    0    0  501    0  0.00000000000E+00  0.00000000000E+00  0.25590114998E+03  0.25590114998E+03  0.00000000000E+00 0. -1.
         -1   -1    0    0    0  501 -0.00000000000E+00 -0.00000000000E+00 -0.65521548195E+02  0.65521548195E+02  0.00000000000E+00 0.  1.
         25    2    1    2    0    0 -0.33111169208E+02 -0.15737465584E+02  0.37225598230E+02  0.13556512868E+03  0.12509253216E+03 0.  0.
          5    1    3    3  502    0  0.40103590066E+02 -0.28299692682E+02 -0.58273489279E+01  0.49604444737E+02  0.41800000000E+01 0. -1.
         -5    1    3    3    0  502 -0.73214759274E+02  0.12562227098E+02  0.43052947158E+02  0.85960683945E+02  0.41800000000E+01 0. -1.
        -11    1    1    2    0    0 -0.13371524831E+02  0.79691460158E+01 -0.83177126480E+01  0.17649059698E+02  0.00000000000E+00 0.  1.
         11    1    1    2    0    0  0.46482694039E+02  0.77683195682E+01  0.16147171620E+03  0.16820850979E+03  0.00000000000E+00 0. -1.
</event>
<event>
 7    1  0.2788485E-009  0.1072561E+03  0.7561462E-02  0.1265737E+00
         -1   -1    0    0    0  501 -0.00000000000E+00  0.00000000000E+00  0.53972025536E+02  0.53972025536E+02  0.00000000000E+00 0.  1.
          1   -1    0    0  501    0  0.00000000000E+00 -0.00000000000E+00 -0.25021714078E+03  0.25021714078E+03  0.00000000000E+00 0. -1.
         25    2    1    2    0    0 -0.15433515268E+01  0.11559854516E+02 -0.16665738481E+03  0.20869976439E+03  0.12507955698E+03 0.  0.
          5    1    3    3  502    0  0.60658297576E+02  0.41791939225E+01 -0.64057774958E+02  0.88418129697E+02  0.41800000000E+01 0. -1.
         -5    1    3    3    0  502 -0.62201649102E+02  0.73806605932E+01 -0.10259960985E+03  0.12028163469E+03  0.41800000000E+01 0. -1.
        -11    1    1    2    0    0 -0.51780984065E+01 -0.50756793317E+02 -0.16465648745E+02  0.53611401395E+02  0.00000000000E+00 0. -1.
         11    1    1    2    0    0  0.67214499333E+01  0.39196938802E+02 -0.13122081685E+02  0.41878000530E+02  0.00000000000E+00 0.  1.
</event>
<event>
 7    1  0.2788485E-009  0.3038698E+03  0.7561462E-02  0.1083322E+00
          2   -1    0    0  501    0  0.00000000000E+00  0.00000000000E+00  0.57741457286E+03  0.57741457286E+03  0.00000000000E+00 0. -1.
         -2   -1    0    0    0  501 -0.00000000000E+00 -0.00000000000E+00 -0.17463020882E+03  0.17463020882E+03  0.00000000000E+00 0.  1.
         25    2    1    2    0    0  0.66426305570E+02  0.29041136270E+03  0.19940265219E+03  0.37968431125E+03  0.12509014689E+03 0.  0.
          5    1    3    3  502    0  0.30879984704E+02  0.21519386988E+03  0.20137311346E+03  0.29636224172E+03  0.41800000000E+01 0.  1.
         -5    1    3    3    0  502  0.35546320866E+02  0.75217492822E+02 -0.19704612704E+01  0.83322069532E+02  0.41800000000E+01 0.  1.
        -11    1    1    2    0    0 -0.74214102109E+02 -0.16016535402E+03  0.14900444665E+03  0.23100432615E+03  0.00000000000E+00 0.  1.
         11    1    1    2    0    0  0.77877965383E+01 -0.13024600868E+03  0.54377265209E+02  0.14135614427E+03  0.00000000000E+00 0. -1.
</event>
<event>
 7    1  0.2788485E-009  0.7026197E+02  0.7561462E-02  0.1359204E+00
         -1   -1    0    0    0  501 -0.00000000000E+00  0.00000000000E+00  0.12827503197E+03  0.12827503197E+03  0.00000000000E+00 0.  1.
          1   -1    0    0  501    0  0.00000000000E+00 -0.00000000000E+00 -0.78714833049E+02  0.78714833049E+02  0.00000000000E+00 0. -1.
         25    2    1    2    0    0  0.69217537140E+01  0.29244260410E+02  0.54620159522E+02  0.13976279059E+03  0.12508852212E+03 0.  0.
          5    1    3    3  502    0  0.40596110310E+02  0.25535099308E+02  0.82613953420E+02  0.95617065259E+02  0.41800000000E+01 0. -1.
         -5    1    3    3    0  502 -0.33674356596E+02  0.37091611025E+01 -0.27993793898E+02  0.44145725331E+02  0.41800000000E+01 0. -1.
        -11    1    1    2    0    0 -0.24392295920E+02 -0.24590121311E+00 -0.18691406842E+02  0.30731307447E+02  0.00000000000E+00 0. -1.
         11    1    1    2    0    0  0.17470542206E+02 -0.28998359197E+02  0.13631446243E+02  0.36495766984E+02  0.00000000000E+00 0.  1.
</event>
<event>
 7    1  0.2788485E-009  0.8657426E+02  0.7561462E-02  0.1311366E+00
         -1   -1    0    0    0  501 -0.00000000000E+00  0.00000000000E+00  0.45862390154E+02  0.45862390154E+02  0.00000000000E+00 0. -1.
          1   -1    0    0  501    0  0.00000000000E+00 -0.00000000000E+00 -0.27543664939E+03  0.27543664939E+03  0.00000000000E+00 0.  1.
         25    2    1    2    0    0 -0.20958839102E+02  0.26763171023E+02 -0.13789541213E+03  0.18925573530E+03  0.12508816250E+03 0.  0.
          5    1    3    3  502    0  0.37057282502E+02  0.29931628896E+02 -0.10190756732E+02  0.48892417792E+02  0.41800000000E+01 0. -1.
         -5    1    3    3    0  502 -0.58016121604E+02 -0.31684578734E+01 -0.12770465540E+03  0.14036331751E+03  0.41800000000E+01 0. -1.
        -11    1    1    2    0    0  0.25260363744E+02  0.12077437679E+02  0.43802365816E+01  0.28339670956E+02  0.00000000000E+00 0. -1.
         11    1    1    2    0    0 -0.43015246420E+01 -0.38840608701E+02 -0.96059083689E+02  0.10370363329E+03  0.00000000000E+00 0.  1.
</event>
<event>
 7    1  0.3056604E-009  0.2362380E+03  0.7561462E-02  0.1122325E+00
          2   -1    0    0  501    0  0.00000000000E+00  0.00000000000E+00  0.11816761983E+04  0.11816761983E+04  0.00000000000E+00 0. -1.
         -2   -1    0    0    0  501 -0.00000000000E+00 -0.00000000000E+00 -0.64704913551E+02  0.64704913551E+02  0.00000000000E+00 0.  1.
         25    2    1    2    0    0  0.18341710872E+03  0.13740097951E+03  0.32486565255E+03  0.41678474856E+03  0.12510383483E+03 0.  0.
          5    1    3    3  502    0  0.19200697129E+02  0.38021377284E+02  0.15378110781E+03  0.15962579184E+03  0.41800000000E+01 0.  1.
         -5    1    3    3    0  502  0.16421641159E+03  0.99379602228E+02  0.17108454473E+03  0.25715895672E+03  0.41800000000E+01 0.  1.
        -11    1    1    2    0    0 -0.76198156007E+02 -0.20180805049E+02  0.37652828352E+03  0.38469074873E+03  0.00000000000E+00 0. -1.
         11    1    1    2    0    0 -0.10721895272E+03 -0.11722017446E+03  0.41557734870E+03  0.44490561457E+03  0.00000000000E+00 0.  1.
</event>
<event>
 7    1  0.2788485E-009  0.2058486E+03  0.7561462E-02  0.1144896E+00
          1   -1    0    0  501    0  0.00000000000E+00  0.00000000000E+00  0.54596997324E+03  0.54596997324E+03  0.00000000000E+00 0. -1.
         -1   -1    0    0    0  501 -0.00000000000E+00 -0.00000000000E+00 -0.82993862176E+02  0.82993862176E+02  0.00000000000E+00 0.  1.
         25    2    1    2    0    0  0.57161300862E+02  0.16876882543E+03  0.30413395068E+03  0.37402572157E+03  0.12508976653E+03 0.  0.
          5    1    3    3  502    0  0.94708625566E+02  0.10283428390E+03  0.17301423203E+03  0.22247698889E+03  0.41800000000E+01 0. -1.
         -5    1    3    3    0  502 -0.37547324704E+02  0.65934541533E+02  0.13111971865E+03  0.15154873268E+03  0.41800000000E+01 0. -1.
        -11    1    1    2    0    0 -0.55331675172E+02 -0.43041537040E+02  0.80695619869E+02  0.10689224132E+03  0.00000000000E+00 0.  1.
         11    1    1    2    0    0 -0.18296256901E+01 -0.12572728839E+03  0.78146540519E+02  0.14804587252E+03  0.00000000000E+00 0. -1.
</event>
<event>
 7    1  0.2788485E-009  0.1332954E+03  0.7561462E-02  0.1222646E+00
          1   -1    0    0  501    0  0.00000000000E+00  0.00000000000E+00  0.37983852625E+03  0.37983852625E+03  0.00000000000E+00 0. -1.
         -1   -1    0    0    0  501 -0.00000000000E+00 -0.00000000000E+00 -0.56268800772E+02  0.56268800772E+02  0.00000000000E+00 0.  1.
         25    2    1    2    0    0  0.42133289758E+02 -0.72663656851E+02  0.25045684467E+03  0.29228560381E+03  0.12508805706E+03 0.  0.
          5    1    3    3  502    0  0.40399661496E+02  0.23669304816E+02  0.12835140765E+03  0.13668915423E+03  0.41800000000E+01 0.  1.
         -5    1    3    3    0  502  0.17336282614E+01 -0.96332961667E+02  0.12210543702E+03  0.15559644958E+03  0.41800000000E+01 0.  1.
        -11    1    1    2    0    0  0.98001341970E+01  0.70485559127E+02  0.34596721164E+02  0.79127680309E+02  0.00000000000E+00 0.  1.
         11    1    1    2    0    0 -0.51933423955E+02  0.21780977241E+01  0.38516159636E+02  0.64694042898E+02  0.00000000000E+00 0. -1.
</event>
<event>
 7    1  0.2788485E-009  0.1790392E+03  0.7561462E-02  0.1168736E+00
          1   -1    0    0  501    0  0.00000000000E+00  0.00000000000E+00  0.24598152687E+03  0.24598152687E+03  0.00000000000E+00 0. -1.
         -1   -1    0    0    0  501 -0.00000000000E+00 -0.00000000000E+00 -0.18552111081E+03  0.18552111081E+03  0.00000000000E+00 0.  1.
         25    2    1    2    0    0 -0.14461796787E+03  0.28356782669E+02  0.14261790316E+03  0.24022214834E+03  0.12509336711E+03 0.  0.
          5    1    3    3  502    0 -0.51345973984E+02 -0.44656346582E+02  0.23318338672E+02  0.72054254925E+02  0.41800000000E+01 0.  1.
         -5    1    3    3    0  502 -0.93271993887E+02  0.73013129251E+02  0.11929956449E+03  0.16816789341E+03  0.41800000000E+01 0.  1.
        -11    1    1    2    0    0  0.39194658634E+01  0.21691073377E+02 -0.19145117426E+02  0.29195896940E+02  0.00000000000E+00 0.  1.
         11    1    1    2    0    0  0.14069850201E+03 -0.50047856045E+02 -0.63012369672E+02  0.16208459240E+03  0.00000000000E+00 0. -1.
</event>
<event>
 7    1  0.2788485E-009  0.1136410E+03  0.7561462E-02  0.1253972E+00
         -2   -1    0    0    0  501 -0.00000000000E+00  0.00000000000E+00  0.39267590568E+02  0.39267590568E+02  0.00000000000E+00 0. -1.
          2   -1    0    0  501    0  0.00000000000E+00 -0.00000000000E+00 -0.43358099203E+03  0.43358099203E+03  0.00000000000E+00 0.  1.
         25    2    1    2    0    0 -0.59308215930E+00 -0.42015374611E+02 -0.11301207191E+03  0.17374004402E+03  0.12509288968E+03 0.  0.
          5    1    3    3  502    0  0.17345115950E+02  0.39904869135E+02 -0.60738790892E+02  0.74832644929E+02  0.41800000000E+01 0.  1.
         -5    1    3    3    0  502 -0.17938198109E+02 -0.81920243746E+02 -0.52273281020E+02  0.98907399094E+02  0.41800000000E+01 0.  1.
        -11    1    1    2    0    0 -0.44851724518E+02  0.20018020455E+02 -0.10884878303E+03  0.11941715078E+03  0.00000000000E+00 0. -1.
         11    1    1    2    0    0  0.45444806677E+02  0.21997354156E+02 -0.17245254652E+03  0.17969138779E+03  0.00000000000E+00 0.  1.
</event>
<event>
 7    1  0.2788485E-009  0.1570953E+03  0.7561462E-02  0.1192016E+00
         -1   -1    0    0    0  501 -0.00000000000E+00  0.00000000000E+00  0.63951785000E+02  0.63951785000E+02  0.00000000000E+00 0.  1.
          1   -1    0    0  501    0  0.00000000000E+00 -0.00000000000E+00 -0.61822332824E+03  0.61822332824E+03  0.00000000000E+00 0. -1.
         25    2    1    2    0    0  0.93232686641E+02 -0.81462255943E+02 -0.47384244631E+03  0.50547368683E+03  0.12509416912E+03 0.  0.
          5    1    3    3  502    0  0.63285693918E+02  0.66067689614E+01 -0.31466675800E+03  0.32106287459E+03  0.41800000000E+01 0.  1.
         -5    1    3    3    0  502  0.29946992723E+02 -0.88069024904E+02 -0.15917568831E+03  0.18441081224E+03  0.41800000000E+01 0.  1.
        -11    1    1    2    0    0  0.99086589735E+01 -0.13744004421E+02 -0.76537967807E+01  0.18591927962E+02  0.00000000000E+00 0.  1.
         11    1    1    2    0    0 -0.10314134561E+03  0.95206260363E+02 -0.72775300145E+02  0.15810949845E+03  0.00000000000E+00 0. -1.
</event>
<event>
 7    1  0.2788485E-009  0.1042332E+03  0.7561462E-02  0.1271638E+00
         -1   -1    0    0    0  501 -0.00000000000E+00  0.00000000000E+00  0.17604958019E+02  0.17604958019E+02  0.00000000000E+00 0. -1.
          1   -1    0    0  501    0  0.00000000000E+00 -0.00000000000E+00 -0.10779288810E+04  0.10779288810E+04  0.00000000000E+00 0.  1.
         25    2    1    2    0    0 -0.34768927280E+02 -0.70729384842E+02 -0.68898760892E+03  0.70467249881E+03  0.12509149111E+03 0.  0.
          5    1    3    3  502    0 -0.14964816590E+02 -0.90378630745E+02 -0.27835425082E+03  0.29307132917E+03  0.41800000000E+01 0. -1.
         -5    1    3    3    0  502 -0.19804110690E+02  0.19649245904E+02 -0.41063335810E+03  0.41160116964E+03  0.41800000000E+01 0. -1.
        -11    1    1    2    0    0  0.11136331603E+02 -0.26619847082E+01  0.15702931436E+00  0.11451144151E+02  0.00000000000E+00 0. -1.
         11    1    1    2    0    0  0.23632595677E+02  0.73391369550E+02 -0.37149334341E+03  0.37941019610E+03  0.00000000000E+00 0.  1.
</event>
<event>
 7    1  0.2788485E-009  0.1326510E+03  0.7561462E-02  0.1223574E+00
          1   -1    0    0  501    0  0.00000000000E+00  0.00000000000E+00  0.74175769485E+03  0.74175769485E+03  0.00000000000E+00 0. -1.
         -1   -1    0    0    0  501 -0.00000000000E+00 -0.00000000000E+00 -0.32499420797E+02  0.32499420797E+02  0.00000000000E+00 0.  1.
         25    2    1    2    0    0  0.74156379899E+02 -0.82538139650E+02  0.32650229754E+03  0.36682814108E+03  0.12508965430E+03 0.  0.
          5    1    3    3  502    0  0.50638033900E+02 -0.13336428277E+02  0.28095956905E+02  0.59572862873E+02  0.41800000000E+01 0. -1.
         -5    1    3    3    0  502  0.23518345999E+02 -0.69201711373E+02  0.29840634064E+03  0.30725527821E+03  0.41800000000E+01 0. -1.
        -11    1    1    2    0    0 -0.83005498538E+02  0.33137978078E+02  0.23902768473E+03  0.25519065901E+03  0.00000000000E+00 0.  1.
         11    1    1    2    0    0  0.88491186387E+01  0.49400161573E+02  0.14372829178E+03  0.15223831555E+03  0.00000000000E+00 0. -1.
</event>
<event>
 7    1  0.2788485E-009  0.7796383E+02  0.7561462E-02  0.1334931E+00
         -2   -1    0    0    0  501 -0.00000000000E+00  0.00000000000E+00  0.24662708671E+03  0.24662708671E+03  0.00000000000E+00 0.  1.
          2   -1    0    0  501    0  0.00000000000E+00 -0.00000000000E+00 -0.69814660684E+02  0.69814660684E+02  0.00000000000E+00 0. -1.
         25    2    1    2    0    0  0.10402160333E+02 -0.40849999229E+02  0.17476505522E+03  0.21901485210E+03  0.12509098103E+03 0.  0.
          5    1    3    3  502    0  0.83866269292E+01 -0.54726386123E+02  0.18996737373E+03  0.19791510385E+03  0.41800000000E+01 0.  1.
         -5    1    3    3    0  502  0.20155334036E+01  0.13876386894E+02 -0.15202318508E+02  0.21099748249E+02  0.41800000000E+01 0.  1.
        -11    1    1    2    0    0 -0.35668619610E+02 -0.23293004870E+01 -0.21944291764E+02  0.41943152083E+02  0.00000000000E+00 0. -1.
         11    1    1    2    0    0  0.25266459277E+02  0.43179299716E+02  0.23991662572E+02  0.55483743217E+02  0.00000000000E+00 0.  1.
</event>
<event>
 7    1  0.2788485E-009  0.1379189E+03  0.7561462E-02  0.1216157E+00
          2   -1    0    0  501    0  0.00000000000E+00  0.00000000000E+00  0.10567760855E+04  0.10567760855E+04  0.00000000000E+00 0. -1.
         -2   -1    0    0    0  501 -0.00000000000E+00 -0.00000000000E+00 -0.22011076816E+02  0.22011076816E+02  0.00000000000E+00 0.  1.
         25    2    1    2    0    0  0.41021418441E+02  0.83966589821E+02  0.74385191552E+03  0.76006310063E+03  0.12508836772E+03 0.  0.
          5    1    3    3  502    0  0.73555234276E+02  0.14106323201E+02  0.45185063985E+03  0.45803475193E+03  0.41800000000E+01 0. -1.
         -5    1    3    3    0  502 -0.32533815836E+02  0.69860266619E+02  0.29200127567E+03  0.30202834870E+03  0.41800000000E+01 0. -1.
        -11    1    1    2    0    0  0.21351602349E+02 -0.45778534221E+02  0.72267241618E+02  0.88170966476E+02  0.00000000000E+00 0.  1.
         11    1    1    2    0    0 -0.62373020790E+02 -0.38188055600E+02  0.21864585158E+03  0.23055309524E+03  0.00000000000E+00 0. -1.
</event>
<event>
 7    1  0.2788485E-009  0.2406530E+03  0.7561462E-02  0.1119359E+00
         -1   -1    0    0    0  501 -0.00000000000E+00  0.00000000000E+00  0.14003238709E+03  0.14003238709E+03  0.00000000000E+00 0.  1.
          1   -1    0    0  501    0  0.00000000000E+00 -0.00000000000E+00 -0.48284476422E+03  0.48284476422E+03  0.00000000000E+00 0. -1.
         25    2    1    2    0    0  0.13625769515E+03  0.19215497120E+03 -0.19105569543E+03  0.32808308816E+03  0.12508613645E+03 0.  0.
          5    1    3    3  502    0  0.49429173239E+02  0.44868508475E+02 -0.13051770000E+03  0.14665868073E+03  0.41800000000E+01 0.  1.
         -5    1    3    3    0  502  0.86828521912E+02  0.14728646273E+03 -0.60537995434E+02  0.18142440743E+03  0.41800000000E+01 0.  1.
        -11    1    1    2    0    0 -0.71061945027E+02 -0.49669559899E+02 -0.93787524494E+02  0.12772221797E+03  0.00000000000E+00 0. -1.
         11    1    1    2    0    0 -0.65195750124E+02 -0.14248541130E+03 -0.57969157200E+02  0.16707184519E+03  0.00000000000E+00 0.  1.
</event>
<event>
 7    1  0.2788485E-009  0.9702432E+02  0.7561462E-02  0.1286681E+00
         -2   -1    0    0    0  501 -0.00000000000E+00  0.00000000000E+00  0.21873288378E+02  0.21873288378E+02  0.00000000000E+00 0.  1.
          2   -1    0    0  501    0  0.00000000000E+00 -0.00000000000E+00 -0.65781943636E+03  0.65781943636E+03  0.00000000000E+00 0. -1.
         25    2    1    2    0    0  0.17768018254E+02 -0.30326557390E+02 -0.26274576862E+03  0.29311778208E+03  0.12508913897E+03 0.  0.
          5    1    3    3  502    0  0.35989049481E+02  0.20412057249E+02 -0.23352384290E+02  0.47693500770E+02  0.41800000000E+01 0.  1.
         -5    1    3    3    0  502 -0.18221031227E+02 -0.50738614639E+02 -0.23939338433E+03  0.24542428131E+03  0.41800000000E+01 0.  1.
        -11    1    1    2    0    0 -0.38478728299E+02  0.54400597258E+02 -0.21015880095E+03  0.22046940634E+03  0.00000000000E+00 0. -1.
         11    1    1    2    0    0  0.20710710045E+02 -0.24074039868E+02 -0.16304157841E+03  0.16610553632E+03  0.00000000000E+00 0.  1.
</event>
<event>
 7    1  0.3209966E-009  0.1100191E+03  0.7561462E-02  0.1260535E+00
         -1   -1    0    0    0  501 -0.00000000000E+00  0.00000000000E+00  0.51033736290E+02  0.51033736290E+02  0.00000000000E+00 0.  1.
          1   -1    0    0  501    0  0.00000000000E+00 -0.00000000000E+00 -0.28909246852E+03  0.28909246852E+03  0.00000000000E+00 0. -1.
         25    2    1    2    0    0 -0.11200369280E+02  0.53012361606E+02 -0.14780443320E+03  0.20107169944E+03  0.12509164276E+03 0.  0.
          5    1    3    3  502    0 -0.46645133960E+02 -0.23049843143E+02 -0.60508655234E+02  0.79911410633E+02  0.41800000000E+01 0.  1.
         -5    1    3    3    0  502  0.35444764681E+02  0.76062204748E+02 -0.87295777963E+02  0.12116028881E+03  0.41800000000E+01 0.  1.
        -11    1    1    2    0    0  0.13426135744E+02 -0.67673497986E+02 -0.27003823083E+02  0.74088932451E+02  0.00000000000E+00 0.  1.
         11    1    1    2    0    0 -0.22257664646E+01  0.14661136380E+02 -0.63250475953E+02  0.64965572918E+02  0.00000000000E+00 0. -1.
</event>
<event>
 7    1  0.2936431E-009  0.9046055E+02  0.7561462E-02  0.1301740E+00
         -2   -1    0    0    0  501 -0.00000000000E+00  0.00000000000E+00  0.10013468139E+02  0.10013468139E+02  0.00000000000E+00 0.  1.
          2   -1    0    0  501    0  0.00000000000E+00 -0.00000000000E+00 -0.13340327270E+04  0.13340327270E+04  0.00000000000E+00 0. -1.
         25    2    1    2    0    0 -0.28660237318E+02  0.19784319277E+02 -0.87597550797E+03  0.88554635958E+03  0.12508571427E+03 0.  0.
          5    1    3    3  502    0  0.13643784350E+02  0.35845762318E+02 -0.76010181131E+03  0.76108035548E+03  0.41800000000E+01 0. -1.
         -5    1    3    3    0  502 -0.42304021668E+02 -0.16061443041E+02 -0.11587369665E+03  0.12446600410E+03  0.41800000000E+01 0. -1.
        -11    1    1    2    0    0  0.64147510793E+01 -0.54929378627E+02 -0.27752996815E+03  0.28298634046E+03  0.00000000000E+00 0.  1.
         11    1    1    2    0    0  0.22245486239E+02  0.35145059349E+02 -0.17051378276E+03  0.17551349511E+03  0.00000000000E+00 0. -1.
</event>
<event>
 7    1  0.2788485E-009  0.1097727E+03  0.7561462E-02  0.1260991E+00
          2   -1    0    0  501    0  0.00000000000E+00  0.00000000000E+00  0.34920634879E+03  0.34920634879E+03  0.00000000000E+00 0. -1.
         -2   -1    0    0    0  501 -0.00000000000E+00 -0.00000000000E+00 -0.87108619877E+02  0.87108619877E+02  0.00000000000E+00 0.  1.
         25    2    1    2    0    0 -0.27292636482E+01 -0.96747952801E+02  0.25686707393E+03  0.30165550396E+03  0.12509090353E+03 0.  0.
          5    1    3    3  502    0 -0.35372137982E+02 -0.33764761351E+02  0.17729856601E+02  0.52183018977E+02  0.41800000000E+01 0. -1.
         -5    1    3    3    0  502  0.32642874334E+02 -0.62983191450E+02  0.23913721733E+03  0.24947248498E+03  0.41800000000E+01 0. -1.
        -11    1    1    2    0    0 -0.75673341176E+01  0.13131710799E+02 -0.37316942000E+02  0.40277295519E+02  0.00000000000E+00 0.  1.
         11    1    1    2    0    0  0.10296597766E+02  0.83616242002E+02  0.42547596983E+02  0.94382169190E+02  0.00000000000E+00 0. -1.
</event>
<event>
 7    1  0.3962180E-009  0.1385992E+03  0.7561462E-02  0.1215226E+00
          1   -1    0    0  501    0  0.00000000000E+00  0.00000000000E+00  0.36441355016E+03  0.36441355016E+03  0.00000000000E+00 0. -1.
         -1   -1    0    0    0  501 -0.00000000000E+00 -0.00000000000E+00 -0.11442081597E+03  0.11442081597E+03  0.00000000000E+00 0.  1.
         25    2    1    2    0    0  0.18386815110E+02  0.13238177242E+03  0.25576116329E+01  0.18308086286E+03  0.12509617233E+03 0.  0.
          5    1    3    3  502    0 -0.11063380685E+02  0.86903319419E+02  0.58236520045E+02  0.10527844027E+03  0.41800000000E+01 0.  1.
         -5    1    3    3    0  502  0.29450195795E+02  0.45478452997E+02 -0.55678908412E+02  0.77802422593E+02  0.41800000000E+01 0.  1.
        -11    1    1    2    0    0 -0.79620131000E-01 -0.73270727546E+02  0.49635719112E+02  0.88500341616E+02  0.00000000000E+00 0.  1.
         11    1    1    2    0    0 -0.18307194979E+02 -0.59111044871E+02  0.19779940344E+03  0.20725316166E+03  0.00000000000E+00 0. -1.
</event>
<event>
 7    1  0.2788485E-009  0.8750083E+02  0.7561462E-02  0.1309019E+00
         -2   -1    0    0    0  501 -0.00000000000E+00  0.00000000000E+00  0.39856660720E+03  0.39856660720E+03  0.00000000000E+00 0.  1.
          2   -1    0    0  501    0  0.00000000000E+00 -0.00000000000E+00 -0.37857298516E+02  0.37857298516E+02  0.00000000000E+00 0. -1.
         25    2    1    2    0    0 -0.56043028915E+02 -0.91860374261E+01  0.18698300777E+03  0.23202693984E+03  0.12509456920E+03 0.  0.
          5    1    3    3  502    0 -0.15714460510E+02  0.17071080120E+02  0.18193883717E+03  0.18346001994E+03  0.41800000000E+01 0.  1.
         -5    1    3    3    0  502 -0.40328568406E+02 -0.26257117546E+02  0.50441706025E+01  0.48566919900E+02  0.41800000000E+01 0.  1.
        -11    1    1    2    0    0  0.66550965071E+02 -0.22094587847E+02  0.87888041841E+02  0.11243446830E+03  0.00000000000E+00 0. -1.
         11    1    1    2    0    0 -0.10507936155E+02  0.31280625273E+02  0.85838259073E+02  0.91962497576E+02  0.00000000000E+00 0.  1.
</event>
<event>
 7    1  0.2788485E-009  0.3346426E+03  0.7561462E-02  0.1069101E+00
         -2   -1    0    0    0  501 -0.00000000000E+00  0.00000000000E+00  0.31713119559E+02  0.31713119559E+02  0.00000000000E+00 0. -1.
          2   -1    0    0  501    0  0.00000000000E+00 -0.00000000000E+00 -0.39373112708E+04  0.39373112708E+04  0.00000000000E+00 0.  1.
         25    2    1    2    0    0 -0.22922176302E+02 -0.31918710621E+03 -0.25567306827E+04  0.25797140823E+04  0.12508847730E+03 0.  0.
          5    1    3    3  502    0 -0.39872115191E+02 -0.31876934103E+03 -0.24936242393E+04  0.25142360664E+04  0.41800000000E+01 0.  1.
         -5    1    3    3    0  502  0.16949938889E+02 -0.41776517791E+00 -0.63106443430E+02  0.65478015841E+02  0.41800000000E+01 0.  1.
        -11    1    1    2    0    0  0.48944491099E+02  0.27450693106E+03 -0.10729403668E+04  0.11085804658E+04  0.00000000000E+00 0. -1.
         11    1    1    2    0    0 -0.26022314797E+02  0.44680175149E+02 -0.27592710168E+03  0.28072984230E+03  0.00000000000E+00 0.  1.
</event>
<event>
 7    1  0.2788485E-009  0.2019863E+03  0.7561462E-02  0.1148074E+00
         -2   -1    0    0    0  501 -0.00000000000E+00  0.00000000000E+00  0.43563147536E+02  0.43563147536E+02  0.00000000000E+00 0.  1.
          2   -1    0    0  501    0  0.00000000000E+00 -0.00000000000E+00 -0.10512134167E+04  0.10512134167E+04  0.00000000000E+00 0. -1.
         25    2    1    2    0    0  0.14006566370E+02  0.17109929356E+03 -0.69587454049E+03  0.72757118495E+03  0.12508917187E+03 0.  0.
          5    1    3    3  502    0 -0.42766117964E+02  0.14912831372E+02 -0.17487926254E+03  0.18069743288E+03  0.41800000000E+01 0.  1.
         -5    1    3    3    0  502  0.56772684334E+02  0.15618646219E+03 -0.52099527795E+03  0.54687375207E+03  0.41800000000E+01 0.  1.
        -11    1    1    2    0    0 -0.43635700420E+02 -0.44861367839E+02 -0.79393409797E+02  0.10109367040E+03  0.00000000000E+00 0.  1.
         11    1    1    2    0    0  0.29629134050E+02 -0.12623792572E+03 -0.23238231887E+03  0.26611170887E+03  0.00000000000E+00 0. -1.
</event>
<event>
 7    1  0.2788485E-009  0.1110284E+03  0.7561462E-02  0.1258677E+00
         -2   -1    0    0    0  501 -0.00000000000E+00  0.00000000000E+00  0.93031058248E+02  0.93031058248E+02  0.00000000000E+00 0.  1.
          2   -1    0    0  501    0  0.00000000000E+00 -0.00000000000E+00 -0.19096105151E+03  0.19096105151E+03  0.00000000000E+00 0. -1.
         25    2    1    2    0    0 -0.66407158366E+02  0.10570053788E+01 -0.99202646052E+01  0.14197592091E+03  0.12509085709E+03 0.  0.
          5    1    3    3  502    0 -0.99555920370E+02 -0.19704882036E+02 -0.13545943147E+02  0.10247257503E+03  0.41800000000E+01 0. -1.
         -5    1    3    3    0  502  0.33148762004E+02  0.20761887414E+02  0.36256785414E+01  0.39503345887E+02  0.41800000000E+01 0. -1.
        -11    1    1    2    0    0  0.24316414301E+02  0.22313946884E+02 -0.87879343477E+02  0.93872143045E+02  0.00000000000E+00 0. -1.
         11    1    1    2    0    0  0.42090744065E+02 -0.23370952263E+02 -0.13038518157E+00  0.48144045800E+02  0.00000000000E+00 0.  1.
</event>
<event>
 7    1  0.2788485E-009  0.1191048E+03  0.7561462E-02  0.1244581E+00
         -2   -1    0    0    0  501 -0.00000000000E+00  0.00000000000E+00  0.30062682287E+02  0.30062682287E+02  0.00000000000E+00 0.  1.
          2   -1    0    0  501    0  0.00000000000E+00 -0.00000000000E+00 -0.55426772743E+03  0.55426772743E+03  0.00000000000E+00 0. -1.
         25    2    1    2    0    0  0.17096454037E+02 -0.65431692608E+02 -0.34995602789E+03  0.37774565961E+03  0.12509583032E+03 0.  0.
          5    1    3    3  502    0  0.63692784080E+02 -0.35171449239E+02 -0.11402909841E+03  0.13532889296E+03  0.41800000000E+01 0.  1.
         -5    1    3    3    0  502 -0.46596330042E+02 -0.30260243369E+02 -0.23592692948E+03  0.24241676665E+03  0.41800000000E+01 0.  1.
        -11    1    1    2    0    0 -0.47013922016E+02  0.12231787503E+02 -0.93465372426E+02  0.10533613498E+03  0.00000000000E+00 0. -1.
         11    1    1    2    0    0  0.29917467979E+02  0.53199905105E+02 -0.80783644829E+02  0.10124861513E+03  0.00000000000E+00 0.  1.
</event>
<event>
 7    1  0.2788485E-009  0.1012884E+03  0.7561462E-02  0.1277610E+00
         -2   -1    0    0    0  501 -0.00000000000E+00  0.00000000000E+00  0.27090524318E+02  0.27090524318E+02  0.00000000000E+00 0.  1.
          2   -1    0    0  501    0  0.00000000000E+00 -0.00000000000E+00 -0.53252115304E+03  0.53252115304E+03  0.00000000000E+00 0. -1.
         25    2    1    2    0    0  0.37640499152E+02  0.19690026777E+02 -0.22287059826E+03  0.25908034984E+03  0.12508724866E+03 0.  0.
          5    1    3    3  502    0  0.12547930774E+02  0.65154696007E+02 -0.17908175689E+03  0.19102443045E+03  0.41800000000E+01 0. -1.
         -5    1    3    3    0  502  0.25092568378E+02 -0.45464669230E+02 -0.43788841365E+02  0.68055919391E+02  0.41800000000E+01 0. -1.
        -11    1    1    2    0    0  0.21383945361E+01 -0.39499576712E+02 -0.49960012738E+02  0.63724345147E+02  0.00000000000E+00 0.  1.
         11    1    1    2    0    0 -0.39778893688E+02  0.19809549935E+02 -0.23260001773E+03  0.23680698237E+03  0.00000000000E+00 0. -1.
</event>
<event>
 7    1  0.2788485E-009  0.1052282E+03  0.7561462E-02  0.1269671E+00
         -1   -1    0    0    0  501 -0.00000000000E+00  0.00000000000E+00  0.26192897629E+03  0.26192897629E+03  0.00000000000E+00 0.  1.
          1   -1    0    0  501    0  0.00000000000E+00 -0.00000000000E+00 -0.56889440735E+02  0.56889440735E+02  0.00000000000E+00 0. -1.
         25    2    1    2    0    0  0.15755699904E+02  0.46688052698E+02  0.78168829580E+02  0.15552460345E+03  0.12509804161E+03 0.  0.
          5    1    3    3  502    0  0.16876847355E+02 -0.42002030905E+02  0.22505045599E+02  0.50724235373E+02  0.41800000000E+01 0. -1.
         -5    1    3    3    0  502 -0.11211474512E+01  0.88690083603E+02  0.55663783981E+02  0.10480036807E+03  0.41800000000E+01 0. -1.
        -11    1    1    2    0    0 -0.36040662997E+02 -0.42072706324E+02  0.13086717372E+03  0.14211002486E+03  0.00000000000E+00 0.  1.
         11    1    1    2    0    0  0.20284963093E+02 -0.46153463737E+01 -0.39964677540E+01  0.21183788716E+02  0.00000000000E+00 0. -1.
</event>
<event>
 7    1  0.2788485E-009  0.5908721E+02  0.7561462E-02  0.1401703E+00
          2   -1    0    0  501    0  0.00000000000E+00  0.00000000000E+00  0.27795101102E+03  0.27795101102E+03  0.00000000000E+00 0. -1.
         -2   -1    0    0    0  501 -0.00000000000E+00 -0.00000000000E+00 -0.43933998305E+02  0.43933998305E+02  0.00000000000E+00 0.  1.
         25    2    1    2    0    0  0.76797531983E+01  0.12832371640E+02  0.14969524587E+03  0.19565006155E+03  0.12508649638E+03 0.  0.
          5    1    3    3  502    0  0.28063199534E+01 -0.73551419556E+01 -0.21434639193E+02  0.23213997979E+02  0.41800000000E+01 0.  1.
         -5    1    3    3    0  502  0.48734332449E+01  0.20187513595E+02  0.17112988507E+03  0.17243606357E+03  0.41800000000E+01 0.  1.
        -11    1    1    2    0    0 -0.47401031520E+02 -0.77991480422E+01  0.23654667017E+02  0.53546501015E+02  0.00000000000E+00 0.  1.
         11    1    1    2    0    0  0.39721278322E+02 -0.50332235976E+01  0.60667099822E+02  0.72688446758E+02  0.00000000000E+00 0. -1.
</event>
<event>
 7    1  0.2788485E-009  0.8344503E+02  0.7561462E-02  0.1319550E+00
         -1   -1    0    0    0  501 -0.00000000000E+00  0.00000000000E+00  0.18350980840E+03  0.18350980840E+03  0.00000000000E+00 0.  1.
          1   -1    0    0  501    0  0.00000000000E+00 -0.00000000000E+00 -0.85247016056E+02  0.85247016056E+02  0.00000000000E+00 0. -1.
         25    2    1    2    0    0 -0.42427167513E+01  0.59844761260E+02  0.74172324712E+02  0.15731364359E+03  0.12508658046E+03 0.  0.
          5    1    3    3  502    0 -0.40781919359E+01  0.29475936190E+02  0.10774141137E+03  0.11185323682E+03  0.41800000000E+01 0. -1.
         -5    1    3    3    0  502 -0.16452481538E+00  0.30368825070E+02 -0.33569086657E+02  0.45460406769E+02  0.41800000000E+01 0. -1.
        -11    1    1    2    0    0 -0.41409788286E+02 -0.22026624451E+02 -0.13733735489E+01  0.46923649746E+02  0.00000000000E+00 0.  1.
         11    1    1    2    0    0  0.45652505038E+02 -0.37818136809E+02  0.25463841179E+02  0.64519531117E+02  0.00000000000E+00 0. -1.
</event>
<event>
 7    1  0.2788485E-009  0.1174170E+03  0.7561462E-02  0.1247420E+00
          1   -1    0    0  501    0  0.00000000000E+00  0.00000000000E+00  0.10440929857E+03  0.10440929857E+03  0.00000000000E+00 0. -1.
         -1   -1    0    0    0  501 -0.00000000000E+00 -0.00000000000E+00 -0.15708258639E+03  0.15708258639E+03  0.00000000000E+00 0.  1.
         25    2    1    2    0    0  0.32271162736E+02 -0.33046143705E+02 -0.81094948322E+02  0.15605880882E+03  0.12507791816E+03 0.  0.
          5    1    3    3  502    0  0.56949002773E+02  0.30699613917E+02 -0.40753389747E+02  0.76576539406E+02  0.41800000000E+01 0.  1.
         -5    1    3    3    0  502 -0.24677840037E+02 -0.63745757622E+02 -0.40341558574E+02  0.79482269419E+02  0.41800000000E+01 0.  1.
        -11    1    1    2    0    0 -0.47199093640E+02  0.56559991078E+02  0.19927147921E+02  0.76314338466E+02  0.00000000000E+00 0. -1.
         11    1    1    2    0    0  0.14927930904E+02 -0.23513847373E+02  0.84945125820E+01  0.29118737668E+02  0.00000000000E+00 0.  1.
</event>
<event>
 7    1  0.2788485E-009  0.9974763E+02  0.7561462E-02  0.1280828E+00
          1   -1    0    0  501    0  0.00000000000E+00  0.00000000000E+00  0.20893659702E+02  0.20893659702E+02  0.00000000000E+00 0. -1.
         -1   -1    0    0    0  501 -0.00000000000E+00 -0.00000000000E+00 -0.64934701395E+03  0.64934701395E+03  0.00000000000E+00 0.  1.
         25    2    1    2    0    0 -0.10828938087E+02  0.28745284278E+01 -0.49432060758E+03  0.51002521242E+03  0.12508926979E+03 0.  0.
          5    1    3    3  502    0  0.21850779402E+01  0.61989956609E+02 -0.30306516433E+03  0.30937597760E+03  0.41800000000E+01 0.  1.
         -5    1    3    3    0  502 -0.13014016027E+02 -0.59115428181E+02 -0.19125544324E+03  0.20064923482E+03  0.41800000000E+01 0.  1.
        -11    1    1    2    0    0 -0.30755172697E+02 -0.13718745696E+02 -0.22248894451E+02  0.40362085370E+02  0.00000000000E+00 0. -1.
         11    1    1    2    0    0  0.41584110785E+02  0.10844217268E+02 -0.11188385223E+03  0.11985337587E+03  0.00000000000E+00 0.  1.
</event>
<event>
 7    1  0.2788485E-009  0.9041135E+02  0.7561462E-02  0.1301859E+00
          2   -1    0    0  501    0  0.00000000000E+00  0.00000000000E+00  0.58472280096E+03  0.58472280096E+03  0.00000000000E+00 0. -1.
         -2   -1    0    0    0  501 -0.00000000000E+00 -0.00000000000E+00 -0.32691176288E+02  0.32691176288E+02  0.00000000000E+00 0.  1.
         25    2    1    2    0    0 -0.21075693208E+02  0.57498817300E+02  0.44154233386E+03  0.46299040858E+03  0.12510070751E+03 0.  0.
          5    1    3    3  502    0  0.21367305726E+02  0.56562366512E+02  0.39591635613E+03  0.40052852147E+03  0.41800000000E+01 0. -1.
         -5    1    3    3    0  502 -0.42442998934E+02  0.93645078778E+00  0.45625977728E+02  0.62461887117E+02  0.41800000000E+01 0. -1.
        -11    1    1    2    0    0  0.35501336534E+02 -0.29902063091E+02  0.11399935355E+03  0.12308668036E+03  0.00000000000E+00 0. -1.
         11    1    1    2    0    0 -0.14425643326E+02 -0.27596754209E+02 -0.35100627313E+01  0.31336888305E+02  0.00000000000E+00 0.  1.
</event>
<event>
 7    1  0.2788485E-009  0.1010531E+03  0.7561462E-02  0.1278097E+00
         -2   -1    0    0    0  501 -0.00000000000E+00  0.00000000000E+00  0.34109349817E+02  0.34109349817E+02  0.00000000000E+00 0.  1.
          2   -1    0    0  501    0  0.00000000000E+00 -0.00000000000E+00 -0.43506236570E+03  0.43506236570E+03  0.00000000000E+00 0. -1.
         25    2    1    2    0    0 -0.45257357239E+02  0.99461873259E+01 -0.22510748849E+03  0.26166301345E+03  0.12508795387E+03 0.  0.
          5    1    3    3  502    0 -0.59946981732E+02  0.31347559129E+02 -0.49077272134E+02  0.83680111868E+02  0.41800000000E+01 0. -1.
         -5    1    3    3    0  502  0.14689624493E+02 -0.21401371803E+02 -0.17603021636E+03  0.17798290158E+03  0.41800000000E+01 0. -1.
        -11    1    1    2    0    0  0.61227862788E+02  0.27655527604E+02 -0.88782169341E+02  0.11133711412E+03  0.00000000000E+00 0. -1.
         11    1    1    2    0    0 -0.15970505549E+02 -0.37601714930E+02 -0.87063358048E+02  0.96171587945E+02  0.00000000000E+00 0.  1.
</event>
<event>
 7    1  0.2788485E-009  0.1374919E+03  0.7561462E-02  0.1216744E+00
          1   -1    0    0  501    0  0.00000000000E+00  0.00000000000E+00  0.41712830346E+03  0.41712830346E+03  0.00000000000E+00 0. -1.
         -1   -1    0    0    0  501 -0.00000000000E+00 -0.00000000000E+00 -0.60825555632E+02  0.60825555632E+02  0.00000000000E+00 0.  1.
         25    2    1    2    0    0  0.10840568814E+03  0.46261366751E+02  0.21606705535E+03  0.27608750519E+03  0.12508969118E+03 0.  0.
          5    1    3    3  502    0 -0.19461752616E+02  0.13343918842E+02  0.13690176753E+01  0.24003470464E+02  0.41800000000E+01 0.  1.
         -5    1    3    3    0  502  0.12786744076E+03  0.32917447909E+02  0.21469803767E+03  0.25208403472E+03  0.41800000000E+01 0.  1.
        -11    1    1    2    0    0 -0.33054966649E+02 -0.63886534082E+01 -0.44235750860E+01  0.33956055852E+02  0.00000000000E+00 0.  1.
         11    1    1    2    0    0 -0.75350721492E+02 -0.39872713343E+02  0.14465926756E+03  0.16791029805E+03  0.00000000000E+00 0. -1.
</event>
<event>
 7    1  0.2788485E-009  0.1102870E+03  0.7561462E-02  0.1260039E+00
         -3   -1    0    0    0  501 -0.00000000000E+00  0.00000000000E+00  0.96547731977E+02  0.96547731977E+02  0.00000000000E+00 0.  1.
          3   -1    0    0  501    0  0.00000000000E+00 -0.00000000000E+00 -0.15955047106E+03  0.15955047106E+03  0.00000000000E+00 0. -1.
         25    2    1    2    0    0 -0.18750312917E+02  0.29016948640E+02 -0.87039738114E+02  0.15626364132E+03  0.12509537179E+03 0.  0.
          5    1    3    3  502    0 -0.68799536586E+02  0.32218815485E+02 -0.69266574641E+02  0.10289197767E+03  0.41800000000E+01 0.  1.
         -5    1    3    3    0  502  0.50049223669E+02 -0.32018668448E+01 -0.17773163473E+02  0.53371663652E+02  0.41800000000E+01 0.  1.
        -11    1    1    2    0    0  0.53770380153E+02 -0.11414121118E+02  0.25536596305E+02  0.60610673100E+02  0.00000000000E+00 0. -1.
         11    1    1    2    0    0 -0.35020067237E+02 -0.17602827522E+02 -0.14995972695E+01  0.39223888614E+02  0.00000000000E+00 0.  1.
</event>
<event>
 7    1  0.2788485E-009  0.1136644E+03  0.7561462E-02  0.1253931E+00
         -2   -1    0    0    0  501 -0.00000000000E+00  0.00000000000E+00  0.23159949025E+03  0.23159949025E+03  0.00000000000E+00 0.  1.
          2   -1    0    0  501    0  0.00000000000E+00 -0.00000000000E+00 -0.61751902972E+02  0.61751902972E+02  0.00000000000E+00 0. -1.
         25    2    1    2    0    0 -0.23703705989E+01  0.50347259621E+02  0.10622275037E+03  0.17166535753E+03  0.12508100204E+03 0.  0.
          5    1    3    3  502    0  0.33649507422E+02  0.79367010882E+02  0.82992273951E+02  0.11973554903E+03  0.41800000000E+01 0.  1.
         -5    1    3    3    0  502 -0.36019878021E+02 -0.29019751260E+02  0.23230476414E+02  0.51929808495E+02  0.41800000000E+01 0.  1.
        -11    1    1    2    0    0  0.39630644103E+02 -0.12715478411E+02  0.53477738980E+02  0.67765329702E+02  0.00000000000E+00 0.  1.
         11    1    1    2    0    0 -0.37260273504E+02 -0.37631781210E+02  0.10147097934E+02  0.53920705996E+02  0.00000000000E+00 0. -1.
</event>
<event>
 7    1  0.2788485E-009  0.1865688E+03  0.7561462E-02  0.1161593E+00
          1   -1    0    0  501    0  0.00000000000E+00  0.00000000000E+00  0.27817748039E+03  0.27817748039E+03  0.00000000000E+00 0. -1.
         -1   -1    0    0    0  501 -0.00000000000E+00 -0.00000000000E+00 -0.24437047098E+03  0.24437047098E+03  0.00000000000E+00 0.  1.
         25    2    1    2    0    0  0.58301335908E+02 -0.14527384246E+03  0.19549086634E+03  0.27994168681E+03  0.12508850515E+03 0.  0.
          5    1    3    3  502    0 -0.29354986082E+02 -0.72313601843E+02  0.42164171872E+02  0.88804628309E+02  0.41800000000E+01 0. -1.
         -5    1    3    3    0  502  0.87656321990E+02 -0.72960240619E+02  0.15332669447E+03  0.19113705850E+03  0.41800000000E+01 0. -1.
        -11    1    1    2    0    0 -0.61055804424E+02  0.34657824114E+02 -0.61052535030E+02  0.93039712273E+02  0.00000000000E+00 0. -1.
         11    1    1    2    0    0  0.27544685156E+01  0.11061601835E+03 -0.10063132191E+03  0.14956655228E+03  0.00000000000E+00 0.  1.
</event>
<event>
 7    1  0.2788485E-009  0.1380568E+03  0.7561462E-02  0.1215968E+00
         -1   -1    0    0    0  501 -0.00000000000E+00  0.00000000000E+00  0.16286814624E+03  0.16286814624E+03  0.00000000000E+00 0. -1.
          1   -1    0    0  501    0  0.00000000000E+00 -0.00000000000E+00 -0.14890001861E+03  0.14890001861E+03  0.00000000000E+00 0.  1.
         25    2    1    2    0    0  0.77342111616E+02 -0.59066902934E+02  0.60295841572E+02  0.16957080007E+03  0.12509183217E+03 0.  0.
          5    1    3    3  502    0  0.98836199257E+02 -0.15729217390E+02  0.67065688689E+02  0.12054576543E+03  0.41800000000E+01 0. -1.
         -5    1    3    3    0  502 -0.21494087641E+02 -0.43337685544E+02 -0.67698471171E+01  0.49025034644E+02  0.41800000000E+01 0. -1.
        -11    1    1    2    0    0  0.17356058910E+02  0.15008600505E+02 -0.27925389091E+02  0.36143024582E+02  0.00000000000E+00 0.  1.
         11    1    1    2    0    0 -0.94698170526E+02  0.44058302429E+02 -0.18402324847E+02  0.10605434019E+03  0.00000000000E+00 0. -1.
</event>
<event>
 7    1  0.2788485E-009  0.1341298E+03  0.7561462E-02  0.1221453E+00
          1   -1    0    0  501    0  0.00000000000E+00  0.00000000000E+00  0.65569829025E+03  0.65569829025E+03  0.00000000000E+00 0. -1.
         -1   -1    0    0    0  501 -0.00000000000E+00 -0.00000000000E+00 -0.38714883751E+02  0.38714883751E+02  0.00000000000E+00 0.  1.
         25    2    1    2    0    0 -0.17113670194E+02  0.88144895703E+02  0.49305987667E+03  0.51654036735E+03  0.12507401316E+03 0.  0.
          5    1    3    3  502    0 -0.61824631564E+02  0.85485634938E+02  0.39103940238E+03  0.40504242427E+03  0.41800000000E+01 0. -1.
         -5    1    3    3    0  502  0.44710961369E+02  0.26592607646E+01  0.10202047429E+03  0.11149794307E+03  0.41800000000E+01 0. -1.
        -11    1    1    2    0    0  0.28076152840E+01  0.14138182286E+02 -0.24967345959E+01  0.14628895569E+02  0.00000000000E+00 0.  1.
         11    1    1    2    0    0  0.14306054910E+02 -0.10228307799E+03  0.12642026443E+03  0.16324391109E+03  0.00000000000E+00 0. -1.
</event>
<event>
 7    1  0.2788485E-009  0.1150962E+03  0.7561462E-02  0.1251413E+00
          2   -1    0    0  501    0  0.00000000000E+00  0.00000000000E+00  0.18090554424E+03  0.18090554424E+03  0.00000000000E+00 0. -1.
         -2   -1    0    0    0  501 -0.00000000000E+00 -0.00000000000E+00 -0.11755929861E+03  0.11755929861E+03  0.00000000000E+00 0.  1.
         25    2    1    2    0    0 -0.50799023965E+02 -0.72055747337E+02 -0.87535983142E+01  0.15328722120E+03  0.12509106739E+03 0.  0.
          5    1    3    3  502    0 -0.33443170767E+02 -0.98010619377E+00  0.49347173751E+02  0.59766397217E+02  0.41800000000E+01 0.  1.
         -5    1    3    3    0  502 -0.17355853198E+02 -0.71075641143E+02 -0.58100772065E+02  0.93520823984E+02  0.41800000000E+01 0.  1.
        -11    1    1    2    0    0  0.38299478415E+02 -0.10485639367E+02  0.38119499899E+02  0.55044481579E+02  0.00000000000E+00 0. -1.
         11    1    1    2    0    0  0.12499545550E+02  0.82541386704E+02  0.33980344050E+02  0.90133140075E+02  0.00000000000E+00 0.  1.
</event>
<event>
 7    1  0.2788485E-009  0.1170196E+03  0.7561462E-02  0.1248096E+00
         -2   -1    0    0    0  501 -0.00000000000E+00  0.00000000000E+00  0.16844121890E+02  0.16844121890E+02  0.00000000000E+00 0.  1.
          2   -1    0    0  501    0  0.00000000000E+00 -0.00000000000E+00 -0.10334554965E+04  0.10334554965E+04  0.00000000000E+00 0. -1.
         25    2    1    2    0    0  0.14555950807E+01 -0.74809297781E+02 -0.57223052636E+03  0.59050251026E+03  0.12508752751E+03 0.  0.
          5    1    3    3  502    0  0.41620231418E+02 -0.43521931001E+01 -0.37290291107E+03  0.37526689000E+03  0.41800000000E+01 0.  1.
         -5    1    3    3    0  502 -0.40164636337E+02 -0.70457104681E+02 -0.19932761529E+03  0.21523562026E+03  0.41800000000E+01 0.  1.
        -11    1    1    2    0    0 -0.40345173413E+02  0.24553205557E+02 -0.11461581860E+03  0.12396523220E+03  0.00000000000E+00 0.  1.
         11    1    1    2    0    0  0.38889578333E+02  0.50256092224E+02 -0.32976502969E+03  0.33583187596E+03  0.00000000000E+00 0. -1.
</event>
<event>
 7    1  0.2788485E-009  0.1141293E+03  0.7561462E-02  0.1253109E+00
         -1   -1    0    0    0  501 -0.00000000000E+00  0.00000000000E+00  0.57401228749E+02  0.57401228749E+02  0.00000000000E+00 0.  1.
          1   -1    0    0  501    0  0.00000000000E+00 -0.00000000000E+00 -0.22807836512E+03  0.22807836512E+03  0.00000000000E+00 0. -1.
         25    2    1    2    0    0  0.33900771475E+02 -0.10072572161E+02 -0.10304050280E+03  0.16588009390E+03  0.12509253103E+03 0.  0.
          5    1    3    3  502    0 -0.26253770777E+02 -0.50722078411E+02 -0.44512066934E+02  0.72531277537E+02  0.41800000000E+01 0.  1.
         -5    1    3    3    0  502  0.60154542252E+02  0.40649506250E+02 -0.58528435863E+02  0.93348816363E+02  0.41800000000E+01 0.  1.
        -11    1    1    2    0    0 -0.38435342793E+02 -0.35590532459E+02 -0.30895733716E+02  0.60815359394E+02  0.00000000000E+00 0.  1.
         11    1    1    2    0    0  0.45345713179E+01  0.45663104621E+02 -0.36740899853E+02  0.58784140571E+02  0.00000000000E+00 0. -1.
</event>
<event>
 7    1  0.2788485E-009  0.2145948E+03  0.7561462E-02  0.1137978E+00
         -2   -1    0    0    0  501 -0.00000000000E+00  0.00000000000E+00  0.21217089351E+03  0.21217089351E+03  0.00000000000E+00 0. -1.
          2   -1    0    0  501    0  0.00000000000E+00 -0.00000000000E+00 -0.29350958087E+03  0.29350958087E+03  0.00000000000E+00 0.  1.
         25    2    1    2    0    0 -0.51174378089E+02  0.20096460713E+03  0.46663259825E+02  0.24663653014E+03  0.12508608192E+03 0.  0.
          5    1    3    3  502    0  0.15679782561E+02  0.11281081487E+02  0.40860674737E+02  0.45389266580E+02  0.41800000000E+01 0. -1.
         -5    1    3    3    0  502 -0.66854160650E+02  0.18968352564E+03  0.58025850879E+01  0.20124726356E+03  0.41800000000E+01 0. -1.
        -11    1    1    2    0    0  0.28299090510E+02 -0.14618113510E+03 -0.13275896005E+03  0.19948610041E+03  0.00000000000E+00 0.  1.
         11    1    1    2    0    0  0.22875287580E+02 -0.54783472032E+02  0.47570128698E+01  0.59557843826E+02  0.00000000000E+00 0. -1.
</event>
<event>
 7    1  0.2788485E-009  0.1561221E+03  0.7561462E-02  0.1193146E+00
          2   -1    0    0  501    0  0.00000000000E+00  0.00000000000E+00  0.22829472159E+03  0.22829472159E+03  0.00000000000E+00 0. -1.
         -2   -1    0    0    0  501 -0.00000000000E+00 -0.00000000000E+00 -0.12951950146E+03  0.12951950146E+03  0.00000000000E+00 0.  1.
         25    2    1    2    0    0  0.81657348489E+02  0.10073753651E+03  0.78580469236E+02  0.19656438742E+03  0.12508674762E+03 0.  0.
          5    1    3    3  502    0  0.44230819911E+02 -0.22861001856E+02  0.12814621995E+02  0.51581758140E+02  0.41800000000E+01 0. -1.
         -5    1    3    3    0  502  0.37426528578E+02  0.12359853837E+03  0.65765847241E+02  0.14498262928E+03  0.41800000000E+01 0. -1.
        -11    1    1    2    0    0 -0.84737051313E+01 -0.30427546882E+02  0.46682973804E+02  0.56364344502E+02  0.00000000000E+00 0. -1.
         11    1    1    2    0    0 -0.73183643358E+02 -0.70309989632E+02 -0.26488222917E+02  0.10488549113E+03  0.00000000000E+00 0.  1.
</event>
<event>
 7    1  0.2788485E-009  0.1282089E+03  0.7561462E-02  0.1230138E+00
          1   -1    0    0  501    0  0.00000000000E+00  0.00000000000E+00  0.84474027389E+03  0.84474027389E+03  0.00000000000E+00 0. -1.
         -1   -1    0    0    0  501 -0.00000000000E+00 -0.00000000000E+00 -0.28756598220E+02  0.28756598220E+02  0.00000000000E+00 0.  1.
         25    2    1    2    0    0 -0.23881091441E+02 -0.98703384711E+02  0.29716628862E+03  0.33803486208E+03  0.12508836960E+03 0.  0.
          5    1    3    3  502    0  0.24947888987E+01 -0.97947932658E+02  0.10368090530E+03  0.14271378352E+03  0.41800000000E+01 0. -1.
         -5    1    3    3    0  502 -0.26375880339E+02 -0.75545205242E+00  0.19348538332E+03  0.19532107856E+03  0.41800000000E+01 0. -1.
        -11    1    1    2    0    0  0.61947425339E+01  0.11030666866E+03  0.41105737550E+03  0.42564551206E+03  0.00000000000E+00 0. -1.
         11    1    1    2    0    0  0.17686348907E+02 -0.11603283946E+02  0.10776001155E+03  0.10981649796E+03  0.00000000000E+00 0.  1.
</event>
<event>
 7    1  0.2788485E-009  0.1053133E+03  0.7561462E-02  0.1269504E+00
          2   -1    0    0  501    0  0.00000000000E+00  0.00000000000E+00  0.22777213298E+03  0.22777213298E+03  0.00000000000E+00 0. -1.
         -2   -1    0    0    0  501 -0.00000000000E+00 -0.00000000000E+00 -0.68517758022E+02  0.68517758022E+02  0.00000000000E+00 0.  1.
         25    2    1    2    0    0 -0.10198617886E+01 -0.42714571263E+02  0.14165360420E+03  0.19374962865E+03  0.12509036854E+03 0.  0.
          5    1    3    3  502    0  0.59030473112E+02 -0.21549792273E+02  0.42999866522E+02  0.76259105841E+02  0.41800000000E+01 0. -1.
         -5    1    3    3    0  502 -0.60050334900E+02 -0.21164778990E+02  0.98653737681E+02  0.11749052281E+03  0.41800000000E+01 0. -1.
        -11    1    1    2    0    0 -0.34346141465E+02  0.31851443137E+02 -0.18953153271E+02  0.50531117961E+02  0.00000000000E+00 0.  1.
         11    1    1    2    0    0  0.35366003254E+02  0.10863128126E+02  0.36553924030E+02  0.52009144396E+02  0.00000000000E+00 0. -1.
</event>
<event>
 7    1  0.2788485E-009  0.9828711E+02  0.7561462E-02  0.1283940E+00
          1   -1    0    0  501    0  0.00000000000E+00  0.00000000000E+00  0.31856576636E+03  0.31856576636E+03  0.00000000000E+00 0. -1.
         -1   -1    0    0    0  501 -0.00000000000E+00 -0.00000000000E+00 -0.47765993902E+02  0.47765993902E+02  0.00000000000E+00 0.  1.
         25    2    1    2    0    0  0.39567805349E+00 -0.32197626172E+02  0.78532189023E+02  0.15116082579E+03  0.12508176065E+03 0.  0.
          5    1    3    3  502    0 -0.55755937576E+01  0.39686936719E+02 -0.51276584905E+01  0.40619028466E+02  0.41800000000E+01 0.  1.
         -5    1    3    3    0  502  0.59712718111E+01 -0.71884562892E+02  0.83659847514E+02  0.11054179732E+03  0.41800000000E+01 0.  1.
        -11    1    1    2    0    0 -0.16191331148E+02  0.54411648821E+02  0.71142096697E+02  0.91016397722E+02  0.00000000000E+00 0.  1.
         11    1    1    2    0    0  0.15795653094E+02 -0.22214022649E+02  0.12112548673E+03  0.12415453675E+03  0.00000000000E+00 0. -1.
</event>
<event>
 7    1  0.2788485E-009  0.1138515E+03  0.7561462E-02  0.1253599E+00
          3   -1    0    0  501    0  0.00000000000E+00  0.00000000000E+00  0.36456873353E+02  0.36456873353E+02  0.00000000000E+00 0. -1.
         -3   -1    0    0    0  501 -0.00000000000E+00 -0.00000000000E+00 -0.56118025180E+03  0.56118025180E+03  0.00000000000E+00 0.  1.
         25    2    1    2    0    0  0.53939661499E+02 -0.10471717356E+02 -0.44318590639E+03  0.46376501502E+03  0.12508036450E+03 0.  0.
          5    1    3    3  502    0 -0.37347297892E+02 -0.14996085261E+02 -0.19734524814E+03  0.20145054628E+03  0.41800000000E+01 0. -1.
         -5    1    3    3    0  502  0.91286959391E+02  0.45243679050E+01 -0.24584065826E+03  0.26231446874E+03  0.41800000000E+01 0. -1.
        -11    1    1    2    0    0 -0.11356290858E+02 -0.32996153131E+02 -0.59835055461E+02  0.69267202379E+02  0.00000000000E+00 0.  1.
         11    1    1    2    0    0 -0.42583370641E+02  0.43467870487E+02 -0.21702416591E+02  0.64604907752E+02  0.00000000000E+00 0. -1.
</event>
<event>
 7    1  0.2788485E-009  0.1255899E+03  0.7561462E-02  0.1234150E+00
         -1   -1    0    0    0  501 -0.00000000000E+00  0.00000000000E+00  0.27747017863E+03  0.27747017863E+03  0.00000000000E+00 0.  1.
          1   -1    0    0  501    0  0.00000000000E+00 -0.00000000000E+00 -0.80566508381E+02  0.80566508381E+02  0.00000000000E+00 0. -1.
         25    2    1    2    0    0  0.34750405236E+02  0.95936086437E+02  0.11635736159E+03  0.19898855225E+03  0.12508431151E+03 0.  0.
          5    1    3    3  502    0 -0.17272353578E+02  0.92664288610E+02  0.31799774121E+02  0.99567578136E+02  0.41800000000E+01 0. -1.
         -5    1    3    3    0  502  0.52022758814E+02  0.32717978266E+01  0.84557587465E+02  0.99420974113E+02  0.41800000000E+01 0. -1.
        -11    1    1    2    0    0 -0.15198479110E+01 -0.35760022176E+02  0.82867827360E+02  0.90267191909E+02  0.00000000000E+00 0.  1.
         11    1    1    2    0    0 -0.33230557325E+02 -0.60176064261E+02 -0.23215187020E+01  0.68780942849E+02  0.00000000000E+00 0. -1.
</event>
<event>
 7    1  0.2788485E-009  0.1032756E+03  0.7561462E-02  0.1273555E+00
          2   -1    0    0  501    0  0.00000000000E+00  0.00000000000E+00  0.17575248190E+03  0.17575248190E+03  0.00000000000E+00 0.  1.
         -2   -1    0    0    0  501 -0.00000000000E+00 -0.00000000000E+00 -0.10582606823E+03  0.10582606823E+03  0.00000000000E+00 0. -1.
         25    2    1    2    0    0 -0.48579805817E+01  0.52336861090E+02 -0.25806419457E+02  0.13811838129E+03  0.12509184211E+03 0.  0.
          5    1    3    3  502    0 -0.26046699829E+02  0.88428021163E+02 -0.86123325018E+01  0.92680041918E+02  0.41800000000E+01 0. -1.
         -5    1    3    3    0  502  0.21188719248E+02 -0.36091160073E+02 -0.17194086956E+02  0.45438339374E+02  0.41800000000E+01 0. -1.
        -11    1    1    2    0    0 -0.14382383570E+02 -0.50929007036E+02  0.78681887286E+01  0.53502571047E+02  0.00000000000E+00 0. -1.
         11    1    1    2    0    0  0.19240364152E+02 -0.14078540540E+01  0.87864644398E+02  0.89957597794E+02  0.00000000000E+00 0.  1.
</event>
<event>
 7    1  0.2788485E-009  0.9632888E+02  0.7561462E-02  0.1288211E+00
          3   -1    0    0  501    0  0.00000000000E+00  0.00000000000E+00  0.13902625762E+03  0.13902625762E+03  0.00000000000E+00 0. -1.
         -3   -1    0    0    0  501 -0.00000000000E+00 -0.00000000000E+00 -0.13558312183E+03  0.13558312183E+03  0.00000000000E+00 0.  1.
         25    2    1    2    0    0 -0.53751112286E+02 -0.57820291096E+02  0.26373225175E+02  0.15025186103E+03  0.12509079343E+03 0.  0.
          5    1    3    3  502    0 -0.27680695250E+02 -0.49295970687E+02  0.75150954966E+02  0.94135285880E+02  0.41800000000E+01 0. -1.
         -5    1    3    3    0  502 -0.26070417037E+02 -0.85243204090E+01 -0.48777729790E+02  0.56116575149E+02  0.41800000000E+01 0. -1.
        -11    1    1    2    0    0  0.24378375046E+01  0.56847418222E+02  0.16940350039E+02  0.59367899319E+02  0.00000000000E+00 0. -1.
         11    1    1    2    0    0  0.51313274782E+02  0.97287287409E+00 -0.39870439422E+02  0.64989619095E+02  0.00000000000E+00 0.  1.
</event>
<event>
 7    1  0.2788485E-009  0.7420622E+02  0.7561462E-02  0.1346347E+00
          2   -1    0    0  501    0  0.00000000000E+00  0.00000000000E+00  0.19502740470E+03  0.19502740470E+03  0.00000000000E+00 0. -1.
         -2   -1    0    0    0  501 -0.00000000000E+00 -0.00000000000E+00 -0.74847767252E+02  0.74847767252E+02  0.00000000000E+00 0.  1.
         25    2    1    2    0    0  0.11906047448E+02 -0.38379081809E+02  0.10565322356E+03  0.16859368048E+03  0.12508604064E+03 0.  0.
          5    1    3    3  502    0  0.15790608614E+01 -0.41137381599E+02  0.13281225060E+03  0.13910910792E+03  0.41800000000E+01 0. -1.
         -5    1    3    3    0  502  0.10326986587E+02  0.27582997900E+01 -0.27159027033E+02  0.29484572560E+02  0.41800000000E+01 0. -1.
        -11    1    1    2    0    0  0.13471957810E+01 -0.27916257953E+02 -0.95195038733E+01  0.29525469489E+02  0.00000000000E+00 0.  1.
         11    1    1    2    0    0 -0.13253243230E+02  0.66295339762E+02  0.24045917760E+02  0.71756021985E+02  0.00000000000E+00 0. -1.
</event>
<event>
 7    1  0.2788485E-009  0.9865104E+02  0.7561462E-02  0.1283158E+00
         -1   -1    0    0    0  501 -0.00000000000E+00  0.00000000000E+00  0.23678576261E+02  0.23678576261E+02  0.00000000000E+00 0.  1.
          1   -1    0    0  501    0  0.00000000000E+00 -0.00000000000E+00 -0.51570350260E+03  0.51570350260E+03  0.00000000000E+00 0. -1.
         25    2    1    2    0    0 -0.30606236324E+02 -0.90442948021E+01 -0.32151029846E+03  0.34645941963E+03  0.12508683570E+03 0.  0.
          5    1    3    3  502    0 -0.66873108536E+02 -0.34793980712E+02 -0.25793371669E+03  0.26875622475E+03  0.41800000000E+01 0.  1.
         -5    1    3    3    0  502  0.36266872212E+02  0.25749685910E+02 -0.63576581778E+02  0.77703194884E+02  0.41800000000E+01 0.  1.
        -11    1    1    2    0    0  0.64077810617E+01 -0.30282634813E+02 -0.12232836271E+03  0.12618369924E+03  0.00000000000E+00 0. -1.
         11    1    1    2    0    0  0.24198455262E+02  0.39326929615E+02 -0.48186265157E+02  0.66738959984E+02  0.00000000000E+00 0.  1.
</event>
<event>
 7    1  0.2788485E-009  0.1514520E+03  0.7561462E-02  0.1198700E+00
         -1   -1    0    0    0  501 -0.00000000000E+00  0.00000000000E+00  0.22195503372E+03  0.22195503372E+03  0.00000000000E+00 0.  1.
          1   -1    0    0  501    0  0.00000000000E+00 -0.00000000000E+00 -0.12716700447E+03  0.12716700447E+03  0.00000000000E+00 0. -1.
         25    2    1    2    0    0  0.12355810677E+03 -0.13238626027E+02  0.46054892868E+02  0.18223732266E+03  0.12509005415E+03 0.  0.
          5    1    3    3  502    0  0.11381245840E+03 -0.59301683648E+02  0.26641884835E+02  0.13113820114E+03  0.41800000000E+01 0. -1.
         -5    1    3    3    0  502  0.97456483709E+01  0.46063057621E+02  0.19413008032E+02  0.51099121523E+02  0.41800000000E+01 0. -1.
        -11    1    1    2    0    0 -0.58060481327E+02 -0.74705103396E+01 -0.27148740599E+02  0.64528149925E+02  0.00000000000E+00 0. -1.
         11    1    1    2    0    0 -0.65497625444E+02  0.20709136367E+02  0.75881876987E+02  0.10235656561E+03  0.00000000000E+00 0.  1.
</event>
<event>
 7    1  0.2788485E-009  0.1089799E+03  0.7561462E-02  0.1262471E+00
          2   -1    0    0  501    0  0.00000000000E+00  0.00000000000E+00  0.16747634471E+03  0.16747634471E+03  0.00000000000E+00 0.  1.
         -2   -1    0    0    0  501 -0.00000000000E+00 -0.00000000000E+00 -0.10441531598E+03  0.10441531598E+03  0.00000000000E+00 0. -1.
         25    2    1    2    0    0  0.27178316951E+02  0.36164817584E+02  0.95634896167E+02  0.16382908070E+03  0.12508948547E+03 0.  0.
          5    1    3    3  502    0 -0.68865641630E+01  0.71948141843E+02  0.23150142683E+02  0.76008955965E+02  0.41800000000E+01 0.  1.
         -5    1    3    3    0  502  0.34064881114E+02 -0.35783324260E+02  0.72484753484E+02  0.87820124732E+02  0.41800000000E+01 0.  1.
        -11    1    1    2    0    0  0.20387592592E+02  0.15606758108E+02 -0.27426744744E+02  0.37569284763E+02  0.00000000000E+00 0. -1.
         11    1    1    2    0    0 -0.47565909543E+02 -0.51771575692E+02 -0.51471227024E+01  0.70493295230E+02  0.00000000000E+00 0.  1.
</event>
<event>
 7    1  0.4004694E-009  0.1132555E+03  0.7561462E-02  0.1254657E+00
         -1   -1    0    0    0  501 -0.00000000000E+00  0.00000000000E+00  0.43191417040E+02  0.43191417040E+02  0.00000000000E+00 0.  1.
          1   -1    0    0  501    0  0.00000000000E+00 -0.00000000000E+00 -0.34489145120E+03  0.34489145120E+03  0.00000000000E+00 0. -1.
         25    2    1    2    0    0 -0.48293963291E+02 -0.24255707355E+02 -0.15083456312E+03  0.20327195105E+03  0.12509106452E+03 0.  0.
          5    1    3    3  502    0  0.39691703354E+02  0.91490517526E+01 -0.34247176372E+02  0.53380501614E+02  0.41800000000E+01 0. -1.
         -5    1    3    3    0  502 -0.87985666645E+02 -0.33404759107E+02 -0.11658738675E+03  0.14989144944E+03  0.41800000000E+01 0. -1.
        -11    1    1    2    0    0  0.58409009929E+02 -0.66999508622E+01 -0.44964225372E+02  0.74015426404E+02  0.00000000000E+00 0.  1.
         11    1    1    2    0    0 -0.10115046638E+02  0.30955658217E+02 -0.10590124567E+03  0.11079549078E+03  0.00000000000E+00 0. -1.
</event>
<event>
 7    1  0.2788485E-009  0.1232685E+03  0.7561462E-02  0.1237800E+00
          1   -1    0    0  501    0  0.00000000000E+00  0.00000000000E+00  0.30083490404E+03  0.30083490404E+03  0.00000000000E+00 0. -1.
         -1   -1    0    0    0  501 -0.00000000000E+00 -0.00000000000E+00 -0.55498294609E+02  0.55498294609E+02  0.00000000000E+00 0.  1.
         25    2    1    2    0    0 -0.50316217672E+02  0.46415427324E+01  0.82036398642E+02  0.15789497608E+03  0.12509031572E+03 0.  0.
          5    1    3    3  502    0  0.11199300394E+02 -0.50643548396E+02  0.29337987307E+02  0.59735945818E+02  0.41800000000E+01 0. -1.
         -5    1    3    3    0  502 -0.61515518066E+02  0.55285091129E+02  0.52698411334E+02  0.98159030258E+02  0.41800000000E+01 0. -1.
        -11    1    1    2    0    0 -0.27789656338E+02 -0.17049537365E+02  0.60631548616E+02  0.68841385891E+02  0.00000000000E+00 0.  1.
         11    1    1    2    0    0  0.78105874010E+02  0.12407994633E+02  0.10266866217E+03  0.12959683668E+03  0.00000000000E+00 0. -1.
</event>
<event>
 7    1  0.2823206E-009  0.1301028E+03  0.7561462E-02  0.1227303E+00
         -3   -1    0    0    0  501 -0.00000000000E+00  0.00000000000E+00  0.53894122198E+02  0.53894122198E+02  0.00000000000E+00 0.  1.
          3   -1    0    0  501    0  0.00000000000E+00 -0.00000000000E+00 -0.39677467341E+03  0.39677467341E+03  0.00000000000E+00 0. -1.
         25    2    1    2    0    0 -0.35913669492E+01  0.96574429557E+02 -0.16107873510E+03  0.22568727998E+03  0.12509544788E+03 0.  0.
          5    1    3    3  502    0 -0.20362136017E+02 -0.17521054981E+02  0.42952131437E+00  0.27189351580E+02  0.41800000000E+01 0. -1.
         -5    1    3    3    0  502  0.16770769067E+02  0.11409548454E+03 -0.16150825642E+03  0.19849792840E+03  0.41800000000E+01 0. -1.
        -11    1    1    2    0    0 -0.28723101902E+02 -0.70411252953E+02 -0.16193388757E+03  0.17890037750E+03  0.00000000000E+00 0. -1.
         11    1    1    2    0    0  0.32314468851E+02 -0.26163176604E+02 -0.19867928540E+02  0.46081138132E+02  0.00000000000E+00 0.  1.
</event>
<event>
 7    1  0.2788485E-009  0.8690822E+02  0.7561462E-02  0.1310516E+00
         -2   -1    0    0    0  501 -0.00000000000E+00  0.00000000000E+00  0.34803290243E+03  0.34803290243E+03  0.00000000000E+00 0.  1.
          2   -1    0    0  501    0  0.00000000000E+00 -0.00000000000E+00 -0.39522555660E+02  0.39522555660E+02  0.00000000000E+00 0. -1.
         25    2    1    2    0    0 -0.32449693448E+02  0.27733061248E+02  0.17740285558E+03  0.22122823489E+03  0.12509217983E+03 0.  0.
          5    1    3    3  502    0 -0.32918181275E+02  0.63026107335E+02  0.17082773935E+03  0.18508237570E+03  0.41800000000E+01 0. -1.
         -5    1    3    3    0  502  0.46848782765E+00 -0.35293046087E+02  0.65751162282E+01  0.36145859187E+02  0.41800000000E+01 0. -1.
        -11    1    1    2    0    0 -0.78345686038E+01 -0.25526122554E+02  0.12210496227E+03  0.12499034046E+03  0.00000000000E+00 0.  1.
         11    1    1    2    0    0  0.40284262052E+02 -0.22069386934E+01  0.90025289202E+01  0.41336882737E+02  0.00000000000E+00 0. -1.
</event>
<event>
 7    1  0.2788485E-009  0.8987086E+02  0.7561462E-02  0.1303165E+00
          1   -1    0    0  501    0  0.00000000000E+00  0.00000000000E+00  0.50319057777E+03  0.50319057777E+03  0.00000000000E+00 0. -1.
         -1   -1    0    0    0  501 -0.00000000000E+00 -0.00000000000E+00 -0.25108749237E+02  0.25108749237E+02  0.00000000000E+00 0.  1.
         25    2    1    2    0    0  0.25831582730E+01  0.22490080796E+02  0.22426423125E+03  0.25778973458E+03  0.12509446588E+03 0.  0.
          5    1    3    3  502    0  0.43516058377E+02  0.19112054843E+01  0.20199119463E+03  0.20667659556E+03  0.41800000000E+01 0. -1.
         -5    1    3    3    0  502 -0.40932900104E+02  0.20578875312E+02  0.22273036620E+02  0.51113139019E+02  0.41800000000E+01 0. -1.
        -11    1    1    2    0    0  0.33619045043E+02  0.15918852903E+02  0.70066146886E+02  0.79327895515E+02  0.00000000000E+00 0.  1.
         11    1    1    2    0    0 -0.36202203316E+02 -0.38408933699E+02  0.18375145039E+03  0.19118169691E+03  0.00000000000E+00 0. -1.
</event>
<event>
 7    1  0.2788485E-009  0.1376520E+03  0.7561462E-02  0.1216524E+00
          2   -1    0    0  501    0  0.00000000000E+00  0.00000000000E+00  0.75469583248E+03  0.75469583248E+03  0.00000000000E+00 0. -1.
         -2   -1    0    0    0  501 -0.00000000000E+00 -0.00000000000E+00 -0.27692301628E+02  0.27692301628E+02  0.00000000000E+00 0.  1.
         25    2    1    2    0    0 -0.93358218112E+02  0.26241866310E+02  0.42589036551E+03  0.45434930825E+03  0.12508516316E+03 0.  0.
          5    1    3    3  502    0  0.30381679696E+02  0.45280408344E+01  0.11240473422E+03  0.11660122765E+03  0.41800000000E+01 0. -1.
         -5    1    3    3    0  502 -0.12373989781E+03  0.21713825476E+02  0.31348563129E+03  0.33774808060E+03  0.41800000000E+01 0. -1.
        -11    1    1    2    0    0  0.67039556161E+02  0.15917746962E+02  0.23761177219E+03  0.24740054778E+03  0.00000000000E+00 0.  1.
         11    1    1    2    0    0  0.26318661951E+02 -0.42159613272E+02  0.63501393158E+02  0.80638278077E+02  0.00000000000E+00 0. -1.
</event>
<event>
 7    1  0.2788485E-009  0.9784125E+02  0.7561462E-02  0.1284902E+00
          1   -1    0    0  501    0  0.00000000000E+00  0.00000000000E+00  0.57904266176E+02  0.57904266176E+02  0.00000000000E+00 0. -1.
         -1   -1    0    0    0  501 -0.00000000000E+00 -0.00000000000E+00 -0.41721395228E+03  0.41721395228E+03  0.00000000000E+00 0.  1.
         25    2    1    2    0    0  0.78687185743E+02  0.14206588399E+02 -0.76547286905E+02  0.16703239783E+03  0.12508730726E+03 0.  0.
          5    1    3    3  502    0  0.77718161650E+02  0.84787811295E+01  0.11117136837E+02  0.79076327122E+02  0.41800000000E+01 0.  1.
         -5    1    3    3    0  502  0.96902409343E+00  0.57278072697E+01 -0.87664423742E+02  0.87956070705E+02  0.41800000000E+01 0.  1.
        -11    1    1    2    0    0 -0.66293445099E+02  0.23661946102E+02 -0.23784611276E+03  0.24804330653E+03  0.00000000000E+00 0.  1.
         11    1    1    2    0    0 -0.12393740644E+02 -0.37868534501E+02 -0.44916286433E+02  0.60042514099E+02  0.00000000000E+00 0. -1.
</event>
<event>
 7    1  0.2788485E-009  0.1350179E+03  0.7561462E-02  0.1220194E+00
         -2   -1    0    0    0  501 -0.00000000000E+00  0.00000000000E+00  0.57691418757E+03  0.57691418757E+03  0.00000000000E+00 0.  1.
          2   -1    0    0  501    0  0.00000000000E+00 -0.00000000000E+00 -0.36168756206E+02  0.36168756206E+02  0.00000000000E+00 0. -1.
         25    2    1    2    0    0  0.30855326526E+02  0.87643536592E+02  0.32688807944E+03  0.36212748779E+03  0.12508820988E+03 0.  0.
          5    1    3    3  502    0  0.73216824855E+02  0.80348276560E+02  0.26683187504E+03  0.28815494256E+03  0.41800000000E+01 0.  1.
         -5    1    3    3    0  502 -0.42361498329E+02  0.72952600317E+01  0.60056204401E+02  0.73972545222E+02  0.41800000000E+01 0.  1.
        -11    1    1    2    0    0  0.22261902246E+02 -0.44019727691E+02  0.14704871939E+03  0.15510207798E+03  0.00000000000E+00 0.  1.
         11    1    1    2    0    0 -0.53117228772E+02 -0.43623808901E+02  0.66808632530E+02  0.95853378010E+02  0.00000000000E+00 0. -1.
</event>
<event>
 7    1  0.2788485E-009  0.1032530E+03  0.7561462E-02  0.1273600E+00
          3   -1    0    0  501    0  0.00000000000E+00  0.00000000000E+00  0.39240019069E+03  0.39240019069E+03  0.00000000000E+00 0. -1.
         -3   -1    0    0    0  501 -0.00000000000E+00 -0.00000000000E+00 -0.31937356786E+02  0.31937356786E+02  0.00000000000E+00 0.  1.
         25    2    1    2    0    0  0.27389387407E+01 -0.25839443681E+02  0.23124316167E+03  0.26419158053E+03  0.12509441542E+03 0.  0.
          5    1    3    3  502    0 -0.71585380569E+01 -0.74487626629E+02  0.16571341635E+03  0.18187374727E+03  0.41800000000E+01 0.  1.
         -5    1    3    3    0  502  0.98974767975E+01  0.48648182948E+02  0.65529745324E+02  0.82317833264E+02  0.41800000000E+01 0.  1.
        -11    1    1    2    0    0  0.33383211266E+02  0.30622034801E+02  0.29707811748E+02  0.54172888871E+02  0.00000000000E+00 0.  1.
         11    1    1    2    0    0 -0.36122150007E+02 -0.47825911195E+01  0.99511860490E+02  0.10597307808E+03  0.00000000000E+00 0. -1.
</event>
<event>
 7    1  0.2788485E-009  0.8936293E+02  0.7561462E-02  0.1304402E+00
          2   -1    0    0  501    0  0.00000000000E+00  0.00000000000E+00  0.38749864894E+02  0.38749864894E+02  0.00000000000E+00 0. -1.
         -2   -1    0    0    0  501 -0.00000000000E+00 -0.00000000000E+00 -0.32899997662E+03  0.32899997662E+03  0.00000000000E+00 0.  1.
         25    2    1    2    0    0  0.24087414401E+01 -0.12450432778E+02 -0.21819308380E+03  0.25182664822E+03  0.12509046177E+03 0.  0.
          5    1    3    3  502    0 -0.33447959003E+02  0.20660780072E+02 -0.19248903363E+03  0.19650733896E+03  0.41800000000E+01 0. -1.
         -5    1    3    3    0  502  0.35856700443E+02 -0.33111212850E+02 -0.25704050167E+02  0.55319309269E+02  0.41800000000E+01 0. -1.
        -11    1    1    2    0    0 -0.45507526360E+02  0.62000899792E+00 -0.29685226979E+02  0.54337207026E+02  0.00000000000E+00 0.  1.
         11    1    1    2    0    0  0.43098784920E+02  0.11830423780E+02 -0.42371800943E+02  0.61585986260E+02  0.00000000000E+00 0. -1.
</event>
<event>
 7    1  0.2788485E-009  0.1109815E+03  0.7561462E-02  0.1258763E+00
          3   -1    0    0  501    0  0.00000000000E+00  0.00000000000E+00  0.14758571660E+03  0.14758571660E+03  0.00000000000E+00 0. -1.
         -3   -1    0    0    0  501 -0.00000000000E+00 -0.00000000000E+00 -0.12983068085E+03  0.12983068085E+03  0.00000000000E+00 0.  1.
         25    2    1    2    0    0  0.53804085699E+01  0.65455338330E+02  0.56806529516E+02  0.15227533458E+03  0.12508975023E+03 0.  0.
          5    1    3    3  502    0 -0.47682867683E+02  0.40820159278E+01  0.52147288037E+02  0.70902262123E+02  0.41800000000E+01 0. -1.
         -5    1    3    3    0  502  0.53063276253E+02  0.61373322403E+02  0.46592414789E+01  0.81373072454E+02  0.41800000000E+01 0. -1.
        -11    1    1    2    0    0 -0.35464697266E+02 -0.37550172424E+02  0.18147618848E+02  0.54745742036E+02  0.00000000000E+00 0. -1.
         11    1    1    2    0    0  0.30084288696E+02 -0.27905165906E+02 -0.57199112614E+02  0.70395320827E+02  0.00000000000E+00 0.  1.
</event>
<event>
 7    1  0.2788485E-009  0.2323655E+03  0.7561462E-02  0.1124986E+00
          1   -1    0    0  501    0  0.00000000000E+00  0.00000000000E+00  0.17194018939E+04  0.17194018939E+04  0.00000000000E+00 0. -1.
         -1   -1    0    0    0  501 -0.00000000000E+00 -0.00000000000E+00 -0.44062403155E+02  0.44062403155E+02  0.00000000000E+00 0.  1.
         25    2    1    2    0    0  0.20538789160E+03  0.88285550624E+02  0.12310381561E+04  0.12574100023E+04  0.12508576097E+03 0.  0.
          5    1    3    3  502    0  0.41126784472E+02 -0.88020356629E+01  0.50296230888E+03  0.50473502433E+03  0.41800000000E+01 0. -1.
         -5    1    3    3    0  502  0.16426110713E+03  0.97087586286E+02  0.72807584724E+03  0.75267497797E+03  0.41800000000E+01 0. -1.
        -11    1    1    2    0    0 -0.84269496538E+02 -0.46008487358E+01  0.23870932389E+03  0.25318897521E+03  0.00000000000E+00 0.  1.
         11    1    1    2    0    0 -0.12111839506E+03 -0.83684701888E+02  0.20559201077E+03  0.25286531958E+03  0.00000000000E+00 0. -1.
</event>
<event>
 7    1  0.2788485E-009  0.1030316E+03  0.7561462E-02  0.1274047E+00
         -1   -1    0    0    0  501 -0.00000000000E+00  0.00000000000E+00  0.22510215550E+02  0.22510215550E+02  0.00000000000E+00 0.  1.
          1   -1    0    0  501    0  0.00000000000E+00 -0.00000000000E+00 -0.77041809497E+03  0.77041809497E+03  0.00000000000E+00 0. -1.
         25    2    1    2    0    0 -0.40654705933E+02  0.61311350892E+02 -0.43794094622E+03  0.46136347903E+03  0.12510835522E+03 0.  0.
          5    1    3    3  502    0  0.22029698815E+02 -0.19355580720E+02 -0.20284577368E+03  0.20499713762E+03  0.41800000000E+01 0.  1.
         -5    1    3    3    0  502 -0.62684404748E+02  0.80666931612E+02 -0.23509517254E+03  0.25636634141E+03  0.41800000000E+01 0.  1.
        -11    1    1    2    0    0  0.88060854205E+01 -0.21365149792E+02 -0.67504816998E+01  0.24074587624E+02  0.00000000000E+00 0.  1.
         11    1    1    2    0    0  0.31848620513E+02 -0.39946201100E+02 -0.30321645150E+03  0.30749024386E+03  0.00000000000E+00 0. -1.
</event>
<event>
 7    1  0.2788485E-009  0.1460727E+03  0.7561462E-02  0.1205384E+00
          1   -1    0    0  501    0  0.00000000000E+00  0.00000000000E+00  0.13900260476E+03  0.13900260476E+03  0.00000000000E+00 0.  1.
         -1   -1    0    0    0  501 -0.00000000000E+00 -0.00000000000E+00 -0.22155487143E+03  0.22155487143E+03  0.00000000000E+00 0. -1.
         25    2    1    2    0    0  0.11786811979E+03 -0.10321807492E+02  0.27610671689E+02  0.17437777228E+03  0.12508327187E+03 0.  0.
          5    1    3    3  502    0  0.55811772430E+02  0.44755510052E+02  0.51132284126E+02  0.88034041721E+02  0.41800000000E+01 0. -1.
         -5    1    3    3    0  502  0.62056347360E+02 -0.55077317544E+02 -0.23521612437E+02  0.86343730560E+02  0.41800000000E+01 0. -1.
        -11    1    1    2    0    0 -0.54024348362E+02 -0.30097161405E+02 -0.13173485918E+02  0.63229819483E+02  0.00000000000E+00 0.  1.
         11    1    1    2    0    0 -0.63843771427E+02  0.40418968897E+02 -0.96989452438E+02  0.12294988443E+03  0.00000000000E+00 0. -1.
</event>
<event>
 7    1  0.2788485E-009  0.1060285E+03  0.7561462E-02  0.1268106E+00
          4   -1    0    0  501    0  0.00000000000E+00  0.00000000000E+00  0.70988467701E+02  0.70988467701E+02  0.00000000000E+00 0.  1.
         -4   -1    0    0    0  501 -0.00000000000E+00 -0.00000000000E+00 -0.20577636591E+03  0.20577636591E+03  0.00000000000E+00 0. -1.
         25    2    1    2    0    0  0.40794366210E+02 -0.30171929929E+02 -0.98280885509E+02  0.16697607512E+03  0.12508937419E+03 0.  0.
          5    1    3    3  502    0  0.52787489029E+02 -0.58792587326E+02 -0.18481711078E+02  0.81253512951E+02  0.41800000000E+01 0.  1.
         -5    1    3    3    0  502 -0.11993122820E+02  0.28620657397E+02 -0.79799174432E+02  0.85722562169E+02  0.41800000000E+01 0.  1.
        -11    1    1    2    0    0 -0.63761358592E+01 -0.30882443679E+02 -0.18168812216E+01  0.31586096521E+02  0.00000000000E+00 0.  1.
         11    1    1    2    0    0 -0.34418230350E+02  0.61054373608E+02 -0.34690131476E+02  0.78202661968E+02  0.00000000000E+00 0. -1.
</event>
<event>
 7    1  0.2788485E-009  0.9440148E+02  0.7561462E-02  0.1292530E+00
          1   -1    0    0  501    0  0.00000000000E+00  0.00000000000E+00  0.23095230147E+03  0.23095230147E+03  0.00000000000E+00 0. -1.
         -1   -1    0    0    0  501 -0.00000000000E+00 -0.00000000000E+00 -0.86484691632E+02  0.86484691632E+02  0.00000000000E+00 0.  1.
         25    2    1    2    0    0  0.28722344729E+02  0.32034497053E+02 -0.94933780943E+01  0.13262555642E+03  0.12509289308E+03 0.  0.
          5    1    3    3  502    0 -0.12127110290E+02 -0.42656208107E+02  0.89143263033E+01  0.45426385587E+02  0.41800000000E+01 0.  1.
         -5    1    3    3    0  502  0.40849455020E+02  0.74690705161E+02 -0.18407704398E+02  0.87199170833E+02  0.41800000000E+01 0.  1.
        -11    1    1    2    0    0  0.75121199158E+01 -0.19146520400E+02 -0.50809030508E+01  0.21185767980E+02  0.00000000000E+00 0.  1.
         11    1    1    2    0    0 -0.36234464645E+02 -0.12887976653E+02  0.15904189098E+03  0.16362566870E+03  0.00000000000E+00 0. -1.
</event>
<event>
 7    1  0.2788485E-009  0.1021452E+03  0.7561462E-02  0.1275849E+00
          2   -1    0    0  501    0  0.00000000000E+00  0.00000000000E+00  0.34337402947E+03  0.34337402947E+03  0.00000000000E+00 0. -1.
         -2   -1    0    0    0  501 -0.00000000000E+00 -0.00000000000E+00 -0.40690291841E+02  0.40690291841E+02  0.00000000000E+00 0.  1.
         25    2    1    2    0    0 -0.30410816994E+02  0.28329078846E+02  0.14326507295E+03  0.19467803837E+03  0.12508918018E+03 0.  0.
          5    1    3    3  502    0  0.17215922293E+02 -0.25352953137E+02  0.11216868887E+03  0.11635483392E+03  0.41800000000E+01 0.  1.
         -5    1    3    3    0  502 -0.47626739286E+02  0.53682031983E+02  0.31096384079E+02  0.78323204452E+02  0.41800000000E+01 0.  1.
        -11    1    1    2    0    0 -0.32881107202E+02 -0.17551416846E+02  0.70016373711E+02  0.79319052136E+02  0.00000000000E+00 0.  1.
         11    1    1    2    0    0  0.63291924196E+02 -0.10777662001E+02  0.89402290970E+02  0.11006723081E+03  0.00000000000E+00 0. -1.
</event>
<event>
 7    1  0.4276668E-009  0.1126818E+03  0.7561462E-02  0.1255683E+00
         -2   -1    0    0    0  501 -0.00000000000E+00  0.00000000000E+00  0.71175206539E+02  0.71175206539E+02  0.00000000000E+00 0.  1.
          2   -1    0    0  501    0  0.00000000000E+00 -0.00000000000E+00 -0.33613108072E+03  0.33613108072E+03  0.00000000000E+00 0. -1.
         25    2    1    2    0    0  0.90617135841E+02 -0.61210969982E+02 -0.12478015658E+03  0.20778826981E+03  0.12509048501E+03 0.  0.
          5    1    3    3  502    0  0.49164819089E+02 -0.31565493126E+02  0.13711522133E+02  0.60158441067E+02  0.41800000000E+01 0.  1.
         -5    1    3    3    0  502  0.41452316752E+02 -0.29645476856E+02 -0.13849167872E+03  0.14762982875E+03  0.41800000000E+01 0.  1.
        -11    1    1    2    0    0 -0.44819022766E+02  0.52512492823E+02 -0.21966329938E+02  0.72448784359E+02  0.00000000000E+00 0.  1.
         11    1    1    2    0    0 -0.45798113075E+02  0.86984771590E+01 -0.11820938766E+03  0.12706923309E+03  0.00000000000E+00 0. -1.
</event>
<event>
 7    1  0.2788485E-009  0.2059869E+03  0.7561462E-02  0.1144784E+00
         -1   -1    0    0    0  501 -0.00000000000E+00  0.00000000000E+00  0.36076660089E+03  0.36076660089E+03  0.00000000000E+00 0.  1.
          1   -1    0    0  501    0  0.00000000000E+00 -0.00000000000E+00 -0.12747503759E+03  0.12747503759E+03  0.00000000000E+00 0. -1.
         25    2    1    2    0    0 -0.60065311367E+02  0.16604533261E+03  0.59908587228E+02  0.22453324233E+03  0.12508894426E+03 0.  0.
          5    1    3    3  502    0  0.25460843352E+01  0.14896796536E+03  0.26376305194E+02  0.15136419367E+03  0.41800000000E+01 0.  1.
         -5    1    3    3    0  502 -0.62611395702E+02  0.17077367249E+02  0.33532282034E+02  0.73169048664E+02  0.41800000000E+01 0.  1.
        -11    1    1    2    0    0  0.31869271326E+02 -0.25361428111E+01  0.37238726013E+02  0.49079580177E+02  0.00000000000E+00 0. -1.
         11    1    1    2    0    0  0.28196040041E+02 -0.16350918980E+03  0.13614425005E+03  0.21462881597E+03  0.00000000000E+00 0.  1.
</event>
<event>
 7    1  0.2788485E-009  0.7459437E+02  0.7561462E-02  0.1345132E+00
          1   -1    0    0  501    0  0.00000000000E+00  0.00000000000E+00  0.74334528379E+03  0.74334528379E+03  0.00000000000E+00 0. -1.
         -1   -1    0    0    0  501 -0.00000000000E+00 -0.00000000000E+00 -0.18370487212E+02  0.18370487212E+02  0.00000000000E+00 0.  1.
         25    2    1    2    0    0 -0.21930882756E+02  0.16540374153E+02  0.52002288147E+03  0.53556236455E+03  0.12509476998E+03 0.  0.
          5    1    3    3  502    0 -0.36996688410E+02 -0.40946483483E+01  0.39843047539E+02  0.54685116216E+02  0.41800000000E+01 0. -1.
         -5    1    3    3    0  502  0.15065805654E+02  0.20635022501E+02  0.48017983393E+03  0.48087724833E+03  0.41800000000E+01 0. -1.
        -11    1    1    2    0    0 -0.24454624368E+02 -0.28881241331E+02  0.14219601647E+03  0.14714571639E+03  0.00000000000E+00 0. -1.
         11    1    1    2    0    0  0.46385507124E+02  0.12340867178E+02  0.62755898641E+02  0.79007690057E+02  0.00000000000E+00 0.  1.
</event>
<event>
 7    1  0.2788485E-009  0.1004071E+03  0.7561462E-02  0.1279442E+00
         -1   -1    0    0    0  501 -0.00000000000E+00  0.00000000000E+00  0.32084728906E+02  0.32084728906E+02  0.00000000000E+00 0.  1.
          1   -1    0    0  501    0  0.00000000000E+00 -0.00000000000E+00 -0.41793020396E+03  0.41793020396E+03  0.00000000000E+00 0. -1.
         25    2    1    2    0    0 -0.26737113403E+02  0.44009486034E+01 -0.27029733957E+03  0.29906901841E+03  0.12508950560E+03 0.  0.
          5    1    3    3  502    0  0.14102441426E+02 -0.54280984996E+02 -0.12576324192E+03  0.13776490702E+03  0.41800000000E+01 0.  1.
         -5    1    3    3    0  502 -0.40839554829E+02  0.58681933599E+02 -0.14453409765E+03  0.16130411140E+03  0.41800000000E+01 0.  1.
        -11    1    1    2    0    0 -0.16225118890E+02  0.18226817088E+02 -0.95234596660E+02  0.98311239160E+02  0.00000000000E+00 0. -1.
         11    1    1    2    0    0  0.42962232293E+02 -0.22627765692E+02 -0.20313538818E+02  0.52634675292E+02  0.00000000000E+00 0.  1.
</event>
<event>
 7    1  0.2788485E-009  0.1237627E+03  0.7561462E-02  0.1237016E+00
         -2   -1    0    0    0  501 -0.00000000000E+00  0.00000000000E+00  0.13588138520E+03  0.13588138520E+03  0.00000000000E+00 0.  1.
          2   -1    0    0  501    0  0.00000000000E+00 -0.00000000000E+00 -0.16403560682E+03  0.16403560682E+03  0.00000000000E+00 0. -1.
         25    2    1    2    0    0  0.54621446962E+02  0.87093660673E+02 -0.69711393345E+01  0.16206421577E+03  0.12508958810E+03 0.  0.
          5    1    3    3  502    0 -0.12830133204E+02  0.49280215712E+02  0.45585150300E+02  0.68473573782E+02  0.41800000000E+01 0.  1.
         -5    1    3    3    0  502  0.67451580166E+02  0.37813444961E+02 -0.52556289635E+02  0.93590641983E+02  0.41800000000E+01 0.  1.
        -11    1    1    2    0    0 -0.28603542749E+02 -0.53754411101E+00  0.23505408885E+02  0.37026421084E+02  0.00000000000E+00 0.  1.
         11    1    1    2    0    0 -0.26017904213E+02 -0.86556116562E+02 -0.44688491167E+02  0.10082635517E+03  0.00000000000E+00 0. -1.
</event>
<event>
 7    1  0.2788485E-009  0.8050856E+02  0.7561462E-02  0.1327614E+00
         -2   -1    0    0    0  501 -0.00000000000E+00  0.00000000000E+00  0.16860387895E+03  0.16860387895E+03  0.00000000000E+00 0.  1.
          2   -1    0    0  501    0  0.00000000000E+00 -0.00000000000E+00 -0.87347573137E+02  0.87347573137E+02  0.00000000000E+00 0. -1.
         25    2    1    2    0    0  0.41221829493E+01  0.33913244410E+01  0.98895912509E+02  0.15955216437E+03  0.12509195885E+03 0.  0.
          5    1    3    3  502    0 -0.36921069171E+02 -0.46788145103E+02  0.40303974540E+02  0.72070650300E+02  0.41800000000E+01 0. -1.
         -5    1    3    3    0  502  0.41043252121E+02  0.50179469544E+02  0.58591937970E+02  0.87481514067E+02  0.41800000000E+01 0. -1.
        -11    1    1    2    0    0 -0.17689604454E+02  0.71973413700E+01  0.35626196925E+02  0.40422144127E+02  0.00000000000E+00 0.  1.
         11    1    1    2    0    0  0.13567421504E+02 -0.10588665811E+02 -0.53265803619E+02  0.55977143596E+02  0.00000000000E+00 0. -1.
</event>
<event>
 7    1  0.2788485E-009  0.8477502E+02  0.7561462E-02  0.1316022E+00
         -1   -1    0    0    0  501 -0.00000000000E+00  0.00000000000E+00  0.79496842655E+02  0.79496842655E+02  0.00000000000E+00 0.  1.
          1   -1    0    0  501    0  0.00000000000E+00 -0.00000000000E+00 -0.24275461189E+03  0.24275461189E+03  0.00000000000E+00 0. -1.
         25    2    1    2    0    0  0.21468714352E+02  0.96201279625E+01 -0.18559600825E+03  0.22504917015E+03  0.12509115935E+03 0.  0.
          5    1    3    3  502    0  0.12377419818E+02 -0.54043096866E+02 -0.12403409667E+03  0.13592566489E+03  0.41800000000E+01 0.  1.
         -5    1    3    3    0  502  0.90912945333E+01  0.63663224828E+02 -0.61561911585E+02  0.89123505260E+02  0.41800000000E+01 0.  1.
        -11    1    1    2    0    0  0.43675594996E+01  0.13898063948E+02 -0.30533043787E+02  0.33830437780E+02  0.00000000000E+00 0. -1.
         11    1    1    2    0    0 -0.25836273851E+02 -0.23518191911E+02  0.52871282807E+02  0.63371846611E+02  0.00000000000E+00 0.  1.
</event>
<event>
 7    1  0.2788485E-009  0.6316850E+02  0.7561462E-02  0.1384996E+00
          1   -1    0    0  501    0  0.00000000000E+00  0.00000000000E+00  0.51686056006E+03  0.51686056006E+03  0.00000000000E+00 0. -1.
         -1   -1    0    0    0  501 -0.00000000000E+00 -0.00000000000E+00 -0.23953081569E+02  0.23953081569E+02  0.00000000000E+00 0.  1.
         25    2    1    2    0    0  0.15011680880E+02 -0.16624430021E+02  0.30512564578E+03  0.33053165592E+03  0.12509114125E+03 0.  0.
          5    1    3    3  502    0  0.36992562257E+01 -0.18740059692E+02 -0.49852114053E+01  0.20179174082E+02  0.41800000000E+01 0. -1.
         -5    1    3    3    0  502  0.11312424654E+02  0.21156296707E+01  0.31011085719E+03  0.31035248184E+03  0.41800000000E+01 0. -1.
        -11    1    1    2    0    0 -0.58672316535E+01 -0.38356657279E+02  0.72363883716E+02  0.82110835042E+02  0.00000000000E+00 0.  1.
         11    1    1    2    0    0 -0.91444492260E+01  0.54981087300E+02  0.11541794899E+03  0.12817115066E+03  0.00000000000E+00 0. -1.
</event>
<event>
 7    1  0.2788485E-009  0.1034265E+03  0.7561462E-02  0.1273251E+00
         -2   -1    0    0    0  501 -0.00000000000E+00  0.00000000000E+00  0.91614235651E+01  0.91614235651E+01  0.00000000000E+00 0. -1.
          2   -1    0    0  501    0  0.00000000000E+00 -0.00000000000E+00 -0.21473677689E+04  0.21473677689E+04  0.00000000000E+00 0.  1.
         25    2    1    2    0    0 -0.28199109995E+02  0.18914321445E+02 -0.18035641532E+04  0.18082150470E+04  0.12508021420E+03 0.  0.
          5    1    3    3  502    0 -0.14130601047E+02 -0.44481947054E+02 -0.12436034981E+04  0.12444860185E+04  0.41800000000E+01 0.  1.
         -5    1    3    3    0  502 -0.14068508948E+02  0.63396268499E+02 -0.55996065513E+03  0.56372902843E+03  0.41800000000E+01 0.  1.
        -11    1    1    2    0    0  0.35860681307E+02  0.29172232085E+02 -0.19572735476E+03  0.20111241879E+03  0.00000000000E+00 0. -1.
         11    1    1    2    0    0 -0.76615713118E+01 -0.48086553530E+02 -0.13891483732E+03  0.14720172667E+03  0.00000000000E+00 0.  1.
</event>
<event>
 7    1  0.2788485E-009  0.1293399E+03  0.7561462E-02  0.1228438E+00
         -2   -1    0    0    0  501 -0.00000000000E+00  0.00000000000E+00  0.87943001554E+02  0.87943001554E+02  0.00000000000E+00 0.  1.
          2   -1    0    0  501    0  0.00000000000E+00 -0.00000000000E+00 -0.29349149601E+03  0.29349149601E+03  0.00000000000E+00 0. -1.
         25    2    1    2    0    0 -0.41717122160E+02  0.11030100773E+03 -0.73431320354E+02  0.18694076012E+03  0.12509219959E+03 0.  0.
          5    1    3    3  502    0 -0.12960624633E+02  0.10689486987E+02 -0.81068654826E+02  0.82896574828E+02  0.41800000000E+01 0.  1.
         -5    1    3    3    0  502 -0.28756497526E+02  0.99611520745E+02  0.76373344717E+01  0.10404418529E+03  0.41800000000E+01 0.  1.
        -11    1    1    2    0    0  0.31601048104E+02 -0.11969660722E+03 -0.98668864634E+02  0.15830808213E+03  0.00000000000E+00 0. -1.
         11    1    1    2    0    0  0.10116074055E+02  0.93955994868E+01 -0.33448309472E+02  0.36185655315E+02  0.00000000000E+00 0.  1.
</event>
<event>
 7    1  0.2788485E-009  0.8411508E+02  0.7561462E-02  0.1317763E+00
          1   -1    0    0  501    0  0.00000000000E+00  0.00000000000E+00  0.44610416657E+03  0.44610416657E+03  0.00000000000E+00 0. -1.
         -1   -1    0    0    0  501 -0.00000000000E+00 -0.00000000000E+00 -0.35403167285E+02  0.35403167285E+02  0.00000000000E+00 0.  1.
         25    2    1    2    0    0  0.29093713261E+02 -0.42717956621E+02  0.33109983271E+03  0.35769424543E+03  0.12508719369E+03 0.  0.
          5    1    3    3  502    0 -0.47702993593E+01 -0.66143143788E+02  0.83758979557E+02  0.10691449987E+03  0.41800000000E+01 0. -1.
         -5    1    3    3    0  502  0.33864012620E+02  0.23425187167E+02  0.24734085315E+03  0.25077974556E+03  0.41800000000E+01 0. -1.
        -11    1    1    2    0    0 -0.22944557101E+02  0.67659834859E+01 -0.10863287117E+02  0.26272461630E+02  0.00000000000E+00 0.  1.
         11    1    1    2    0    0 -0.61491561601E+01  0.35951973135E+02  0.90464453695E+02  0.97540626798E+02  0.00000000000E+00 0. -1.
</event>
<event>
 7    1  0.2788485E-009  0.1571382E+03  0.7561462E-02  0.1191966E+00
          2   -1    0    0  501    0  0.00000000000E+00  0.00000000000E+00  0.65390096136E+03  0.65390096136E+03  0.00000000000E+00 0. -1.
         -2   -1    0    0    0  501 -0.00000000000E+00 -0.00000000000E+00 -0.48268599426E+02  0.48268599426E+02  0.00000000000E+00 0.  1.
         25    2    1    2    0    0 -0.74703568921E+02 -0.11826126111E+03  0.29672144308E+03  0.35108025146E+03  0.12508948435E+03 0.  0.
          5    1    3    3  502    0  0.13051539078E+01  0.24848095135E+01 -0.10871992491E+02  0.11981248924E+02  0.41800000000E+01 0. -1.
         -5    1    3    3    0  502 -0.76008722829E+02 -0.12074607062E+03  0.30759343557E+03  0.33909900254E+03  0.41800000000E+01 0. -1.
        -11    1    1    2    0    0 -0.21028307408E+02  0.27179446193E+02  0.55000934113E+02  0.64853795271E+02  0.00000000000E+00 0.  1.
         11    1    1    2    0    0  0.95731876329E+02  0.91081814914E+02  0.25390998474E+03  0.28623551405E+03  0.00000000000E+00 0. -1.
</event>
<event>
 7    1  0.2788485E-009  0.9979456E+02  0.7561462E-02  0.1280729E+00
         -2   -1    0    0    0  501 -0.00000000000E+00  0.00000000000E+00  0.13874382516E+03  0.13874382516E+03  0.00000000000E+00 0.  1.
          2   -1    0    0  501    0  0.00000000000E+00 -0.00000000000E+00 -0.11524803837E+03  0.11524803837E+03  0.00000000000E+00 0. -1.
         25    2    1    2    0    0  0.43842371827E+02  0.44680566635E+02  0.38115057334E+02  0.14497827410E+03  0.12508971086E+03 0.  0.
          5    1    3    3  502    0  0.45829142426E+02 -0.30330954695E+02  0.42645341757E+02  0.69687693905E+02  0.41800000000E+01 0.  1.
         -5    1    3    3    0  502 -0.19867705998E+01  0.75011521330E+02 -0.45302844234E+01  0.75290580198E+02  0.41800000000E+01 0.  1.
        -11    1    1    2    0    0 -0.27369578507E+02 -0.70829493140E+01 -0.48267028113E+02  0.55937179063E+02  0.00000000000E+00 0. -1.
         11    1    1    2    0    0 -0.16472793319E+02 -0.37597617321E+02  0.33647757569E+02  0.53076410366E+02  0.00000000000E+00 0.  1.
</event>
<event>
 7    1  0.2788485E-009  0.1204507E+03  0.7561462E-02  0.1242355E+00
         -3   -1    0    0    0  501 -0.00000000000E+00  0.00000000000E+00  0.10688724922E+03  0.10688724922E+03  0.00000000000E+00 0.  1.
          3   -1    0    0  501    0  0.00000000000E+00 -0.00000000000E+00 -0.19883791606E+03  0.19883791606E+03  0.00000000000E+00 0. -1.
         25    2    1    2    0    0 -0.85526586440E+02 -0.34770738243E+02 -0.23358141790E+02  0.15721644568E+03  0.12509039443E+03 0.  0.
          5    1    3    3  502    0  0.54933083909E+01  0.10650603987E+02 -0.50321081330E+02  0.51896969358E+02  0.41800000000E+01 0. -1.
         -5    1    3    3    0  502 -0.91019894831E+02 -0.45421342230E+02  0.26962939540E+02  0.10531947633E+03  0.41800000000E+01 0. -1.
        -11    1    1    2    0    0  0.27675065538E+01  0.43131028652E+02 -0.44080310943E+01  0.43443934711E+02  0.00000000000E+00 0.  1.
         11    1    1    2    0    0  0.82759079886E+02 -0.83602904084E+01 -0.64184493956E+02  0.10506478489E+03  0.00000000000E+00 0. -1.
</event>
<event>
 7    1  0.2788485E-009  0.1093963E+03  0.7561462E-02  0.1261692E+00
          1   -1    0    0  501    0  0.00000000000E+00  0.00000000000E+00  0.19689650174E+03  0.19689650174E+03  0.00000000000E+00 0. -1.
         -1   -1    0    0    0  501 -0.00000000000E+00 -0.00000000000E+00 -0.97970004638E+02  0.97970004638E+02  0.00000000000E+00 0.  1.
         25    2    1    2    0    0 -0.27945557749E+02 -0.72464092482E+02  0.95574994890E+02  0.17553561236E+03  0.12508466197E+03 0.  0.
          5    1    3    3  502    0  0.35430968367E+01 -0.99146084062E+02  0.42093458752E+02  0.10785096750E+03  0.41800000000E+01 0. -1.
         -5    1    3    3    0  502 -0.31488654586E+02  0.26681991580E+02  0.53481536138E+02  0.67684644862E+02  0.41800000000E+01 0. -1.
        -11    1    1    2    0    0  0.15797548201E+02  0.50476677811E+02 -0.41965606682E+02  0.67517180600E+02  0.00000000000E+00 0.  1.
         11    1    1    2    0    0  0.12148009549E+02  0.21987414671E+02  0.45317108893E+02  0.51813713420E+02  0.00000000000E+00 0. -1.
</event>
<event>
 7    1  0.2788485E-009  0.3624606E+03  0.7561462E-02  0.1057614E+00
         -2   -1    0    0    0  501 -0.00000000000E+00  0.00000000000E+00  0.15108186942E+03  0.15108186942E+03  0.00000000000E+00 0.  1.
          2   -1    0    0  501    0  0.00000000000E+00 -0.00000000000E+00 -0.97493571124E+03  0.97493571124E+03  0.00000000000E+00 0. -1.
         25    2    1    2    0    0  0.31482186489E+03 -0.16403453625E+03 -0.56058384085E+03  0.67521791753E+03  0.12507940615E+03 0.  0.
          5    1    3    3  502    0  0.28489009044E+03 -0.17310954293E+03 -0.54758567835E+03  0.64109034076E+03  0.41800000000E+01 0.  1.
         -5    1    3    3    0  502  0.29931774448E+02  0.90750066817E+01 -0.12998162500E+02  0.34127576771E+02  0.41800000000E+01 0.  1.
        -11    1    1    2    0    0 -0.22055580184E+03  0.14459878033E+03 -0.22691424556E+03  0.34791341428E+03  0.00000000000E+00 0. -1.
         11    1    1    2    0    0 -0.94266063047E+02  0.19435755917E+02 -0.36355755414E+02  0.10288624885E+03  0.00000000000E+00 0.  1.
</event>
<event>
 7    1  0.2788485E-009  0.8677121E+02  0.7561462E-02  0.1310865E+00
         -1   -1    0    0    0  501 -0.00000000000E+00  0.00000000000E+00  0.14270186243E+02  0.14270186243E+02  0.00000000000E+00 0.  1.
          1   -1    0    0  501    0  0.00000000000E+00 -0.00000000000E+00 -0.95680295646E+03  0.95680295646E+03  0.00000000000E+00 0. -1.
         25    2    1    2    0    0  0.18423935725E+02 -0.33024511194E+01 -0.78261069630E+03  0.79276507363E+03  0.12508641979E+03 0.  0.
          5    1    3    3  502    0  0.55850734532E+02 -0.90000744315E+01 -0.69401140825E+03  0.69632579520E+03  0.41800000000E+01 0.  1.
         -5    1    3    3    0  502 -0.37426798807E+02  0.56976233120E+01 -0.88599288054E+02  0.96439278429E+02  0.41800000000E+01 0.  1.
        -11    1    1    2    0    0 -0.32323524023E+02 -0.29086306314E+02 -0.93386629442E+02  0.10301400865E+03  0.00000000000E+00 0. -1.
         11    1    1    2    0    0  0.13899588298E+02  0.32388757434E+02 -0.66535444476E+02  0.75294060420E+02  0.00000000000E+00 0.  1.
</event>
<event>
 7    1  0.2788485E-009  0.1317618E+03  0.7561462E-02  0.1224865E+00
         -2   -1    0    0    0  501 -0.00000000000E+00  0.00000000000E+00  0.92896606582E+02  0.92896606582E+02  0.00000000000E+00 0.  1.
          2   -1    0    0  501    0  0.00000000000E+00 -0.00000000000E+00 -0.34987183699E+03  0.34987183699E+03  0.00000000000E+00 0. -1.
         25    2    1    2    0    0 -0.80759094830E+02 -0.66103071522E+02 -0.14788116338E+02  0.16357824741E+03  0.12508999632E+03 0.  0.
          5    1    3    3  502    0 -0.33265803364E+02  0.17731591115E+02 -0.48359880971E+02  0.61458713658E+02  0.41800000000E+01 0. -1.
         -5    1    3    3    0  502 -0.47493291466E+02 -0.83834662637E+02  0.33571764633E+02  0.10211953375E+03  0.41800000000E+01 0. -1.
        -11    1    1    2    0    0  0.91907421972E+02  0.38987611530E+02 -0.13400475705E+03  0.16710560427E+03  0.00000000000E+00 0.  1.
         11    1    1    2    0    0 -0.11148327142E+02  0.27115459992E+02 -0.10818235702E+03  0.11208459189E+03  0.00000000000E+00 0. -1.
</event>
<event>
 7    1  0.2788485E-009  0.9557264E+02  0.7561462E-02  0.1289892E+00
          1   -1    0    0  501    0  0.00000000000E+00  0.00000000000E+00  0.78528526765E+02  0.78528526765E+02  0.00000000000E+00 0. -1.
         -1   -1    0    0    0  501 -0.00000000000E+00 -0.00000000000E+00 -0.23888208079E+03  0.23888208079E+03  0.00000000000E+00 0.  1.
         25    2    1    2    0    0 -0.48764388565E+02  0.65008644628E+02 -0.10460099669E+03  0.18219119992E+03  0.12509266706E+03 0.  0.
          5    1    3    3  502    0 -0.28595033448E+02  0.44012380604E+02 -0.13192572333E+03  0.14204448057E+03  0.41800000000E+01 0. -1.
         -5    1    3    3    0  502 -0.20169355117E+02  0.20996264024E+02  0.27324726640E+02  0.40146719352E+02  0.41800000000E+01 0. -1.
        -11    1    1    2    0    0  0.61009919159E+02 -0.22799628494E+02 -0.63071772098E+02  0.90664666386E+02  0.00000000000E+00 0.  1.
         11    1    1    2    0    0 -0.12245530594E+02 -0.42209016134E+02  0.73192147661E+01  0.44554741244E+02  0.00000000000E+00 0. -1.
</event>
<event>
 7    1  0.2788485E-009  0.1458760E+03  0.7561462E-02  0.1205634E+00
         -2   -1    0    0    0  501 -0.00000000000E+00  0.00000000000E+00  0.59361461180E+02  0.59361461180E+02  0.00000000000E+00 0.  1.
          2   -1    0    0  501    0  0.00000000000E+00 -0.00000000000E+00 -0.57804759926E+03  0.57804759926E+03  0.00000000000E+00 0. -1.
         25    2    1    2    0    0  0.11812670247E+03 -0.32298608012E+01 -0.11228164894E+03  0.20547205404E+03  0.12508895421E+03 0.  0.
          5    1    3    3  502    0 -0.12559406452E+02  0.30148777757E+02 -0.41854214306E+02  0.53253498907E+02  0.41800000000E+01 0.  1.
         -5    1    3    3    0  502  0.13068610892E+03 -0.33378638558E+02 -0.70427434634E+02  0.15221855513E+03  0.41800000000E+01 0.  1.
        -11    1    1    2    0    0 -0.71188256697E+02 -0.16315512131E+02 -0.11572298329E+03  0.13684214515E+03  0.00000000000E+00 0.  1.
         11    1    1    2    0    0 -0.46938445772E+02  0.19545372932E+02 -0.29068150585E+03  0.29509486125E+03  0.00000000000E+00 0. -1.
</event>
<event>
 7    1  0.2788485E-009  0.9971418E+02  0.7561462E-02  0.1280898E+00
         -1   -1    0    0    0  501 -0.00000000000E+00  0.00000000000E+00  0.62846161868E+02  0.62846161868E+02  0.00000000000E+00 0.  1.
          1   -1    0    0  501    0  0.00000000000E+00 -0.00000000000E+00 -0.22235419602E+03  0.22235419602E+03  0.00000000000E+00 0. -1.
         25    2    1    2    0    0 -0.42151145337E+02  0.20417044722E+01 -0.10512777777E+03  0.16876277945E+03  0.12509251960E+03 0.  0.
          5    1    3    3  502    0 -0.16205155121E+02 -0.61180146432E+02 -0.46896313525E+02  0.78881899015E+02  0.41800000000E+01 0. -1.
         -5    1    3    3    0  502 -0.25945990216E+02  0.63221850905E+02 -0.58231464248E+02  0.89880880439E+02  0.41800000000E+01 0. -1.
        -11    1    1    2    0    0  0.51292644005E+02 -0.13341593853E+02  0.69096067522E+01  0.53447882287E+02  0.00000000000E+00 0.  1.
         11    1    1    2    0    0 -0.91414986675E+01  0.11299889381E+02 -0.61289863131E+02  0.62989696146E+02  0.00000000000E+00 0. -1.
</event>
<event>
 7    1  0.2788485E-009  0.1405808E+03  0.7561462E-02  0.1212550E+00
         -3   -1    0    0    0  501 -0.00000000000E+00  0.00000000000E+00  0.21612722531E+03  0.21612722531E+03  0.00000000000E+00 0.  1.
          3   -1    0    0  501    0  0.00000000000E+00 -0.00000000000E+00 -0.10402074797E+03  0.10402074797E+03  0.00000000000E+00 0. -1.
         25    2    1    2    0    0  0.55706403972E+02 -0.79236218757E+02  0.22207893615E+02  0.15975681470E+03  0.12508983770E+03 0.  0.
          5    1    3    3  502    0 -0.34513784713E+02 -0.52203733259E+02  0.18565089990E+02  0.65410748870E+02  0.41800000000E+01 0.  1.
         -5    1    3    3    0  502  0.90220188685E+02 -0.27032485498E+02  0.36428036248E+01  0.94346065826E+02  0.41800000000E+01 0.  1.
        -11    1    1    2    0    0 -0.74634007265E+02  0.51860801489E+02  0.88841342026E+02  0.12709272924E+03  0.00000000000E+00 0.  1.
         11    1    1    2    0    0  0.18927603293E+02  0.27375417268E+02  0.10572416919E+01  0.33298429347E+02  0.00000000000E+00 0. -1.
</event>
<event>
 7    1  0.2788485E-009  0.9494012E+02  0.7561462E-02  0.1291311E+00
         -1   -1    0    0    0  501 -0.00000000000E+00  0.00000000000E+00  0.12917007006E+02  0.12917007006E+02  0.00000000000E+00 0.  1.
          1   -1    0    0  501    0  0.00000000000E+00 -0.00000000000E+00 -0.12872013929E+04  0.12872013929E+04  0.00000000000E+00 0. -1.
         25    2    1    2    0    0  0.27938628078E+02 -0.59982494596E+02 -0.82801917755E+03  0.84002464748E+03  0.12508870206E+03 0.  0.
          5    1    3    3  502    0 -0.34780305302E+01 -0.40414188855E+02 -0.69415393077E+02  0.80506972078E+02  0.41800000000E+01 0.  1.
         -5    1    3    3    0  502  0.31416658608E+02 -0.19568305741E+02 -0.75860378447E+03  0.75951767540E+03  0.41800000000E+01 0.  1.
        -11    1    1    2    0    0  0.29825206036E+02  0.18190478248E+01 -0.11081272032E+03  0.11477068805E+03  0.00000000000E+00 0.  1.
         11    1    1    2    0    0 -0.57763834114E+02  0.58163446772E+02 -0.33545248804E+03  0.34532306440E+03  0.00000000000E+00 0. -1.
</event>
<event>
 7    1  0.2788485E-009  0.1536696E+03  0.7561462E-02  0.1196035E+00
          1   -1    0    0  501    0  0.00000000000E+00  0.00000000000E+00  0.29092950581E+03  0.29092950581E+03  0.00000000000E+00 0. -1.
         -1   -1    0    0    0  501 -0.00000000000E+00 -0.00000000000E+00 -0.86616589426E+02  0.86616589426E+02  0.00000000000E+00 0.  1.
         25    2    1    2    0    0 -0.11057083490E+03  0.68799962860E+01  0.14393811755E+03  0.22054288600E+03  0.12509092294E+03 0.  0.
          5    1    3    3  502    0 -0.75681800230E+02 -0.53556365290E+02  0.10641328851E+03  0.14119943173E+03  0.41800000000E+01 0. -1.
         -5    1    3    3    0  502 -0.34889034674E+02  0.60436361576E+02  0.37524829041E+02  0.79343454270E+02  0.41800000000E+01 0. -1.
        -11    1    1    2    0    0  0.98808957803E+02 -0.42163595893E+02  0.49269420553E+02  0.11818821753E+03  0.00000000000E+00 0.  1.
         11    1    1    2    0    0  0.11761877102E+02  0.35283599607E+02  0.11105378272E+02  0.38814991701E+02  0.00000000000E+00 0. -1.
</event>
<event>
 7    1  0.2788485E-009  0.1507853E+03  0.7561462E-02  0.1199511E+00
          2   -1    0    0  501    0  0.00000000000E+00  0.00000000000E+00  0.10534926360E+04  0.10534926360E+04  0.00000000000E+00 0. -1.
         -2   -1    0    0    0  501 -0.00000000000E+00 -0.00000000000E+00 -0.23689680039E+02  0.23689680039E+02  0.00000000000E+00 0.  1.
         25    2    1    2    0    0  0.33435461959E+02  0.10507385815E+03  0.44863919875E+03  0.47862266672E+03  0.12507629933E+03 0.  0.
          5    1    3    3  502    0  0.73703745421E+02  0.32623373322E+02  0.17583833922E+03  0.19347640816E+03  0.41800000000E+01 0.  1.
         -5    1    3    3    0  502 -0.40268283462E+02  0.72450484833E+02  0.27280085953E+03  0.28514625855E+03  0.41800000000E+01 0.  1.
        -11    1    1    2    0    0  0.18118510310E+02 -0.77124243893E+02  0.25028463043E+03  0.26252395251E+03  0.00000000000E+00 0.  1.
         11    1    1    2    0    0 -0.51553972269E+02 -0.27949614262E+02  0.33087912677E+03  0.33603569681E+03  0.00000000000E+00 0. -1.
</event>
<event>
 7    1  0.2788485E-009  0.7826473E+02  0.7561462E-02  0.1334049E+00
         -1   -1    0    0    0  501 -0.00000000000E+00  0.00000000000E+00  0.14333819064E+03  0.14333819064E+03  0.00000000000E+00 0.  1.
          1   -1    0    0  501    0  0.00000000000E+00 -0.00000000000E+00 -0.10497480160E+03  0.10497480160E+03  0.00000000000E+00 0. -1.
         25    2    1    2    0    0 -0.89625355633E+01  0.20158274502E+02 -0.29139480170E+02  0.13031993768E+03  0.12508994275E+03 0.  0.
          5    1    3    3  502    0 -0.31873871453E+02  0.22566735086E+02 -0.71694955583E+02  0.81748640783E+02  0.41800000000E+01 0. -1.
         -5    1    3    3    0  502  0.22911335889E+02 -0.24084605842E+01  0.42555475413E+02  0.48571296897E+02  0.41800000000E+01 0. -1.
        -11    1    1    2    0    0  0.49102491563E+02 -0.21667326123E+02  0.24032542187E+02  0.58805533608E+02  0.00000000000E+00 0.  1.
         11    1    1    2    0    0 -0.40139955999E+02  0.15090516214E+01  0.43470327021E+02  0.59187520946E+02  0.00000000000E+00 0. -1.
</event>
<event>
 7    1  0.2788485E-009  0.8169690E+02  0.7561462E-02  0.1324304E+00
         -2   -1    0    0    0  501 -0.00000000000E+00  0.00000000000E+00  0.21139121579E+03  0.21139121579E+03  0.00000000000E+00 0.  1.
          2   -1    0    0  501    0  0.00000000000E+00 -0.00000000000E+00 -0.85688209309E+02  0.85688209309E+02  0.00000000000E+00 0. -1.
         25    2    1    2    0    0  0.66415685480E+02 -0.35025422132E+02  0.51668221143E+02  0.15476798097E+03  0.12508277013E+03 0.  0.
          5    1    3    3  502    0  0.15472667444E+02 -0.34188255644E+01 -0.41093247903E+02  0.44240470492E+02  0.41800000000E+01 0.  1.
         -5    1    3    3    0  502  0.50943018036E+02 -0.31606596567E+02  0.92761469047E+02  0.11052751048E+03  0.41800000000E+01 0.  1.
        -11    1    1    2    0    0 -0.22842007939E+02 -0.93823754785E+01  0.76156716023E+02  0.80060175442E+02  0.00000000000E+00 0.  1.
         11    1    1    2    0    0 -0.43573677541E+02  0.44407797610E+02 -0.21219306874E+01  0.62251268685E+02  0.00000000000E+00 0. -1.
</event>
<event>
 7    1  0.2788485E-009  0.1314047E+03  0.7561462E-02  0.1225386E+00
          2   -1    0    0  501    0  0.00000000000E+00  0.00000000000E+00  0.26871244309E+03  0.26871244309E+03  0.00000000000E+00 0. -1.
         -2   -1    0    0    0  501 -0.00000000000E+00 -0.00000000000E+00 -0.80371155475E+02  0.80371155475E+02  0.00000000000E+00 0.  1.
         25    2    1    2    0    0  0.74871521286E+02 -0.61108852057E+02  0.12435618742E+03  0.20112600227E+03  0.12508865232E+03 0.  0.
          5    1    3    3  502    0  0.67307069307E+02  0.20739598962E+02  0.32159458750E+02  0.77537576251E+02  0.41800000000E+01 0. -1.
         -5    1    3    3    0  502  0.75644519784E+01 -0.81848451019E+02  0.92196728669E+02  0.12358842602E+03  0.41800000000E+01 0. -1.
        -11    1    1    2    0    0 -0.39240872020E+02  0.30732983734E-01 -0.14940671430E+02  0.41988934783E+02  0.00000000000E+00 0.  1.
         11    1    1    2    0    0 -0.35630649266E+02  0.61078119074E+02  0.78925771629E+02  0.10596866152E+03  0.00000000000E+00 0. -1.
</event>
<event>
 7    1  0.2788485E-009  0.1218412E+03  0.7561462E-02  0.1240090E+00
          2   -1    0    0  501    0  0.00000000000E+00  0.00000000000E+00  0.23913936555E+04  0.23913936555E+04  0.00000000000E+00 0. -1.
         -2   -1    0    0    0  501 -0.00000000000E+00 -0.00000000000E+00 -0.97038716969E+01  0.97038716969E+01  0.00000000000E+00 0.  1.
         25    2    1    2    0    0  0.63285999813E+02  0.23849595024E+02  0.19388632887E+04  0.19440713883E+04  0.12509512292E+03 0.  0.
          5    1    3    3  502    0  0.42720102456E+02 -0.43419359514E+02  0.12789475855E+04  0.12804040951E+04  0.41800000000E+01 0. -1.
         -5    1    3    3    0  502  0.20565897357E+02  0.67268954538E+02  0.65991570324E+03  0.66366729328E+03  0.41800000000E+01 0. -1.
        -11    1    1    2    0    0  0.68591771856E+01  0.25492773257E+02  0.13021975914E+03  0.13286879043E+03  0.00000000000E+00 0.  1.
         11    1    1    2    0    0 -0.70145176999E+02 -0.49342368281E+02  0.31260673601E+03  0.32415734846E+03  0.00000000000E+00 0. -1.
</event>
<event>
 7    1  0.2788485E-009  0.5519747E+02  0.7561462E-02  0.1419167E+00
          2   -1    0    0  501    0  0.00000000000E+00  0.00000000000E+00  0.90792281632E+03  0.90792281632E+03  0.00000000000E+00 0. -1.
         -2   -1    0    0    0  501 -0.00000000000E+00 -0.00000000000E+00 -0.27253980127E+02  0.27253980127E+02  0.00000000000E+00 0.  1.
         25    2    1    2    0    0  0.64626823792E+01  0.43248048254E+02  0.78823687615E+03  0.79929671094E+03  0.12508276961E+03 0.  0.
          5    1    3    3  502    0  0.10227134951E+02 -0.19121086476E+01  0.15786521406E+01  0.11323205878E+02  0.41800000000E+01 0.  1.
         -5    1    3    3    0  502 -0.37644525715E+01  0.45160156901E+02  0.78665822401E+03  0.78797350506E+03  0.41800000000E+01 0.  1.
        -11    1    1    2    0    0  0.12270497075E+02 -0.23133308389E+02  0.10311649918E+03  0.10638950822E+03  0.00000000000E+00 0. -1.
         11    1    1    2    0    0 -0.18733179454E+02 -0.20114739865E+02 -0.10684539139E+02  0.29490577290E+02  0.00000000000E+00 0.  1.
</event>
<event>
 7    1  0.2788485E-009  0.1543842E+03  0.7561462E-02  0.1195187E+00
          2   -1    0    0  501    0  0.00000000000E+00  0.00000000000E+00  0.14804177059E+03  0.14804177059E+03  0.00000000000E+00 0. -1.
         -2   -1    0    0    0  501 -0.00000000000E+00 -0.00000000000E+00 -0.20569628190E+03  0.20569628190E+03  0.00000000000E+00 0.  1.
         25    2    1    2    0    0 -0.10599835525E+03  0.64593869441E+02  0.25688665227E+02  0.17809000789E+03  0.12509246222E+03 0.  0.
          5    1    3    3  502    0 -0.29951067636E+01  0.54146992724E+02  0.47489691291E+02  0.72205336815E+02  0.41800000000E+01 0.  1.
         -5    1    3    3    0  502 -0.10300324848E+03  0.10446876717E+02 -0.21801026065E+02  0.10588467107E+03  0.41800000000E+01 0.  1.
        -11    1    1    2    0    0  0.10389408147E+03 -0.19609891615E+02 -0.75545413209E+02  0.12994474776E+03  0.00000000000E+00 0.  1.
         11    1    1    2    0    0  0.21042737739E+01 -0.44983977826E+02 -0.77977633350E+01  0.45703296842E+02  0.00000000000E+00 0. -1.
</event>
<event>
 7    1  0.2788485E-009  0.1172964E+03  0.7561462E-02  0.1247625E+00
          3   -1    0    0  501    0  0.00000000000E+00  0.00000000000E+00  0.28223345393E+03  0.28223345393E+03  0.00000000000E+00 0. -1.
         -3   -1    0    0    0  501 -0.00000000000E+00 -0.00000000000E+00 -0.68539098816E+02  0.68539098816E+02  0.00000000000E+00 0.  1.
         25    2    1    2    0    0  0.49636309233E+02 -0.70830588708E+02  0.12409980737E+03  0.19628801310E+03  0.12508991329E+03 0.  0.
          5    1    3    3  502    0 -0.16368648842E+02 -0.76027046256E+02  0.97563706832E+02  0.12483666816E+03  0.41800000000E+01 0. -1.
         -5    1    3    3    0  502  0.66004958076E+02  0.51964575482E+01  0.26536100536E+02  0.71451344937E+02  0.41800000000E+01 0. -1.
        -11    1    1    2    0    0 -0.38701636581E+02  0.32585308700E+02 -0.59971745097E+01  0.50946885275E+02  0.00000000000E+00 0.  1.
         11    1    1    2    0    0 -0.10934672653E+02  0.38245280008E+02  0.95591722252E+02  0.10353765437E+03  0.00000000000E+00 0. -1.
</event>
<event>
 7    1  0.2788485E-009  0.3285866E+03  0.7561462E-02  0.1071764E+00
          1   -1    0    0  501    0  0.00000000000E+00  0.00000000000E+00  0.69871677331E+03  0.69871677331E+03  0.00000000000E+00 0. -1.
         -1   -1    0    0    0  501 -0.00000000000E+00 -0.00000000000E+00 -0.19335270445E+03  0.19335270445E+03  0.00000000000E+00 0.  1.
         25    2    1    2    0    0 -0.53460724784E+01 -0.32210932265E+03  0.42582296366E+03  0.54841213724E+03  0.12509068577E+03 0.  0.
          5    1    3    3  502    0  0.15450186415E+01 -0.27668088964E+03  0.27276851299E+03  0.38855480418E+03  0.41800000000E+01 0. -1.
         -5    1    3    3    0  502 -0.68910911200E+01 -0.45428433007E+02  0.15305445067E+03  0.15985733306E+03  0.41800000000E+01 0. -1.
        -11    1    1    2    0    0 -0.40779912492E+02  0.19177271258E+03  0.47745643857E+02  0.20179053758E+03  0.00000000000E+00 0.  1.
         11    1    1    2    0    0  0.46125984971E+02  0.13033661007E+03  0.31795461340E+02  0.14186680294E+03  0.00000000000E+00 0. -1.
</event>
<event>
 7    1  0.2788485E-009  0.1934054E+03  0.7561462E-02  0.1155425E+00
          1   -1    0    0  501    0  0.00000000000E+00  0.00000000000E+00  0.61935661641E+03  0.61935661641E+03  0.00000000000E+00 0. -1.
         -1   -1    0    0    0  501 -0.00000000000E+00 -0.00000000000E+00 -0.81981355382E+02  0.81981355382E+02  0.00000000000E+00 0.  1.
         25    2    1    2    0    0  0.17128129577E+03 -0.26007013574E+02  0.34290124478E+03  0.40403358543E+03  0.12509287527E+03 0.  0.
          5    1    3    3  502    0  0.16431315918E+02 -0.35565889370E+02  0.15697266492E+03  0.16184193079E+03  0.41800000000E+01 0.  1.
         -5    1    3    3    0  502  0.15484997985E+03  0.95588757968E+01  0.18592857986E+03  0.24219165464E+03  0.41800000000E+01 0.  1.
        -11    1    1    2    0    0 -0.98030652257E+02  0.56180048435E+02  0.18600296455E+03  0.21763113161E+03  0.00000000000E+00 0. -1.
         11    1    1    2    0    0 -0.73250643511E+02 -0.30173034862E+02  0.84710517000E+01  0.79673254762E+02  0.00000000000E+00 0.  1.
</event>
<event>
 7    1  0.2788485E-009  0.9803931E+02  0.7561462E-02  0.1284474E+00
         -2   -1    0    0    0  501 -0.00000000000E+00  0.00000000000E+00  0.47264176955E+02  0.47264176955E+02  0.00000000000E+00 0.  1.
          2   -1    0    0  501    0  0.00000000000E+00 -0.00000000000E+00 -0.36874758481E+03  0.36874758481E+03  0.00000000000E+00 0. -1.
         25    2    1    2    0    0 -0.88421259151E+01  0.39395517152E+02 -0.79969298804E+02  0.15386106808E+03  0.12509176454E+03 0.  0.
          5    1    3    3  502    0  0.37063920240E+01  0.66882598644E+02 -0.97735253287E+02  0.11856083450E+03  0.41800000000E+01 0. -1.
         -5    1    3    3    0  502 -0.12548517939E+02 -0.27487081492E+02  0.17765954484E+02  0.35300233571E+02  0.41800000000E+01 0. -1.
        -11    1    1    2    0    0  0.48354241483E+02 -0.32727557947E+02 -0.10825646747E+03  0.12299873360E+03  0.00000000000E+00 0.  1.
         11    1    1    2    0    0 -0.39512115568E+02 -0.66679592048E+01 -0.13325764158E+03  0.13915196009E+03  0.00000000000E+00 0. -1.
</event>
<event>
 7    1  0.2788485E-009  0.7584357E+02  0.7561462E-02  0.1341278E+00
          2   -1    0    0  501    0  0.00000000000E+00  0.00000000000E+00  0.10435786889E+03  0.10435786889E+03  0.00000000000E+00 0. -1.
         -2   -1    0    0    0  501 -0.00000000000E+00 -0.00000000000E+00 -0.15126866918E+03  0.15126866918E+03  0.00000000000E+00 0.  1.
         25    2    1    2    0    0 -0.25063667054E+02 -0.35940773005E+02  0.17019989245E+02  0.13363141243E+03  0.12509095804E+03 0.  0.
          5    1    3    3  502    0 -0.98328874473E+01  0.13241414806E+02 -0.47804789458E+02  0.50742398808E+02  0.41800000000E+01 0.  1.
         -5    1    3    3    0  502 -0.15230779607E+02 -0.49182187811E+02  0.64824778704E+02  0.82889013622E+02  0.41800000000E+01 0.  1.
        -11    1    1    2    0    0 -0.20641737554E+02 -0.54562340787E+01 -0.55862422049E+02  0.59803528464E+02  0.00000000000E+00 0.  1.
         11    1    1    2    0    0  0.45705404608E+02  0.41397007084E+02 -0.80683674854E+01  0.62191597180E+02  0.00000000000E+00 0. -1.
</event>
<event>
 7    1  0.2788485E-009  0.1673614E+03  0.7561462E-02  0.1180628E+00
          3   -1    0    0  501    0  0.00000000000E+00  0.00000000000E+00  0.61130182921E+02  0.61130182921E+02  0.00000000000E+00 0. -1.
         -3   -1    0    0    0  501 -0.00000000000E+00 -0.00000000000E+00 -0.50662293559E+03  0.50662293559E+03  0.00000000000E+00 0.  1.
         25    2    1    2    0    0  0.12891079647E+03 -0.35591850408E+02 -0.29196840027E+03  0.34464393579E+03  0.12509645263E+03 0.  0.
          5    1    3    3  502    0  0.27929896762E+02  0.45398740485E+02 -0.79234401426E+02  0.95586021678E+02  0.41800000000E+01 0.  1.
         -5    1    3    3    0  502  0.10098089971E+03 -0.80990590893E+02 -0.21273399884E+03  0.24905791411E+03  0.41800000000E+01 0.  1.
        -11    1    1    2    0    0  0.14160281586E-01  0.22114731957E+02  0.83676624113E-01  0.22114894796E+02  0.00000000000E+00 0. -1.
         11    1    1    2    0    0 -0.12892495676E+03  0.13477118451E+02 -0.15360802902E+03  0.20099428792E+03  0.00000000000E+00 0.  1.
</event>
<event>
 7    1  0.2788485E-009  0.1254945E+03  0.7561462E-02  0.1234299E+00
          2   -1    0    0  501    0  0.00000000000E+00  0.00000000000E+00  0.66570511509E+03  0.66570511509E+03  0.00000000000E+00 0.  1.
         -2   -1    0    0    0  501 -0.00000000000E+00 -0.00000000000E+00 -0.24090139887E+02  0.24090139887E+02  0.00000000000E+00 0. -1.
         25    2    1    2    0    0  0.54205978189E+02  0.36377220230E+02  0.35369281658E+03  0.38079830049E+03  0.12508855636E+03 0.  0.
          5    1    3    3  502    0  0.64442768385E+02 -0.30248438643E+02  0.14764721631E+03  0.16396649451E+03  0.41800000000E+01 0. -1.
         -5    1    3    3    0  502 -0.10236790196E+02  0.66625658873E+02  0.20604560027E+03  0.21683180598E+03  0.41800000000E+01 0. -1.
        -11    1    1    2    0    0  0.18441750952E+02  0.14491284993E+02  0.62606153778E+02  0.66855261647E+02  0.00000000000E+00 0.  1.
         11    1    1    2    0    0 -0.72647729141E+02 -0.50868505224E+02  0.22531600484E+03  0.24214169284E+03  0.00000000000E+00 0. -1.
</event>
<event>
 7    1  0.2788485E-009  0.9153756E+02  0.7561462E-02  0.1299170E+00
         -1   -1    0    0    0  501 -0.00000000000E+00  0.00000000000E+00  0.11739156676E+03  0.11739156676E+03  0.00000000000E+00 0.  1.
          1   -1    0    0  501    0  0.00000000000E+00 -0.00000000000E+00 -0.12766146641E+03  0.12766146641E+03  0.00000000000E+00 0. -1.
         25    2    1    2    0    0  0.99394514995E+01 -0.53229917034E+01 -0.66203028134E+02  0.14197683404E+03  0.12508978189E+03 0.  0.
          5    1    3    3  502    0 -0.79562944551E+01 -0.61495464454E+02 -0.52383594853E+02  0.81280429254E+02  0.41800000000E+01 0. -1.
         -5    1    3    3    0  502  0.17895745955E+02  0.56172472751E+02 -0.13819433280E+02  0.60696404790E+02  0.41800000000E+01 0. -1.
        -11    1    1    2    0    0 -0.27955486297E+02  0.23285790466E+02  0.66281884273E+02  0.75611013976E+02  0.00000000000E+00 0. -1.
         11    1    1    2    0    0  0.18016034798E+02 -0.17962798763E+02 -0.10348755783E+02  0.27465185153E+02  0.00000000000E+00 0.  1.
</event>
<event>
 7    1  0.3184647E-009  0.1155594E+03  0.7561462E-02  0.1250608E+00
          2   -1    0    0  501    0  0.00000000000E+00  0.00000000000E+00  0.11105188856E+04  0.11105188856E+04  0.00000000000E+00 0. -1.
         -2   -1    0    0    0  501 -0.00000000000E+00 -0.00000000000E+00 -0.14476874589E+02  0.14476874589E+02  0.00000000000E+00 0.  1.
         25    2    1    2    0    0  0.54271902162E+02  0.35557287146E+02  0.67144666958E+03  0.68607287332E+03  0.12508236238E+03 0.  0.
          5    1    3    3  502    0  0.93472707736E+02  0.10830674312E+02  0.43269907149E+03  0.44283225884E+03  0.41800000000E+01 0. -1.
         -5    1    3    3    0  502 -0.39200805574E+02  0.24726612834E+02  0.23874759809E+03  0.24324061448E+03  0.41800000000E+01 0. -1.
        -11    1    1    2    0    0  0.14004774764E+02 -0.11089685121E+02  0.16130477072E+02  0.24068799779E+02  0.00000000000E+00 0.  1.
         11    1    1    2    0    0 -0.68276676926E+02 -0.24467602025E+02  0.40846486434E+03  0.41485408707E+03  0.00000000000E+00 0. -1.
</event>
<event>
 7    1  0.2788485E-009  0.1248358E+03  0.7561462E-02  0.1235326E+00
          3   -1    0    0  501    0  0.00000000000E+00  0.00000000000E+00  0.16346510152E+03  0.16346510152E+03  0.00000000000E+00 0.  1.
         -3   -1    0    0    0  501 -0.00000000000E+00 -0.00000000000E+00 -0.14766326147E+03  0.14766326147E+03  0.00000000000E+00 0. -1.
         25    2    1    2    0    0 -0.47689980441E+02  0.98966837790E+02 -0.52538683827E+01  0.16656346852E+03  0.12508803579E+03 0.  0.
          5    1    3    3  502    0  0.12794232784E+02  0.69559612400E+02  0.43728174914E+02  0.83257778922E+02  0.41800000000E+01 0. -1.
         -5    1    3    3    0  502 -0.60484213225E+02  0.29407225390E+02 -0.48982043296E+02  0.83305689602E+02  0.41800000000E+01 0. -1.
        -11    1    1    2    0    0  0.41899946359E+01 -0.27169999798E+02  0.48919382184E+02  0.56114801054E+02  0.00000000000E+00 0.  1.
         11    1    1    2    0    0  0.43499985806E+02 -0.71796837992E+02 -0.27863673751E+02  0.88450093418E+02  0.00000000000E+00 0. -1.
</event>
<event>
 7    1  0.2788485E-009  0.1610573E+03  0.7561462E-02  0.1187508E+00
         -1   -1    0    0    0  501 -0.00000000000E+00  0.00000000000E+00  0.12506495874E+03  0.12506495874E+03  0.00000000000E+00 0.  1.
          1   -1    0    0  501    0  0.00000000000E+00 -0.00000000000E+00 -0.22329725289E+03  0.22329725289E+03  0.00000000000E+00 0. -1.
         25    2    1    2    0    0 -0.11348188558E+03  0.57382448518E+02 -0.66894018976E+02  0.19050727829E+03  0.12508928634E+03 0.  0.
          5    1    3    3  502    0 -0.73715693136E+02 -0.30463248939E+02 -0.44476968966E+02  0.91420381310E+02  0.41800000000E+01 0. -1.
         -5    1    3    3    0  502 -0.39766192440E+02  0.87845697457E+02 -0.22417050011E+02  0.99086896985E+02  0.41800000000E+01 0. -1.
        -11    1    1    2    0    0  0.10223749076E+03 -0.16793693217E+02 -0.45861083103E+02  0.11330389045E+03  0.00000000000E+00 0.  1.
         11    1    1    2    0    0  0.11244394821E+02 -0.40588755302E+02  0.14522807927E+02  0.44551042883E+02  0.00000000000E+00 0. -1.
</event>
<event>
 7    1  0.2788485E-009  0.1061604E+03  0.7561462E-02  0.1267850E+00
          1   -1    0    0  501    0  0.00000000000E+00  0.00000000000E+00  0.56362171153E+02  0.56362171153E+02  0.00000000000E+00 0. -1.
         -1   -1    0    0    0  501 -0.00000000000E+00 -0.00000000000E+00 -0.27522941214E+03  0.27522941214E+03  0.00000000000E+00 0.  1.
         25    2    1    2    0    0  0.37849486754E+02 -0.40992919963E+02 -0.15897004260E+03  0.20983945353E+03  0.12509244054E+03 0.  0.
          5    1    3    3  502    0  0.27585008101E+02 -0.82630116837E+02 -0.13446469149E+03  0.16027131540E+03  0.41800000000E+01 0.  1.
         -5    1    3    3    0  502  0.10264478654E+02  0.41637196873E+02 -0.24505351104E+02  0.49568138136E+02  0.41800000000E+01 0.  1.
        -11    1    1    2    0    0 -0.46834176894E+02  0.76082538104E+01 -0.71039909827E+02  0.85428299993E+02  0.00000000000E+00 0.  1.
         11    1    1    2    0    0  0.89846901391E+01  0.33384666153E+02  0.11142711436E+02  0.36323829770E+02  0.00000000000E+00 0. -1.
</event>
<event>
 7    1  0.2788485E-009  0.1851733E+03  0.7561462E-02  0.1162888E+00
         -2   -1    0    0    0  501 -0.00000000000E+00  0.00000000000E+00  0.86510257817E+02  0.86510257817E+02  0.00000000000E+00 0.  1.
          2   -1    0    0  501    0  0.00000000000E+00 -0.00000000000E+00 -0.58574764362E+03  0.58574764362E+03  0.00000000000E+00 0. -1.
         25    2    1    2    0    0  0.38332628821E+02 -0.15526537436E+03 -0.88650175815E+02  0.22154196744E+03  0.12508102476E+03 0.  0.
          5    1    3    3  502    0  0.16978668910E+02  0.88047184053E+01 -0.46942112736E+02  0.50860914387E+02  0.41800000000E+01 0. -1.
         -5    1    3    3    0  502  0.21353959911E+02 -0.16407009277E+03 -0.41708063079E+02  0.17068105305E+03  0.41800000000E+01 0. -1.
        -11    1    1    2    0    0  0.28210363997E+02  0.79851727561E+02 -0.16907370114E+03  0.18909796257E+03  0.00000000000E+00 0. -1.
         11    1    1    2    0    0 -0.66542992818E+02  0.75413646803E+02 -0.24151350885E+03  0.26161797143E+03  0.00000000000E+00 0.  1.
</event>
<event>
 7    1  0.2788485E-009  0.1585245E+03  0.7561462E-02  0.1190373E+00
         -4   -1    0    0    0  501 -0.00000000000E+00  0.00000000000E+00  0.70331659485E+02  0.70331659485E+02  0.00000000000E+00 0.  1.
          4   -1    0    0  501    0  0.00000000000E+00 -0.00000000000E+00 -0.39861647067E+03  0.39861647067E+03  0.00000000000E+00 0. -1.
         25    2    1    2    0    0 -0.11933876938E+03  0.30671417706E+02 -0.17746247528E+03  0.24964758515E+03  0.12509400024E+03 0.  0.
          5    1    3    3  502    0  0.25223569102E+02  0.50708466227E+01 -0.44285987120E+02  0.51387381515E+02  0.41800000000E+01 0. -1.
         -5    1    3    3    0  502 -0.14456233848E+03  0.25600571083E+02 -0.13317648816E+03  0.19826020363E+03  0.41800000000E+01 0. -1.
        -11    1    1    2    0    0  0.69963158404E+02  0.20598536571E+02 -0.29569164834E+02  0.78698657877E+02  0.00000000000E+00 0. -1.
         11    1    1    2    0    0  0.49375610972E+02 -0.51269954276E+02 -0.12125317108E+03  0.14060188714E+03  0.00000000000E+00 0.  1.
</event>
<event>
 7    1  0.2788485E-009  0.1506066E+03  0.7561462E-02  0.1199730E+00
         -2   -1    0    0    0  501 -0.00000000000E+00  0.00000000000E+00  0.65346491348E+02  0.65346491348E+02  0.00000000000E+00 0.  1.
          2   -1    0    0  501    0  0.00000000000E+00 -0.00000000000E+00 -0.41362828642E+03  0.41362828642E+03  0.00000000000E+00 0. -1.
         25    2    1    2    0    0 -0.57404191968E+02  0.10896410758E+03 -0.18071916770E+03  0.25194214258E+03  0.12508799956E+03 0.  0.
          5    1    3    3  502    0 -0.40803541233E+02 -0.73977041791E+00 -0.14199545556E+01  0.41048324063E+02  0.41800000000E+01 0.  1.
         -5    1    3    3    0  502 -0.16600650735E+02  0.10970387800E+03 -0.17929921314E+03  0.21089381851E+03  0.41800000000E+01 0.  1.
        -11    1    1    2    0    0 -0.30681388102E+01 -0.83478102702E+02 -0.67629920572E+02  0.10747936203E+03  0.00000000000E+00 0.  1.
         11    1    1    2    0    0  0.60472330778E+02 -0.25486004879E+02 -0.99932706796E+02  0.11955327316E+03  0.00000000000E+00 0. -1.
</event>
<event>
 7    1  0.2788485E-009  0.9717034E+02  0.7561462E-02  0.1286361E+00
         -1   -1    0    0    0  501 -0.00000000000E+00  0.00000000000E+00  0.24787924786E+02  0.24787924786E+02  0.00000000000E+00 0.  1.
          1   -1    0    0  501    0  0.00000000000E+00 -0.00000000000E+00 -0.86939012991E+03  0.86939012991E+03  0.00000000000E+00 0. -1.
         25    2    1    2    0    0 -0.87062442470E+02  0.40340959722E+02 -0.55606234315E+03  0.57797927575E+03  0.12508977499E+03 0.  0.
          5    1    3    3  502    0 -0.42814327000E+02  0.90078200646E+01 -0.41164760481E+02  0.60218081373E+02  0.41800000000E+01 0. -1.
         -5    1    3    3    0  502 -0.44248115470E+02  0.31333139658E+02 -0.51489758267E+03  0.51776119438E+03  0.41800000000E+01 0. -1.
        -11    1    1    2    0    0  0.43963358261E+02 -0.18567369327E+02 -0.24972861507E+03  0.25424772420E+03  0.00000000000E+00 0. -1.
         11    1    1    2    0    0  0.43099084209E+02 -0.21773590395E+02 -0.38811246899E+02  0.61951054747E+02  0.00000000000E+00 0.  1.
</event>
<event>
 7    1  0.2788485E-009  0.1918690E+03  0.7561462E-02  0.1156786E+00
          1   -1    0    0  501    0  0.00000000000E+00  0.00000000000E+00  0.15850524680E+04  0.15850524680E+04  0.00000000000E+00 0. -1.
         -1   -1    0    0    0  501 -0.00000000000E+00 -0.00000000000E+00 -0.29766121300E+02  0.29766121300E+02  0.00000000000E+00 0.  1.
         25    2    1    2    0    0 -0.16550398543E+03  0.27662840214E+02  0.10464470869E+04  0.10671717867E+04  0.12508922682E+03 0.  0.
          5    1    3    3  502    0 -0.53419718560E+02 -0.47197477254E+02  0.45325955274E+03  0.45884960798E+03  0.41800000000E+01 0. -1.
         -5    1    3    3    0  502 -0.11208426687E+03  0.74860317469E+02  0.59318753418E+03  0.60832217872E+03  0.41800000000E+01 0. -1.
        -11    1    1    2    0    0  0.98913958048E+02 -0.45005856010E+02  0.16909455570E+03  0.20100364907E+03  0.00000000000E+00 0.  1.
         11    1    1    2    0    0  0.66590027386E+02  0.17343015796E+02  0.33974470410E+03  0.34664315356E+03  0.00000000000E+00 0. -1.
</event>
<event>
 7    1  0.2788485E-009  0.1219343E+03  0.7561462E-02  0.1239940E+00
          2   -1    0    0  501    0  0.00000000000E+00  0.00000000000E+00  0.21657857885E+03  0.21657857885E+03  0.00000000000E+00 0. -1.
         -2   -1    0    0    0  501 -0.00000000000E+00 -0.00000000000E+00 -0.16060751447E+03  0.16060751447E+03  0.00000000000E+00 0.  1.
         25    2    1    2    0    0 -0.80843282248E+02 -0.38584776410E+01  0.15879575786E+03  0.21774815320E+03  0.12509053270E+03 0.  0.
          5    1    3    3  502    0 -0.10257675152E+02 -0.42819814556E+02  0.12056311364E+03  0.12841998750E+03  0.41800000000E+01 0. -1.
         -5    1    3    3    0  502 -0.70585607096E+02  0.38961336915E+02  0.38232644223E+02  0.89328165702E+02  0.41800000000E+01 0. -1.
        -11    1    1    2    0    0  0.70237724641E+02 -0.35107419289E+02 -0.83658452861E+02  0.11473711512E+03  0.00000000000E+00 0.  1.
         11    1    1    2    0    0  0.10605557607E+02  0.38965896930E+02 -0.19166240627E+02  0.44700824998E+02  0.00000000000E+00 0. -1.
</event>
<event>
 7    1  0.2788485E-009  0.1969557E+03  0.7561462E-02  0.1152333E+00
         -3   -1    0    0    0  501 -0.00000000000E+00  0.00000000000E+00  0.28533785781E+03  0.28533785781E+03  0.00000000000E+00 0.  1.
          3   -1    0    0  501    0  0.00000000000E+00 -0.00000000000E+00 -0.17129819094E+03  0.17129819094E+03  0.00000000000E+00 0. -1.
         25    2    1    2    0    0  0.10850890111E+03  0.14668024970E+03 -0.27522876230E+01  0.22123382581E+03  0.12509018077E+03 0.  0.
          5    1    3    3  502    0  0.40239778144E+02  0.14422042775E+02  0.47543834368E+02  0.64071238862E+02  0.41800000000E+01 0. -1.
         -5    1    3    3    0  502  0.68269122966E+02  0.13225820692E+03 -0.50296121992E+02  0.15716258695E+03  0.41800000000E+01 0. -1.
        -11    1    1    2    0    0 -0.22863226746E+02 -0.10379145683E+03  0.79030357772E+02  0.13244316176E+03  0.00000000000E+00 0.  1.
         11    1    1    2    0    0 -0.85645674363E+02 -0.42888792868E+02  0.37761596720E+02  0.10295906117E+03  0.00000000000E+00 0. -1.
</event>
<event>
 7    1  0.2889547E-009  0.1671724E+03  0.7561462E-02  0.1180829E+00
          2   -1    0    0  501    0  0.00000000000E+00  0.00000000000E+00  0.20154533941E+03  0.20154533941E+03  0.00000000000E+00 0. -1.
         -2   -1    0    0    0  501 -0.00000000000E+00 -0.00000000000E+00 -0.16662265933E+03  0.16662265933E+03  0.00000000000E+00 0.  1.
         25    2    1    2    0    0 -0.10977098685E+03 -0.98115198509E+02  0.15575027904E+02  0.19381903106E+03  0.12508786341E+03 0.  0.
          5    1    3    3  502    0 -0.13162921334E+03 -0.97794780984E+02  0.30735134873E+02  0.16688975375E+03  0.41800000000E+01 0.  1.
         -5    1    3    3    0  502  0.21858226492E+02 -0.32041752463E+00 -0.15160106969E+02  0.26929277303E+02  0.41800000000E+01 0.  1.
        -11    1    1    2    0    0  0.83399597719E+02  0.65105983246E+02 -0.29427615150E+02  0.10981924461E+03  0.00000000000E+00 0.  1.
         11    1    1    2    0    0  0.26371389128E+02  0.33009215263E+02  0.48775267321E+02  0.64529723066E+02  0.00000000000E+00 0. -1.
</event>
<event>
 7    1  0.2788485E-009  0.1933691E+03  0.7561462E-02  0.1155457E+00
         -1   -1    0    0    0  501 -0.00000000000E+00  0.00000000000E+00  0.37678659255E+02  0.37678659255E+02  0.00000000000E+00 0.  1.
          1   -1    0    0  501    0  0.00000000000E+00 -0.00000000000E+00 -0.11069475998E+04  0.11069475998E+04  0.00000000000E+00 0. -1.
         25    2    1    2    0    0 -0.15230243006E+02 -0.16837924572E+03 -0.64425899921E+03  0.67771663103E+03  0.12508654292E+03 0.  0.
          5    1    3    3  502    0  0.37865478599E+02 -0.11475178164E+02 -0.75885330983E+02  0.85682728959E+02  0.41800000000E+01 0. -1.
         -5    1    3    3    0  502 -0.53095721605E+02 -0.15690406755E+03 -0.56837366822E+03  0.59203390207E+03  0.41800000000E+01 0. -1.
        -11    1    1    2    0    0  0.39727013741E+02  0.12802641665E+03 -0.22949163245E+03  0.26577322730E+03  0.00000000000E+00 0.  1.
         11    1    1    2    0    0 -0.24496770735E+02  0.40352829067E+02 -0.19551830886E+03  0.20113640071E+03  0.00000000000E+00 0. -1.
</event>
<event>
 7    1  0.2788485E-009  0.8767027E+02  0.7561462E-02  0.1308594E+00
         -2   -1    0    0    0  501 -0.00000000000E+00  0.00000000000E+00  0.28450478579E+02  0.28450478579E+02  0.00000000000E+00 0. -1.
          2   -1    0    0  501    0  0.00000000000E+00 -0.00000000000E+00 -0.43649301769E+03  0.43649301769E+03  0.00000000000E+00 0.  1.
         25    2    1    2    0    0 -0.23410318245E-01  0.84619807979E-01 -0.19321569540E+03  0.23017351353E+03  0.12509010222E+03 0.  0.
          5    1    3    3  502    0 -0.37940831456E+02  0.30709522736E+02 -0.16827901422E+03  0.17526517196E+03  0.41800000000E+01 0. -1.
         -5    1    3    3    0  502  0.37917421138E+02 -0.30624902928E+02 -0.24936681181E+02  0.54908341565E+02  0.41800000000E+01 0. -1.
        -11    1    1    2    0    0 -0.35365351992E+02 -0.15769731720E+02 -0.39857347679E+02  0.55569782473E+02  0.00000000000E+00 0.  1.
         11    1    1    2    0    0  0.35388762310E+02  0.15685111912E+02 -0.17496949603E+03  0.17920020026E+03  0.00000000000E+00 0. -1.
</event>
<event>
 7    1  0.3015053E-009  0.1869112E+03  0.7561462E-02  0.1161277E+00
         -1   -1    0    0    0  501 -0.00000000000E+00  0.00000000000E+00  0.60765744823E+02  0.60765744823E+02  0.00000000000E+00 0.  1.
          1   -1    0    0  501    0  0.00000000000E+00 -0.00000000000E+00 -0.70246148793E+03  0.70246148793E+03  0.00000000000E+00 0. -1.
         25    2    1    2    0    0  0.28491776757E+02 -0.16438933915E+03 -0.23628531257E+03  0.31514051512E+03  0.12508860525E+03 0.  0.
          5    1    3    3  502    0 -0.13448967695E+02 -0.16144210572E+03 -0.21045636322E+03  0.26561961797E+03  0.41800000000E+01 0.  1.
         -5    1    3    3    0  502  0.41940744452E+02 -0.29472334385E+01 -0.25828949346E+02  0.49520897149E+02  0.41800000000E+01 0.  1.
        -11    1    1    2    0    0 -0.33191709978E+02  0.10936000702E+03 -0.16053577914E+03  0.19706099850E+03  0.00000000000E+00 0.  1.
         11    1    1    2    0    0  0.46999332204E+01  0.55029332136E+02 -0.24487465139E+03  0.25102571913E+03  0.00000000000E+00 0. -1.
</event>
<event>
 7    1  0.3050168E-009  0.1191127E+03  0.7561462E-02  0.1244568E+00
          4   -1    0    0  501    0  0.00000000000E+00  0.00000000000E+00  0.45611759351E+02  0.45611759351E+02  0.00000000000E+00 0. -1.
         -4   -1    0    0    0  501 -0.00000000000E+00 -0.00000000000E+00 -0.42048516488E+03  0.42048516488E+03  0.00000000000E+00 0.  1.
         25    2    1    2    0    0 -0.11655252403E+02 -0.84169055783E+02 -0.18130292231E+03  0.23608955054E+03  0.12508897384E+03 0.  0.
          5    1    3    3  502    0 -0.23533279386E+02  0.27093380083E+02 -0.66754514062E+02  0.75904571869E+02  0.41800000000E+01 0.  1.
         -5    1    3    3    0  502  0.11878026982E+02 -0.11126243587E+03 -0.11454840824E+03  0.16018497867E+03  0.41800000000E+01 0.  1.
        -11    1    1    2    0    0 -0.10104024017E+02  0.33210214443E+02 -0.16313780903E+03  0.16679015073E+03  0.00000000000E+00 0.  1.
         11    1    1    2    0    0  0.21759276420E+02  0.50958841340E+02 -0.30432674194E+02  0.63217222967E+02  0.00000000000E+00 0. -1.
</event>
<event>
 7    1  0.2788485E-009  0.1190861E+03  0.7561462E-02  0.1244612E+00
          2   -1    0    0  501    0  0.00000000000E+00  0.00000000000E+00  0.15856493184E+03  0.15856493184E+03  0.00000000000E+00 0. -1.
         -2   -1    0    0    0  501 -0.00000000000E+00 -0.00000000000E+00 -0.11621293327E+03  0.11621293327E+03  0.00000000000E+00 0.  1.
         25    2    1    2    0    0  0.47862381717E+02 -0.15784126035E+02  0.88730028778E+02  0.16143144100E+03  0.12508855231E+03 0.  0.
          5    1    3    3  502    0  0.90562994219E+02 -0.68036082905E+01  0.62903951839E+02  0.11055462254E+03  0.41800000000E+01 0.  1.
         -5    1    3    3    0  502 -0.42700612502E+02 -0.89805177450E+01  0.25826076940E+02  0.50876818465E+02  0.41800000000E+01 0.  1.
        -11    1    1    2    0    0 -0.41507401335E+02 -0.33741537142E+02 -0.24158296154E+02  0.58693943191E+02  0.00000000000E+00 0.  1.
         11    1    1    2    0    0 -0.63549803827E+01  0.49525663177E+02 -0.22219734057E+02  0.54652480917E+02  0.00000000000E+00 0. -1.
</event>
<event>
 7    1  0.2788485E-009  0.1427356E+03  0.7561462E-02  0.1209695E+00
          2   -1    0    0  501    0  0.00000000000E+00  0.00000000000E+00  0.14477556662E+04  0.14477556662E+04  0.00000000000E+00 0. -1.
         -2   -1    0    0    0  501 -0.00000000000E+00 -0.00000000000E+00 -0.60790260026E+02  0.60790260026E+02  0.00000000000E+00 0.  1.
         25    2    1    2    0    0 -0.10677471873E+03  0.23154277908E+02  0.13506455498E+04  0.13608188541E+04  0.12509033300E+03 0.  0.
          5    1    3    3  502    0  0.27464196104E+01  0.46567503084E+02  0.23956831828E+03  0.24410351634E+03  0.41800000000E+01 0. -1.
         -5    1    3    3    0  502 -0.10952113834E+03 -0.23413225176E+02  0.11110772315E+04  0.11167153378E+04  0.41800000000E+01 0. -1.
        -11    1    1    2    0    0  0.51820761906E+02 -0.43806425981E+02  0.53664838836E+02  0.86511902355E+02  0.00000000000E+00 0. -1.
         11    1    1    2    0    0  0.54953956827E+02  0.20652148073E+02 -0.17344982456E+02  0.61215169749E+02  0.00000000000E+00 0.  1.
</event>
<event>
 7    1  0.2788485E-009  0.1730787E+03  0.7561462E-02  0.1174675E+00
          1   -1    0    0  501    0  0.00000000000E+00  0.00000000000E+00  0.24830901311E+03  0.24830901311E+03  0.00000000000E+00 0. -1.
         -1   -1    0    0    0  501 -0.00000000000E+00 -0.00000000000E+00 -0.15231851655E+03  0.15231851655E+03  0.00000000000E+00 0.  1.
         25    2    1    2    0    0  0.15290805668E+03  0.32706809475E+02  0.90931806295E+02  0.21991345463E+03  0.12507087970E+03 0.  0.
          5    1    3    3  502    0 -0.12257942311E+02  0.14835161127E+02 -0.13285697500E+02  0.23755448079E+02  0.41800000000E+01 0.  1.
         -5    1    3    3    0  502  0.16516599899E+03  0.17871648348E+02  0.10421750380E+03  0.19615800655E+03  0.41800000000E+01 0.  1.
        -11    1    1    2    0    0 -0.24556232983E+02  0.76746301983E+01 -0.32086023370E+02  0.41126894153E+02  0.00000000000E+00 0.  1.
         11    1    1    2    0    0 -0.12835182370E+03 -0.40381439673E+02  0.37144713634E+02  0.13958718088E+03  0.00000000000E+00 0. -1.
</event>
<event>
 7    1  0.2788485E-009  0.8432418E+02  0.7561462E-02  0.1317209E+00
          2   -1    0    0  501    0  0.00000000000E+00  0.00000000000E+00  0.45144133497E+03  0.45144133497E+03  0.00000000000E+00 0.  1.
         -2   -1    0    0    0  501 -0.00000000000E+00 -0.00000000000E+00 -0.48066511403E+02  0.48066511403E+02  0.00000000000E+00 0. -1.
         25    2    1    2    0    0 -0.69409462080E+02  0.42295019033E+02  0.12740624565E+03  0.19617755905E+03  0.12508693450E+03 0.  0.
          5    1    3    3  502    0 -0.11631684866E+02  0.19801085660E+02  0.13182716689E+03  0.13387775549E+03  0.41800000000E+01 0.  1.
         -5    1    3    3    0  502 -0.57777777214E+02  0.22493933373E+02 -0.44209212371E+01  0.62299803555E+02  0.41800000000E+01 0.  1.
        -11    1    1    2    0    0  0.14054110625E+02 -0.17671222209E+02  0.19147474831E+01  0.22659575850E+02  0.00000000000E+00 0. -1.
         11    1    1    2    0    0  0.55355351455E+02 -0.24623796824E+02  0.27405383043E+03  0.28067071147E+03  0.00000000000E+00 0.  1.
</event>
<event>
 7    1  0.2788485E-009  0.1411269E+03  0.7561462E-02  0.1211821E+00
          1   -1    0    0  501    0  0.00000000000E+00  0.00000000000E+00  0.70082439019E+02  0.70082439019E+02  0.00000000000E+00 0. -1.
         -1   -1    0    0    0  501 -0.00000000000E+00 -0.00000000000E+00 -0.45850564022E+03  0.45850564022E+03  0.00000000000E+00 0.  1.
         25    2    1    2    0    0  0.85312059932E+02  0.87579479112E+02 -0.31529709050E+03  0.36056400388E+03  0.12508330377E+03 0.  0.
          5    1    3    3  502    0  0.12881354809E+02 -0.10573435826E+02  0.49214506568E+01  0.17872322833E+02  0.41800000000E+01 0. -1.
         -5    1    3    3    0  502  0.72430705122E+02  0.98152914938E+02 -0.32021854116E+03  0.34269168104E+03  0.41800000000E+01 0. -1.
        -11    1    1    2    0    0 -0.39180294045E+02  0.50801280199E+01  0.28712544479E+01  0.39612463244E+02  0.00000000000E+00 0. -1.
         11    1    1    2    0    0 -0.46131765887E+02 -0.92659607132E+02 -0.75997365151E+02  0.12841161212E+03  0.00000000000E+00 0.  1.
</event>
<event>
 7    1  0.2788485E-009  0.9869001E+02  0.7561462E-02  0.1283075E+00
          1   -1    0    0  501    0  0.00000000000E+00  0.00000000000E+00  0.11896552307E+03  0.11896552307E+03  0.00000000000E+00 0. -1.
         -1   -1    0    0    0  501 -0.00000000000E+00 -0.00000000000E+00 -0.17589337015E+03  0.17589337015E+03  0.00000000000E+00 0.  1.
         25    2    1    2    0    0 -0.70029011864E+02  0.41972596689E+00  0.35711031178E+02  0.14773610535E+03  0.12508573222E+03 0.  0.
          5    1    3    3  502    0 -0.77722506183E+02  0.21611294842E+02  0.69729112275E+02  0.10671203086E+03  0.41800000000E+01 0.  1.
         -5    1    3    3    0  502  0.76934943188E+01 -0.21191568875E+02 -0.34018081097E+02  0.41024074490E+02  0.41800000000E+01 0.  1.
        -11    1    1    2    0    0  0.74082072384E+02  0.16815173570E+02 -0.10193274613E+03  0.12712666221E+03  0.00000000000E+00 0.  1.
         11    1    1    2    0    0 -0.40530605201E+01 -0.17234899537E+02  0.92938678702E+01  0.19996125665E+02  0.00000000000E+00 0. -1.
</event>
<event>
 7    1  0.2788485E-009  0.1125046E+03  0.7561462E-02  0.1256001E+00
          1   -1    0    0  501    0  0.00000000000E+00  0.00000000000E+00  0.32539409627E+03  0.32539409627E+03  0.00000000000E+00 0. -1.
         -1   -1    0    0    0  501 -0.00000000000E+00 -0.00000000000E+00 -0.55772644418E+02  0.55772644418E+02  0.00000000000E+00 0.  1.
         25    2    1    2    0    0 -0.76515704454E+02  0.12057958580E+02  0.11906871584E+03  0.18927098283E+03  0.12508436535E+03 0.  0.
          5    1    3    3  502    0 -0.93083521562E-01 -0.45179700865E+02  0.65588779869E+02  0.79753209838E+02  0.41800000000E+01 0.  1.
         -5    1    3    3    0  502 -0.76422620932E+02  0.57237659444E+02  0.53479935970E+02  0.10951777299E+03  0.41800000000E+01 0.  1.
        -11    1    1    2    0    0  0.65818805987E+02 -0.22062392492E+02  0.16003897281E+03  0.17444580018E+03  0.00000000000E+00 0. -1.
         11    1    1    2    0    0  0.10696898467E+02  0.10004433912E+02 -0.94862367900E+01  0.17449957683E+02  0.00000000000E+00 0.  1.
</event>
<event>
 7    1  0.2788485E-009  0.6300753E+02  0.7561462E-02  0.1385627E+00
         -2   -1    0    0    0  501 -0.00000000000E+00  0.00000000000E+00  0.20758168946E+03  0.20758168946E+03  0.00000000000E+00 0.  1.
          2   -1    0    0  501    0  0.00000000000E+00 -0.00000000000E+00 -0.11596641327E+03  0.11596641327E+03  0.00000000000E+00 0. -1.
         25    2    1    2    0    0  0.31579149227E+02  0.29084373752E+02  0.15447785588E+03  0.20334884692E+03  0.12507678490E+03 0.  0.
          5    1    3    3  502    0  0.12629482017E+02  0.10117323516E+02  0.17084450272E+03  0.17166007271E+03  0.41800000000E+01 0.  1.
         -5    1    3    3    0  502  0.18949667210E+02  0.18967050236E+02 -0.16366646841E+02  0.31688774208E+02  0.41800000000E+01 0.  1.
        -11    1    1    2    0    0 -0.53684656102E+02 -0.14245746720E+02 -0.41085044404E+01  0.55694375022E+02  0.00000000000E+00 0.  1.
         11    1    1    2    0    0  0.22105506875E+02 -0.14838627032E+02 -0.58754075253E+02  0.64504880787E+02  0.00000000000E+00 0. -1.
</event>
<event>
 7    1  0.3342149E-009  0.1476002E+03  0.7561462E-02  0.1203453E+00
          1   -1    0    0  501    0  0.00000000000E+00  0.00000000000E+00  0.59925533087E+03  0.59925533087E+03  0.00000000000E+00 0. -1.
         -1   -1    0    0    0  501 -0.00000000000E+00 -0.00000000000E+00 -0.46420135869E+02  0.46420135869E+02  0.00000000000E+00 0.  1.
         25    2    1    2    0    0 -0.79507174887E+02  0.72211658008E+02  0.16585755676E+03  0.23386485320E+03  0.12509246987E+03 0.  0.
          5    1    3    3  502    0 -0.14228926142E+02  0.94457240433E+02  0.91011128015E+02  0.13200428187E+03  0.41800000000E+01 0. -1.
         -5    1    3    3    0  502 -0.65278248745E+02 -0.22245582425E+02  0.74846428745E+02  0.10186057133E+03  0.41800000000E+01 0. -1.
        -11    1    1    2    0    0  0.19723710650E+02 -0.67730161991E+02  0.12972901406E+03  0.14766860430E+03  0.00000000000E+00 0. -1.
         11    1    1    2    0    0  0.59783464237E+02 -0.44814960169E+01  0.25724862418E+03  0.26414200924E+03  0.00000000000E+00 0.  1.
</event>
<event>
 7    1  0.2788485E-009  0.1439025E+03  0.7561462E-02  0.1208172E+00
         -1   -1    0    0    0  501 -0.00000000000E+00  0.00000000000E+00  0.55556440574E+03  0.55556440574E+03  0.00000000000E+00 0.  1.
          1   -1    0    0  501    0  0.00000000000E+00 -0.00000000000E+00 -0.49306434460E+02  0.49306434460E+02  0.00000000000E+00 0. -1.
         25    2    1    2    0    0 -0.14907204640E+02  0.11493546493E+03  0.35715468723E+03  0.39577714096E+03  0.12509072247E+03 0.  0.
          5    1    3    3  502    0 -0.53538367809E+02  0.50597134129E+02  0.80956291159E+02  0.10953456207E+03  0.41800000000E+01 0.  1.
         -5    1    3    3    0  502  0.38631163169E+02  0.64338330805E+02  0.27619839607E+03  0.28624257889E+03  0.41800000000E+01 0.  1.
        -11    1    1    2    0    0 -0.22104195740E+02 -0.93527184986E+02  0.69050945663E+02  0.11833834078E+03  0.00000000000E+00 0. -1.
         11    1    1    2    0    0  0.37011400380E+02 -0.21408279949E+02  0.80052338394E+02  0.90755358468E+02  0.00000000000E+00 0.  1.
</event>
<event>
 7    1  0.2788485E-009  0.1130155E+03  0.7561462E-02  0.1255085E+00
          2   -1    0    0  501    0  0.00000000000E+00  0.00000000000E+00  0.21781687938E+03  0.21781687938E+03  0.00000000000E+00 0. -1.
         -2   -1    0    0    0  501 -0.00000000000E+00 -0.00000000000E+00 -0.74393152819E+02  0.74393152819E+02  0.00000000000E+00 0.  1.
         25    2    1    2    0    0 -0.15889277731E+02  0.53152127066E+02  0.38186987865E+02  0.14207035829E+03  0.12509245742E+03 0.  0.
          5    1    3    3  502    0  0.48909723898E+02  0.11403674263E+02 -0.95697586068E+01  0.51295784995E+02  0.41800000000E+01 0.  1.
         -5    1    3    3    0  502 -0.64799001629E+02  0.41748452803E+02  0.47756746472E+02  0.90774573296E+02  0.41800000000E+01 0.  1.
        -11    1    1    2    0    0 -0.20467053990E+02  0.12075470321E+02  0.55618711891E+02  0.60482711538E+02  0.00000000000E+00 0. -1.
         11    1    1    2    0    0  0.36356331721E+02 -0.65227597388E+02  0.49618026802E+02  0.89656962367E+02  0.00000000000E+00 0.  1.
</event>
<event>
 7    1  0.2788485E-009  0.1294725E+03  0.7561462E-02  0.1228240E+00
         -2   -1    0    0    0  501 -0.00000000000E+00  0.00000000000E+00  0.95539042625E+02  0.95539042625E+02  0.00000000000E+00 0.  1.
          2   -1    0    0  501    0  0.00000000000E+00 -0.00000000000E+00 -0.31640223778E+03  0.31640223778E+03  0.00000000000E+00 0. -1.
         25    2    1    2    0    0 -0.11007672930E+03 -0.36518916591E+01 -0.21100033580E+03  0.26888459871E+03  0.12509021972E+03 0.  0.
          5    1    3    3  502    0 -0.11207913496E+03  0.28171923393E+02 -0.98586377304E+02  0.15196096851E+03  0.41800000000E+01 0.  1.
         -5    1    3    3    0  502  0.20024056648E+01 -0.31823815052E+02 -0.11241395850E+03  0.11692363020E+03  0.41800000000E+01 0.  1.
        -11    1    1    2    0    0  0.89146489920E+02  0.88313594398E+01  0.32683444074E+02  0.95358780881E+02  0.00000000000E+00 0.  1.
         11    1    1    2    0    0  0.20930239376E+02 -0.51794677807E+01 -0.42546303427E+02  0.47697900815E+02  0.00000000000E+00 0. -1.
</event>
<event>
 7    1  0.2788485E-009  0.9903736E+02  0.7561462E-02  0.1282333E+00
         -1   -1    0    0    0  501 -0.00000000000E+00  0.00000000000E+00  0.33391775015E+02  0.33391775015E+02  0.00000000000E+00 0.  1.
          1   -1    0    0  501    0  0.00000000000E+00 -0.00000000000E+00 -0.41279938888E+03  0.41279938888E+03  0.00000000000E+00 0. -1.
         25    2    1    2    0    0  0.25177251578E+02 -0.27996097414E+02 -0.25532559211E+03  0.28680314281E+03  0.12508880554E+03 0.  0.
          5    1    3    3  502    0 -0.12073328044E+01 -0.58189417318E+02 -0.47893795879E+02  0.75490092224E+02  0.41800000000E+01 0. -1.
         -5    1    3    3    0  502  0.26384584382E+02  0.30193319904E+02 -0.20743179623E+03  0.21131305059E+03  0.41800000000E+01 0. -1.
        -11    1    1    2    0    0  0.19551201615E+02 -0.23912193167E+02 -0.30559662235E+02  0.43450378854E+02  0.00000000000E+00 0.  1.
         11    1    1    2    0    0 -0.44728453193E+02  0.51908290580E+02 -0.93522359519E+02  0.11593764223E+03  0.00000000000E+00 0. -1.
</event>
<event>
 7    1  0.2788485E-009  0.1141102E+03  0.7561462E-02  0.1253142E+00
         -2   -1    0    0    0  501 -0.00000000000E+00  0.00000000000E+00  0.16458769712E+03  0.16458769712E+03  0.00000000000E+00 0.  1.
          2   -1    0    0  501    0  0.00000000000E+00 -0.00000000000E+00 -0.10292141266E+03  0.10292141266E+03  0.00000000000E+00 0. -1.
         25    2    1    2    0    0  0.70986982168E+02  0.14267697146E+02  0.32960798162E+02  0.14824157352E+03  0.12508569497E+03 0.  0.
          5    1    3    3  502    0  0.65550314831E+02 -0.47593456122E+02  0.92563164495E+01  0.81640263561E+02  0.41800000000E+01 0. -1.
         -5    1    3    3    0  502  0.54366673372E+01  0.61861153268E+02  0.23704481713E+02  0.66601309962E+02  0.41800000000E+01 0. -1.
        -11    1    1    2    0    0 -0.29529560075E+02  0.15953034231E+02  0.52818500797E+02  0.62580254441E+02  0.00000000000E+00 0.  1.
         11    1    1    2    0    0 -0.41457422093E+02 -0.30220731377E+02 -0.24113014498E+02  0.56687281817E+02  0.00000000000E+00 0. -1.
</event>
<event>
 7    1  0.2788485E-009  0.8677780E+02  0.7561462E-02  0.1310848E+00
         -1   -1    0    0    0  501 -0.00000000000E+00  0.00000000000E+00  0.43146945166E+02  0.43146945166E+02  0.00000000000E+00 0. -1.
          1   -1    0    0  501    0  0.00000000000E+00 -0.00000000000E+00 -0.36451752373E+03  0.36451752373E+03  0.00000000000E+00 0.  1.
         25    2    1    2    0    0  0.16031928027E+02 -0.54536683244E+02 -0.22379392046E+03  0.26261150818E+03  0.12509921206E+03 0.  0.
          5    1    3    3  502    0 -0.11327793092E+02 -0.29375626721E+02 -0.22294640680E+03  0.22519728917E+03  0.41800000000E+01 0. -1.
         -5    1    3    3    0  502  0.27359721118E+02 -0.25161056524E+02 -0.84751365857E+00  0.37414219014E+02  0.41800000000E+01 0. -1.
        -11    1    1    2    0    0 -0.25046022303E+01  0.77606724738E+02 -0.86128787869E+02  0.11596225617E+03  0.00000000000E+00 0. -1.
         11    1    1    2    0    0 -0.13527325796E+02 -0.23070041494E+02 -0.11447870231E+02  0.29090704539E+02  0.00000000000E+00 0.  1.
</event>
<event>
 7    1  0.2788485E-009  0.1949557E+03  0.7561462E-02  0.1154066E+00
          2   -1    0    0  501    0  0.00000000000E+00  0.00000000000E+00  0.31394604848E+03  0.31394604848E+03  0.00000000000E+00 0. -1.
         -2   -1    0    0    0  501 -0.00000000000E+00 -0.00000000000E+00 -0.13590199458E+03  0.13590199458E+03  0.00000000000E+00 0.  1.
         25    2    1    2    0    0 -0.17009117930E+03  0.36933407018E+02  0.65608282866E+02  0.22416004151E+03  0.12509273201E+03 0.  0.
          5    1    3    3  502    0 -0.25876527259E+02 -0.37499131540E+02 -0.70612916950E+01  0.46293776792E+02  0.41800000000E+01 0.  1.
         -5    1    3    3    0  502 -0.14421465204E+03  0.74432538558E+02  0.72669574560E+02  0.17786626472E+03  0.41800000000E+01 0.  1.
        -11    1    1    2    0    0  0.89673086693E+02  0.74153567651E+01  0.13995287296E+02  0.91061067749E+02  0.00000000000E+00 0.  1.
         11    1    1    2    0    0  0.80418092604E+02 -0.44348763783E+02  0.98440483729E+02  0.13462693380E+03  0.00000000000E+00 0. -1.
</event>
<event>
 7    1  0.2788485E-009  0.9443611E+02  0.7561462E-02  0.1292451E+00
          1   -1    0    0  501    0  0.00000000000E+00  0.00000000000E+00  0.50091471188E+02  0.50091471188E+02  0.00000000000E+00 0. -1.
         -1   -1    0    0    0  501 -0.00000000000E+00 -0.00000000000E+00 -0.26629781493E+03  0.26629781493E+03  0.00000000000E+00 0.  1.
         25    2    1    2    0    0 -0.26738515993E+02 -0.10320132779E+02 -0.83815193952E+02  0.15327749801E+03  0.12509017260E+03 0.  0.
          5    1    3    3  502    0  0.29938421362E+02  0.15281663175E+02  0.14518827012E+02  0.36852503862E+02  0.41800000000E+01 0. -1.
         -5    1    3    3    0  502 -0.56676937355E+02 -0.25601795954E+02 -0.98334020965E+02  0.11642499415E+03  0.41800000000E+01 0. -1.
        -11    1    1    2    0    0  0.13670795162E+02 -0.39167629996E+02 -0.40782354314E+02  0.58173828336E+02  0.00000000000E+00 0. -1.
         11    1    1    2    0    0  0.13067720830E+02  0.49487762775E+02 -0.91608795477E+02  0.10493795977E+03  0.00000000000E+00 0.  1.
</event>
<event>
 7    1  0.2788485E-009  0.1154619E+03  0.7561462E-02  0.1250777E+00
         -2   -1    0    0    0  501 -0.00000000000E+00  0.00000000000E+00  0.35982896811E+02  0.35982896811E+02  0.00000000000E+00 0. -1.
          2   -1    0    0  501    0  0.00000000000E+00 -0.00000000000E+00 -0.44090512716E+03  0.44090512716E+03  0.00000000000E+00 0.  1.
         25    2    1    2    0    0  0.49731692478E+02 -0.23508349883E+02 -0.29459333138E+03  0.32474350041E+03  0.12508887405E+03 0.  0.
          5    1    3    3  502    0  0.79743319542E+02  0.21013973579E+02 -0.16914173245E+03  0.18822056783E+03  0.41800000000E+01 0.  1.
         -5    1    3    3    0  502 -0.30011627064E+02 -0.44522323462E+02 -0.12545159893E+03  0.13652293258E+03  0.41800000000E+01 0.  1.
        -11    1    1    2    0    0 -0.13458848782E+02  0.48575257904E+02 -0.25379467536E+02  0.56434153342E+02  0.00000000000E+00 0. -1.
         11    1    1    2    0    0 -0.36272843696E+02 -0.25066908021E+02 -0.84949431432E+02  0.95710370223E+02  0.00000000000E+00 0.  1.
</event>
<event>
 7    1  0.2788485E-009  0.1578466E+03  0.7561462E-02  0.1191150E+00
         -2   -1    0    0    0  501 -0.00000000000E+00  0.00000000000E+00  0.85385066489E+02  0.85385066489E+02  0.00000000000E+00 0.  1.
          2   -1    0    0  501    0  0.00000000000E+00 -0.00000000000E+00 -0.35596502485E+03  0.35596502485E+03  0.00000000000E+00 0. -1.
         25    2    1    2    0    0 -0.12421209743E+03  0.46205175981E+02 -0.15437166117E+03  0.23883410821E+03  0.12509019959E+03 0.  0.
          5    1    3    3  502    0  0.23552635918E+02 -0.71925171853E+01 -0.18668453546E+02  0.31184010646E+02  0.41800000000E+01 0. -1.
         -5    1    3    3    0  502 -0.14776473335E+03  0.53397693167E+02 -0.13570320763E+03  0.20765009756E+03  0.41800000000E+01 0. -1.
        -11    1    1    2    0    0  0.54794338817E+02 -0.11733680914E+02 -0.11159398933E+03  0.12487320485E+03  0.00000000000E+00 0. -1.
         11    1    1    2    0    0  0.69417758615E+02 -0.34471495067E+02 -0.46143078620E+01  0.77642778288E+02  0.00000000000E+00 0.  1.
</event>
<event>
 7    1  0.2788485E-009  0.1204600E+03  0.7561462E-02  0.1242340E+00
         -2   -1    0    0    0  501 -0.00000000000E+00  0.00000000000E+00  0.15379904790E+03  0.15379904790E+03  0.00000000000E+00 0. -1.
          2   -1    0    0  501    0  0.00000000000E+00 -0.00000000000E+00 -0.12645362785E+03  0.12645362785E+03  0.00000000000E+00 0.  1.
         25    2    1    2    0    0 -0.64735112692E+02 -0.47772132391E+02 -0.20215475547E+02  0.15008292097E+03  0.12507360339E+03 0.  0.
          5    1    3    3  502    0 -0.37129810598E+02 -0.80864330547E+02  0.19658176780E+02  0.91222689635E+02  0.41800000000E+01 0.  1.
         -5    1    3    3    0  502 -0.27605302094E+02  0.33092198157E+02 -0.39873652327E+02  0.58860231332E+02  0.41800000000E+01 0.  1.
        -11    1    1    2    0    0  0.80885497792E+02  0.43487132766E+02  0.59684661000E+02  0.10952558253E+03  0.00000000000E+00 0. -1.
         11    1    1    2    0    0 -0.16150385100E+02  0.42849996250E+01 -0.12123765403E+02  0.20644172259E+02  0.00000000000E+00 0.  1.
</event>
<event>
 7    1  0.2788485E-009  0.9884045E+02  0.7561462E-02  0.1282753E+00
          2   -1    0    0  501    0  0.00000000000E+00  0.00000000000E+00  0.32389718600E+03  0.32389718600E+03  0.00000000000E+00 0. -1.
         -2   -1    0    0    0  501 -0.00000000000E+00 -0.00000000000E+00 -0.57895403102E+02  0.57895403102E+02  0.00000000000E+00 0.  1.
         25    2    1    2    0    0 -0.49090488404E+02 -0.83038228673E+01  0.51704544578E+02  0.14421871253E+03  0.12508735983E+03 0.  0.
          5    1    3    3  502    0 -0.87949937907E+02  0.14688568775E+02  0.35475006129E+02  0.96056723296E+02  0.41800000000E+01 0.  1.
         -5    1    3    3    0  502  0.38859449503E+02 -0.22992391643E+02  0.16229538449E+02  0.48161989238E+02  0.41800000000E+01 0.  1.
        -11    1    1    2    0    0  0.53176026593E+01 -0.13250611927E+02 -0.32325875500E+01  0.14639167899E+02  0.00000000000E+00 0.  1.
         11    1    1    2    0    0  0.43772885745E+02  0.21554434795E+02  0.21752982587E+03  0.22293470867E+03  0.00000000000E+00 0. -1.
</event>
<event>
 7    1  0.4086143E-009  0.1184022E+03  0.7561462E-02  0.1245756E+00
          4   -1    0    0  501    0  0.00000000000E+00  0.00000000000E+00  0.50992970849E+03  0.50992970849E+03  0.00000000000E+00 0. -1.
         -4   -1    0    0    0  501 -0.00000000000E+00 -0.00000000000E+00 -0.40065251322E+02  0.40065251322E+02  0.00000000000E+00 0.  1.
         25    2    1    2    0    0 -0.45833646983E+02 -0.79286102842E+02  0.23140413275E+03  0.27853645763E+03  0.12509067221E+03 0.  0.
          5    1    3    3  502    0  0.10086494493E+02 -0.85532100262E+02  0.18968974847E+03  0.20836782531E+03  0.41800000000E+01 0.  1.
         -5    1    3    3    0  502 -0.55920141476E+02  0.62459974203E+01  0.41714384280E+02  0.70168632325E+02  0.41800000000E+01 0.  1.
        -11    1    1    2    0    0  0.76721565948E+01  0.34374232115E+02  0.19519545269E+03  0.19834745920E+03  0.00000000000E+00 0. -1.
         11    1    1    2    0    0  0.38161490388E+02  0.44911870727E+02  0.43264871727E+02  0.73111042985E+02  0.00000000000E+00 0.  1.
</event>
<event>
 7    1  0.2788485E-009  0.1189691E+03  0.7561462E-02  0.1244807E+00
          1   -1    0    0  501    0  0.00000000000E+00  0.00000000000E+00  0.64650919109E+03  0.64650919109E+03  0.00000000000E+00 0. -1.
         -1   -1    0    0    0  501 -0.00000000000E+00 -0.00000000000E+00 -0.30908417250E+02  0.30908417250E+02  0.00000000000E+00 0.  1.
         25    2    1    2    0    0 -0.85094584976E+02  0.10141365597E+02  0.40073265027E+03  0.42846249750E+03  0.12509803790E+03 0.  0.
          5    1    3    3  502    0 -0.92204705486E+02 -0.77209110958E+01  0.14554197366E+03  0.17251451730E+03  0.41800000000E+01 0.  1.
         -5    1    3    3    0  502  0.71101205095E+01  0.17862276693E+02  0.25519067661E+03  0.25594798020E+03  0.41800000000E+01 0.  1.
        -11    1    1    2    0    0  0.51811056547E+02 -0.51163718475E+02  0.11966931887E+03  0.14008161031E+03  0.00000000000E+00 0.  1.
         11    1    1    2    0    0  0.33283528429E+02  0.41022352878E+02  0.95198804703E+02  0.10887350053E+03  0.00000000000E+00 0. -1.
</event>
<event>
 7    1  0.2788485E-009  0.1484343E+03  0.7561462E-02  0.1202410E+00
         -2   -1    0    0    0  501 -0.00000000000E+00  0.00000000000E+00  0.22912525049E+02  0.22912525049E+02  0.00000000000E+00 0. -1.
          2   -1    0    0  501    0  0.00000000000E+00 -0.00000000000E+00 -0.14570188329E+04  0.14570188329E+04  0.00000000000E+00 0.  1.
         25    2    1    2    0    0 -0.65200236662E+02  0.11332658888E+03 -0.10218563563E+04  0.10377533579E+04  0.12509049688E+03 0.  0.
          5    1    3    3  502    0 -0.51689210314E+02  0.43628065516E+02 -0.17113975552E+03  0.18406920134E+03  0.41800000000E+01 0.  1.
         -5    1    3    3    0  502 -0.13511026348E+02  0.69698523361E+02 -0.85071660077E+03  0.85368415660E+03  0.41800000000E+01 0.  1.
        -11    1    1    2    0    0  0.45116388684E+01 -0.94259123868E+02 -0.27889425932E+03  0.29442680788E+03  0.00000000000E+00 0.  1.
         11    1    1    2    0    0  0.60688597794E+02 -0.19067465008E+02 -0.13335569226E+03  0.14775119215E+03  0.00000000000E+00 0. -1.
</event>
<event>
 7    1  0.2788485E-009  0.1177320E+03  0.7561462E-02  0.1246886E+00
          2   -1    0    0  501    0  0.00000000000E+00  0.00000000000E+00  0.72109078163E+03  0.72109078163E+03  0.00000000000E+00 0. -1.
         -2   -1    0    0    0  501 -0.00000000000E+00 -0.00000000000E+00 -0.20788771586E+02  0.20788771586E+02  0.00000000000E+00 0.  1.
         25    2    1    2    0    0  0.19010719554E+02  0.55279784120E+02  0.34288416570E+03  0.36963999124E+03  0.12508760949E+03 0.  0.
          5    1    3    3  502    0 -0.27159447200E+02 -0.30161503172E+02  0.10652943479E+03  0.11407604797E+03  0.41800000000E+01 0.  1.
         -5    1    3    3    0  502  0.46170166755E+02  0.85441287292E+02  0.23635473091E+03  0.25556394327E+03  0.41800000000E+01 0.  1.
        -11    1    1    2    0    0 -0.38248230041E+02  0.70644188175E+00  0.81349382562E+02  0.89895206795E+02  0.00000000000E+00 0.  1.
         11    1    1    2    0    0  0.19237510486E+02 -0.55986226002E+02  0.27606846179E+03  0.28234435518E+03  0.00000000000E+00 0. -1.
</event>
<event>
 7    1  0.2788485E-009  0.1138641E+03  0.7561462E-02  0.1253577E+00
         -1   -1    0    0    0  501 -0.00000000000E+00  0.00000000000E+00  0.96631130681E+02  0.96631130681E+02  0.00000000000E+00 0. -1.
          1   -1    0    0  501    0  0.00000000000E+00 -0.00000000000E+00 -0.24250374661E+03  0.24250374661E+03  0.00000000000E+00 0.  1.
         25    2    1    2    0    0 -0.12722379214E+02 -0.62768166818E+02 -0.17544030581E+03  0.22478534434E+03  0.12508976147E+03 0.  0.
          5    1    3    3  502    0  0.16987853199E+02 -0.80577428613E+02 -0.54318613355E+02  0.98738509788E+02  0.41800000000E+01 0.  1.
         -5    1    3    3    0  502 -0.29710232413E+02  0.17809261795E+02 -0.12112169246E+03  0.12604683455E+03  0.41800000000E+01 0.  1.
        -11    1    1    2    0    0 -0.38207515275E+02  0.16658351983E+02  0.13247114108E+02  0.43735579869E+02  0.00000000000E+00 0.  1.
         11    1    1    2    0    0  0.50929894488E+02  0.46109814835E+02  0.16320575777E+02  0.70613953086E+02  0.00000000000E+00 0. -1.
</event>
<event>
 7    1  0.2788485E-009  0.2008178E+03  0.7561462E-02  0.1149051E+00
         -1   -1    0    0    0  501 -0.00000000000E+00  0.00000000000E+00  0.12653249504E+03  0.12653249504E+03  0.00000000000E+00 0.  1.
          1   -1    0    0  501    0  0.00000000000E+00 -0.00000000000E+00 -0.46151701479E+03  0.46151701479E+03  0.00000000000E+00 0. -1.
         25    2    1    2    0    0  0.11190932377E+03 -0.15540089705E+03 -0.29793950902E+03  0.37561707205E+03  0.12508836171E+03 0.  0.
          5    1    3    3  502    0  0.15541021609E+02 -0.13566703707E+02 -0.14278768309E+03  0.14433077858E+03  0.41800000000E+01 0.  1.
         -5    1    3    3    0  502  0.96368302166E+02 -0.14183419334E+03 -0.15515182593E+03  0.23128629348E+03  0.41800000000E+01 0.  1.
        -11    1    1    2    0    0  0.10684064457E+02 -0.54325016338E+00 -0.34522258757E+00  0.10703435556E+02  0.00000000000E+00 0.  1.
         11    1    1    2    0    0 -0.12259338823E+03  0.15594414721E+03 -0.36699788142E+02  0.20172900222E+03  0.00000000000E+00 0. -1.
</event>
<event>
 7    1  0.2788485E-009  0.8639881E+02  0.7561462E-02  0.1311815E+00
          4   -1    0    0  501    0  0.00000000000E+00  0.00000000000E+00  0.65609858688E+02  0.65609858688E+02  0.00000000000E+00 0.  1.
         -4   -1    0    0    0  501 -0.00000000000E+00 -0.00000000000E+00 -0.18650333999E+03  0.18650333999E+03  0.00000000000E+00 0. -1.
         25    2    1    2    0    0  0.10010454190E+02 -0.11656286873E+02 -0.83938211731E+02  0.15142821249E+03  0.12509517150E+03 0.  0.
          5    1    3    3  502    0  0.51526408066E+02  0.94141611519E+01  0.30945844886E+01  0.52636926312E+02  0.41800000000E+01 0. -1.
         -5    1    3    3    0  502 -0.41515953877E+02 -0.21070448024E+02 -0.87032796220E+02  0.98791286175E+02  0.41800000000E+01 0. -1.
        -11    1    1    2    0    0  0.30422899352E+02 -0.28377454319E+01  0.14363822741E+02  0.33762775476E+02  0.00000000000E+00 0.  1.
         11    1    1    2    0    0 -0.40433353542E+02  0.14494032304E+02 -0.51319092311E+02  0.66922210713E+02  0.00000000000E+00 0. -1.
</event>
<event>
 7    1  0.2788485E-009  0.6452342E+02  0.7561462E-02  0.1379773E+00
          3   -1    0    0  501    0  0.00000000000E+00  0.00000000000E+00  0.67930416165E+02  0.67930416165E+02  0.00000000000E+00 0. -1.
         -3   -1    0    0    0  501 -0.00000000000E+00 -0.00000000000E+00 -0.21489716868E+03  0.21489716868E+03  0.00000000000E+00 0.  1.
         25    2    1    2    0    0  0.18054144913E+02  0.36985530014E+02 -0.12400566011E+03  0.18086962672E+03  0.12507012653E+03 0.  0.
          5    1    3    3  502    0  0.22898302929E+02  0.27423080052E+02 -0.14903936026E+03  0.15331849499E+03  0.41800000000E+01 0. -1.
         -5    1    3    3    0  502 -0.48441580153E+01  0.95624499616E+01  0.25033700156E+02  0.27551131730E+02  0.41800000000E+01 0. -1.
        -11    1    1    2    0    0 -0.82056589412E+01 -0.57887106981E+02  0.12353047546E+02  0.59756570994E+02  0.00000000000E+00 0. -1.
         11    1    1    2    0    0 -0.98484859721E+01  0.20901576968E+02 -0.35314139957E+02  0.42201387140E+02  0.00000000000E+00 0.  1.
</event>
<event>
 7    1  0.2788485E-009  0.1730764E+03  0.7561462E-02  0.1174677E+00
          1   -1    0    0  501    0  0.00000000000E+00  0.00000000000E+00  0.82733198152E+03  0.82733198152E+03  0.00000000000E+00 0. -1.
         -1   -1    0    0    0  501 -0.00000000000E+00 -0.00000000000E+00 -0.39136789676E+02  0.39136789676E+02  0.00000000000E+00 0.  1.
         25    2    1    2    0    0 -0.99392916392E+02  0.10236054251E+03  0.38066896238E+03  0.42533815289E+03  0.12508818047E+03 0.  0.
          5    1    3    3  502    0 -0.82290054172E+02  0.12452066092E+03  0.36158883149E+03  0.39120455451E+03  0.41800000000E+01 0. -1.
         -5    1    3    3    0  502 -0.17102862220E+02 -0.22160118402E+02  0.19080130887E+02  0.34133598380E+02  0.41800000000E+01 0. -1.
        -11    1    1    2    0    0  0.62267289406E+02 -0.11377171158E+03  0.32493001176E+03  0.34985815730E+03  0.00000000000E+00 0. -1.
         11    1    1    2    0    0  0.37125626986E+02  0.11411169069E+02  0.82596217700E+02  0.91272461000E+02  0.00000000000E+00 0.  1.
</event>
<event>
 7    1  0.2788485E-009  0.1282755E+03  0.7561462E-02  0.1230037E+00
          2   -1    0    0  501    0  0.00000000000E+00  0.00000000000E+00  0.27149918473E+03  0.27149918473E+03  0.00000000000E+00 0. -1.
         -2   -1    0    0    0  501 -0.00000000000E+00 -0.00000000000E+00 -0.67470637574E+02  0.67470637574E+02  0.00000000000E+00 0.  1.
         25    2    1    2    0    0 -0.55022234471E+02  0.49033806830E+02  0.15631157537E+03  0.21334490898E+03  0.12510388122E+03 0.  0.
          5    1    3    3  502    0  0.51475868530E+01  0.75051791886E+02  0.10852233297E+03  0.13211297540E+03  0.41800000000E+01 0.  1.
         -5    1    3    3    0  502 -0.60169821324E+02 -0.26017985055E+02  0.47789242394E+02  0.81231933580E+02  0.41800000000E+01 0.  1.
        -11    1    1    2    0    0 -0.23994979607E+02 -0.32977484820E+01  0.15750788332E+02  0.28891547630E+02  0.00000000000E+00 0.  1.
         11    1    1    2    0    0  0.79017214078E+02 -0.45736058348E+02  0.31966183462E+02  0.96733365697E+02  0.00000000000E+00 0. -1.
</event>
<event>
 7    1  0.2788485E-009  0.2030375E+03  0.7561462E-02  0.1147201E+00
          2   -1    0    0  501    0  0.00000000000E+00  0.00000000000E+00  0.99655192482E+03  0.99655192482E+03  0.00000000000E+00 0. -1.
         -2   -1    0    0    0  501 -0.00000000000E+00 -0.00000000000E+00 -0.41704821651E+02  0.41704821651E+02  0.00000000000E+00 0.  1.
         25    2    1    2    0    0  0.21053085659E+02 -0.16998938383E+03  0.50803271664E+03  0.55053072071E+03  0.12508880942E+03 0.  0.
          5    1    3    3  502    0 -0.50182050807E+02 -0.92090086046E+02  0.22051891383E+03  0.24422302497E+03  0.41800000000E+01 0. -1.
         -5    1    3    3    0  502  0.71235136465E+02 -0.77899297785E+02  0.28751380281E+03  0.30630769574E+03  0.41800000000E+01 0. -1.
        -11    1    1    2    0    0  0.44254760407E+01 -0.11439323079E+02  0.25232905452E+02  0.28056059386E+02  0.00000000000E+00 0.  1.
         11    1    1    2    0    0 -0.25478561699E+02  0.18142870691E+03  0.42158148108E+03  0.45966996638E+03  0.00000000000E+00 0. -1.
</event>
<event>
 7    1  0.2788485E-009  0.1414127E+03  0.7561462E-02  0.1211441E+00
         -2   -1    0    0    0  501 -0.00000000000E+00  0.00000000000E+00  0.47708270261E+02  0.47708270261E+02  0.00000000000E+00 0.  1.
          2   -1    0    0  501    0  0.00000000000E+00 -0.00000000000E+00 -0.60020169287E+03  0.60020169287E+03  0.00000000000E+00 0. -1.
         25    2    1    2    0    0 -0.11589096578E+03  0.51905175796E+02 -0.24779119218E+03  0.30524342255E+03  0.12509280101E+03 0.  0.
          5    1    3    3  502    0 -0.73869628039E+02  0.40498988129E+02 -0.24752410501E+03  0.26150056395E+03  0.41800000000E+01 0. -1.
         -5    1    3    3    0  502 -0.42021337741E+02  0.11406187667E+02 -0.26708716753E+00  0.43742858596E+02  0.41800000000E+01 0. -1.
        -11    1    1    2    0    0  0.10692644106E+03 -0.50650442597E+01 -0.18382620186E+03  0.21272280311E+03  0.00000000000E+00 0.  1.
         11    1    1    2    0    0  0.89645247169E+01 -0.46840131537E+02 -0.12087602857E+03  0.12994373747E+03  0.00000000000E+00 0. -1.
</event>
<event>
 7    1  0.2788485E-009  0.1395503E+03  0.7561462E-02  0.1213935E+00
          1   -1    0    0  501    0  0.00000000000E+00  0.00000000000E+00  0.15081498791E+04  0.15081498791E+04  0.00000000000E+00 0. -1.
         -1   -1    0    0    0  501 -0.00000000000E+00 -0.00000000000E+00 -0.24587025331E+02  0.24587025331E+02  0.00000000000E+00 0.  1.
         25    2    1    2    0    0  0.86015825463E+02 -0.59667385876E+02  0.12504300333E+04  0.12610237667E+04  0.12508698114E+03 0.  0.
          5    1    3    3  502    0  0.76512281920E+02 -0.83973440918E+02  0.63972360180E+03  0.64974566344E+03  0.41800000000E+01 0. -1.
         -5    1    3    3    0  502  0.95035435429E+01  0.24306055042E+02  0.61070643154E+03  0.61127810330E+03  0.41800000000E+01 0. -1.
        -11    1    1    2    0    0 -0.98761483636E+02  0.24744612839E+02  0.18120832029E+03  0.20785230780E+03  0.00000000000E+00 0.  1.
         11    1    1    2    0    0  0.12745658173E+02  0.34922773037E+02  0.51924500124E+02  0.63860829872E+02  0.00000000000E+00 0. -1.
</event>
<event>
 7    1  0.2788485E-009  0.1175096E+03  0.7561462E-02  0.1247263E+00
         -3   -1    0    0    0  501 -0.00000000000E+00  0.00000000000E+00  0.77369252541E+03  0.77369252541E+03  0.00000000000E+00 0.  1.
          3   -1    0    0  501    0  0.00000000000E+00 -0.00000000000E+00 -0.23923165309E+02  0.23923165309E+02  0.00000000000E+00 0. -1.
         25    2    1    2    0    0  0.61867283679E+02 -0.32394199732E+02  0.53274053561E+03  0.55166774892E+03  0.12509149433E+03 0.  0.
          5    1    3    3  502    0  0.97277800776E+02 -0.34461114836E+02  0.32937417247E+03  0.34518887127E+03  0.41800000000E+01 0.  1.
         -5    1    3    3    0  502 -0.35410517096E+02  0.20669151037E+01  0.20336636314E+03  0.20647887765E+03  0.41800000000E+01 0.  1.
        -11    1    1    2    0    0  0.49908837802E+01  0.28620458397E+02  0.14384911022E+03  0.14675355556E+03  0.00000000000E+00 0.  1.
         11    1    1    2    0    0 -0.66858167459E+02  0.37737413353E+01  0.73179714279E+02  0.99194386241E+02  0.00000000000E+00 0. -1.
</event>
<event>
 7    1  0.2788485E-009  0.2732383E+03  0.7561462E-02  0.1099440E+00
         -2   -1    0    0    0  501 -0.00000000000E+00  0.00000000000E+00  0.49312268352E+03  0.49312268352E+03  0.00000000000E+00 0. -1.
          2   -1    0    0  501    0  0.00000000000E+00 -0.00000000000E+00 -0.15591810294E+03  0.15591810294E+03  0.00000000000E+00 0.  1.
         25    2    1    2    0    0 -0.16386097599E+02 -0.25174188311E+03  0.13167327436E+03  0.31084966906E+03  0.12508871120E+03 0.  0.
          5    1    3    3  502    0 -0.64813151572E+02 -0.99104162746E+02  0.34168433994E+02  0.12331801966E+03  0.41800000000E+01 0. -1.
         -5    1    3    3    0  502  0.48427053973E+02 -0.15263772036E+03  0.97504840365E+02  0.18753164941E+03  0.41800000000E+01 0. -1.
        -11    1    1    2    0    0  0.51333846836E+02  0.19039140097E+03  0.16237619593E+03  0.25544094895E+03  0.00000000000E+00 0. -1.
         11    1    1    2    0    0 -0.34947749236E+02  0.61350482136E+02  0.43155110292E+02  0.82750168455E+02  0.00000000000E+00 0.  1.
</event>
<event>
 7    1  0.2788485E-009  0.1314742E+03  0.7561462E-02  0.1225285E+00
          2   -1    0    0  501    0  0.00000000000E+00  0.00000000000E+00  0.51727978822E+03  0.51727978822E+03  0.00000000000E+00 0. -1.
         -2   -1    0    0    0  501 -0.00000000000E+00 -0.00000000000E+00 -0.73458316696E+02  0.73458316696E+02  0.00000000000E+00 0.  1.
         25    2    1    2    0    0 -0.42263581326E+02  0.77815380771E+02  0.43813759024E+03  0.46417512385E+03  0.12511016676E+03 0.  0.
          5    1    3    3  502    0 -0.64925087398E+02  0.59739301505E+01  0.29738425535E+03  0.30447630867E+03  0.41800000000E+01 0.  1.
         -5    1    3    3    0  502  0.22661506073E+02  0.71841450620E+02  0.14075333490E+03  0.15969881518E+03  0.41800000000E+01 0.  1.
        -11    1    1    2    0    0 -0.25955253781E+02 -0.22064081780E+02  0.16405705711E+02  0.37810660977E+02  0.00000000000E+00 0. -1.
         11    1    1    2    0    0  0.68218835107E+02 -0.55751298991E+02 -0.10721824428E+02  0.88752320091E+02  0.00000000000E+00 0.  1.
</event>
<event>
 7    1  0.2788485E-009  0.9910740E+02  0.7561462E-02  0.1282184E+00
         -2   -1    0    0    0  501 -0.00000000000E+00  0.00000000000E+00  0.41314460237E+02  0.41314460237E+02  0.00000000000E+00 0.  1.
          2   -1    0    0  501    0  0.00000000000E+00 -0.00000000000E+00 -0.40631910466E+03  0.40631910466E+03  0.00000000000E+00 0. -1.
         25    2    1    2    0    0  0.27158975714E+02 -0.62256368395E+00 -0.32466517143E+03  0.34899380004E+03  0.12510476160E+03 0.  0.
          5    1    3    3  502    0  0.12338885110E+02  0.62082706497E+02 -0.16375492403E+03  0.17561223783E+03  0.41800000000E+01 0. -1.
         -5    1    3    3    0  502  0.14820090604E+02 -0.62705270180E+02 -0.16091024741E+03  0.17338156221E+03  0.41800000000E+01 0. -1.
        -11    1    1    2    0    0 -0.48614044594E+02  0.24733800318E+01 -0.54340013962E+02  0.72953958480E+02  0.00000000000E+00 0. -1.
         11    1    1    2    0    0  0.21455068879E+02 -0.18508163478E+01  0.14000540973E+02  0.25685806378E+02  0.00000000000E+00 0.  1.
</event>
<event>
 7    1  0.2788485E-009  0.1040675E+03  0.7561462E-02  0.1271968E+00
          2   -1    0    0  501    0  0.00000000000E+00  0.00000000000E+00  0.22036533983E+03  0.22036533983E+03  0.00000000000E+00 0. -1.
         -2   -1    0    0    0  501 -0.00000000000E+00 -0.00000000000E+00 -0.63957798903E+02  0.63957798903E+02  0.00000000000E+00 0.  1.
         25    2    1    2    0    0 -0.13592010818E+02 -0.19653176819E+02  0.13947803879E+03  0.18887240289E+03  0.12509065174E+03 0.  0.
          5    1    3    3  502    0 -0.30254745193E+02 -0.62601749222E+02  0.42946891005E+02  0.81830535006E+02  0.41800000000E+01 0. -1.
         -5    1    3    3    0  502  0.16662734375E+02  0.42948572403E+02  0.96531147785E+02  0.10704186789E+03  0.41800000000E+01 0. -1.
        -11    1    1    2    0    0  0.44529802254E+02  0.35973210521E+02  0.16176742642E+01  0.57267722444E+02  0.00000000000E+00 0. -1.
         11    1    1    2    0    0 -0.30937791436E+02 -0.16320033702E+02  0.15311827871E+02  0.38183013392E+02  0.00000000000E+00 0.  1.
</event>
<event>
 7    1  0.2788485E-009  0.1697498E+03  0.7561462E-02  0.1178109E+00
          2   -1    0    0  501    0  0.00000000000E+00  0.00000000000E+00  0.86871004038E+03  0.86871004038E+03  0.00000000000E+00 0. -1.
         -2   -1    0    0    0  501 -0.00000000000E+00 -0.00000000000E+00 -0.45081943600E+02  0.45081943600E+02  0.00000000000E+00 0.  1.
         25    2    1    2    0    0  0.10830351133E+03 -0.12751366965E+03  0.43119385399E+03  0.47912747217E+03  0.12508240626E+03 0.  0.
          5    1    3    3  502    0  0.16091277140E+02 -0.43830101093E+02  0.22755871348E+02  0.52108627334E+02  0.41800000000E+01 0. -1.
         -5    1    3    3    0  502  0.92212234191E+02 -0.83683568558E+02  0.40843798264E+03  0.42701884483E+03  0.41800000000E+01 0. -1.
        -11    1    1    2    0    0 -0.27421164159E+02  0.43398456313E+02  0.45382703821E+02  0.68519603475E+02  0.00000000000E+00 0.  1.
         11    1    1    2    0    0 -0.80882347171E+02  0.84115213338E+02  0.34705153897E+03  0.36614490834E+03  0.00000000000E+00 0. -1.
</event>
<event>
 7    1  0.2788485E-009  0.1296257E+03  0.7561462E-02  0.1228012E+00
         -1   -1    0    0    0  501 -0.00000000000E+00  0.00000000000E+00  0.14434668051E+03  0.14434668051E+03  0.00000000000E+00 0.  1.
          1   -1    0    0  501    0  0.00000000000E+00 -0.00000000000E+00 -0.17237701018E+03  0.17237701018E+03  0.00000000000E+00 0. -1.
         25    2    1    2    0    0  0.38677275150E+02 -0.91264249651E+02  0.41952811130E+02  0.16502434903E+03  0.12509157659E+03 0.  0.
          5    1    3    3  502    0 -0.82867567953E+01  0.21337076845E+02 -0.17622571027E+02  0.29188501093E+02  0.41800000000E+01 0.  1.
         -5    1    3    3    0  502  0.46964031945E+02 -0.11260132650E+03  0.59575382157E+02  0.13583584794E+03  0.41800000000E+01 0.  1.
        -11    1    1    2    0    0 -0.47719164686E+02  0.41229111953E+02  0.25560285323E+01  0.63114908165E+02  0.00000000000E+00 0.  1.
         11    1    1    2    0    0  0.90418895363E+01  0.50035137698E+02 -0.72539169329E+02  0.88584433496E+02  0.00000000000E+00 0. -1.
</event>
<event>
 7    1  0.2788485E-009  0.9743492E+02  0.7561462E-02  0.1285784E+00
         -2   -1    0    0    0  501 -0.00000000000E+00  0.00000000000E+00  0.80912108001E+02  0.80912108001E+02  0.00000000000E+00 0.  1.
          2   -1    0    0  501    0  0.00000000000E+00 -0.00000000000E+00 -0.16495862771E+03  0.16495862771E+03  0.00000000000E+00 0. -1.
         25    2    1    2    0    0  0.51602018305E+02  0.11023993779E+02 -0.54073254428E+02  0.14613636732E+03  0.12509046438E+03 0.  0.
          5    1    3    3  502    0  0.70749763807E+02 -0.96182584474E+01 -0.80227991738E+02  0.10748043093E+03  0.41800000000E+01 0. -1.
         -5    1    3    3    0  502 -0.19147745502E+02  0.20642252226E+02  0.26154737310E+02  0.38655936395E+02  0.41800000000E+01 0. -1.
        -11    1    1    2    0    0  0.21319075818E+02 -0.24476300589E+01 -0.97919796278E+01  0.23587639807E+02  0.00000000000E+00 0. -1.
         11    1    1    2    0    0 -0.72921094124E+02 -0.85763637199E+01 -0.20181285652E+02  0.76146728580E+02  0.00000000000E+00 0.  1.
</event>
<event>
 7    1  0.2788485E-009  0.7782472E+02  0.7561462E-02  0.1335340E+00
         -1   -1    0    0    0  501 -0.00000000000E+00  0.00000000000E+00  0.33168801731E+02  0.33168801731E+02  0.00000000000E+00 0.  1.
          1   -1    0    0  501    0  0.00000000000E+00 -0.00000000000E+00 -0.45819308981E+03  0.45819308981E+03  0.00000000000E+00 0. -1.
         25    2    1    2    0    0  0.32721928451E+02 -0.35887100104E+02 -0.17150624121E+03  0.21776005825E+03  0.12508574515E+03 0.  0.
          5    1    3    3  502    0  0.30739412707E+02 -0.47208496758E+01  0.10467102430E+02  0.33079155801E+02  0.41800000000E+01 0. -1.
         -5    1    3    3    0  502  0.19825157437E+01 -0.31166250428E+02 -0.18197334364E+03  0.18468090245E+03  0.41800000000E+01 0. -1.
        -11    1    1    2    0    0 -0.23587849225E+02 -0.23133782217E+02 -0.15428318922E+03  0.15778105395E+03  0.00000000000E+00 0. -1.
         11    1    1    2    0    0 -0.91340792263E+01  0.59020882321E+02 -0.99234857644E+02  0.11582077933E+03  0.00000000000E+00 0.  1.
</event>
<event>
 7    1  0.2788485E-009  0.1340331E+03  0.7561462E-02  0.1221591E+00
          1   -1    0    0  501    0  0.00000000000E+00  0.00000000000E+00  0.11169969054E+04  0.11169969054E+04  0.00000000000E+00 0. -1.
         -1   -1    0    0    0  501 -0.00000000000E+00 -0.00000000000E+00 -0.17249585527E+02  0.17249585527E+02  0.00000000000E+00 0.  1.
         25    2    1    2    0    0  0.31852465944E+02  0.78241873115E+02  0.60423353863E+03  0.62280151464E+03  0.12508871710E+03 0.  0.
          5    1    3    3  502    0 -0.45734198511E+01 -0.33117336396E+02  0.13794958149E+03  0.14200434350E+03  0.41800000000E+01 0. -1.
         -5    1    3    3    0  502  0.36425885795E+02  0.11135920951E+03  0.46628395714E+03  0.48079717115E+03  0.41800000000E+01 0. -1.
        -11    1    1    2    0    0 -0.37254630548E+02  0.14276646180E+01  0.79122744053E+02  0.87466304083E+02  0.00000000000E+00 0.  1.
         11    1    1    2    0    0  0.54021646041E+01 -0.79669537733E+02  0.41639103715E+03  0.42397867216E+03  0.00000000000E+00 0. -1.
</event>
<event>
 7    1  0.2788485E-009  0.2361827E+03  0.7561462E-02  0.1122362E+00
          1   -1    0    0  501    0  0.00000000000E+00  0.00000000000E+00  0.69307235557E+02  0.69307235557E+02  0.00000000000E+00 0. -1.
         -1   -1    0    0    0  501 -0.00000000000E+00 -0.00000000000E+00 -0.88173760050E+03  0.88173760050E+03  0.00000000000E+00 0.  1.
         25    2    1    2    0    0  0.53250124510E+02  0.21307089963E+03 -0.35859318900E+03  0.43871651983E+03  0.12509326738E+03 0.  0.
          5    1    3    3  502    0  0.24210759444E+02  0.22092782361E+03 -0.31917514215E+03  0.38895437764E+03  0.41800000000E+01 0. -1.
         -5    1    3    3    0  502  0.29039365066E+02 -0.78569239785E+01 -0.39418046846E+02  0.49762142187E+02  0.41800000000E+01 0. -1.
        -11    1    1    2    0    0 -0.27618399268E+02 -0.98388400299E+02 -0.31103116244E+03  0.32738881670E+03  0.00000000000E+00 0.  1.
         11    1    1    2    0    0 -0.25631725242E+02 -0.11468249933E+03 -0.14280601350E+03  0.18493949953E+03  0.00000000000E+00 0. -1.
</event>
<event>
 7    1  0.2788485E-009  0.3288336E+03  0.7561462E-02  0.1071654E+00
         -2   -1    0    0    0  501 -0.00000000000E+00  0.00000000000E+00  0.64570746970E+02  0.64570746970E+02  0.00000000000E+00 0.  1.
          2   -1    0    0  501    0  0.00000000000E+00 -0.00000000000E+00 -0.19323926011E+04  0.19323926011E+04  0.00000000000E+00 0. -1.
         25    2    1    2    0    0  0.23253292495E+03  0.21277949065E+03 -0.61841253823E+03  0.70528619478E+03  0.12509147169E+03 0.  0.
          5    1    3    3  502    0  0.13753412277E+03  0.19526287679E+03 -0.48366148113E+03  0.53943408004E+03  0.41800000000E+01 0.  1.
         -5    1    3    3    0  502  0.94998802176E+02  0.17516613859E+02 -0.13475105710E+03  0.16585211474E+03  0.41800000000E+01 0.  1.
        -11    1    1    2    0    0 -0.86094049461E+02 -0.12365700081E+03 -0.46691273616E+03  0.49062281071E+03  0.00000000000E+00 0. -1.
         11    1    1    2    0    0 -0.14643887549E+03 -0.89122489840E+02 -0.78249657970E+03  0.80105434254E+03  0.00000000000E+00 0.  1.
</event>
<event>
 7    1  0.2788485E-009  0.1019669E+03  0.7561462E-02  0.1276213E+00
          2   -1    0    0  501    0  0.00000000000E+00  0.00000000000E+00  0.87716235144E+02  0.87716235144E+02  0.00000000000E+00 0. -1.
         -2   -1    0    0    0  501 -0.00000000000E+00 -0.00000000000E+00 -0.22516134927E+03  0.22516134927E+03  0.00000000000E+00 0.  1.
         25    2    1    2    0    0 -0.87196909554E+02  0.11425227921E+02 -0.91006757324E+02  0.17794073123E+03  0.12508731784E+03 0.  0.
          5    1    3    3  502    0  0.66898420292E+01  0.22171020216E+01 -0.82745545571E+02  0.83150269029E+02  0.41800000000E+01 0. -1.
         -5    1    3    3    0  502 -0.93886751583E+02  0.92081258995E+01 -0.82612117523E+01  0.94790462205E+02  0.41800000000E+01 0. -1.
        -11    1    1    2    0    0  0.64669655097E+02  0.15201401709E+02 -0.67080118927E+02  0.94408629159E+02  0.00000000000E+00 0.  1.
         11    1    1    2    0    0  0.22527254457E+02 -0.26626629630E+02  0.20641762124E+02  0.40528224022E+02  0.00000000000E+00 0. -1.
</event>
<event>
 7    1  0.2788485E-009  0.1032763E+03  0.7561462E-02  0.1273553E+00
         -1   -1    0    0    0  501 -0.00000000000E+00  0.00000000000E+00  0.12951712220E+03  0.12951712220E+03  0.00000000000E+00 0.  1.
          1   -1    0    0  501    0  0.00000000000E+00 -0.00000000000E+00 -0.10302937698E+03  0.10302937698E+03  0.00000000000E+00 0. -1.
         25    2    1    2    0    0  0.14094862610E+02  0.52130742017E+01  0.51003683701E+02  0.13592182121E+03  0.12509006530E+03 0.  0.
          5    1    3    3  502    0  0.68600595874E+01 -0.56926357778E+02  0.41299034549E+01  0.57638521233E+02  0.41800000000E+01 0.  1.
         -5    1    3    3    0  502  0.72348030223E+01  0.62139431979E+02  0.46873780247E+02  0.78283299982E+02  0.41800000000E+01 0.  1.
        -11    1    1    2    0    0 -0.12535002797E+02 -0.44914781110E+02  0.53250411986E+01  0.46934208431E+02  0.00000000000E+00 0.  1.
         11    1    1    2    0    0 -0.15598598130E+01  0.39701706908E+02 -0.29840979685E+02  0.49690469535E+02  0.00000000000E+00 0. -1.
</event>
<event>
 7    1  0.2788485E-009  0.1278335E+03  0.7561462E-02  0.1230706E+00
         -2   -1    0    0    0  501 -0.00000000000E+00  0.00000000000E+00  0.46433131697E+03  0.46433131697E+03  0.00000000000E+00 0.  1.
          2   -1    0    0  501    0  0.00000000000E+00 -0.00000000000E+00 -0.48710448469E+02  0.48710448469E+02  0.00000000000E+00 0. -1.
         25    2    1    2    0    0  0.10170229952E+02  0.86914359321E+02  0.32085771352E+03  0.35532287361E+03  0.12508849966E+03 0.  0.
          5    1    3    3  502    0 -0.20417181273E+02 -0.24787118409E+02  0.39802672699E+02  0.51312646435E+02  0.41800000000E+01 0.  1.
         -5    1    3    3    0  502  0.30587411225E+02  0.11170147773E+03  0.28105504083E+03  0.30401022717E+03  0.41800000000E+01 0.  1.
        -11    1    1    2    0    0 -0.92450142610E+01  0.81502090439E+01  0.52060889647E+02  0.53499835766E+02  0.00000000000E+00 0.  1.
         11    1    1    2    0    0 -0.92521569073E+00 -0.95064568365E+02  0.42702265328E+02  0.10421905606E+03  0.00000000000E+00 0. -1.
</event>
<event>
 7    1  0.2788485E-009  0.1568763E+03  0.7561462E-02  0.1192269E+00
          1   -1    0    0  501    0  0.00000000000E+00  0.00000000000E+00  0.11060481369E+04  0.11060481369E+04  0.00000000000E+00 0. -1.
         -1   -1    0    0    0  501 -0.00000000000E+00 -0.00000000000E+00 -0.22714414226E+02  0.22714414226E+02  0.00000000000E+00 0.  1.
         25    2    1    2    0    0  0.72409774274E+01  0.11185749534E+03  0.65925041902E+03  0.68030951737E+03  0.12508154712E+03 0.  0.
          5    1    3    3  502    0 -0.20398082514E+02 -0.22529121713E+02  0.12425415601E+03  0.12798519751E+03  0.41800000000E+01 0. -1.
         -5    1    3    3    0  502  0.27639059941E+02  0.13438661706E+03  0.53499626301E+03  0.55232431986E+03  0.41800000000E+01 0. -1.
        -11    1    1    2    0    0  0.42339235351E+01 -0.12685641607E+03  0.36756153058E+03  0.38885981429E+03  0.00000000000E+00 0.  1.
         11    1    1    2    0    0 -0.11474900962E+02  0.14998920726E+02  0.56521773103E+02  0.59593219495E+02  0.00000000000E+00 0. -1.
</event>
<event>
 7    1  0.2788485E-009  0.1097529E+03  0.7561462E-02  0.1261028E+00
         -2   -1    0    0    0  501 -0.00000000000E+00  0.00000000000E+00  0.48136819696E+02  0.48136819696E+02  0.00000000000E+00 0.  1.
          2   -1    0    0  501    0  0.00000000000E+00 -0.00000000000E+00 -0.34888510667E+03  0.34888510667E+03  0.00000000000E+00 0. -1.
         25    2    1    2    0    0  0.19983453830E+02 -0.17570192982E+02 -0.26515282258E+03  0.29438497546E+03  0.12509374225E+03 0.  0.
          5    1    3    3  502    0  0.15399994460E+02 -0.70914832009E+02 -0.17425608635E+03  0.18880871076E+03  0.41800000000E+01 0. -1.
         -5    1    3    3    0  502  0.45834593698E+01  0.53344639027E+02 -0.90896736230E+02  0.10557626471E+03  0.41800000000E+01 0. -1.
        -11    1    1    2    0    0 -0.55685764113E+02  0.91583409702E+01 -0.34079699267E+02  0.65925757002E+02  0.00000000000E+00 0.  1.
         11    1    1    2    0    0  0.35702310283E+02  0.84118520115E+01 -0.15157651327E+01  0.36711193903E+02  0.00000000000E+00 0. -1.
</event>
<event>
 7    1  0.2788485E-009  0.5564956E+02  0.7561462E-02  0.1417052E+00
          1   -1    0    0  501    0  0.00000000000E+00  0.00000000000E+00  0.53974248597E+02  0.53974248597E+02  0.00000000000E+00 0. -1.
         -1   -1    0    0    0  501 -0.00000000000E+00 -0.00000000000E+00 -0.23647799917E+03  0.23647799917E+03  0.00000000000E+00 0.  1.
         25    2    1    2    0    0 -0.24610663649E+02 -0.10473067932E+02 -0.12381761726E+03  0.17802559529E+03  0.12508773048E+03 0.  0.
          5    1    3    3  502    0 -0.25372653886E+01  0.26540550925E+01 -0.14461103150E+03  0.14471801739E+03  0.41800000000E+01 0. -1.
         -5    1    3    3    0  502 -0.22073398260E+02 -0.13127123025E+02  0.20793414241E+02  0.33307577899E+02  0.41800000000E+01 0. -1.
        -11    1    1    2    0    0 -0.12977349889E+02  0.33299939152E+02 -0.58377993080E+02  0.68449160943E+02  0.00000000000E+00 0.  1.
         11    1    1    2    0    0  0.37588013538E+02 -0.22826871220E+02 -0.30814022973E+00  0.43977491537E+02  0.00000000000E+00 0. -1.
</event>
<event>
 7    1  0.2788485E-009  0.1919501E+03  0.7561462E-02  0.1156714E+00
         -2   -1    0    0    0  501 -0.00000000000E+00  0.00000000000E+00  0.12383849962E+03  0.12383849962E+03  0.00000000000E+00 0. -1.
          2   -1    0    0  501    0  0.00000000000E+00 -0.00000000000E+00 -0.50909496687E+03  0.50909496687E+03  0.00000000000E+00 0.  1.
         25    2    1    2    0    0 -0.15008466188E+03 -0.78722698146E+02 -0.38652938541E+03  0.44019931455E+03  0.12509117398E+03 0.  0.
          5    1    3    3  502    0 -0.10993962858E+03  0.59565795176E+00 -0.13974119564E+03  0.17785429682E+03  0.41800000000E+01 0. -1.
         -5    1    3    3    0  502 -0.40145033295E+02 -0.79318356098E+02 -0.24678818977E+03  0.26234501772E+03  0.41800000000E+01 0. -1.
        -11    1    1    2    0    0  0.22812768936E+02 -0.14579927441E+02 -0.19776942259E+02  0.33527960806E+02  0.00000000000E+00 0.  1.
         11    1    1    2    0    0  0.12727189294E+03  0.93302625587E+02  0.21049860423E+02  0.15920619114E+03  0.00000000000E+00 0. -1.
</event>
<event>
 7    1  0.2788485E-009  0.1937824E+03  0.7561462E-02  0.1155093E+00
         -2   -1    0    0    0  501 -0.00000000000E+00  0.00000000000E+00  0.34797525564E+02  0.34797525564E+02  0.00000000000E+00 0.  1.
          2   -1    0    0  501    0  0.00000000000E+00 -0.00000000000E+00 -0.16592909481E+04  0.16592909481E+04  0.00000000000E+00 0. -1.
         25    2    1    2    0    0 -0.12565302883E+03  0.14674602292E+03 -0.11610521988E+04  0.11836444284E+04  0.12509534573E+03 0.  0.
          5    1    3    3  502    0 -0.11026176808E+03  0.12479329194E+03 -0.62230273313E+03  0.64421206701E+03  0.41800000000E+01 0.  1.
         -5    1    3    3    0  502 -0.15391260748E+02  0.21952730988E+02 -0.53874946568E+03  0.53943236136E+03  0.41800000000E+01 0.  1.
        -11    1    1    2    0    0  0.48353598189E+02 -0.44836216027E+02 -0.27428419370E+03  0.28209958461E+03  0.00000000000E+00 0. -1.
         11    1    1    2    0    0  0.77299430637E+02 -0.10190980690E+03 -0.18915703000E+03  0.22834446066E+03  0.00000000000E+00 0.  1.
</event>
<event>
 7    1  0.2788485E-009  0.1308881E+03  0.7561462E-02  0.1226144E+00
          2   -1    0    0  501    0  0.00000000000E+00  0.00000000000E+00  0.12136128884E+04  0.12136128884E+04  0.00000000000E+00 0. -1.
         -2   -1    0    0    0  501 -0.00000000000E+00 -0.00000000000E+00 -0.15553293582E+02  0.15553293582E+02  0.00000000000E+00 0.  1.
         25    2    1    2    0    0  0.68194352777E+02  0.47343805319E+02  0.69629333280E+03  0.71229479294E+03  0.12509021182E+03 0.  0.
          5    1    3    3  502    0 -0.27147246321E+02  0.41125919675E+02  0.15757395976E+03  0.16515247333E+03  0.41800000000E+01 0. -1.
         -5    1    3    3    0  502  0.95341599098E+02  0.62178856444E+01  0.53871937303E+03  0.54714231960E+03  0.41800000000E+01 0. -1.
        -11    1    1    2    0    0  0.13699527879E+02 -0.29993662629E+02  0.74341084794E+02  0.81325849214E+02  0.00000000000E+00 0. -1.
         11    1    1    2    0    0 -0.81893880657E+02 -0.17350142691E+02  0.42742517720E+03  0.43554553980E+03  0.00000000000E+00 0.  1.
</event>
<event>
 7    1  0.2788485E-009  0.2916945E+03  0.7561462E-02  0.1089468E+00
          1   -1    0    0  501    0  0.00000000000E+00  0.00000000000E+00  0.54703353203E+03  0.54703353203E+03  0.00000000000E+00 0. -1.
         -1   -1    0    0    0  501 -0.00000000000E+00 -0.00000000000E+00 -0.16952368799E+03  0.16952368799E+03  0.00000000000E+00 0.  1.
         25    2    1    2    0    0 -0.13393660247E+03  0.24876586167E+03  0.15609932926E+03  0.34617616685E+03  0.12508984964E+03 0.  0.
          5    1    3    3  502    0 -0.91010285915E+02  0.22036062616E+03  0.74886680155E+02  0.24993432131E+03  0.41800000000E+01 0.  1.
         -5    1    3    3    0  502 -0.42926316559E+02  0.28405235510E+02  0.81212649110E+02  0.96241845541E+02  0.41800000000E+01 0.  1.
        -11    1    1    2    0    0  0.29143835278E+02 -0.72621442162E+01  0.69610023022E+01  0.30831111339E+02  0.00000000000E+00 0.  1.
         11    1    1    2    0    0  0.10479276720E+03 -0.24150371745E+03  0.21444951247E+03  0.33954994183E+03  0.00000000000E+00 0. -1.
</event>
<event>
 7    1  0.2788485E-009  0.1216412E+03  0.7561462E-02  0.1240414E+00
          2   -1    0    0  501    0  0.00000000000E+00  0.00000000000E+00  0.19107616482E+03  0.19107616482E+03  0.00000000000E+00 0. -1.
         -2   -1    0    0    0  501 -0.00000000000E+00 -0.00000000000E+00 -0.15601216265E+03  0.15601216265E+03  0.00000000000E+00 0.  1.
         25    2    1    2    0    0 -0.93908168598E+02  0.66049224097E+02 -0.51129935951E+02  0.17732186555E+03  0.12509008562E+03 0.  0.
          5    1    3    3  502    0 -0.65887655732E+02  0.11661325905E+02 -0.84214953804E+02  0.10764200176E+03  0.41800000000E+01 0.  1.
         -5    1    3    3    0  502 -0.28020512866E+02  0.54387898192E+02  0.33085017853E+02  0.69679863787E+02  0.41800000000E+01 0.  1.
        -11    1    1    2    0    0  0.26526847662E+02 -0.15975614086E+02  0.79771701497E+02  0.85571129781E+02  0.00000000000E+00 0. -1.
         11    1    1    2    0    0  0.67381320936E+02 -0.50073610011E+02  0.64222366150E+01  0.84195332137E+02  0.00000000000E+00 0.  1.
</event>
<event>
 7    1  0.2788485E-009  0.8279690E+02  0.7561462E-02  0.1321297E+00
         -4   -1    0    0    0  501 -0.00000000000E+00  0.00000000000E+00  0.40828898518E+02  0.40828898518E+02  0.00000000000E+00 0. -1.
          4   -1    0    0  501    0  0.00000000000E+00 -0.00000000000E+00 -0.30824462470E+03  0.30824462470E+03  0.00000000000E+00 0.  1.
         25    2    1    2    0    0  0.84482884179E+01  0.14397475997E+02 -0.11441259374E+03  0.17034115747E+03  0.12508879817E+03 0.  0.
          5    1    3    3  502    0 -0.35886033710E+02  0.27496350792E+02  0.15554498609E+01  0.45428499278E+02  0.41800000000E+01 0. -1.
         -5    1    3    3    0  502  0.44334322128E+02 -0.13098874795E+02 -0.11596804360E+03  0.12491265819E+03  0.41800000000E+01 0. -1.
        -11    1    1    2    0    0 -0.17093202112E+02  0.26741057110E+02 -0.12314898336E+03  0.12717285008E+03  0.00000000000E+00 0.  1.
         11    1    1    2    0    0  0.86449136945E+01 -0.41138533107E+02 -0.29854149081E+02  0.51559515672E+02  0.00000000000E+00 0. -1.
</event>
<event>
 7    1  0.2788485E-009  0.1186932E+03  0.7561462E-02  0.1245269E+00
         -1   -1    0    0    0  501 -0.00000000000E+00  0.00000000000E+00  0.29462911016E+03  0.29462911016E+03  0.00000000000E+00 0.  1.
          1   -1    0    0  501    0  0.00000000000E+00 -0.00000000000E+00 -0.12300783423E+03  0.12300783423E+03  0.00000000000E+00 0. -1.
         25    2    1    2    0    0 -0.10940625250E+02 -0.69800238226E+02 -0.61802189447E+02  0.15638696899E+03  0.12508238450E+03 0.  0.
          5    1    3    3  502    0 -0.23793133658E+02 -0.10204735124E+03 -0.29879317611E+02  0.10904137345E+03  0.41800000000E+01 0.  1.
         -5    1    3    3    0  502  0.12852508408E+02  0.32247113012E+02 -0.31922871837E+02  0.47345595532E+02  0.41800000000E+01 0.  1.
        -11    1    1    2    0    0 -0.26679573824E+02  0.13657433158E+02  0.16864764949E+02  0.34391066233E+02  0.00000000000E+00 0. -1.
         11    1    1    2    0    0  0.37620199074E+02  0.56142805069E+02  0.21655870043E+03  0.22685890917E+03  0.00000000000E+00 0.  1.
</event>
<event>
 7    1  0.2788485E-009  0.9518811E+02  0.7561462E-02  0.1290753E+00
         -3   -1    0    0    0  501 -0.00000000000E+00  0.00000000000E+00  0.13089618870E+02  0.13089618870E+02  0.00000000000E+00 0.  1.
          3   -1    0    0  501    0  0.00000000000E+00 -0.00000000000E+00 -0.13764738898E+04  0.13764738898E+04  0.00000000000E+00 0. -1.
         25    2    1    2    0    0  0.15077752436E+02  0.70090956176E+02 -0.91900304171E+03  0.93024393504E+03  0.12508839777E+03 0.  0.
          5    1    3    3  502    0 -0.78682812841E+01  0.70808141903E+01 -0.29856988037E+01  0.11765822424E+02  0.41800000000E+01 0. -1.
         -5    1    3    3    0  502  0.22946033720E+02  0.63010141986E+02 -0.91601734290E+03  0.91847811262E+03  0.41800000000E+01 0. -1.
        -11    1    1    2    0    0 -0.18110512295E+02 -0.89931132625E+02 -0.40324461830E+03  0.41354784663E+03  0.00000000000E+00 0. -1.
         11    1    1    2    0    0  0.30327598592E+01  0.19840176449E+02 -0.41136610955E+02  0.45771727024E+02  0.00000000000E+00 0.  1.
</event>
<event>
 7    1  0.2788485E-009  0.1007158E+03  0.7561462E-02  0.1278798E+00
         -1   -1    0    0    0  501 -0.00000000000E+00  0.00000000000E+00  0.54471288589E+02  0.54471288589E+02  0.00000000000E+00 0.  1.
          1   -1    0    0  501    0  0.00000000000E+00 -0.00000000000E+00 -0.26386105959E+03  0.26386105959E+03  0.00000000000E+00 0. -1.
         25    2    1    2    0    0  0.30176857065E+02  0.38316847785E+02 -0.10038786271E+03  0.16764235892E+03  0.12508962386E+03 0.  0.
          5    1    3    3  502    0  0.49901395416E+02  0.67394430842E+02 -0.10213340285E+03  0.13221521452E+03  0.41800000000E+01 0.  1.
         -5    1    3    3    0  502 -0.19724538351E+02 -0.29077583057E+02  0.17455401422E+01  0.35427144395E+02  0.41800000000E+01 0.  1.
        -11    1    1    2    0    0 -0.42023016724E+02 -0.45891142312E-01 -0.10160245517E+03  0.10994996560E+03  0.00000000000E+00 0. -1.
         11    1    1    2    0    0  0.11846159659E+02 -0.38270956643E+02 -0.73994531245E+01  0.40740023657E+02  0.00000000000E+00 0.  1.
</event>
<event>
 7    1  0.2788485E-009  0.1634642E+03  0.7561462E-02  0.1184840E+00
          1   -1    0    0  501    0  0.00000000000E+00  0.00000000000E+00  0.10497653149E+04  0.10497653149E+04  0.00000000000E+00 0. -1.
         -1   -1    0    0    0  501 -0.00000000000E+00 -0.00000000000E+00 -0.34817491212E+02  0.34817491212E+02  0.00000000000E+00 0.  1.
         25    2    1    2    0    0  0.74783615152E+02 -0.13271569559E+03  0.60413554640E+03  0.63547825656E+03  0.12508721429E+03 0.  0.
          5    1    3    3  502    0  0.37003540082E+02 -0.48029720080E+01  0.36484699282E+02  0.52353951144E+02  0.41800000000E+01 0.  1.
         -5    1    3    3    0  502  0.37780075070E+02 -0.12791272358E+03  0.56765084712E+03  0.58312430541E+03  0.41800000000E+01 0.  1.
        -11    1    1    2    0    0 -0.36597832887E+02  0.96921873542E+02  0.36542495901E+03  0.37982713386E+03  0.00000000000E+00 0.  1.
         11    1    1    2    0    0 -0.38185782265E+02  0.35793822046E+02  0.45387318224E+02  0.69277415652E+02  0.00000000000E+00 0. -1.
</event>
<event>
 7    1  0.2788485E-009  0.1089603E+03  0.7561462E-02  0.1262508E+00
          2   -1    0    0  501    0  0.00000000000E+00  0.00000000000E+00  0.62432721787E+03  0.62432721787E+03  0.00000000000E+00 0. -1.
         -2   -1    0    0    0  501 -0.00000000000E+00 -0.00000000000E+00 -0.26163705541E+02  0.26163705541E+02  0.00000000000E+00 0.  1.
         25    2    1    2    0    0  0.22446443281E+02  0.61189361457E+02  0.29735607429E+03  0.32911729023E+03  0.12509826155E+03 0.  0.
          5    1    3    3  502    0 -0.26415273634E+02  0.54988546070E+02  0.26017533908E+03  0.26726426313E+03  0.41800000000E+01 0. -1.
         -5    1    3    3    0  502  0.48861716914E+02  0.62008153876E+01  0.37180735204E+02  0.61853027102E+02  0.41800000000E+01 0. -1.
        -11    1    1    2    0    0 -0.15173049826E+02 -0.82987443314E+02  0.27043112552E+03  0.28328454042E+03  0.00000000000E+00 0. -1.
         11    1    1    2    0    0 -0.72733934552E+01  0.21798081857E+02  0.30376312523E+02  0.38089092763E+02  0.00000000000E+00 0.  1.
</event>
<event>
 7    1  0.2788485E-009  0.1129166E+03  0.7561462E-02  0.1255262E+00
          1   -1    0    0  501    0  0.00000000000E+00  0.00000000000E+00  0.18809570224E+03  0.18809570224E+03  0.00000000000E+00 0. -1.
         -1   -1    0    0    0  501 -0.00000000000E+00 -0.00000000000E+00 -0.11741245472E+03  0.11741245472E+03  0.00000000000E+00 0.  1.
         25    2    1    2    0    0  0.44551255737E+02  0.22538583147E+02  0.12893248543E+03  0.18645273749E+03  0.12509290707E+03 0.  0.
          5    1    3    3  502    0 -0.20734418315E+02  0.49753400169E+02  0.22422885297E+02  0.58528412897E+02  0.41800000000E+01 0.  1.
         -5    1    3    3    0  502  0.65285674051E+02 -0.27214817022E+02  0.10650960014E+03  0.12792432459E+03  0.41800000000E+01 0.  1.
        -11    1    1    2    0    0  0.18085140057E+02 -0.32789661817E+02 -0.35592808132E+02  0.51663160992E+02  0.00000000000E+00 0.  1.
         11    1    1    2    0    0 -0.62636395794E+02  0.10251078670E+02 -0.22656429782E+02  0.67392258475E+02  0.00000000000E+00 0. -1.
</event>
<event>
 7    1  0.2788485E-009  0.1105118E+03  0.7561462E-02  0.1259625E+00
          1   -1    0    0  501    0  0.00000000000E+00  0.00000000000E+00  0.70010235010E+02  0.70010235010E+02  0.00000000000E+00 0. -1.
         -1   -1    0    0    0  501 -0.00000000000E+00 -0.00000000000E+00 -0.31707898104E+03  0.31707898104E+03  0.00000000000E+00 0.  1.
         25    2    1    2    0    0  0.75176679209E+02 -0.22082755025E+02 -0.21738233841E+03  0.26275833234E+03  0.12509068309E+03 0.  0.
          5    1    3    3  502    0  0.84321005394E+02 -0.28394518156E+01 -0.22453486715E+03  0.23989888162E+03  0.41800000000E+01 0. -1.
         -5    1    3    3    0  502 -0.91443261845E+01 -0.19243303210E+02  0.71525287400E+01  0.22859450719E+02  0.41800000000E+01 0. -1.
        -11    1    1    2    0    0 -0.75194282912E+02  0.47813796949E+02 -0.38586118351E+02  0.97104211498E+02  0.00000000000E+00 0.  1.
         11    1    1    2    0    0  0.17603702295E-01 -0.25731041924E+02  0.88997107352E+01  0.27226672208E+02  0.00000000000E+00 0. -1.
</event>
<event>
 7    1  0.2788485E-009  0.1274849E+03  0.7561462E-02  0.1231236E+00
         -3   -1    0    0    0  501 -0.00000000000E+00  0.00000000000E+00  0.71919023561E+02  0.71919023561E+02  0.00000000000E+00 0.  1.
          3   -1    0    0  501    0  0.00000000000E+00 -0.00000000000E+00 -0.26911121773E+03  0.26911121773E+03  0.00000000000E+00 0. -1.
         25    2    1    2    0    0 -0.73734148272E+02  0.20938651745E+02 -0.56798439085E+02  0.15732203998E+03  0.12509600243E+03 0.  0.
          5    1    3    3  502    0  0.12842291812E+02  0.45330219306E+02 -0.47111385034E+02  0.66758581779E+02  0.41800000000E+01 0. -1.
         -5    1    3    3    0  502 -0.86576440084E+02 -0.24391567561E+02 -0.96870540502E+01  0.90563458204E+02  0.41800000000E+01 0. -1.
        -11    1    1    2    0    0  0.70097775444E+02  0.22818767060E+02 -0.77059215059E+02  0.10664200335E+03  0.00000000000E+00 0. -1.
         11    1    1    2    0    0  0.36363728283E+01 -0.43757418805E+02 -0.63334540029E+02  0.77066197963E+02  0.00000000000E+00 0.  1.
</event>
<event>
 7    1  0.2788485E-009  0.1294538E+03  0.7561462E-02  0.1228268E+00
         -2   -1    0    0    0  501 -0.00000000000E+00  0.00000000000E+00  0.17936509397E+02  0.17936509397E+02  0.00000000000E+00 0.  1.
          2   -1    0    0  501    0  0.00000000000E+00 -0.00000000000E+00 -0.96466521644E+03  0.96466521644E+03  0.00000000000E+00 0. -1.
         25    2    1    2    0    0  0.33690066234E+02  0.64537482933E+02 -0.58012583798E+03  0.59790821464E+03  0.12509251763E+03 0.  0.
          5    1    3    3  502    0  0.59522411104E+01 -0.37302041050E+02 -0.12305760784E+03  0.12879254128E+03  0.41800000000E+01 0. -1.
         -5    1    3    3    0  502  0.27737825124E+02  0.10183952398E+03 -0.45706823014E+03  0.46911567336E+03  0.41800000000E+01 0. -1.
        -11    1    1    2    0    0 -0.64186116896E+02 -0.36463869494E+02 -0.26126166566E+03  0.27149056950E+03  0.00000000000E+00 0.  1.
         11    1    1    2    0    0  0.30496050661E+02 -0.28073613439E+02 -0.10534120340E+03  0.11320294170E+03  0.00000000000E+00 0. -1.
</event>
<event>
 7    1  0.2788485E-009  0.9752656E+02  0.7561462E-02  0.1285585E+00
         -2   -1    0    0    0  501 -0.00000000000E+00  0.00000000000E+00  0.37119486768E+02  0.37119486768E+02  0.00000000000E+00 0.  1.
          2   -1    0    0  501    0  0.00000000000E+00 -0.00000000000E+00 -0.49550543747E+03  0.49550543747E+03  0.00000000000E+00 0. -1.
         25    2    1    2    0    0 -0.23181447598E+02 -0.20534177462E+02 -0.39750568393E+03  0.41787419212E+03  0.12509612192E+03 0.  0.
          5    1    3    3  502    0  0.37388030495E+02 -0.40629820767E+02 -0.26524484079E+03  0.27096299586E+03  0.41800000000E+01 0. -1.
         -5    1    3    3    0  502 -0.60569478093E+02  0.20095643305E+02 -0.13226084315E+03  0.14691119626E+03  0.41800000000E+01 0. -1.
        -11    1    1    2    0    0 -0.87275511599E+01  0.38248356140E+02 -0.67101058963E+02  0.77728109527E+02  0.00000000000E+00 0. -1.
         11    1    1    2    0    0  0.31908998758E+02 -0.17714178679E+02  0.62207921972E+01  0.37022622591E+02  0.00000000000E+00 0.  1.
</event>
<event>
 7    1  0.2788485E-009  0.1037913E+03  0.7561462E-02  0.1272519E+00
          3   -1    0    0  501    0  0.00000000000E+00  0.00000000000E+00  0.77872687603E+03  0.77872687603E+03  0.00000000000E+00 0. -1.
         -3   -1    0    0    0  501 -0.00000000000E+00 -0.00000000000E+00 -0.18275012913E+02  0.18275012913E+02  0.00000000000E+00 0.  1.
         25    2    1    2    0    0 -0.15755452520E+01 -0.39118340857E+02  0.52792062808E+03  0.54394902240E+03  0.12509045723E+03 0.  0.
          5    1    3    3  502    0  0.95628519785E+01  0.35982335271E+02  0.66693412625E+02  0.76496145504E+02  0.41800000000E+01 0. -1.
         -5    1    3    3    0  502 -0.11138397231E+02 -0.75100676128E+02  0.46122721545E+03  0.46745287690E+03  0.41800000000E+01 0. -1.
        -11    1    1    2    0    0 -0.41618688884E+02  0.25411497663E+02  0.16232592330E+03  0.16949207903E+03  0.00000000000E+00 0. -1.
         11    1    1    2    0    0  0.43194234136E+02  0.13706843194E+02  0.70205311735E+02  0.83560787506E+02  0.00000000000E+00 0.  1.
</event>
<event>
 7    1  0.2788485E-009  0.1856949E+03  0.7561462E-02  0.1162403E+00
         -2   -1    0    0    0  501 -0.00000000000E+00  0.00000000000E+00  0.31595421488E+03  0.31595421488E+03  0.00000000000E+00 0. -1.
          2   -1    0    0  501    0  0.00000000000E+00 -0.00000000000E+00 -0.14133677623E+03  0.14133677623E+03  0.00000000000E+00 0.  1.
         25    2    1    2    0    0 -0.16448974721E+03  0.84656085906E+01  0.16906905804E+03  0.26713351989E+03  0.12508967823E+03 0.  0.
          5    1    3    3  502    0  0.20334289849E+02 -0.46800954603E+01  0.13926138598E+02  0.25432191676E+02  0.41800000000E+01 0. -1.
         -5    1    3    3    0  502 -0.18482403706E+03  0.13145704051E+02  0.15514291944E+03  0.24170132822E+03  0.41800000000E+01 0. -1.
        -11    1    1    2    0    0  0.69794834999E+02 -0.13241048938E+01 -0.44527478871E+02  0.82799568966E+02  0.00000000000E+00 0.  1.
         11    1    1    2    0    0  0.94694912211E+02 -0.71415036968E+01  0.50075859475E+02  0.10735790225E+03  0.00000000000E+00 0. -1.
</event>
<event>
 7    1  0.2788485E-009  0.1924541E+03  0.7561462E-02  0.1156266E+00
         -2   -1    0    0    0  501 -0.00000000000E+00  0.00000000000E+00  0.48778215448E+03  0.48778215448E+03  0.00000000000E+00 0.  1.
          2   -1    0    0  501    0  0.00000000000E+00 -0.00000000000E+00 -0.96217300346E+02  0.96217300346E+02  0.00000000000E+00 0. -1.
         25    2    1    2    0    0  0.95364265605E+02  0.15576152387E+03  0.14734118113E+03  0.26592133880E+03  0.12509492116E+03 0.  0.
          5    1    3    3  502    0  0.10009272240E+03  0.89535157997E+02  0.14732878244E+03  0.19939493506E+03  0.41800000000E+01 0.  1.
         -5    1    3    3    0  502 -0.47284567907E+01  0.66226365877E+02  0.12398691297E-01  0.66526403740E+02  0.41800000000E+01 0.  1.
        -11    1    1    2    0    0 -0.23887964232E+02 -0.59574887186E+02  0.26272524098E+02  0.69354506276E+02  0.00000000000E+00 0. -1.
         11    1    1    2    0    0 -0.71476301374E+02 -0.96186636688E+02  0.21795114891E+03  0.24872360975E+03  0.00000000000E+00 0.  1.
</event>
<event>
 7    1  0.2788485E-009  0.1107885E+03  0.7561462E-02  0.1259117E+00
          1   -1    0    0  501    0  0.00000000000E+00  0.00000000000E+00  0.33282946872E+02  0.33282946872E+02  0.00000000000E+00 0. -1.
         -1   -1    0    0    0  501 -0.00000000000E+00 -0.00000000000E+00 -0.67345652485E+03  0.67345652485E+03  0.00000000000E+00 0.  1.
         25    2    1    2    0    0  0.88065027912E+02  0.46063717882E+02 -0.28449083860E+03  0.32628228241E+03  0.12509106812E+03 0.  0.
          5    1    3    3  502    0  0.25678714593E+02  0.30004303948E+02 -0.24991438137E+03  0.25305004457E+03  0.41800000000E+01 0.  1.
         -5    1    3    3    0  502  0.62386313320E+02  0.16059413934E+02 -0.34576457223E+02  0.73232237844E+02  0.41800000000E+01 0.  1.
        -11    1    1    2    0    0 -0.93582928699E+02 -0.26909321760E+02 -0.34363676308E+03  0.35716676929E+03  0.00000000000E+00 0.  1.
         11    1    1    2    0    0  0.55179007860E+01 -0.19154396122E+02 -0.12045976302E+02  0.23290420026E+02  0.00000000000E+00 0. -1.
</event>
<event>
 7    1  0.2788485E-009  0.6794779E+02  0.7561462E-02  0.1367214E+00
         -3   -1    0    0    0  501 -0.00000000000E+00  0.00000000000E+00  0.87344593751E+02  0.87344593751E+02  0.00000000000E+00 0.  1.
          3   -1    0    0  501    0  0.00000000000E+00 -0.00000000000E+00 -0.17853363912E+03  0.17853363912E+03  0.00000000000E+00 0. -1.
         25    2    1    2    0    0  0.49589096840E+02  0.22435812814E+02 -0.19099019048E+02  0.13775338275E+03  0.12509507468E+03 0.  0.
          5    1    3    3  502    0  0.40464780106E+01 -0.88392118690E+01  0.48904772613E+02  0.50036535003E+02  0.41800000000E+01 0. -1.
         -5    1    3    3    0  502  0.45542618829E+02  0.31275024683E+02 -0.68003791661E+02  0.87716847749E+02  0.41800000000E+01 0. -1.
        -11    1    1    2    0    0 -0.24924282847E+02  0.11910145509E+02  0.14911814773E+02  0.31391617691E+02  0.00000000000E+00 0.  1.
         11    1    1    2    0    0 -0.24664813993E+02 -0.34345958322E+02 -0.87001841093E+02  0.96733232428E+02  0.00000000000E+00 0. -1.
</event>
<event>
 7    1  0.2788485E-009  0.4008558E+02  0.7561462E-02  0.1507583E+00
          1   -1    0    0  501    0  0.00000000000E+00  0.00000000000E+00  0.65433586242E+02  0.65433586242E+02  0.00000000000E+00 0. -1.
         -1   -1    0    0    0  501 -0.00000000000E+00 -0.00000000000E+00 -0.18725329342E+03  0.18725329342E+03  0.00000000000E+00 0.  1.
         25    2    1    2    0    0 -0.11947737975E+02  0.72587464916E+01 -0.90458521290E+02  0.15500195494E+03  0.12508966432E+03 0.  0.
          5    1    3    3  502    0 -0.20922645289E+02 -0.10061748799E+02  0.27004455856E+02  0.35856783331E+02  0.41800000000E+01 0. -1.
         -5    1    3    3    0  502  0.89749073135E+01  0.17320495291E+02 -0.11746297715E+03  0.11914517161E+03  0.41800000000E+01 0. -1.
        -11    1    1    2    0    0 -0.93659623623E+01 -0.11569995189E+02 -0.59947387392E+02  0.61767914768E+02  0.00000000000E+00 0.  1.
         11    1    1    2    0    0  0.21313700338E+02  0.43112486972E+01  0.28586201504E+02  0.35917009951E+02  0.00000000000E+00 0. -1.
</event>
<event>
 7    1  0.2788485E-009  0.1686191E+03  0.7561462E-02  0.1179296E+00
          1   -1    0    0  501    0  0.00000000000E+00  0.00000000000E+00  0.50092030952E+02  0.50092030952E+02  0.00000000000E+00 0. -1.
         -1   -1    0    0    0  501 -0.00000000000E+00 -0.00000000000E+00 -0.74245179171E+03  0.74245179171E+03  0.00000000000E+00 0.  1.
         25    2    1    2    0    0 -0.15661357166E+03  0.23674582391E+02 -0.33129196381E+03  0.38793117500E+03  0.12509170466E+03 0.  0.
          5    1    3    3  502    0 -0.16172854604E+03  0.21003420819E+02 -0.20758629768E+03  0.26402047208E+03  0.41800000000E+01 0.  1.
         -5    1    3    3    0  502  0.51149743788E+01  0.26711615716E+01 -0.12370566613E+03  0.12391070293E+03  0.41800000000E+01 0.  1.
        -11    1    1    2    0    0  0.75883922293E+02 -0.38184144177E+02 -0.26504885473E+03  0.27832947010E+03  0.00000000000E+00 0.  1.
         11    1    1    2    0    0  0.80729649371E+02  0.14509561786E+02 -0.96018942214E+02  0.12628317756E+03  0.00000000000E+00 0. -1.
</event>
<event>
 7    1  0.2788485E-009  0.1031113E+03  0.7561462E-02  0.1273886E+00
         -2   -1    0    0    0  501 -0.00000000000E+00  0.00000000000E+00  0.26351836455E+02  0.26351836455E+02  0.00000000000E+00 0.  1.
          2   -1    0    0  501    0  0.00000000000E+00 -0.00000000000E+00 -0.73875866769E+03  0.73875866769E+03  0.00000000000E+00 0. -1.
         25    2    1    2    0    0  0.33711589801E+02 -0.56507986714E+02 -0.52610870306E+03  0.54476360993E+03  0.12508956559E+03 0.  0.
          5    1    3    3  502    0  0.55508388396E+02 -0.36277699829E+02 -0.11696786702E+03  0.13452214316E+03  0.41800000000E+01 0. -1.
         -5    1    3    3    0  502 -0.21796798595E+02 -0.20230286884E+02 -0.40914083605E+03  0.41024146677E+03  0.41800000000E+01 0. -1.
        -11    1    1    2    0    0  0.29177448764E+02  0.28896553915E+02 -0.11138251625E+03  0.11871141171E+03  0.00000000000E+00 0. -1.
         11    1    1    2    0    0 -0.62889038565E+02  0.27611432799E+02 -0.74915611921E+02  0.10163548250E+03  0.00000000000E+00 0.  1.
</event>
<event>
 7    1  0.2788485E-009  0.4841927E+03  0.7561462E-02  0.1017989E+00
         -1   -1    0    0    0  501 -0.00000000000E+00  0.00000000000E+00  0.12131931545E+03  0.12131931545E+03  0.00000000000E+00 0.  1.
          1   -1    0    0  501    0  0.00000000000E+00 -0.00000000000E+00 -0.20091476395E+04  0.20091476395E+04  0.00000000000E+00 0. -1.
         25    2    1    2    0    0 -0.44823229557E+03 -0.15316714040E+03 -0.11363470891E+04  0.12374588222E+04  0.12508903278E+03 0.  0.
          5    1    3    3  502    0 -0.13709883218E+03  0.11905914545E+02 -0.32132179155E+03  0.34957546640E+03  0.41800000000E+01 0. -1.
         -5    1    3    3    0  502 -0.31113346339E+03 -0.16507305494E+03 -0.81502529752E+03  0.88788335580E+03  0.41800000000E+01 0. -1.
        -11    1    1    2    0    0  0.40444900370E+03  0.11524561730E+03 -0.61819562743E+03  0.74768066892E+03  0.00000000000E+00 0.  1.
         11    1    1    2    0    0  0.43783291874E+02  0.37921523101E+02 -0.13328560757E+03  0.14532746384E+03  0.00000000000E+00 0. -1.
</event>
<event>
 7    1  0.2788485E-009  0.1069967E+03  0.7561462E-02  0.1266235E+00
          2   -1    0    0  501    0  0.00000000000E+00  0.00000000000E+00  0.71225637522E+02  0.71225637522E+02  0.00000000000E+00 0. -1.
         -2   -1    0    0    0  501 -0.00000000000E+00 -0.00000000000E+00 -0.33603851933E+03  0.33603851933E+03  0.00000000000E+00 0.  1.
         25    2    1    2    0    0  0.33415498284E+02  0.97327225159E+02 -0.90848054868E+02  0.18571647144E+03  0.12509218364E+03 0.  0.
          5    1    3    3  502    0 -0.32366485904E+01 -0.10877761802E+01 -0.79859751221E+02  0.80041935360E+02  0.41800000000E+01 0.  1.
         -5    1    3    3    0  502  0.36652146875E+02  0.98415001339E+02 -0.10988303648E+02  0.10567453608E+03  0.41800000000E+01 0.  1.
        -11    1    1    2    0    0 -0.15821741852E+02 -0.62551800408E+02 -0.17064287435E+03  0.18243367512E+03  0.00000000000E+00 0.  1.
         11    1    1    2    0    0 -0.17593756432E+02 -0.34775424751E+02 -0.33219525851E+01  0.39114010290E+02  0.00000000000E+00 0. -1.
</event>
<event>
 7    1  0.2788485E-009  0.2291665E+03  0.7561462E-02  0.1127228E+00
         -2   -1    0    0    0  501 -0.00000000000E+00  0.00000000000E+00  0.56159222598E+02  0.56159222598E+02  0.00000000000E+00 0. -1.
          2   -1    0    0  501    0  0.00000000000E+00 -0.00000000000E+00 -0.10625567948E+04  0.10625567948E+04  0.00000000000E+00 0.  1.
         25    2    1    2    0    0 -0.10831483493E+03  0.17926258380E+03 -0.65892911727E+03  0.70263918484E+03  0.12508822915E+03 0.  0.
          5    1    3    3  502    0 -0.49692071690E+02  0.10606394071E+02 -0.66022500692E+02  0.83416069085E+02  0.41800000000E+01 0. -1.
         -5    1    3    3    0  502 -0.58622763237E+02  0.16865618973E+03 -0.59290661658E+03  0.61922311575E+03  0.41800000000E+01 0. -1.
        -11    1    1    2    0    0  0.12482949144E+03 -0.15001260293E+03 -0.30130876733E+03  0.35898907538E+03  0.00000000000E+00 0. -1.
         11    1    1    2    0    0 -0.16514656513E+02 -0.29249980877E+02 -0.46159687626E+02  0.57087757205E+02  0.00000000000E+00 0.  1.
</event>
<event>
 7    1  0.2788485E-009  0.1083240E+03  0.7561462E-02  0.1263705E+00
         -1   -1    0    0    0  501 -0.00000000000E+00  0.00000000000E+00  0.87594112355E+02  0.87594112355E+02  0.00000000000E+00 0.  1.
          1   -1    0    0  501    0  0.00000000000E+00 -0.00000000000E+00 -0.47346407717E+03  0.47346407717E+03  0.00000000000E+00 0. -1.
         25    2    1    2    0    0  0.88256133718E+01  0.74358787886E+02 -0.41502474569E+03  0.43988875970E+03  0.12509780409E+03 0.  0.
          5    1    3    3  502    0 -0.54438860169E+02  0.21659442827E+02 -0.22900077211E+03  0.23641393145E+03  0.41800000000E+01 0. -1.
         -5    1    3    3    0  502  0.63264473540E+02  0.52699345059E+02 -0.18602397359E+03  0.20347482825E+03  0.41800000000E+01 0. -1.
        -11    1    1    2    0    0 -0.41477595814E+01 -0.63579745184E+02  0.60396311882E+02  0.87791243277E+02  0.00000000000E+00 0.  1.
         11    1    1    2    0    0 -0.46778537905E+01 -0.10779042703E+02 -0.31241530998E+02  0.33378186541E+02  0.00000000000E+00 0. -1.
</event>
<event>
 7    1  0.2788485E-009  0.1497437E+03  0.7561462E-02  0.1200788E+00
          1   -1    0    0  501    0  0.00000000000E+00  0.00000000000E+00  0.25715685549E+03  0.25715685549E+03  0.00000000000E+00 0. -1.
         -1   -1    0    0    0  501 -0.00000000000E+00 -0.00000000000E+00 -0.13625767626E+03  0.13625767626E+03  0.00000000000E+00 0.  1.
         25    2    1    2    0    0  0.39141604309E+02  0.10943412974E+03  0.16661775534E+03  0.23857029376E+03  0.12508562959E+03 0.  0.
          5    1    3    3  502    0 -0.27629300096E+02 -0.74401496664E+00  0.51495761189E-01  0.27953655108E+02  0.41800000000E+01 0. -1.
         -5    1    3    3    0  502  0.66770904406E+02  0.11017814471E+03  0.16656625958E+03  0.21061663865E+03  0.41800000000E+01 0. -1.
        -11    1    1    2    0    0  0.17753751464E+02 -0.72873045075E+02 -0.34331886937E+01  0.75083041855E+02  0.00000000000E+00 0.  1.
         11    1    1    2    0    0 -0.56895355773E+02 -0.36561084663E+02 -0.42285387421E+02  0.79761196140E+02  0.00000000000E+00 0. -1.
</event>
<event>
 7    1  0.2788485E-009  0.2902934E+03  0.7561462E-02  0.1090196E+00
         -1   -1    0    0    0  501 -0.00000000000E+00  0.00000000000E+00  0.92706047929E+02  0.92706047929E+02  0.00000000000E+00 0.  1.
          1   -1    0    0  501    0  0.00000000000E+00 -0.00000000000E+00 -0.11241836963E+04  0.11241836963E+04  0.00000000000E+00 0. -1.
         25    2    1    2    0    0  0.20298001934E+02  0.27434084348E+03 -0.28201602554E+03  0.41334407288E+03  0.12508147999E+03 0.  0.
          5    1    3    3  502    0 -0.31844794958E+02  0.21614721421E+03 -0.23981209581E+03  0.32443955195E+03  0.41800000000E+01 0. -1.
         -5    1    3    3    0  502  0.52142796892E+02  0.58193629274E+02 -0.42203929730E+02  0.88904520922E+02  0.41800000000E+01 0. -1.
        -11    1    1    2    0    0 -0.40678568694E+02 -0.95271956403E+02 -0.35611510474E+03  0.37087660947E+03  0.00000000000E+00 0. -1.
         11    1    1    2    0    0  0.20380566760E+02 -0.17906888708E+03 -0.39334651812E+03  0.43266906191E+03  0.00000000000E+00 0.  1.
</event>
<event>
 7    1  0.2788485E-009  0.1017549E+03  0.7561462E-02  0.1276648E+00
          1   -1    0    0  501    0  0.00000000000E+00  0.00000000000E+00  0.49993274078E+03  0.49993274078E+03  0.00000000000E+00 0. -1.
         -1   -1    0    0    0  501 -0.00000000000E+00 -0.00000000000E+00 -0.43844276849E+02  0.43844276849E+02  0.00000000000E+00 0.  1.
         25    2    1    2    0    0  0.74580527560E+02 -0.21319031987E+02  0.12783066569E+03  0.19494658270E+03  0.12508690899E+03 0.  0.
          5    1    3    3  502    0  0.13247199767E+02 -0.21318712832E+02 -0.21592191711E+02  0.33371708997E+02  0.41800000000E+01 0.  1.
         -5    1    3    3    0  502  0.61333327793E+02 -0.31915506803E-03  0.14942285740E+03  0.16157487370E+03  0.41800000000E+01 0.  1.
        -11    1    1    2    0    0 -0.87550617967E+02  0.38014694593E+02  0.24514623497E+03  0.26307205141E+03  0.00000000000E+00 0.  1.
         11    1    1    2    0    0  0.12970090407E+02 -0.16695662605E+02  0.83111563273E+02  0.85758383524E+02  0.00000000000E+00 0. -1.
</event>
<event>
 7    1  0.5176347E-009  0.1520130E+03  0.7561462E-02  0.1198021E+00
         -1   -1    0    0    0  501 -0.00000000000E+00  0.00000000000E+00  0.53074742382E+02  0.53074742382E+02  0.00000000000E+00 0.  1.
          1   -1    0    0  501    0  0.00000000000E+00 -0.00000000000E+00 -0.51218646759E+03  0.51218646759E+03  0.00000000000E+00 0. -1.
         25    2    1    2    0    0 -0.43361970635E+02  0.11543469068E+03 -0.22579064563E+03  0.28606725810E+03  0.12509049602E+03 0.  0.
          5    1    3    3  502    0 -0.60132133736E+02  0.13954949694E+01 -0.75709996689E+02  0.96784796908E+02  0.41800000000E+01 0. -1.
         -5    1    3    3    0  502  0.16770163101E+02  0.11403919571E+03 -0.15008064894E+03  0.18928246120E+03  0.41800000000E+01 0. -1.
        -11    1    1    2    0    0  0.44805184742E+02 -0.71145564061E+02 -0.68291455531E+02  0.10831859842E+03  0.00000000000E+00 0.  1.
         11    1    1    2    0    0 -0.14432141074E+01 -0.44289126619E+02 -0.16502962404E+03  0.17087535344E+03  0.00000000000E+00 0. -1.
</event>
<event>
 7    1  0.2788485E-009  0.7172131E+02  0.7561462E-02  0.1354336E+00
          3   -1    0    0  501    0  0.00000000000E+00  0.00000000000E+00  0.23213670137E+03  0.23213670137E+03  0.00000000000E+00 0. -1.
         -3   -1    0    0    0  501 -0.00000000000E+00 -0.00000000000E+00 -0.65863264348E+02  0.65863264348E+02  0.00000000000E+00 0.  1.
         25    2    1    2    0    0  0.24525465031E+02 -0.15312020899E+01  0.32466312972E+02  0.13153841488E+03  0.12507777619E+03 0.  0.
          5    1    3    3  502    0  0.29764321654E+02  0.32403035702E+02  0.68544275377E+02  0.81557719764E+02  0.41800000000E+01 0.  1.
         -5    1    3    3    0  502 -0.52388566228E+01 -0.33934237792E+02 -0.36077962405E+02  0.49980695119E+02  0.41800000000E+01 0.  1.
        -11    1    1    2    0    0  0.19378484291E+02  0.65749177476E+01  0.11763670650E+03  0.11940330780E+03  0.00000000000E+00 0. -1.
         11    1    1    2    0    0 -0.43903949322E+02 -0.50437156577E+01  0.16170417545E+02  0.47058243033E+02  0.00000000000E+00 0.  1.
</event>
<event>
 7    1  0.3130874E-009  0.1494276E+03  0.7561462E-02  0.1201178E+00
         -2   -1    0    0    0  501 -0.00000000000E+00  0.00000000000E+00  0.21263621053E+03  0.21263621053E+03  0.00000000000E+00 0.  1.
          2   -1    0    0  501    0  0.00000000000E+00 -0.00000000000E+00 -0.12973725949E+03  0.12973725949E+03  0.00000000000E+00 0. -1.
         25    2    1    2    0    0 -0.99511465025E+02 -0.59903447564E+02 -0.51383965124E+01  0.17077692380E+03  0.12508956744E+03 0.  0.
          5    1    3    3  502    0 -0.25282004536E+02  0.27015494873E+02 -0.36536782881E+02  0.52167284958E+02  0.41800000000E+01 0. -1.
         -5    1    3    3    0  502 -0.74229460489E+02 -0.86918942437E+02  0.31398386368E+02  0.11860963884E+03  0.41800000000E+01 0. -1.
        -11    1    1    2    0    0  0.62834799087E+02 -0.14324211393E+02  0.36313859382E+02  0.73973585769E+02  0.00000000000E+00 0. -1.
         11    1    1    2    0    0  0.36676665939E+02  0.74227658957E+02  0.51723488168E+02  0.97622960449E+02  0.00000000000E+00 0.  1.
</event>
<event>
 7    1  0.2788485E-009  0.8655331E+02  0.7561462E-02  0.1311420E+00
         -3   -1    0    0    0  501 -0.00000000000E+00  0.00000000000E+00  0.79740226936E+02  0.79740226936E+02  0.00000000000E+00 0.  1.
          3   -1    0    0  501    0  0.00000000000E+00 -0.00000000000E+00 -0.16717045598E+03  0.16717045598E+03  0.00000000000E+00 0. -1.
         25    2    1    2    0    0 -0.74309769747E+01  0.29454090284E+02 -0.46767589208E+02  0.13695662704E+03  0.12508855838E+03 0.  0.
          5    1    3    3  502    0  0.30566342999E+02  0.15066033780E+02 -0.78208252671E+02  0.85412469137E+02  0.41800000000E+01 0.  1.
         -5    1    3    3    0  502 -0.37997319974E+02  0.14388056505E+02  0.31440663463E+02  0.51544157905E+02  0.41800000000E+01 0.  1.
        -11    1    1    2    0    0 -0.33924301629E+02 -0.42670906532E+02 -0.38011910247E+02  0.66457278202E+02  0.00000000000E+00 0. -1.
         11    1    1    2    0    0  0.41355278604E+02  0.13216816248E+02 -0.26507295848E+01  0.43496777668E+02  0.00000000000E+00 0.  1.
</event>
<event>
 7    1  0.2788485E-009  0.1270761E+03  0.7561462E-02  0.1231860E+00
         -2   -1    0    0    0  501 -0.00000000000E+00  0.00000000000E+00  0.32642538147E+02  0.32642538147E+02  0.00000000000E+00 0.  1.
          2   -1    0    0  501    0  0.00000000000E+00 -0.00000000000E+00 -0.94932492447E+03  0.94932492447E+03  0.00000000000E+00 0. -1.
         25    2    1    2    0    0  0.73638658287E+02  0.60262960123E+02 -0.76158590690E+03  0.77763517899E+03  0.12509636950E+03 0.  0.
          5    1    3    3  502    0  0.75538008718E+02  0.91791452500E+02 -0.67440455927E+03  0.68481431314E+03  0.41800000000E+01 0. -1.
         -5    1    3    3    0  502 -0.18993504312E+01 -0.31528492377E+02 -0.87181347629E+02  0.92820865855E+02  0.41800000000E+01 0. -1.
        -11    1    1    2    0    0 -0.63767852040E+02 -0.66122976285E+02 -0.16521119665E+03  0.18903260683E+03  0.00000000000E+00 0. -1.
         11    1    1    2    0    0 -0.98708062462E+01  0.58600161621E+01  0.10114717228E+02  0.15299676793E+02  0.00000000000E+00 0.  1.
</event>
<event>
 7    1  0.2788485E-009  0.1320532E+03  0.7561462E-02  0.1224441E+00
         -1   -1    0    0    0  501 -0.00000000000E+00  0.00000000000E+00  0.62182687797E+03  0.62182687797E+03  0.00000000000E+00 0.  1.
          1   -1    0    0  501    0  0.00000000000E+00 -0.00000000000E+00 -0.55476011512E+02  0.55476011512E+02  0.00000000000E+00 0. -1.
         25    2    1    2    0    0 -0.61784619166E+02 -0.10671487967E+03  0.14048288339E+03  0.22491725357E+03  0.12508767213E+03 0.  0.
          5    1    3    3  502    0 -0.31542398815E+02 -0.16773434435E+02  0.12324187701E+03  0.12838342445E+03  0.41800000000E+01 0. -1.
         -5    1    3    3    0  502 -0.30242220351E+02 -0.89941445235E+02  0.17241006387E+02  0.96533829117E+02  0.41800000000E+01 0. -1.
        -11    1    1    2    0    0 -0.12094254739E+00  0.47466374874E+02  0.27338380395E+03  0.27747391883E+03  0.00000000000E+00 0.  1.
         11    1    1    2    0    0  0.61905561714E+02  0.59248504796E+02  0.15248417912E+03  0.17491171708E+03  0.00000000000E+00 0. -1.
</event>
<event>
 7    1  0.2788485E-009  0.8308854E+02  0.7561462E-02  0.1320508E+00
         -2   -1    0    0    0  501 -0.00000000000E+00  0.00000000000E+00  0.38316704385E+02  0.38316704385E+02  0.00000000000E+00 0.  1.
          2   -1    0    0  501    0  0.00000000000E+00 -0.00000000000E+00 -0.34247083171E+03  0.34247083171E+03  0.00000000000E+00 0. -1.
         25    2    1    2    0    0 -0.23471172783E+02 -0.27794746936E+02 -0.23145945657E+03  0.26560231049E+03  0.12509062072E+03 0.  0.
          5    1    3    3  502    0 -0.53462069076E+02  0.17798725729E+02 -0.18618905470E+03  0.19457344104E+03  0.41800000000E+01 0.  1.
         -5    1    3    3    0  502  0.29990896292E+02 -0.45593472666E+02 -0.45270401867E+02  0.71028869450E+02  0.41800000000E+01 0.  1.
        -11    1    1    2    0    0 -0.11698980271E+02  0.10630023870E+02  0.13329757798E+02  0.20677185249E+02  0.00000000000E+00 0.  1.
         11    1    1    2    0    0  0.35170153055E+02  0.17164723066E+02 -0.86024428558E+02  0.94508040359E+02  0.00000000000E+00 0. -1.
</event>
<event>
 7    1  0.2788485E-009  0.9645606E+02  0.7561462E-02  0.1287930E+00
         -1   -1    0    0    0  501 -0.00000000000E+00  0.00000000000E+00  0.17900856597E+03  0.17900856597E+03  0.00000000000E+00 0.  1.
          1   -1    0    0  501    0  0.00000000000E+00 -0.00000000000E+00 -0.99405120193E+02  0.99405120193E+02  0.00000000000E+00 0. -1.
         25    2    1    2    0    0  0.31649214841E+01 -0.45320083867E+02 -0.21581623264E+02  0.13482233651E+03  0.12508944492E+03 0.  0.
          5    1    3    3  502    0  0.38172715191E+02 -0.68461954901E+01 -0.58915510053E+02  0.70657882098E+02  0.41800000000E+01 0.  1.
         -5    1    3    3    0  502 -0.35007793707E+02 -0.38473888377E+02  0.37333886789E+02  0.64164454411E+02  0.41800000000E+01 0.  1.
        -11    1    1    2    0    0  0.43923619900E+02  0.20106712578E+02  0.44022436520E+02  0.65357013342E+02  0.00000000000E+00 0. -1.
         11    1    1    2    0    0 -0.47088541384E+02  0.25213371290E+02  0.57162632518E+02  0.78234336310E+02  0.00000000000E+00 0.  1.
</event>
<event>
 7    1  0.2788485E-009  0.1658650E+03  0.7561462E-02  0.1182230E+00
         -1   -1    0    0    0  501 -0.00000000000E+00  0.00000000000E+00  0.10603133352E+04  0.10603133352E+04  0.00000000000E+00 0.  1.
          1   -1    0    0  501    0  0.00000000000E+00 -0.00000000000E+00 -0.46908131533E+02  0.46908131533E+02  0.00000000000E+00 0. -1.
         25    2    1    2    0    0 -0.12755927914E+03  0.87644625783E+02  0.80694465230E+03  0.83111943446E+03  0.12508753875E+03 0.  0.
          5    1    3    3  502    0 -0.12639902147E+03  0.10037688461E+03  0.79970923371E+03  0.81584591834E+03  0.41800000000E+01 0. -1.
         -5    1    3    3    0  502 -0.11602576630E+01 -0.12732258822E+02  0.72354185836E+01  0.15273516119E+02  0.41800000000E+01 0. -1.
        -11    1    1    2    0    0  0.71952281253E+02 -0.64345360915E+02  0.19077369566E+03  0.21380378670E+03  0.00000000000E+00 0.  1.
         11    1    1    2    0    0  0.55606997883E+02 -0.23299264868E+02  0.15686855678E+02  0.62298245545E+02  0.00000000000E+00 0. -1.
</event>
<event>
 7    1  0.2788485E-009  0.1379500E+03  0.7561462E-02  0.1216114E+00
         -2   -1    0    0    0  501 -0.00000000000E+00  0.00000000000E+00  0.33837437930E+02  0.33837437930E+02  0.00000000000E+00 0.  1.
          2   -1    0    0  501    0  0.00000000000E+00 -0.00000000000E+00 -0.66827232047E+03  0.66827232047E+03  0.00000000000E+00 0. -1.
         25    2    1    2    0    0  0.33187552693E+02  0.98316961321E+02 -0.32954471076E+03  0.36744507314E+03  0.12509407199E+03 0.  0.
          5    1    3    3  502    0  0.64832988300E+02  0.31998369409E+02 -0.83020389669E+02  0.11016836895E+03  0.41800000000E+01 0.  1.
         -5    1    3    3    0  502 -0.31645435607E+02  0.66318591913E+02 -0.24652432109E+03  0.25727670419E+03  0.41800000000E+01 0.  1.
        -11    1    1    2    0    0 -0.58215592899E+02 -0.79648199623E+02 -0.27188441356E+03  0.28923005600E+03  0.00000000000E+00 0. -1.
         11    1    1    2    0    0  0.25028040206E+02 -0.18668761699E+02 -0.33005758220E+02  0.45434629255E+02  0.00000000000E+00 0.  1.
</event>
<event>
 7    1  0.2788485E-009  0.2058408E+03  0.7561462E-02  0.1144903E+00
          2   -1    0    0  501    0  0.00000000000E+00  0.00000000000E+00  0.22100751226E+03  0.22100751226E+03  0.00000000000E+00 0. -1.
         -2   -1    0    0    0  501 -0.00000000000E+00 -0.00000000000E+00 -0.20980275901E+03  0.20980275901E+03  0.00000000000E+00 0.  1.
         25    2    1    2    0    0  0.23628680994E+02  0.18327215168E+03 -0.72251735397E+01  0.22326472418E+03  0.12509171750E+03 0.  0.
          5    1    3    3  502    0 -0.43531446080E+02  0.11686171601E+03  0.16307406998E+02  0.12583740060E+03  0.41800000000E+01 0.  1.
         -5    1    3    3    0  502  0.67160127074E+02  0.66410435661E+02 -0.23532580537E+02  0.97427323580E+02  0.41800000000E+01 0.  1.
        -11    1    1    2    0    0  0.16512579033E+02 -0.34155688864E+02 -0.27014039362E+02  0.46572896311E+02  0.00000000000E+00 0.  1.
         11    1    1    2    0    0 -0.40141260027E+02 -0.14911646281E+03  0.45443966151E+02  0.16097265078E+03  0.00000000000E+00 0. -1.
</event>
<event>
 7    1  0.2788485E-009  0.1594159E+03  0.7561462E-02  0.1189358E+00
          1   -1    0    0  501    0  0.00000000000E+00  0.00000000000E+00  0.26804971090E+03  0.26804971090E+03  0.00000000000E+00 0. -1.
         -1   -1    0    0    0  501 -0.00000000000E+00 -0.00000000000E+00 -0.10829259089E+03  0.10829259089E+03  0.00000000000E+00 0.  1.
         25    2    1    2    0    0 -0.11106701424E+02  0.12257791203E+03  0.13546338558E+03  0.22168572069E+03  0.12508207941E+03 0.  0.
          5    1    3    3  502    0  0.25809587996E+02  0.12930926149E+03  0.12672444918E+03  0.18293052878E+03  0.41800000000E+01 0. -1.
         -5    1    3    3    0  502 -0.36916289420E+02 -0.67313494675E+01  0.87389364040E+01  0.38755191906E+02  0.41800000000E+01 0. -1.
        -11    1    1    2    0    0  0.39397531971E+02 -0.22977757430E+02 -0.77693669688E+01  0.46265601963E+02  0.00000000000E+00 0.  1.
         11    1    1    2    0    0 -0.28290830547E+02 -0.99600154596E+02  0.32063101395E+02  0.10839097914E+03  0.00000000000E+00 0. -1.
</event>
<event>
 7    1  0.2788485E-009  0.2487928E+03  0.7561462E-02  0.1114070E+00
          2   -1    0    0  501    0  0.00000000000E+00  0.00000000000E+00  0.72522795990E+03  0.72522795990E+03  0.00000000000E+00 0.  1.
         -2   -1    0    0    0  501 -0.00000000000E+00 -0.00000000000E+00 -0.10078583281E+03  0.10078583281E+03  0.00000000000E+00 0. -1.
         25    2    1    2    0    0 -0.13154942940E+03 -0.18494363273E+03  0.17268957614E+03  0.31141504929E+03  0.12509293967E+03 0.  0.
          5    1    3    3  502    0 -0.15104895837E+03 -0.18503290480E+03  0.16328860758E+03  0.28936759571E+03  0.41800000000E+01 0.  1.
         -5    1    3    3    0  502  0.19499528968E+02  0.89272072803E-01  0.94009685652E+01  0.22047453582E+02  0.41800000000E+01 0.  1.
        -11    1    1    2    0    0 -0.51075123607E+01  0.36986938858E+02  0.32602534952E+02  0.49568595036E+02  0.00000000000E+00 0. -1.
         11    1    1    2    0    0  0.13665694176E+03  0.14795669387E+03  0.41915001600E+03  0.46503014838E+03  0.00000000000E+00 0.  1.
</event>
<event>
 7    1  0.2788485E-009  0.1052513E+03  0.7561462E-02  0.1269625E+00
          2   -1    0    0  501    0  0.00000000000E+00  0.00000000000E+00  0.70978873849E+03  0.70978873849E+03  0.00000000000E+00 0. -1.
         -2   -1    0    0    0  501 -0.00000000000E+00 -0.00000000000E+00 -0.18602235069E+02  0.18602235069E+02  0.00000000000E+00 0.  1.
         25    2    1    2    0    0 -0.18789863075E+02  0.34665064677E+01  0.50329298116E+03  0.51895676717E+03  0.12508887116E+03 0.  0.
          5    1    3    3  502    0 -0.45479533388E+02  0.52882853099E+02  0.29761072784E+03  0.30570345408E+03  0.41800000000E+01 0. -1.
         -5    1    3    3    0  502  0.26689670313E+02 -0.49416346631E+02  0.20568225331E+03  0.21325331309E+03  0.41800000000E+01 0. -1.
        -11    1    1    2    0    0  0.51460144621E+02 -0.41962910283E+01  0.15368335771E+03  0.16212442684E+03  0.00000000000E+00 0. -1.
         11    1    1    2    0    0 -0.32670281545E+02  0.72978456054E+00  0.34210164555E+02  0.47309779546E+02  0.00000000000E+00 0.  1.
</event>
<event>
 7    1  0.2788485E-009  0.1356611E+03  0.7561462E-02  0.1219289E+00
         -1   -1    0    0    0  501 -0.00000000000E+00  0.00000000000E+00  0.21220925253E+02  0.21220925253E+02  0.00000000000E+00 0.  1.
          1   -1    0    0  501    0  0.00000000000E+00 -0.00000000000E+00 -0.11164833635E+04  0.11164833635E+04  0.00000000000E+00 0. -1.
         25    2    1    2    0    0  0.86461151006E+02 -0.66379598967E+02 -0.66048803424E+03  0.68100928307E+03  0.12508964170E+03 0.  0.
          5    1    3    3  502    0  0.55516351736E+01  0.15733539802E+02 -0.90471921586E+01  0.19434222746E+02  0.41800000000E+01 0. -1.
         -5    1    3    3    0  502  0.80909515833E+02 -0.82113138769E+02 -0.65144084209E+03  0.66157506033E+03  0.41800000000E+01 0. -1.
        -11    1    1    2    0    0  0.74516381948E+01  0.40744479811E+02 -0.10578903015E+03  0.11360879564E+03  0.00000000000E+00 0.  1.
         11    1    1    2    0    0 -0.93912789201E+02  0.25635119156E+02 -0.32898537387E+03  0.34308621006E+03  0.00000000000E+00 0. -1.
</event>
<event>
 7    1  0.2788485E-009  0.1184342E+03  0.7561462E-02  0.1245703E+00
         -2   -1    0    0    0  501 -0.00000000000E+00  0.00000000000E+00  0.19557247517E+03  0.19557247517E+03  0.00000000000E+00 0.  1.
          2   -1    0    0  501    0  0.00000000000E+00 -0.00000000000E+00 -0.96051257498E+02  0.96051257498E+02  0.00000000000E+00 0. -1.
         25    2    1    2    0    0 -0.17897701925E+02  0.57117137152E+02  0.11685220190E+03  0.18133832983E+03  0.12508580130E+03 0.  0.
          5    1    3    3  502    0 -0.17631224439E+02 -0.38714758002E+02  0.35798558230E+02  0.55755732743E+02  0.41800000000E+01 0.  1.
         -5    1    3    3    0  502 -0.26647748669E+00  0.95831895154E+02  0.81053643669E+02  0.12558259709E+03  0.41800000000E+01 0.  1.
        -11    1    1    2    0    0  0.41956564928E+02 -0.60788770436E+02 -0.33461002858E+02  0.81088018005E+02  0.00000000000E+00 0. -1.
         11    1    1    2    0    0 -0.24058863003E+02  0.36716332841E+01  0.16130018627E+02  0.29197384829E+02  0.00000000000E+00 0.  1.
</event>
<event>
 7    1  0.2788485E-009  0.9277154E+02  0.7561462E-02  0.1296275E+00
          2   -1    0    0  501    0  0.00000000000E+00  0.00000000000E+00  0.19572420550E+03  0.19572420550E+03  0.00000000000E+00 0. -1.
         -2   -1    0    0    0  501 -0.00000000000E+00 -0.00000000000E+00 -0.10154962521E+03  0.10154962521E+03  0.00000000000E+00 0.  1.
         25    2    1    2    0    0  0.72501320230E+02  0.31618739605E+02  0.86558389472E+02  0.17144635964E+03  0.12508122687E+03 0.  0.
          5    1    3    3  502    0  0.57712779228E+02  0.40297142830E+02 -0.11820414128E+02  0.71496987326E+02  0.41800000000E+01 0. -1.
         -5    1    3    3    0  502  0.14788541002E+02 -0.86784032256E+01  0.98378803600E+02  0.99949372311E+02  0.41800000000E+01 0. -1.
        -11    1    1    2    0    0 -0.52013993605E+02  0.81467602137E+01 -0.35659175138E+02  0.63587750426E+02  0.00000000000E+00 0.  1.
         11    1    1    2    0    0 -0.20487326624E+02 -0.39765499818E+02  0.43275365954E+02  0.62239720649E+02  0.00000000000E+00 0. -1.
</event>
<event>
 7    1  0.2788485E-009  0.2092383E+03  0.7561462E-02  0.1142171E+00
         -1   -1    0    0    0  501 -0.00000000000E+00  0.00000000000E+00  0.15636796949E+03  0.15636796949E+03  0.00000000000E+00 0.  1.
          1   -1    0    0  501    0  0.00000000000E+00 -0.00000000000E+00 -0.38974495724E+03  0.38974495724E+03  0.00000000000E+00 0. -1.
         25    2    1    2    0    0 -0.84465886281E+02  0.17397498962E+03 -0.23934119179E+03  0.33216444140E+03  0.12508887674E+03 0.  0.
          5    1    3    3  502    0  0.26539607909E+02  0.28387101381E+02 -0.13375443059E+02  0.41310448917E+02  0.41800000000E+01 0.  1.
         -5    1    3    3    0  502 -0.11100549419E+03  0.14558788824E+03 -0.22596574873E+03  0.29085399248E+03  0.41800000000E+01 0.  1.
        -11    1    1    2    0    0  0.71993088211E+02 -0.11269533807E+03  0.43967285984E+02  0.14077061558E+03  0.00000000000E+00 0.  1.
         11    1    1    2    0    0  0.12472798070E+02 -0.61279651550E+02 -0.38003081947E+02  0.73177869765E+02  0.00000000000E+00 0. -1.
</event>
<event>
 7    1  0.2788485E-009  0.8588878E+02  0.7561462E-02  0.1313125E+00
          2   -1    0    0  501    0  0.00000000000E+00  0.00000000000E+00  0.47658859056E+03  0.47658859056E+03  0.00000000000E+00 0. -1.
         -2   -1    0    0    0  501 -0.00000000000E+00 -0.00000000000E+00 -0.53767737338E+02  0.53767737338E+02  0.00000000000E+00 0.  1.
         25    2    1    2    0    0 -0.53434084396E+01  0.26609732727E+02  0.44321195974E+02  0.13545320047E+03  0.12508625510E+03 0.  0.
          5    1    3    3  502    0 -0.26108938685E+02 -0.13494136907E+02  0.75024295596E+02  0.80683862946E+02  0.41800000000E+01 0. -1.
         -5    1    3    3    0  502  0.20765530245E+02  0.40103869634E+02 -0.30703099623E+02  0.54769337521E+02  0.41800000000E+01 0. -1.
        -11    1    1    2    0    0 -0.23894764468E+01  0.34780436388E+02  0.52084741642E+02  0.62675423133E+02  0.00000000000E+00 0.  1.
         11    1    1    2    0    0  0.77328848863E+01 -0.61390169116E+02  0.32641491561E+03  0.33222770430E+03  0.00000000000E+00 0. -1.
</event>
<event>
 7    1  0.2788485E-009  0.1573629E+03  0.7561462E-02  0.1191707E+00
         -1   -1    0    0    0  501 -0.00000000000E+00  0.00000000000E+00  0.89867032103E+02  0.89867032103E+02  0.00000000000E+00 0.  1.
          1   -1    0    0  501    0  0.00000000000E+00 -0.00000000000E+00 -0.74640132022E+03  0.74640132022E+03  0.00000000000E+00 0. -1.
         25    2    1    2    0    0  0.13169231633E+03  0.65428758442E+02 -0.63509789831E+03  0.66379228871E+03  0.12508826281E+03 0.  0.
          5    1    3    3  502    0  0.10320515556E+03  0.33698617042E+02 -0.59589148939E+03  0.60571531304E+03  0.41800000000E+01 0.  1.
         -5    1    3    3    0  502  0.28487160765E+02  0.31730141400E+02 -0.39206408924E+02  0.58076975665E+02  0.41800000000E+01 0.  1.
        -11    1    1    2    0    0 -0.80434385402E+02 -0.40680066874E+00 -0.36484909739E+02  0.88323295231E+02  0.00000000000E+00 0. -1.
         11    1    1    2    0    0 -0.51257930928E+02 -0.65021957774E+02  0.15048519932E+02  0.84152768391E+02  0.00000000000E+00 0.  1.
</event>
<event>
 7    1  0.2788485E-009  0.1297409E+03  0.7561462E-02  0.1227841E+00
         -1   -1    0    0    0  501 -0.00000000000E+00  0.00000000000E+00  0.23421862537E+03  0.23421862537E+03  0.00000000000E+00 0.  1.
          1   -1    0    0  501    0  0.00000000000E+00 -0.00000000000E+00 -0.90153684037E+02  0.90153684037E+02  0.00000000000E+00 0. -1.
         25    2    1    2    0    0 -0.82635542824E+02 -0.46591612804E+02  0.47891093110E+02  0.16413537830E+03  0.12508978492E+03 0.  0.
          5    1    3    3  502    0 -0.73207540453E+02  0.30304358363E+02  0.26603977401E+02  0.83683583387E+02  0.41800000000E+01 0. -1.
         -5    1    3    3    0  502 -0.94280023711E+01 -0.76895971166E+02  0.21287115709E+02  0.80451794918E+02  0.41800000000E+01 0. -1.
        -11    1    1    2    0    0  0.44180101017E+02  0.27902429160E+01 -0.38857957810E+01  0.44438341443E+02  0.00000000000E+00 0. -1.
         11    1    1    2    0    0  0.38455441807E+02  0.43801369888E+02  0.10005964400E+03  0.11579858966E+03  0.00000000000E+00 0.  1.
</event>
<event>
 7    1  0.2788485E-009  0.1007419E+03  0.7561462E-02  0.1278744E+00
          1   -1    0    0  501    0  0.00000000000E+00  0.00000000000E+00  0.79430090518E+02  0.79430090518E+02  0.00000000000E+00 0. -1.
         -1   -1    0    0    0  501 -0.00000000000E+00 -0.00000000000E+00 -0.16534242780E+03  0.16534242780E+03  0.00000000000E+00 0.  1.
         25    2    1    2    0    0  0.15740464124E+02  0.25880702406E+02 -0.65074567918E+02  0.14422073925E+03  0.12508936514E+03 0.  0.
          5    1    3    3  502    0  0.44101907055E+02 -0.30225364542E+02  0.19259253869E-01  0.53628571103E+02  0.41800000000E+01 0. -1.
         -5    1    3    3    0  502 -0.28361442931E+02  0.56106066948E+02 -0.65093827172E+02  0.90592168146E+02  0.41800000000E+01 0. -1.
        -11    1    1    2    0    0  0.27851465839E+02  0.87307398887E+01 -0.32498833075E+02  0.43681851147E+02  0.00000000000E+00 0.  1.
         11    1    1    2    0    0 -0.43591929963E+02 -0.34611442294E+02  0.11661063707E+02  0.56869927927E+02  0.00000000000E+00 0. -1.
</event>
<event>
 7    1  0.2788485E-009  0.9464491E+02  0.7561462E-02  0.1291978E+00
         -1   -1    0    0    0  501 -0.00000000000E+00  0.00000000000E+00  0.25241654745E+02  0.25241654745E+02  0.00000000000E+00 0.  1.
          1   -1    0    0  501    0  0.00000000000E+00 -0.00000000000E+00 -0.50377647588E+03  0.50377647588E+03  0.00000000000E+00 0. -1.
         25    2    1    2    0    0  0.24742329506E+02 -0.11373210661E+02 -0.24030911323E+03  0.27228187901E+03  0.12508964363E+03 0.  0.
          5    1    3    3  502    0 -0.28173464877E+02 -0.37526049888E+02 -0.18630677157E+03  0.19217084607E+03  0.41800000000E+01 0. -1.
         -5    1    3    3    0  502  0.52915794383E+02  0.26152839227E+02 -0.54002341659E+02  0.80111032945E+02  0.41800000000E+01 0. -1.
        -11    1    1    2    0    0  0.28585913867E+02  0.74066200540E+01 -0.15516553360E+03  0.15795048373E+03  0.00000000000E+00 0. -1.
         11    1    1    2    0    0 -0.53328243372E+02  0.39665906065E+01 -0.83060174303E+02  0.98785767890E+02  0.00000000000E+00 0.  1.
</event>
<event>
 7    1  0.2788485E-009  0.1081333E+03  0.7561462E-02  0.1264066E+00
          2   -1    0    0  501    0  0.00000000000E+00  0.00000000000E+00  0.25141895245E+03  0.25141895245E+03  0.00000000000E+00 0. -1.
         -2   -1    0    0    0  501 -0.00000000000E+00 -0.00000000000E+00 -0.57505602182E+02  0.57505602182E+02  0.00000000000E+00 0.  1.
         25    2    1    2    0    0  0.43142637399E+02  0.18832411041E+02  0.78897559917E+02  0.15520189918E+03  0.12508740016E+03 0.  0.
          5    1    3    3  502    0  0.19905502305E+02 -0.50405958910E+02  0.57181412870E+02  0.78893447722E+02  0.41800000000E+01 0.  1.
         -5    1    3    3    0  502  0.23237135094E+02  0.69238369951E+02  0.21716147047E+02  0.76308451455E+02  0.41800000000E+01 0.  1.
        -11    1    1    2    0    0 -0.64391683008E+02 -0.20143585722E+02  0.11392591875E+03  0.13240531654E+03  0.00000000000E+00 0. -1.
         11    1    1    2    0    0  0.21249045609E+02  0.13111746809E+01  0.10898716078E+01  0.21317338916E+02  0.00000000000E+00 0.  1.
</event>
<event>
 7    1  0.2788485E-009  0.6635664E+02  0.7561462E-02  0.1372940E+00
         -1   -1    0    0    0  501 -0.00000000000E+00  0.00000000000E+00  0.71776204097E+02  0.71776204097E+02  0.00000000000E+00 0.  1.
          1   -1    0    0  501    0  0.00000000000E+00 -0.00000000000E+00 -0.16450603986E+03  0.16450603986E+03  0.00000000000E+00 0. -1.
         25    2    1    2    0    0 -0.12872754781E+02 -0.48673627958E+01 -0.69810225189E+02  0.14390963202E+03  0.12508843117E+03 0.  0.
          5    1    3    3  502    0  0.73100287531E+00  0.31580463609E+02  0.25544428569E+02  0.40839322692E+02  0.41800000000E+01 0.  1.
         -5    1    3    3    0  502 -0.13603757656E+02 -0.36447826405E+02 -0.95354653758E+02  0.10307030933E+03  0.41800000000E+01 0.  1.
        -11    1    1    2    0    0 -0.49425979393E+01 -0.25792191423E+02 -0.43911406229E+02  0.51165203115E+02  0.00000000000E+00 0. -1.
         11    1    1    2    0    0  0.17815352720E+02  0.30659554219E+02  0.20991795650E+02  0.41207408825E+02  0.00000000000E+00 0.  1.
</event>
<event>
 7    1  0.2788485E-009  0.1308246E+03  0.7561462E-02  0.1226237E+00
         -1   -1    0    0    0  501 -0.00000000000E+00  0.00000000000E+00  0.82490179218E+02  0.82490179218E+02  0.00000000000E+00 0.  1.
          1   -1    0    0  501    0  0.00000000000E+00 -0.00000000000E+00 -0.22486985141E+03  0.22486985141E+03  0.00000000000E+00 0. -1.
         25    2    1    2    0    0 -0.26237586266E+01 -0.81733673047E+02 -0.88487551022E+02  0.17368237648E+03  0.12509294063E+03 0.  0.
          5    1    3    3  502    0  0.56977970197E+02 -0.31563891608E+02 -0.65214609044E+02  0.92266927845E+02  0.41800000000E+01 0. -1.
         -5    1    3    3    0  502 -0.59601728824E+02 -0.50169781439E+02 -0.23272941978E+02  0.81415448637E+02  0.41800000000E+01 0. -1.
        -11    1    1    2    0    0 -0.29627556879E+02  0.80838412043E+02 -0.23247705645E+02  0.89180136835E+02  0.00000000000E+00 0.  1.
         11    1    1    2    0    0  0.32251315505E+02  0.89526100355E+00 -0.30644415529E+02  0.44497517315E+02  0.00000000000E+00 0. -1.
</event>
<event>
 7    1  0.2788485E-009  0.1397688E+03  0.7561462E-02  0.1213640E+00
          2   -1    0    0  501    0  0.00000000000E+00  0.00000000000E+00  0.92774472106E+03  0.92774472106E+03  0.00000000000E+00 0. -1.
         -2   -1    0    0    0  501 -0.00000000000E+00 -0.00000000000E+00 -0.24015276243E+02  0.24015276243E+02  0.00000000000E+00 0.  1.
         25    2    1    2    0    0 -0.75672559434E+02 -0.54506803069E+02  0.62393083933E+03  0.64314397683E+03  0.12508858795E+03 0.  0.
          5    1    3    3  502    0  0.34374385870E+02 -0.21050418614E+02  0.18364247399E+03  0.18806049340E+03  0.41800000000E+01 0. -1.
         -5    1    3    3    0  502 -0.11004694530E+03 -0.33456384455E+02  0.44028836534E+03  0.45508348342E+03  0.41800000000E+01 0. -1.
        -11    1    1    2    0    0  0.88438163929E+02  0.25211331448E+02  0.24332858431E+03  0.26012635394E+03  0.00000000000E+00 0. -1.
         11    1    1    2    0    0 -0.12765604495E+02  0.29295471621E+02  0.36470021184E+02  0.48489666536E+02  0.00000000000E+00 0.  1.
</event>
<event>
 7    1  0.2788485E-009  0.1019341E+03  0.7561462E-02  0.1276281E+00
          2   -1    0    0  501    0  0.00000000000E+00  0.00000000000E+00  0.43110949721E+02  0.43110949721E+02  0.00000000000E+00 0. -1.
         -2   -1    0    0    0  501 -0.00000000000E+00 -0.00000000000E+00 -0.41941839320E+03  0.41941839320E+03  0.00000000000E+00 0.  1.
         25    2    1    2    0    0 -0.10673656933E+02  0.68105792652E+02 -0.14121480073E+03  0.20085067511E+03  0.12508816012E+03 0.  0.
          5    1    3    3  502    0 -0.51785674294E+01  0.77467848011E+02 -0.21635907940E+02  0.80707310378E+02  0.41800000000E+01 0.  1.
         -5    1    3    3    0  502 -0.54950895033E+01 -0.93620553590E+01 -0.11957889279E+03  0.12014336473E+03  0.41800000000E+01 0.  1.
        -11    1    1    2    0    0  0.51346282529E+02 -0.38368227306E+02 -0.14287640363E+03  0.15659574806E+03  0.00000000000E+00 0. -1.
         11    1    1    2    0    0 -0.40672625597E+02 -0.29737565345E+02 -0.92216239132E+02  0.10508291976E+03  0.00000000000E+00 0.  1.
</event>
<event>
 7    1  0.2788485E-009  0.8150356E+02  0.7561462E-02  0.1324838E+00
         -1   -1    0    0    0  501 -0.00000000000E+00  0.00000000000E+00  0.67199710819E+03  0.67199710819E+03  0.00000000000E+00 0.  1.
          1   -1    0    0  501    0  0.00000000000E+00 -0.00000000000E+00 -0.18257530808E+02  0.18257530808E+02  0.00000000000E+00 0. -1.
         25    2    1    2    0    0  0.28687799769E+01  0.21144386421E+02  0.32416095143E+03  0.34811786175E+03  0.12510159177E+03 0.  0.
          5    1    3    3  502    0 -0.68569975381E+00  0.47712070861E+02  0.39273962479E+02  0.61942137667E+02  0.41800000000E+01 0.  1.
         -5    1    3    3    0  502  0.35544797308E+01 -0.26567684439E+02  0.28488698895E+03  0.28617572408E+03  0.41800000000E+01 0.  1.
        -11    1    1    2    0    0  0.35559142654E+02  0.11692675538E+02  0.93642880946E+02  0.10084721335E+03  0.00000000000E+00 0. -1.
         11    1    1    2    0    0 -0.38427922631E+02 -0.32837061959E+02  0.23593574501E+03  0.24128956390E+03  0.00000000000E+00 0.  1.
</event>
<event>
 7    1  0.2788485E-009  0.1006825E+03  0.7561462E-02  0.1278867E+00
          1   -1    0    0  501    0  0.00000000000E+00  0.00000000000E+00  0.10447976563E+03  0.10447976563E+03  0.00000000000E+00 0. -1.
         -1   -1    0    0    0  501 -0.00000000000E+00 -0.00000000000E+00 -0.14009923847E+03  0.14009923847E+03  0.00000000000E+00 0.  1.
         25    2    1    2    0    0  0.34109364969E+02 -0.87888652082E+01 -0.57088326571E+02  0.14194298289E+03  0.12509212777E+03 0.  0.
          5    1    3    3  502    0  0.76694356922E+02  0.17176110341E+02 -0.44165729676E+02  0.90250358603E+02  0.41800000000E+01 0.  1.
         -5    1    3    3    0  502 -0.42584991953E+02 -0.25964975549E+02 -0.12922596895E+02  0.51692624284E+02  0.41800000000E+01 0.  1.
        -11    1    1    2    0    0 -0.16796084942E+01  0.32431772674E+02  0.45467901127E+02  0.55874600637E+02  0.00000000000E+00 0. -1.
         11    1    1    2    0    0 -0.32429756475E+02 -0.23642907466E+02 -0.23999047393E+02  0.46761420576E+02  0.00000000000E+00 0.  1.
</event>
<event>
 7    1  0.2802973E-009  0.1649466E+03  0.7561462E-02  0.1183223E+00
         -2   -1    0    0    0  501 -0.00000000000E+00  0.00000000000E+00  0.43545366279E+02  0.43545366279E+02  0.00000000000E+00 0.  1.
          2   -1    0    0  501    0  0.00000000000E+00 -0.00000000000E+00 -0.66663066111E+03  0.66663066111E+03  0.00000000000E+00 0. -1.
         25    2    1    2    0    0  0.78658256613E+02  0.10487736779E+03 -0.32042050500E+03  0.36810714033E+03  0.12508870104E+03 0.  0.
          5    1    3    3  502    0 -0.30390804183E+02  0.14565524643E+02 -0.10440747610E+03  0.10979138834E+03  0.41800000000E+01 0.  1.
         -5    1    3    3    0  502  0.10904906080E+03  0.90311843148E+02 -0.21601302890E+03  0.25831575199E+03  0.41800000000E+01 0.  1.
        -11    1    1    2    0    0 -0.91774167432E+02 -0.65428002724E+02 -0.17826970162E+03  0.21091090030E+03  0.00000000000E+00 0.  1.
         11    1    1    2    0    0  0.13115910819E+02 -0.39449365067E+02 -0.12439508821E+03  0.13115798676E+03  0.00000000000E+00 0. -1.
</event>
<event>
 7    1  0.2788485E-009  0.1391152E+03  0.7561462E-02  0.1214525E+00
          1   -1    0    0  501    0  0.00000000000E+00  0.00000000000E+00  0.88438891756E+03  0.88438891756E+03  0.00000000000E+00 0. -1.
         -1   -1    0    0    0  501 -0.00000000000E+00 -0.00000000000E+00 -0.22352482068E+02  0.22352482068E+02  0.00000000000E+00 0.  1.
         25    2    1    2    0    0 -0.87230299118E+02  0.73957803489E+01  0.46866984118E+03  0.49291326054E+03  0.12509292441E+03 0.  0.
          5    1    3    3  502    0 -0.43026708253E+02  0.66154472839E+02  0.24518819501E+03  0.25760907451E+03  0.41800000000E+01 0. -1.
         -5    1    3    3    0  502 -0.44203590865E+02 -0.58758692490E+02  0.22348164617E+03  0.23530418603E+03  0.41800000000E+01 0. -1.
        -11    1    1    2    0    0  0.75095902967E+02  0.33988469346E+02  0.21340765945E+03  0.22877377429E+03  0.00000000000E+00 0.  1.
         11    1    1    2    0    0  0.12134396151E+02 -0.41384249695E+02  0.17995893486E+03  0.18505436479E+03  0.00000000000E+00 0. -1.
</event>
<event>
 7    1  0.2788485E-009  0.1357297E+03  0.7561462E-02  0.1219193E+00
         -1   -1    0    0    0  501 -0.00000000000E+00  0.00000000000E+00  0.28211640143E+02  0.28211640143E+02  0.00000000000E+00 0.  1.
          1   -1    0    0  501    0  0.00000000000E+00 -0.00000000000E+00 -0.71815525613E+03  0.71815525613E+03  0.00000000000E+00 0. -1.
         25    2    1    2    0    0 -0.90244678133E+02 -0.38632534594E+00 -0.41002455418E+03  0.43807686758E+03  0.12508779195E+03 0.  0.
          5    1    3    3  502    0 -0.96419175749E+02 -0.42667749223E+02 -0.33940997439E+03  0.35543465981E+03  0.41800000000E+01 0.  1.
         -5    1    3    3    0  502  0.61744976159E+01  0.42281423877E+02 -0.70614579792E+02  0.82642207770E+02  0.41800000000E+01 0.  1.
        -11    1    1    2    0    0  0.50455269663E+02 -0.41428177223E+02 -0.10074566238E+03  0.12004880921E+03  0.00000000000E+00 0.  1.
         11    1    1    2    0    0  0.39789408470E+02  0.41814502569E+02 -0.17917339942E+03  0.18824121948E+03  0.00000000000E+00 0. -1.
</event>
<event>
 7    1  0.2788485E-009  0.1296130E+03  0.7561462E-02  0.1228031E+00
         -2   -1    0    0    0  501 -0.00000000000E+00  0.00000000000E+00  0.14796324606E+02  0.14796324606E+02  0.00000000000E+00 0.  1.
          2   -1    0    0  501    0  0.00000000000E+00 -0.00000000000E+00 -0.12055926159E+04  0.12055926159E+04  0.00000000000E+00 0. -1.
         25    2    1    2    0    0  0.52859851357E+02  0.57507183499E+02 -0.74125201360E+03  0.75577933533E+03  0.12508643413E+03 0.  0.
          5    1    3    3  502    0 -0.31488951745E+02  0.54248412480E+02 -0.30303767056E+03  0.30948949338E+03  0.41800000000E+01 0.  1.
         -5    1    3    3    0  502  0.84348803101E+02  0.32587710192E+01 -0.43821434305E+03  0.44628984195E+03  0.41800000000E+01 0.  1.
        -11    1    1    2    0    0 -0.35617286622E+02  0.14014837519E+02 -0.93266063148E+02  0.10081450943E+03  0.00000000000E+00 0.  1.
         11    1    1    2    0    0 -0.17242564735E+02 -0.71522021018E+02 -0.35627821458E+03  0.36379509578E+03  0.00000000000E+00 0. -1.
</event>
<event>
 7    1  0.2788485E-009  0.9048970E+02  0.7561462E-02  0.1301670E+00
          1   -1    0    0  501    0  0.00000000000E+00  0.00000000000E+00  0.44050502139E+03  0.44050502139E+03  0.00000000000E+00 0. -1.
         -1   -1    0    0    0  501 -0.00000000000E+00 -0.00000000000E+00 -0.31624389736E+02  0.31624389736E+02  0.00000000000E+00 0.  1.
         25    2    1    2    0    0  0.19895035567E+02  0.10730036911E+02  0.31442299505E+03  0.33914958786E+03  0.12509866904E+03 0.  0.
          5    1    3    3  502    0  0.60912923078E+02 -0.21045437385E+02  0.10430431619E+03  0.12267908301E+03  0.41800000000E+01 0.  1.
         -5    1    3    3    0  502 -0.41017887511E+02  0.31775474296E+02  0.21011867886E+03  0.21647050485E+03  0.41800000000E+01 0.  1.
        -11    1    1    2    0    0  0.19614319981E+02 -0.14876301020E+02  0.89644214512E+02  0.92962955395E+02  0.00000000000E+00 0.  1.
         11    1    1    2    0    0 -0.39509355548E+02  0.41462641090E+01  0.48134220901E+01  0.40016867870E+02  0.00000000000E+00 0. -1.
</event>
<event>
 7    1  0.6265706E-009  0.9080101E+02  0.7561462E-02  0.1300923E+00
         -2   -1    0    0    0  501 -0.00000000000E+00  0.00000000000E+00  0.52615080513E+02  0.52615080513E+02  0.00000000000E+00 0.  1.
          2   -1    0    0  501    0  0.00000000000E+00 -0.00000000000E+00 -0.30918933143E+03  0.30918933143E+03  0.00000000000E+00 0. -1.
         25    2    1    2    0    0 -0.22882020441E+02  0.55466465629E+02 -0.10147495894E+03  0.17188521569E+03  0.12508894600E+03 0.  0.
          5    1    3    3  502    0  0.35272292784E+02  0.23301432745E+02 -0.96112138725E+02  0.10508143041E+03  0.41800000000E+01 0.  1.
         -5    1    3    3    0  502 -0.58154313225E+02  0.32165032884E+02 -0.53628202135E+01  0.66803785280E+02  0.41800000000E+01 0.  1.
        -11    1    1    2    0    0  0.34591053439E+02 -0.36855301420E+02 -0.22187512869E+02  0.55200905319E+02  0.00000000000E+00 0.  1.
         11    1    1    2    0    0 -0.11709032998E+02 -0.18611164209E+02 -0.13291177911E+03  0.13471829094E+03  0.00000000000E+00 0. -1.
</event>
<event>
 7    1  0.2788485E-009  0.1134438E+03  0.7561462E-02  0.1254322E+00
         -3   -1    0    0    0  501 -0.00000000000E+00  0.00000000000E+00  0.11729016320E+04  0.11729016320E+04  0.00000000000E+00 0.  1.
          3   -1    0    0  501    0  0.00000000000E+00 -0.00000000000E+00 -0.12591250718E+02  0.12591250718E+02  0.00000000000E+00 0. -1.
         25    2    1    2    0    0  0.46044542688E+02 -0.47945090264E+01  0.79934944182E+03  0.81040191420E+03  0.12509454493E+03 0.  0.
          5    1    3    3  502    0 -0.31466319424E+02  0.26367564314E+02  0.14599076544E+03  0.15171075670E+03  0.41800000000E+01 0.  1.
         -5    1    3    3    0  502  0.77510862113E+02 -0.31162073340E+02  0.65335867638E+03  0.65869115750E+03  0.41800000000E+01 0.  1.
        -11    1    1    2    0    0 -0.68671490061E+02 -0.16802807323E+02  0.24844263988E+03  0.25830573589E+03  0.00000000000E+00 0.  1.
         11    1    1    2    0    0  0.22626947372E+02  0.21597316350E+02  0.11251829962E+03  0.11678523267E+03  0.00000000000E+00 0. -1.
</event>
<event>
 7    1  0.2788485E-009  0.1591270E+03  0.7561462E-02  0.1189686E+00
         -1   -1    0    0    0  501 -0.00000000000E+00  0.00000000000E+00  0.24614569755E+03  0.24614569755E+03  0.00000000000E+00 0.  1.
          1   -1    0    0  501    0  0.00000000000E+00 -0.00000000000E+00 -0.30544779519E+03  0.30544779519E+03  0.00000000000E+00 0. -1.
         25    2    1    2    0    0 -0.33816795308E+02 -0.14907251555E+03  0.17043157636E+03  0.26088309199E+03  0.12508746910E+03 0.  0.
          5    1    3    3  502    0  0.10429384470E+02 -0.74824786149E+02  0.70381382356E+01  0.75990318281E+02  0.41800000000E+01 0. -1.
         -5    1    3    3    0  502 -0.44246179778E+02 -0.74247729406E+02  0.16339343812E+03  0.18489277371E+03  0.41800000000E+01 0. -1.
        -11    1    1    2    0    0  0.36459343690E+02  0.92539897333E+02 -0.20712208826E+03  0.22976613281E+03  0.00000000000E+00 0. -1.
         11    1    1    2    0    0 -0.26425483822E+01  0.56532618221E+02 -0.22611585739E+02  0.60944267938E+02  0.00000000000E+00 0.  1.
</event>
<event>
 7    1  0.2788485E-009  0.1137370E+03  0.7561462E-02  0.1253802E+00
         -1   -1    0    0    0  501 -0.00000000000E+00  0.00000000000E+00  0.11756719523E+03  0.11756719523E+03  0.00000000000E+00 0.  1.
          1   -1    0    0  501    0  0.00000000000E+00 -0.00000000000E+00 -0.28693884084E+03  0.28693884084E+03  0.00000000000E+00 0. -1.
         25    2    1    2    0    0  0.23200856186E+02 -0.38283675331E+02  0.66124858189E+02  0.14839910216E+03  0.12508348063E+03 0.  0.
          5    1    3    3  502    0  0.21746747370E+02 -0.83402650458E+02  0.33599763170E+02  0.92603129589E+02  0.41800000000E+01 0.  1.
         -5    1    3    3    0  502  0.14541088160E+01  0.45118975126E+02  0.32525095019E+02  0.55795972569E+02  0.41800000000E+01 0.  1.
        -11    1    1    2    0    0 -0.43226586694E+02 -0.93038576631E+01 -0.70475808930E+02  0.83198192342E+02  0.00000000000E+00 0. -1.
         11    1    1    2    0    0  0.20025730509E+02  0.47587532994E+02 -0.16502069487E+03  0.17290874158E+03  0.00000000000E+00 0.  1.
</event>
<event>
 7    1  0.2788485E-009  0.1407910E+03  0.7561462E-02  0.1212269E+00
          2   -1    0    0  501    0  0.00000000000E+00  0.00000000000E+00  0.23339384931E+03  0.23339384931E+03  0.00000000000E+00 0. -1.
         -2   -1    0    0    0  501 -0.00000000000E+00 -0.00000000000E+00 -0.10010157816E+03  0.10010157816E+03  0.00000000000E+00 0.  1.
         25    2    1    2    0    0 -0.10670774271E+03  0.12291147872E+02  0.76223499377E+02  0.18164632089E+03  0.12509096436E+03 0.  0.
          5    1    3    3  502    0 -0.77712102851E+02 -0.52364999856E+02  0.40331560460E+02  0.10210470757E+03  0.41800000000E+01 0.  1.
         -5    1    3    3    0  502 -0.28995639857E+02  0.64656147728E+02  0.35891938917E+02  0.79541613317E+02  0.41800000000E+01 0.  1.
        -11    1    1    2    0    0  0.79681801523E+02 -0.29261410236E+02 -0.17813098280E+01  0.84903431542E+02  0.00000000000E+00 0.  1.
         11    1    1    2    0    0  0.27025941186E+02  0.16970262363E+02  0.58850081606E+02  0.66945675041E+02  0.00000000000E+00 0. -1.
</event>
<event>
 7    1  0.2788485E-009  0.1349885E+03  0.7561462E-02  0.1220236E+00
          2   -1    0    0  501    0  0.00000000000E+00  0.00000000000E+00  0.40908293488E+03  0.40908293488E+03  0.00000000000E+00 0.  1.
         -2   -1    0    0    0  501 -0.00000000000E+00 -0.00000000000E+00 -0.63815051357E+02  0.63815051357E+02  0.00000000000E+00 0. -1.
         25    2    1    2    0    0  0.23773459911E+02 -0.86090706051E+02  0.70438572346E+02  0.16907319968E+03  0.12508943726E+03 0.  0.
          5    1    3    3  502    0  0.73632720215E+02 -0.59570230279E+02  0.57856270929E+02  0.11106399195E+03  0.41800000000E+01 0.  1.
         -5    1    3    3    0  502 -0.49859260303E+02 -0.26520475772E+02  0.12582301417E+02  0.58009207736E+02  0.41800000000E+01 0.  1.
        -11    1    1    2    0    0  0.18113900164E+02 -0.45643338356E+01  0.10630414364E+03  0.10793293045E+03  0.00000000000E+00 0.  1.
         11    1    1    2    0    0 -0.41887360075E+02  0.90655039887E+02  0.16852516755E+03  0.19589185610E+03  0.00000000000E+00 0. -1.
</event>
<event>
 7    1  0.2788485E-009  0.8961467E+02  0.7561462E-02  0.1303788E+00
          1   -1    0    0  501    0  0.00000000000E+00  0.00000000000E+00  0.94951658181E+03  0.94951658181E+03  0.00000000000E+00 0. -1.
         -1   -1    0    0    0  501 -0.00000000000E+00 -0.00000000000E+00 -0.21779064421E+02  0.21779064421E+02  0.00000000000E+00 0.  1.
         25    2    1    2    0    0  0.33627051442E+02 -0.34832389241E+02  0.78192897849E+03  0.79334986972E+03  0.12508802680E+03 0.  0.
          5    1    3    3  502    0 -0.19135648306E+02 -0.24004498414E+02  0.65067905009E+03  0.65141621688E+03  0.41800000000E+01 0. -1.
         -5    1    3    3    0  502  0.52762699748E+02 -0.10827890827E+02  0.13124992840E+03  0.14193365284E+03  0.41800000000E+01 0. -1.
        -11    1    1    2    0    0 -0.28546283064E+02 -0.22697238629E+02  0.92181934238E+02  0.99134070419E+02  0.00000000000E+00 0.  1.
         11    1    1    2    0    0 -0.50807683785E+01  0.57529627870E+02  0.53626604662E+02  0.78811706096E+02  0.00000000000E+00 0. -1.
</event>
<event>
 7    1  0.2788485E-009  0.9373755E+02  0.7561462E-02  0.1294045E+00
          1   -1    0    0  501    0  0.00000000000E+00  0.00000000000E+00  0.24333058792E+03  0.24333058792E+03  0.00000000000E+00 0. -1.
         -1   -1    0    0    0  501 -0.00000000000E+00 -0.00000000000E+00 -0.66529485931E+02  0.66529485931E+02  0.00000000000E+00 0.  1.
         25    2    1    2    0    0  0.21223494061E+02  0.28202628070E+02  0.16634568242E+03  0.21110344141E+03  0.12509177426E+03 0.  0.
          5    1    3    3  502    0  0.24022615317E+02 -0.39849285345E+02  0.11957111074E+03  0.12837357404E+03  0.41800000000E+01 0. -1.
         -5    1    3    3    0  502 -0.27991212558E+01  0.68051913416E+02  0.46774571675E+02  0.82729867368E+02  0.41800000000E+01 0. -1.
        -11    1    1    2    0    0 -0.41471103693E+02 -0.50733132211E+01 -0.27421712181E+02  0.49975406427E+02  0.00000000000E+00 0.  1.
         11    1    1    2    0    0  0.20247609632E+02 -0.23129314849E+02  0.37877131752E+02  0.48781226010E+02  0.00000000000E+00 0. -1.
</event>
<event>
 7    1  0.2788485E-009  0.1135237E+03  0.7561462E-02  0.1254180E+00
          1   -1    0    0  501    0  0.00000000000E+00  0.00000000000E+00  0.10814974081E+03  0.10814974081E+03  0.00000000000E+00 0. -1.
         -1   -1    0    0    0  501 -0.00000000000E+00 -0.00000000000E+00 -0.19577475904E+03  0.19577475904E+03  0.00000000000E+00 0.  1.
         25    2    1    2    0    0  0.34268811334E+02  0.68011174406E+02  0.13777505960E+02  0.14709597449E+03  0.12509010659E+03 0.  0.
          5    1    3    3  502    0 -0.26428177083E+02  0.52580865004E+02 -0.34109233594E+02  0.68147693467E+02  0.41800000000E+01 0.  1.
         -5    1    3    3    0  502  0.60696988416E+02  0.15430309402E+02  0.47886739554E+02  0.78948281021E+02  0.41800000000E+01 0.  1.
        -11    1    1    2    0    0 -0.41300232430E+02 -0.46817249115E+01 -0.79034811122E+02  0.89297979350E+02  0.00000000000E+00 0.  1.
         11    1    1    2    0    0  0.70314210961E+01 -0.63329449495E+02 -0.22367713069E+02  0.67530546006E+02  0.00000000000E+00 0. -1.
</event>
<event>
 7    1  0.2788485E-009  0.1492601E+03  0.7561462E-02  0.1201385E+00
          1   -1    0    0  501    0  0.00000000000E+00  0.00000000000E+00  0.64224344772E+03  0.64224344772E+03  0.00000000000E+00 0.  1.
         -1   -1    0    0    0  501 -0.00000000000E+00 -0.00000000000E+00 -0.49303461985E+02  0.49303461985E+02  0.00000000000E+00 0. -1.
         25    2    1    2    0    0 -0.11714936377E+03  0.29567064467E+02  0.17440478198E+03  0.24629742377E+03  0.12508880144E+03 0.  0.
          5    1    3    3  502    0 -0.16438692631E+02  0.48668432375E+02  0.99871421552E+01  0.52498212672E+02  0.41800000000E+01 0. -1.
         -5    1    3    3    0  502 -0.10071067114E+03 -0.19101367908E+02  0.16441763982E+03  0.19379921110E+03  0.41800000000E+01 0. -1.
        -11    1    1    2    0    0  0.55905961377E+02 -0.54676517129E+02  0.15604512630E+03  0.17454248619E+03  0.00000000000E+00 0.  1.
         11    1    1    2    0    0  0.61243402391E+02  0.25109452661E+02  0.26249007746E+03  0.27070699975E+03  0.00000000000E+00 0. -1.
</event>
<event>
 7    1  0.2788485E-009  0.1320772E+03  0.7561462E-02  0.1224406E+00
          2   -1    0    0  501    0  0.00000000000E+00  0.00000000000E+00  0.52428847733E+03  0.52428847733E+03  0.00000000000E+00 0. -1.
         -2   -1    0    0    0  501 -0.00000000000E+00 -0.00000000000E+00 -0.37728307902E+02  0.37728307902E+02  0.00000000000E+00 0.  1.
         25    2    1    2    0    0 -0.75702945367E+02  0.47800694430E+02  0.27643525973E+03  0.31635385405E+03  0.12508983103E+03 0.  0.
          5    1    3    3  502    0  0.78743662177E+01 -0.34945088739E+02  0.60580907091E+02  0.70503074928E+02  0.41800000000E+01 0. -1.
         -5    1    3    3    0  502 -0.83577311584E+02  0.82745783169E+02  0.21585435264E+03  0.24585077912E+03  0.41800000000E+01 0. -1.
        -11    1    1    2    0    0  0.10630371183E+02 -0.43952642505E+02  0.30418057578E+02  0.54498603666E+02  0.00000000000E+00 0.  1.
         11    1    1    2    0    0  0.65072574184E+02 -0.38480519246E+01  0.17970685213E+03  0.19116432752E+03  0.00000000000E+00 0. -1.
</event>
<event>
 7    1  0.2788485E-009  0.1525529E+03  0.7561462E-02  0.1197371E+00
         -2   -1    0    0    0  501 -0.00000000000E+00  0.00000000000E+00  0.73456060959E+02  0.73456060959E+02  0.00000000000E+00 0.  1.
          2   -1    0    0  501    0  0.00000000000E+00 -0.00000000000E+00 -0.65325184369E+03  0.65325184369E+03  0.00000000000E+00 0. -1.
         25    2    1    2    0    0  0.77977414439E+02 -0.11635857582E+03 -0.51681395843E+03  0.54987620546E+03  0.12508948144E+03 0.  0.
          5    1    3    3  502    0  0.94425096292E+02 -0.86593401066E+02 -0.48965082071E+03  0.50615206661E+03  0.41800000000E+01 0. -1.
         -5    1    3    3    0  502 -0.16447681853E+02 -0.29765174755E+02 -0.27163137727E+02  0.43724138844E+02  0.41800000000E+01 0. -1.
        -11    1    1    2    0    0 -0.37192465323E+02  0.32445937911E+02  0.18748557694E+02  0.52797033812E+02  0.00000000000E+00 0.  1.
         11    1    1    2    0    0 -0.40784949116E+02  0.83912637910E+02 -0.81730381991E+02  0.12403466538E+03  0.00000000000E+00 0. -1.
</event>
<event>
 7    1  0.2788485E-009  0.1762274E+03  0.7561462E-02  0.1171505E+00
         -3   -1    0    0    0  501 -0.00000000000E+00  0.00000000000E+00  0.21052287677E+03  0.21052287677E+03  0.00000000000E+00 0.  1.
          3   -1    0    0  501    0  0.00000000000E+00 -0.00000000000E+00 -0.18574365265E+03  0.18574365265E+03  0.00000000000E+00 0. -1.
         25    2    1    2    0    0  0.15491901421E+03 -0.54072988459E+02  0.28512655799E+02  0.20828810484E+03  0.12508866469E+03 0.  0.
          5    1    3    3  502    0  0.26748027370E+02  0.22250978387E+02 -0.31806456611E+02  0.47325321864E+02  0.41800000000E+01 0.  1.
         -5    1    3    3    0  502  0.12817098684E+03 -0.76323966846E+02  0.60319112410E+02  0.16096278298E+03  0.41800000000E+01 0.  1.
        -11    1    1    2    0    0 -0.12230094218E+03  0.25756944253E+02  0.35180166915E+02  0.12984061298E+03  0.00000000000E+00 0.  1.
         11    1    1    2    0    0 -0.32618072031E+02  0.28316044206E+02 -0.38913598587E+02  0.58137811598E+02  0.00000000000E+00 0. -1.
</event>
<event>
 7    1  0.2788485E-009  0.1130253E+03  0.7561462E-02  0.1255068E+00
          2   -1    0    0  501    0  0.00000000000E+00  0.00000000000E+00  0.37653915930E+03  0.37653915930E+03  0.00000000000E+00 0. -1.
         -2   -1    0    0    0  501 -0.00000000000E+00 -0.00000000000E+00 -0.61468430581E+02  0.61468430581E+02  0.00000000000E+00 0.  1.
         25    2    1    2    0    0 -0.30568159141E+02  0.36090205445E+02  0.30603875100E+03  0.33398205546E+03  0.12508949185E+03 0.  0.
          5    1    3    3  502    0  0.47876455869E+02  0.22017479491E+02  0.14302284644E+03  0.15247928198E+03  0.41800000000E+01 0. -1.
         -5    1    3    3    0  502 -0.78444615010E+02  0.14072725954E+02  0.16301590456E+03  0.18150277348E+03  0.41800000000E+01 0. -1.
        -11    1    1    2    0    0 -0.27773618584E+02 -0.12328003826E+02  0.24644711663E+02  0.39124357893E+02  0.00000000000E+00 0.  1.
         11    1    1    2    0    0  0.58341777724E+02 -0.23762201619E+02 -0.15612733945E+02  0.64901176531E+02  0.00000000000E+00 0. -1.
</event>
<event>
 7    1  0.2788485E-009  0.1437526E+03  0.7561462E-02  0.1208367E+00
         -1   -1    0    0    0  501 -0.00000000000E+00  0.00000000000E+00  0.15055687520E+03  0.15055687520E+03  0.00000000000E+00 0.  1.
          1   -1    0    0  501    0  0.00000000000E+00 -0.00000000000E+00 -0.17194023868E+03  0.17194023868E+03  0.00000000000E+00 0. -1.
         25    2    1    2    0    0  0.84240958001E+02 -0.68632437717E+02  0.37144639656E+02  0.16980500906E+03  0.12508823420E+03 0.  0.
          5    1    3    3  502    0 -0.21538695769E+02 -0.25223068085E+02  0.43910934347E+02  0.55188414856E+02  0.41800000000E+01 0.  1.
         -5    1    3    3    0  502  0.10577965377E+03 -0.43409369632E+02 -0.67662946914E+01  0.11461659421E+03  0.41800000000E+01 0.  1.
        -11    1    1    2    0    0 -0.93579438730E+01 -0.20923093067E+02 -0.17916756123E+02  0.29092216948E+02  0.00000000000E+00 0.  1.
         11    1    1    2    0    0 -0.74883014128E+02  0.89555530783E+02 -0.40611247008E+02  0.12359988787E+03  0.00000000000E+00 0. -1.
</event>
<event>
 7    1  0.2788485E-009  0.1776386E+03  0.7561462E-02  0.1170108E+00
          2   -1    0    0  501    0  0.00000000000E+00  0.00000000000E+00  0.96308005859E+03  0.96308005859E+03  0.00000000000E+00 0. -1.
         -2   -1    0    0    0  501 -0.00000000000E+00 -0.00000000000E+00 -0.92867541483E+02  0.92867541483E+02  0.00000000000E+00 0.  1.
         25    2    1    2    0    0  0.12071343648E+03  0.11129900014E+03  0.47077903418E+02  0.21171435489E+03  0.12508971940E+03 0.  0.
          5    1    3    3  502    0  0.50887583433E+02  0.72661861755E+02 -0.36558621850E+02  0.96038000463E+02  0.41800000000E+01 0.  1.
         -5    1    3    3    0  502  0.69825853043E+02  0.38637138382E+02  0.83636525268E+02  0.11567635443E+03  0.41800000000E+01 0.  1.
        -11    1    1    2    0    0 -0.90676813919E+02 -0.23370273042E+02  0.36953526706E+03  0.38121485785E+03  0.00000000000E+00 0.  1.
         11    1    1    2    0    0 -0.30036622557E+02 -0.87928727094E+02  0.45359934664E+03  0.46301838734E+03  0.00000000000E+00 0. -1.
</event>
<event>
 7    1  0.2788485E-009  0.9026751E+02  0.7561462E-02  0.1302205E+00
         -1   -1    0    0    0  501 -0.00000000000E+00  0.00000000000E+00  0.48815299437E+02  0.48815299437E+02  0.00000000000E+00 0.  1.
          1   -1    0    0  501    0  0.00000000000E+00 -0.00000000000E+00 -0.30129830682E+03  0.30129830682E+03  0.00000000000E+00 0. -1.
         25    2    1    2    0    0  0.75376735851E+01 -0.47966442137E+02 -0.10504038972E+03  0.17040365822E+03  0.12508527958E+03 0.  0.
          5    1    3    3  502    0  0.71273368664E+01 -0.62853399812E+02 -0.12793111712E+03  0.14277672053E+03  0.41800000000E+01 0.  1.
         -5    1    3    3    0  502  0.41033671874E+00  0.14886957675E+02  0.22890727398E+02  0.27626937686E+02  0.41800000000E+01 0.  1.
        -11    1    1    2    0    0  0.38493409396E+02  0.52037555012E+01 -0.69274823536E+02  0.79421803141E+02  0.00000000000E+00 0. -1.
         11    1    1    2    0    0 -0.46031082981E+02  0.42762686635E+02 -0.78167794126E+02  0.10028814490E+03  0.00000000000E+00 0.  1.
</event>
<event>
 7    1  0.2788485E-009  0.2478995E+03  0.7561462E-02  0.1114640E+00
          1   -1    0    0  501    0  0.00000000000E+00  0.00000000000E+00  0.30486481957E+03  0.30486481957E+03  0.00000000000E+00 0. -1.
         -1   -1    0    0    0  501 -0.00000000000E+00 -0.00000000000E+00 -0.21459257426E+03  0.21459257426E+03  0.00000000000E+00 0.  1.
         25    2    1    2    0    0  0.20604750115E+03 -0.10433200879E+03  0.29006981956E+02  0.26425887505E+03  0.12510238709E+03 0.  0.
          5    1    3    3  502    0  0.12266108608E+03 -0.11084389949E+03 -0.21023051688E+02  0.16670798780E+03  0.41800000000E+01 0.  1.
         -5    1    3    3    0  502  0.83386415067E+02  0.65118906994E+01  0.50030033644E+02  0.97550887257E+02  0.41800000000E+01 0.  1.
        -11    1    1    2    0    0 -0.21006276350E+01 -0.11798903312E+02  0.83723476581E+01  0.14619266778E+02  0.00000000000E+00 0.  1.
         11    1    1    2    0    0 -0.20394687351E+03  0.11613091210E+03  0.52892915686E+02  0.24057925200E+03  0.00000000000E+00 0. -1.
</event>
<event>
 7    1  0.2788485E-009  0.1370782E+03  0.7561462E-02  0.1217315E+00
         -2   -1    0    0    0  501 -0.00000000000E+00  0.00000000000E+00  0.82475646882E+03  0.82475646882E+03  0.00000000000E+00 0.  1.
          2   -1    0    0  501    0  0.00000000000E+00 -0.00000000000E+00 -0.23788949661E+02  0.23788949661E+02  0.00000000000E+00 0. -1.
         25    2    1    2    0    0 -0.64473335539E+02 -0.78432484229E+02  0.55090149627E+03  0.57397830089E+03  0.12510062237E+03 0.  0.
          5    1    3    3  502    0 -0.79143510385E+02 -0.10419187672E+03  0.43482236887E+03  0.45410087787E+03  0.41800000000E+01 0.  1.
         -5    1    3    3    0  502  0.14670174846E+02  0.25759392493E+02  0.11607912740E+03  0.11987742302E+03  0.41800000000E+01 0.  1.
        -11    1    1    2    0    0  0.31411430263E+02  0.73437451856E+02  0.17195750090E+03  0.18960253005E+03  0.00000000000E+00 0. -1.
         11    1    1    2    0    0  0.33061905276E+02  0.49950323725E+01  0.78108521984E+02  0.84964587537E+02  0.00000000000E+00 0.  1.
</event>
<event>
 7    1  0.2788485E-009  0.1337889E+03  0.7561462E-02  0.1221940E+00
         -1   -1    0    0    0  501 -0.00000000000E+00  0.00000000000E+00  0.53608340965E+03  0.53608340965E+03  0.00000000000E+00 0.  1.
          1   -1    0    0  501    0  0.00000000000E+00 -0.00000000000E+00 -0.48619955239E+02  0.48619955239E+02  0.00000000000E+00 0. -1.
         25    2    1    2    0    0  0.34998275181E+01 -0.97036261612E+02  0.38922637423E+03  0.42020725510E+03  0.12509469203E+03 0.  0.
          5    1    3    3  502    0  0.20139894063E+02 -0.11633230065E+03  0.22662318826E+03  0.25556674542E+03  0.41800000000E+01 0. -1.
         -5    1    3    3    0  502 -0.16640066545E+02  0.19296039038E+02  0.16260318597E+03  0.16464050967E+03  0.41800000000E+01 0. -1.
        -11    1    1    2    0    0  0.32959066536E+02  0.20420969200E+02  0.61116396907E+01  0.39251346343E+02  0.00000000000E+00 0. -1.
         11    1    1    2    0    0 -0.36458894054E+02  0.76615292412E+02  0.92125440483E+02  0.12524476345E+03  0.00000000000E+00 0.  1.
</event>
<event>
 7    1  0.2788485E-009  0.9326958E+02  0.7561462E-02  0.1295122E+00
         -1   -1    0    0    0  501 -0.00000000000E+00  0.00000000000E+00  0.50503057915E+02  0.50503057915E+02  0.00000000000E+00 0.  1.
          1   -1    0    0  501    0  0.00000000000E+00 -0.00000000000E+00 -0.24319322647E+03  0.24319322647E+03  0.00000000000E+00 0. -1.
         25    2    1    2    0    0 -0.15587308446E+02  0.15265128546E+02 -0.99099627366E+02  0.16107825650E+03  0.12509788263E+03 0.  0.
          5    1    3    3  502    0  0.33252848403E+02  0.26174793258E+02  0.75567743345E+01  0.43190843560E+02  0.41800000000E+01 0. -1.
         -5    1    3    3    0  502 -0.48840156849E+02 -0.10909664712E+02 -0.10665640170E+03  0.11788741294E+03  0.41800000000E+01 0. -1.
        -11    1    1    2    0    0 -0.21651264036E+02  0.28846686965E+02 -0.32229251481E+02  0.48369755367E+02  0.00000000000E+00 0.  1.
         11    1    1    2    0    0  0.37238572482E+02 -0.44111815511E+02 -0.61361289708E+02  0.84248272521E+02  0.00000000000E+00 0. -1.
</event>
<event>
 7    1  0.2788485E-009  0.1079366E+03  0.7561462E-02  0.1264439E+00
          1   -1    0    0  501    0  0.00000000000E+00  0.00000000000E+00  0.28029984278E+02  0.28029984278E+02  0.00000000000E+00 0. -1.
         -1   -1    0    0    0  501 -0.00000000000E+00 -0.00000000000E+00 -0.76990854632E+03  0.76990854632E+03  0.00000000000E+00 0.  1.
         25    2    1    2    0    0 -0.73926762331E+02 -0.44455940471E+02 -0.53679360954E+03  0.55788571212E+03  0.12509033420E+03 0.  0.
          5    1    3    3  502    0  0.63698474027E+00 -0.24796627358E+02 -0.12784898026E+02  0.28217095801E+02  0.41800000000E+01 0.  1.
         -5    1    3    3    0  502 -0.74563747071E+02 -0.19659313113E+02 -0.52400871151E+03  0.52966861632E+03  0.41800000000E+01 0.  1.
        -11    1    1    2    0    0  0.42384098571E+02 -0.16000035319E+02 -0.13443300431E+03  0.14186136046E+03  0.00000000000E+00 0.  1.
         11    1    1    2    0    0  0.31542663759E+02  0.60455975790E+02 -0.70651948186E+02  0.98191458021E+02  0.00000000000E+00 0. -1.
</event>
<event>
 7    1  0.2788485E-009  0.1382028E+03  0.7561462E-02  0.1215768E+00
          2   -1    0    0  501    0  0.00000000000E+00  0.00000000000E+00  0.62129568863E+03  0.62129568863E+03  0.00000000000E+00 0. -1.
         -2   -1    0    0    0  501 -0.00000000000E+00 -0.00000000000E+00 -0.44223640228E+02  0.44223640228E+02  0.00000000000E+00 0.  1.
         25    2    1    2    0    0 -0.10611287825E+03  0.16597999376E+01  0.44924017944E+03  0.47825268109E+03  0.12508473240E+03 0.  0.
          5    1    3    3  502    0  0.12995884490E+02 -0.25472784074E+02  0.18333772508E+03  0.18560158830E+03  0.41800000000E+01 0. -1.
         -5    1    3    3    0  502 -0.11910876274E+03  0.27132584011E+02  0.26590245436E+03  0.29265109279E+03  0.41800000000E+01 0. -1.
        -11    1    1    2    0    0  0.48778211789E+02 -0.33989235856E+02  0.98841165546E+02  0.11534365221E+03  0.00000000000E+00 0.  1.
         11    1    1    2    0    0  0.57334666459E+02  0.32329435919E+02  0.28990703415E+02  0.71922995552E+02  0.00000000000E+00 0. -1.
</event>
<event>
 7    1  0.2788485E-009  0.1262397E+03  0.7561462E-02  0.1233144E+00
          1   -1    0    0  501    0  0.00000000000E+00  0.00000000000E+00  0.16350092638E+03  0.16350092638E+03  0.00000000000E+00 0. -1.
         -1   -1    0    0    0  501 -0.00000000000E+00 -0.00000000000E+00 -0.10195788931E+03  0.10195788931E+03  0.00000000000E+00 0.  1.
         25    2    1    2    0    0 -0.59815935849E+02  0.45272823607E+02  0.17491159038E+02  0.14690382026E+03  0.12508883653E+03 0.  0.
          5    1    3    3  502    0 -0.96776126880E+02  0.19241242209E+02  0.22313649870E+02  0.10124828644E+03  0.41800000000E+01 0.  1.
         -5    1    3    3    0  502  0.36960191031E+02  0.26031581399E+02 -0.48224908319E+01  0.45655533827E+02  0.41800000000E+01 0.  1.
        -11    1    1    2    0    0 -0.18380767239E+02 -0.17383816497E+02  0.17027356017E+01  0.25356438805E+02  0.00000000000E+00 0. -1.
         11    1    1    2    0    0  0.78196703088E+02 -0.27889007110E+02  0.42349142431E+02  0.93198556620E+02  0.00000000000E+00 0.  1.
</event>
<event>
 7    1  0.2788485E-009  0.1353686E+03  0.7561462E-02  0.1219700E+00
          1   -1    0    0  501    0  0.00000000000E+00  0.00000000000E+00  0.47143983235E+03  0.47143983235E+03  0.00000000000E+00 0. -1.
         -1   -1    0    0    0  501 -0.00000000000E+00 -0.00000000000E+00 -0.41929031292E+02  0.41929031292E+02  0.00000000000E+00 0.  1.
         25    2    1    2    0    0 -0.68292649982E+02 -0.87588397343E+01  0.28441308881E+03  0.31824399696E+03  0.12509129944E+03 0.  0.
          5    1    3    3  502    0 -0.23115929425E+02 -0.64363431343E+02  0.10935164896E+03  0.12904360897E+03  0.41800000000E+01 0. -1.
         -5    1    3    3    0  502 -0.45176720558E+02  0.55604591608E+02  0.17506143986E+03  0.18920038798E+03  0.41800000000E+01 0. -1.
        -11    1    1    2    0    0 -0.26832194304E+02  0.21628648338E+02  0.37466190061E+02  0.50906585800E+02  0.00000000000E+00 0.  1.
         11    1    1    2    0    0  0.95124844286E+02 -0.12869808603E+02  0.10763152218E+03  0.14421828088E+03  0.00000000000E+00 0. -1.
</event>
<event>
 7    1  0.2788485E-009  0.4771261E+02  0.7561462E-02  0.1458085E+00
          3   -1    0    0  501    0  0.00000000000E+00  0.00000000000E+00  0.84625349218E+02  0.84625349218E+02  0.00000000000E+00 0. -1.
         -3   -1    0    0    0  501 -0.00000000000E+00 -0.00000000000E+00 -0.20535984740E+03  0.20535984740E+03  0.00000000000E+00 0.  1.
         25    2    1    2    0    0  0.27959455923E+02  0.47613787988E+01 -0.13814268808E+03  0.18851102001E+03  0.12509436635E+03 0.  0.
          5    1    3    3  502    0  0.20236484419E+01  0.23451646489E+02  0.17459536337E+02  0.29603761335E+02  0.41800000000E+01 0. -1.
         -5    1    3    3    0  502  0.25935807481E+02 -0.18690267690E+02 -0.15560222442E+03  0.15890725868E+03  0.41800000000E+01 0. -1.
        -11    1    1    2    0    0 -0.81895636663E+01 -0.14942808061E+02 -0.38067629410E+02  0.41707323993E+02  0.00000000000E+00 0.  1.
         11    1    1    2    0    0 -0.19769892257E+02  0.10181429262E+02  0.55475819317E+02  0.59766852607E+02  0.00000000000E+00 0. -1.
</event>
<event>
 7    1  0.2788485E-009  0.9472961E+02  0.7561462E-02  0.1291786E+00
          1   -1    0    0  501    0  0.00000000000E+00  0.00000000000E+00  0.50432047997E+03  0.50432047997E+03  0.00000000000E+00 0. -1.
         -1   -1    0    0    0  501 -0.00000000000E+00 -0.00000000000E+00 -0.21686817554E+02  0.21686817554E+02  0.00000000000E+00 0.  1.
         25    2    1    2    0    0  0.21191196124E+01 -0.64733573914E+00  0.28417058991E+03  0.31049874516E+03  0.12510650208E+03 0.  0.
          5    1    3    3  502    0 -0.48044793045E+02  0.34061531017E+02  0.18297878205E+03  0.19226855466E+03  0.41800000000E+01 0. -1.
         -5    1    3    3    0  502  0.50163912657E+02 -0.34708866756E+02  0.10119180787E+03  0.11823019050E+03  0.41800000000E+01 0. -1.
        -11    1    1    2    0    0 -0.29195127114E+02  0.20521562332E+02  0.40346268573E+02  0.53863822325E+02  0.00000000000E+00 0.  1.
         11    1    1    2    0    0  0.27076007502E+02 -0.19874226592E+02  0.15811680393E+03  0.16164473004E+03  0.00000000000E+00 0. -1.
</event>
<event>
 7    1  0.2788485E-009  0.1470567E+03  0.7561462E-02  0.1204137E+00
         -1   -1    0    0    0  501 -0.00000000000E+00  0.00000000000E+00  0.19086716549E+03  0.19086716549E+03  0.00000000000E+00 0.  1.
          1   -1    0    0  501    0  0.00000000000E+00 -0.00000000000E+00 -0.17071747534E+03  0.17071747534E+03  0.00000000000E+00 0. -1.
         25    2    1    2    0    0  0.11144445255E+03 -0.19158102118E+02  0.10056287241E+03  0.19633261338E+03  0.12508678942E+03 0.  0.
          5    1    3    3  502    0  0.57287131986E+02  0.45422809713E+02  0.81979775527E+02  0.10992362407E+03  0.41800000000E+01 0.  1.
         -5    1    3    3    0  502  0.54157320565E+02 -0.64580911831E+02  0.18583096882E+02  0.86408989310E+02  0.41800000000E+01 0.  1.
        -11    1    1    2    0    0  0.37650628999E+01 -0.15687741257E+02  0.58577509158E+01  0.17163745808E+02  0.00000000000E+00 0.  1.
         11    1    1    2    0    0 -0.11520951545E+03  0.34845843374E+02 -0.86270933175E+02  0.14808828165E+03  0.00000000000E+00 0. -1.
</event>
<event>
 7    1  0.2788485E-009  0.1254643E+03  0.7561462E-02  0.1234345E+00
          2   -1    0    0  501    0  0.00000000000E+00  0.00000000000E+00  0.12401687226E+04  0.12401687226E+04  0.00000000000E+00 0.  1.
         -2   -1    0    0    0  501 -0.00000000000E+00 -0.00000000000E+00 -0.16981296799E+02  0.16981296799E+02  0.00000000000E+00 0. -1.
         25    2    1    2    0    0 -0.81406598132E+02  0.17297473143E+02  0.87829927195E+03  0.89105762435E+03  0.12509133467E+03 0.  0.
          5    1    3    3  502    0 -0.11401755552E+03  0.23584892510E+02  0.70353206967E+03  0.71311366245E+03  0.41800000000E+01 0.  1.
         -5    1    3    3    0  502  0.32610957385E+02 -0.62874193665E+01  0.17476720228E+03  0.17794396190E+03  0.41800000000E+01 0.  1.
        -11    1    1    2    0    0  0.15982774183E+02 -0.30289189514E+02  0.34477180342E+02  0.48595884973E+02  0.00000000000E+00 0. -1.
         11    1    1    2    0    0  0.65423823949E+02  0.12991716371E+02  0.31041097347E+03  0.31749651004E+03  0.00000000000E+00 0.  1.
</event>
<event>
 7    1  0.2788485E-009  0.1691927E+03  0.7561462E-02  0.1178692E+00
         -1   -1    0    0    0  501 -0.00000000000E+00  0.00000000000E+00  0.29773273113E+02  0.29773273113E+02  0.00000000000E+00 0.  1.
          1   -1    0    0  501    0  0.00000000000E+00 -0.00000000000E+00 -0.16668721541E+04  0.16668721541E+04  0.00000000000E+00 0. -1.
         25    2    1    2    0    0  0.40609870465E+02  0.14313372315E+03 -0.13318746862E+04  0.13459841977E+04  0.12508739470E+03 0.  0.
          5    1    3    3  502    0  0.80326049229E+02  0.11195759343E+03 -0.11022243510E+04  0.11108117614E+04  0.41800000000E+01 0. -1.
         -5    1    3    3    0  502 -0.39716178764E+02  0.31176129728E+02 -0.22965033525E+03  0.23517243631E+03  0.41800000000E+01 0. -1.
        -11    1    1    2    0    0 -0.10839026128E+02 -0.71118437958E+02 -0.23498882123E+03  0.24575406977E+03  0.00000000000E+00 0. -1.
         11    1    1    2    0    0 -0.29770844337E+02 -0.72015285196E+02 -0.70235373529E+02  0.10490715976E+03  0.00000000000E+00 0.  1.
</event>
<event>
 7    1  0.2788485E-009  0.5485955E+02  0.7561462E-02  0.1420764E+00
         -2   -1    0    0    0  501 -0.00000000000E+00  0.00000000000E+00  0.39294309103E+02  0.39294309103E+02  0.00000000000E+00 0.  1.
          2   -1    0    0  501    0  0.00000000000E+00 -0.00000000000E+00 -0.40320660443E+03  0.40320660443E+03  0.00000000000E+00 0. -1.
         25    2    1    2    0    0 -0.18983579161E+02 -0.32889310228E+02 -0.27966848409E+03  0.30871316819E+03  0.12508907312E+03 0.  0.
          5    1    3    3  502    0 -0.35846373936E+02 -0.24331282872E+02 -0.28525530382E+03  0.28855681349E+03  0.41800000000E+01 0. -1.
         -5    1    3    3    0  502  0.16862794775E+02 -0.85580273557E+01  0.55868197389E+01  0.20156354696E+02  0.41800000000E+01 0. -1.
        -11    1    1    2    0    0 -0.13483780458E+01  0.24971645028E+02  0.16987272649E+02  0.30231913780E+02  0.00000000000E+00 0.  1.
         11    1    1    2    0    0  0.20331957207E+02  0.79176652002E+01 -0.10123108389E+03  0.10355583157E+03  0.00000000000E+00 0. -1.
</event>
<event>
 7    1  0.2788485E-009  0.1419727E+03  0.7561462E-02  0.1210699E+00
         -1   -1    0    0    0  501 -0.00000000000E+00  0.00000000000E+00  0.24069769487E+02  0.24069769487E+02  0.00000000000E+00 0.  1.
          1   -1    0    0  501    0  0.00000000000E+00 -0.00000000000E+00 -0.10808098573E+04  0.10808098573E+04  0.00000000000E+00 0. -1.
         25    2    1    2    0    0  0.79834439304E+02  0.72432511350E+02 -0.67647087618E+03  0.69633325791E+03  0.12508858200E+03 0.  0.
          5    1    3    3  502    0  0.10015050236E+03  0.74072766329E+02 -0.39737243557E+03  0.41646034960E+03  0.41800000000E+01 0.  1.
         -5    1    3    3    0  502 -0.20316063058E+02 -0.16402549792E+01 -0.27909844062E+03  0.27987290831E+03  0.41800000000E+01 0.  1.
        -11    1    1    2    0    0 -0.94623818064E+02 -0.39759266373E+02 -0.33733354252E+03  0.35260230447E+03  0.00000000000E+00 0. -1.
         11    1    1    2    0    0  0.14789378760E+02 -0.32673244977E+02 -0.42935669136E+02  0.55944064436E+02  0.00000000000E+00 0.  1.
</event>
<event>
 7    1  0.2788485E-009  0.2056746E+03  0.7561462E-02  0.1145038E+00
          2   -1    0    0  501    0  0.00000000000E+00  0.00000000000E+00  0.33003486326E+03  0.33003486326E+03  0.00000000000E+00 0. -1.
         -2   -1    0    0    0  501 -0.00000000000E+00 -0.00000000000E+00 -0.19570566228E+03  0.19570566228E+03  0.00000000000E+00 0.  1.
         25    2    1    2    0    0 -0.19528248181E+03  0.29411556971E+02  0.19099737107E+03  0.30187434101E+03  0.12509130512E+03 0.  0.
          5    1    3    3  502    0 -0.14238083294E+03  0.20630374658E+02  0.52340251380E+02  0.15314988822E+03  0.41800000000E+01 0. -1.
         -5    1    3    3    0  502 -0.52901648871E+02  0.87811823130E+01  0.13865711969E+03  0.14872445279E+03  0.41800000000E+01 0. -1.
        -11    1    1    2    0    0  0.12412998277E+03  0.21716667927E+02 -0.51386875266E+02  0.13608996009E+03  0.00000000000E+00 0. -1.
         11    1    1    2    0    0  0.71152499044E+02 -0.51128224897E+02 -0.52812948269E+01  0.87776224437E+02  0.00000000000E+00 0.  1.
</event>
<event>
 7    1  0.2788485E-009  0.1221782E+03  0.7561462E-02  0.1239546E+00
          2   -1    0    0  501    0  0.00000000000E+00  0.00000000000E+00  0.67653127600E+02  0.67653127600E+02  0.00000000000E+00 0. -1.
         -2   -1    0    0    0  501 -0.00000000000E+00 -0.00000000000E+00 -0.52500094068E+03  0.52500094068E+03  0.00000000000E+00 0.  1.
         25    2    1    2    0    0  0.91885231791E+02  0.47578262673E+01 -0.43716874129E+03  0.46392783883E+03  0.12508796323E+03 0.  0.
          5    1    3    3  502    0  0.36747534544E+02  0.44118416704E+02 -0.34328350910E+03  0.34807737072E+03  0.41800000000E+01 0.  1.
         -5    1    3    3    0  502  0.55137697247E+02 -0.39360590436E+02 -0.93885232187E+02  0.11585046810E+03  0.41800000000E+01 0.  1.
        -11    1    1    2    0    0 -0.60765742043E+02  0.33665147867E+02 -0.34062435347E+02  0.77369678096E+02  0.00000000000E+00 0.  1.
         11    1    1    2    0    0 -0.31119489749E+02 -0.38422974134E+02  0.13883363557E+02  0.51356551356E+02  0.00000000000E+00 0. -1.
</event>
<event>
 7    1  0.2788485E-009  0.1122488E+03  0.7561462E-02  0.1256461E+00
          3   -1    0    0  501    0  0.00000000000E+00  0.00000000000E+00  0.46967751464E+02  0.46967751464E+02  0.00000000000E+00 0. -1.
         -3   -1    0    0    0  501 -0.00000000000E+00 -0.00000000000E+00 -0.36638097432E+03  0.36638097432E+03  0.00000000000E+00 0.  1.
         25    2    1    2    0    0  0.61847265765E+02  0.26599220538E+02 -0.24060458714E+03  0.27940761039E+03  0.12508174357E+03 0.  0.
          5    1    3    3  502    0 -0.25005386735E+02 -0.88880663025E+01 -0.71946700025E+01  0.27811917676E+02  0.41800000000E+01 0.  1.
         -5    1    3    3    0  502  0.86852652500E+02  0.35487286841E+02 -0.23340991714E+03  0.25159569271E+03  0.41800000000E+01 0.  1.
        -11    1    1    2    0    0 -0.70911672694E+02  0.47622122346E+01 -0.34765853503E+02  0.79118951961E+02  0.00000000000E+00 0. -1.
         11    1    1    2    0    0  0.90644069287E+01 -0.31361432773E+02 -0.44042782212E+02  0.54822163434E+02  0.00000000000E+00 0.  1.
</event>
<event>
 7    1  0.2788485E-009  0.1750601E+03  0.7561462E-02  0.1172671E+00
         -3   -1    0    0    0  501 -0.00000000000E+00  0.00000000000E+00  0.32247756511E+03  0.32247756511E+03  0.00000000000E+00 0.  1.
          3   -1    0    0  501    0  0.00000000000E+00 -0.00000000000E+00 -0.16919884989E+03  0.16919884989E+03  0.00000000000E+00 0. -1.
         25    2    1    2    0    0 -0.61517619438E+02 -0.15689651984E+03 -0.46850556929E+02  0.21503741754E+03  0.12508069722E+03 0.  0.
          5    1    3    3  502    0 -0.28216473079E+02 -0.86063580706E+02  0.39077564740E+02  0.98730125813E+02  0.41800000000E+01 0. -1.
         -5    1    3    3    0  502 -0.33301146359E+02 -0.70832939136E+02 -0.85928121670E+02  0.11630729173E+03  0.41800000000E+01 0. -1.
        -11    1    1    2    0    0  0.70018817395E+02  0.91971652789E+02  0.16741261214E+03  0.20344139798E+03  0.00000000000E+00 0.  1.
         11    1    1    2    0    0 -0.85011979577E+01  0.64924867053E+02  0.32716660003E+02  0.73197599485E+02  0.00000000000E+00 0. -1.
</event>
<event>
 7    1  0.2788485E-009  0.1096674E+03  0.7561462E-02  0.1261187E+00
          2   -1    0    0  501    0  0.00000000000E+00  0.00000000000E+00  0.18257655361E+03  0.18257655361E+03  0.00000000000E+00 0. -1.
         -2   -1    0    0    0  501 -0.00000000000E+00 -0.00000000000E+00 -0.80519325030E+02  0.80519325030E+02  0.00000000000E+00 0.  1.
         25    2    1    2    0    0  0.10560565448E+02 -0.32062971294E+01  0.11178149695E+03  0.16811925064E+03  0.12508866252E+03 0.  0.
          5    1    3    3  502    0  0.66242565081E+02 -0.15545126780E+02  0.55833462131E+02  0.88116833174E+02  0.41800000000E+01 0. -1.
         -5    1    3    3    0  502 -0.55681999633E+02  0.12338829651E+02  0.55948034816E+02  0.80002417464E+02  0.41800000000E+01 0. -1.
        -11    1    1    2    0    0  0.37494535215E+02 -0.17833447156E+02 -0.91426971121E+01  0.42514243718E+02  0.00000000000E+00 0. -1.
         11    1    1    2    0    0 -0.48055100663E+02  0.21039744286E+02 -0.58157125862E+00  0.52462384281E+02  0.00000000000E+00 0.  1.
</event>
<event>
 7    1  0.2788485E-009  0.8230877E+02  0.7561462E-02  0.1322624E+00
         -2   -1    0    0    0  501 -0.00000000000E+00  0.00000000000E+00  0.44568831042E+02  0.44568831042E+02  0.00000000000E+00 0.  1.
          2   -1    0    0  501    0  0.00000000000E+00 -0.00000000000E+00 -0.38901577537E+03  0.38901577537E+03  0.00000000000E+00 0. -1.
         25    2    1    2    0    0  0.64237726951E+02  0.39273660722E+02 -0.19699846003E+03  0.24520153662E+03  0.12508594772E+03 0.  0.
          5    1    3    3  502    0  0.28376858765E+02  0.41970494905E+02 -0.64486241676E+01  0.51242811297E+02  0.41800000000E+01 0. -1.
         -5    1    3    3    0  502  0.35860868186E+02 -0.26968341829E+01 -0.19054983587E+03  0.19395872533E+03  0.41800000000E+01 0. -1.
        -11    1    1    2    0    0 -0.25955193290E+02 -0.26814917549E+02 -0.18978187192E+01  0.37367279507E+02  0.00000000000E+00 0.  1.
         11    1    1    2    0    0 -0.38282533661E+02 -0.12458743172E+02 -0.14555066558E+03  0.15101579028E+03  0.00000000000E+00 0. -1.
</event>
<event>
 7    1  0.2788485E-009  0.1153710E+03  0.7561462E-02  0.1250935E+00
         -1   -1    0    0    0  501 -0.00000000000E+00  0.00000000000E+00  0.67837014555E+03  0.67837014555E+03  0.00000000000E+00 0.  1.
          1   -1    0    0  501    0  0.00000000000E+00 -0.00000000000E+00 -0.32445636772E+02  0.32445636772E+02  0.00000000000E+00 0. -1.
         25    2    1    2    0    0  0.50136296715E+02 -0.56897269737E+02  0.52085725350E+03  0.54100875213E+03  0.12508894360E+03 0.  0.
          5    1    3    3  502    0  0.34482402658E+01 -0.84341194515E+02  0.22807094521E+03  0.24322655263E+03  0.41800000000E+01 0.  1.
         -5    1    3    3    0  502  0.46688056450E+02  0.27443924779E+02  0.29278630829E+03  0.29778219951E+03  0.41800000000E+01 0.  1.
        -11    1    1    2    0    0 -0.60741869959E+02  0.42973658910E+02  0.13155622244E+03  0.15114016604E+03  0.00000000000E+00 0.  1.
         11    1    1    2    0    0  0.10605573243E+02  0.13923610827E+02 -0.64889671666E+01  0.18666864149E+02  0.00000000000E+00 0. -1.
</event>
<event>
 7    1  0.2788485E-009  0.1140281E+03  0.7561462E-02  0.1253287E+00
          2   -1    0    0  501    0  0.00000000000E+00  0.00000000000E+00  0.27617363052E+03  0.27617363052E+03  0.00000000000E+00 0.  1.
         -2   -1    0    0    0  501 -0.00000000000E+00 -0.00000000000E+00 -0.77043332678E+02  0.77043332678E+02  0.00000000000E+00 0. -1.
         25    2    1    2    0    0  0.33277968627E+01  0.89240632708E+02  0.61980174010E+02  0.16571648132E+03  0.12508175508E+03 0.  0.
          5    1    3    3  502    0  0.19671438760E+02  0.83731979917E+02  0.95005851625E+02  0.12822478000E+03  0.41800000000E+01 0.  1.
         -5    1    3    3    0  502 -0.16343641898E+02  0.55086527905E+01 -0.33025677616E+02  0.37491701322E+02  0.41800000000E+01 0.  1.
        -11    1    1    2    0    0 -0.15663201858E+02 -0.10387935272E+03  0.96851506131E+02  0.14288621366E+03  0.00000000000E+00 0.  1.
         11    1    1    2    0    0  0.12335404996E+02  0.14638720009E+02  0.40298617703E+02  0.44614268219E+02  0.00000000000E+00 0. -1.
</event>
<event>
 7    1  0.2788485E-009  0.8118973E+02  0.7561462E-02  0.1325709E+00
          4   -1    0    0  501    0  0.00000000000E+00  0.00000000000E+00  0.12143802199E+02  0.12143802199E+02  0.00000000000E+00 0.  1.
         -4   -1    0    0    0  501 -0.00000000000E+00 -0.00000000000E+00 -0.15764705882E+04  0.15764705882E+04  0.00000000000E+00 0. -1.
         25    2    1    2    0    0 -0.58083274981E+01  0.63890834240E+02 -0.11777697713E+04  0.11861294721E+04  0.12508283252E+03 0.  0.
          5    1    3    3  502    0  0.12803008726E+01  0.46416352379E+02 -0.11563405829E+04  0.11572800582E+04  0.41800000000E+01 0.  1.
         -5    1    3    3    0  502 -0.70886283707E+01  0.17474481861E+02 -0.21429188388E+02  0.28849413919E+02  0.41800000000E+01 0.  1.
        -11    1    1    2    0    0 -0.61964355961E+01 -0.77812969760E+02 -0.36864294275E+03  0.37681676358E+03  0.00000000000E+00 0. -1.
         11    1    1    2    0    0  0.12004763094E+02  0.13922135520E+02 -0.17914072007E+02  0.25668154789E+02  0.00000000000E+00 0.  1.
</event>
<event>
 7    1  0.2788485E-009  0.1043263E+03  0.7561462E-02  0.1271453E+00
         -2   -1    0    0    0  501 -0.00000000000E+00  0.00000000000E+00  0.50513155587E+03  0.50513155587E+03  0.00000000000E+00 0.  1.
          2   -1    0    0  501    0  0.00000000000E+00 -0.00000000000E+00 -0.53063344709E+02  0.53063344709E+02  0.00000000000E+00 0. -1.
         25    2    1    2    0    0 -0.35611527975E+02  0.83110893434E+02  0.38176452509E+03  0.41178099869E+03  0.12507532422E+03 0.  0.
          5    1    3    3  502    0 -0.49771310068E+02  0.21028342331E+02  0.31422045600E+03  0.31885943903E+03  0.41800000000E+01 0.  1.
         -5    1    3    3    0  502  0.14159782093E+02  0.62082551103E+02  0.67544069093E+02  0.92921559662E+02  0.41800000000E+01 0.  1.
        -11    1    1    2    0    0  0.17999034230E+02 -0.33961725616E+02  0.84052851910E+02  0.92424271457E+02  0.00000000000E+00 0.  1.
         11    1    1    2    0    0  0.17612493744E+02 -0.49149167818E+02 -0.13749165842E+02  0.53989630434E+02  0.00000000000E+00 0. -1.
</event>
<event>
 7    1  0.2788485E-009  0.1052371E+03  0.7561462E-02  0.1269653E+00
         -2   -1    0    0    0  501 -0.00000000000E+00  0.00000000000E+00  0.98721364623E+02  0.98721364623E+02  0.00000000000E+00 0.  1.
          2   -1    0    0  501    0  0.00000000000E+00 -0.00000000000E+00 -0.22304012658E+03  0.22304012658E+03  0.00000000000E+00 0. -1.
         25    2    1    2    0    0  0.66312746988E+02 -0.76074910635E+02 -0.56076831277E+02  0.17022624246E+03  0.12509032806E+03 0.  0.
          5    1    3    3  502    0  0.38428739639E+01  0.73559718787E-01 -0.70382311731E+02  0.70611013985E+02  0.41800000000E+01 0.  1.
         -5    1    3    3    0  502  0.62469873024E+02 -0.76148470354E+02  0.14305480454E+02  0.99615228474E+02  0.41800000000E+01 0.  1.
        -11    1    1    2    0    0 -0.11404506892E+02  0.37271981346E+02 -0.74427372221E+02  0.84016052673E+02  0.00000000000E+00 0. -1.
         11    1    1    2    0    0 -0.54908240095E+02  0.38802929289E+02  0.61854415377E+01  0.67519196076E+02  0.00000000000E+00 0.  1.
</event>
<event>
 7    1  0.2788485E-009  0.1982145E+03  0.7561462E-02  0.1151254E+00
          2   -1    0    0  501    0  0.00000000000E+00  0.00000000000E+00  0.41212303780E+03  0.41212303780E+03  0.00000000000E+00 0. -1.
         -2   -1    0    0    0  501 -0.00000000000E+00 -0.00000000000E+00 -0.11348652976E+03  0.11348652976E+03  0.00000000000E+00 0.  1.
         25    2    1    2    0    0  0.17766701293E+03  0.28494181125E+02  0.21205876453E+03  0.30494986184E+03  0.12509201725E+03 0.  0.
          5    1    3    3  502    0  0.13012595491E+03 -0.14719212232E+02  0.69020701809E+02  0.14809034077E+03  0.41800000000E+01 0. -1.
         -5    1    3    3    0  502  0.47541058019E+02  0.43213393357E+02  0.14303806272E+03  0.15685952107E+03  0.41800000000E+01 0. -1.
        -11    1    1    2    0    0 -0.89461384668E+02  0.30943569610E+02  0.25621188622E+02  0.98067778364E+02  0.00000000000E+00 0.  1.
         11    1    1    2    0    0 -0.88205628262E+02 -0.59437750735E+02  0.60956554882E+02  0.12259192736E+03  0.00000000000E+00 0. -1.
</event>
<event>
 7    1  0.2788485E-009  0.1429699E+03  0.7561462E-02  0.1209388E+00
          2   -1    0    0  501    0  0.00000000000E+00  0.00000000000E+00  0.40947216774E+03  0.40947216774E+03  0.00000000000E+00 0. -1.
         -2   -1    0    0    0  501 -0.00000000000E+00 -0.00000000000E+00 -0.11123084930E+03  0.11123084930E+03  0.00000000000E+00 0.  1.
         25    2    1    2    0    0  0.12230401427E+03 -0.23770873313E+02  0.32311922361E+03  0.36820733857E+03  0.12508910898E+03 0.  0.
          5    1    3    3  502    0  0.84097918291E+01 -0.43819780193E+02  0.32391697611E+02  0.55295498993E+02  0.41800000000E+01 0.  1.
         -5    1    3    3    0  502  0.11389422244E+03  0.20048906879E+02  0.29072752600E+03  0.31291183958E+03  0.41800000000E+01 0.  1.
        -11    1    1    2    0    0 -0.11128710329E+03  0.17289910872E+02 -0.50833950223E+02  0.12356314528E+03  0.00000000000E+00 0.  1.
         11    1    1    2    0    0 -0.11016910985E+02  0.64809624414E+01  0.25956045049E+02  0.28932533183E+02  0.00000000000E+00 0. -1.
</event>
<event>
 7    1  0.2788485E-009  0.8205481E+02  0.7561462E-02  0.1323319E+00
         -1   -1    0    0    0  501 -0.00000000000E+00  0.00000000000E+00  0.42948540661E+02  0.42948540661E+02  0.00000000000E+00 0.  1.
          1   -1    0    0  501    0  0.00000000000E+00 -0.00000000000E+00 -0.36439166802E+03  0.36439166802E+03  0.00000000000E+00 0. -1.
         25    2    1    2    0    0  0.14215600244E+02 -0.47310578051E+02 -0.24846255690E+03  0.28253410391E+03  0.12510596950E+03 0.  0.
          5    1    3    3  502    0  0.31798011668E+02  0.27204596188E+01 -0.21973060453E+03  0.22207549486E+03  0.41800000000E+01 0. -1.
         -5    1    3    3    0  502 -0.17582411424E+02 -0.50031037670E+02 -0.28731952362E+02  0.60458609051E+02  0.41800000000E+01 0. -1.
        -11    1    1    2    0    0 -0.35942091205E+02  0.43897751959E+02 -0.93732413025E+01  0.57503949428E+02  0.00000000000E+00 0.  1.
         11    1    1    2    0    0  0.21726490962E+02  0.34128260915E+01 -0.63607329157E+02  0.67302155344E+02  0.00000000000E+00 0. -1.
</event>
<event>
 7    1  0.2788485E-009  0.7225220E+02  0.7561462E-02  0.1352598E+00
          2   -1    0    0  501    0  0.00000000000E+00  0.00000000000E+00  0.81907110064E+03  0.81907110064E+03  0.00000000000E+00 0. -1.
         -2   -1    0    0    0  501 -0.00000000000E+00 -0.00000000000E+00 -0.17553686330E+02  0.17553686330E+02  0.00000000000E+00 0.  1.
         25    2    1    2    0    0  0.47050133998E+01  0.40414651718E+02  0.56439248123E+03  0.57951869255E+03  0.12509021116E+03 0.  0.
          5    1    3    3  502    0  0.14245527704E+02  0.26583798563E+02  0.23793259465E+02  0.38642269623E+02  0.41800000000E+01 0.  1.
         -5    1    3    3    0  502 -0.95405143047E+01  0.13830853154E+02  0.54059922176E+03  0.54087642293E+03  0.41800000000E+01 0.  1.
        -11    1    1    2    0    0 -0.55155178242E+01 -0.68461388457E+02  0.13891991085E+03  0.15497136599E+03  0.00000000000E+00 0.  1.
         11    1    1    2    0    0  0.81050442437E+00  0.28046736740E+02  0.98205022230E+02  0.10213472842E+03  0.00000000000E+00 0. -1.
</event>
<event>
 7    1  0.2788485E-009  0.1042975E+03  0.7561462E-02  0.1271510E+00
         -2   -1    0    0    0  501 -0.00000000000E+00  0.00000000000E+00  0.45758429531E+02  0.45758429531E+02  0.00000000000E+00 0.  1.
          2   -1    0    0  501    0  0.00000000000E+00 -0.00000000000E+00 -0.38756571984E+03  0.38756571984E+03  0.00000000000E+00 0. -1.
         25    2    1    2    0    0 -0.72861684325E+01  0.22753125059E+02 -0.70389507701E+02  0.14551333923E+03  0.12509458881E+03 0.  0.
          5    1    3    3  502    0  0.51279817192E+02  0.54279922080E+01  0.64522734072E+00  0.51739457564E+02  0.41800000000E+01 0.  1.
         -5    1    3    3    0  502 -0.58565985625E+02  0.17325132851E+02 -0.71034735042E+02  0.93773881667E+02  0.41800000000E+01 0.  1.
        -11    1    1    2    0    0 -0.31740384132E+02 -0.41581023962E+02 -0.15513192899E+03  0.16371422947E+03  0.00000000000E+00 0.  1.
         11    1    1    2    0    0  0.39026552564E+02  0.18827898904E+02 -0.11628585362E+03  0.12409658067E+03  0.00000000000E+00 0. -1.
</event>
<event>
 7    1  0.2788485E-009  0.1540386E+03  0.7561462E-02  0.1195596E+00
         -1   -1    0    0    0  501 -0.00000000000E+00  0.00000000000E+00  0.22798595554E+02  0.22798595554E+02  0.00000000000E+00 0. -1.
          1   -1    0    0  501    0  0.00000000000E+00 -0.00000000000E+00 -0.11894906983E+04  0.11894906983E+04  0.00000000000E+00 0.  1.
         25    2    1    2    0    0  0.62355773151E+02  0.99131572595E+02 -0.80705764318E+03  0.82504808447E+03  0.12508793370E+03 0.  0.
          5    1    3    3  502    0  0.97204332472E+02  0.48439796884E+02 -0.55667278302E+03  0.56718352932E+03  0.41800000000E+01 0. -1.
         -5    1    3    3    0  502 -0.34848559322E+02  0.50691775712E+02 -0.25038486015E+03  0.25786455515E+03  0.41800000000E+01 0. -1.
        -11    1    1    2    0    0 -0.67289382373E+02 -0.39759198642E+02 -0.14785889879E+03  0.16724505615E+03  0.00000000000E+00 0.  1.
         11    1    1    2    0    0  0.49336092228E+01 -0.59372373954E+02 -0.21177556076E+03  0.21999615320E+03  0.00000000000E+00 0. -1.
</event>
<event>
 7    1  0.2788485E-009  0.9174015E+02  0.7561462E-02  0.1298692E+00
         -2   -1    0    0    0  501 -0.00000000000E+00  0.00000000000E+00  0.30900527236E+02  0.30900527236E+02  0.00000000000E+00 0.  1.
          2   -1    0    0  501    0  0.00000000000E+00 -0.00000000000E+00 -0.44315126263E+03  0.44315126263E+03  0.00000000000E+00 0. -1.
         25    2    1    2    0    0 -0.36666460659E+02  0.17740502975E+01 -0.17866865307E+03  0.22117521287E+03  0.12509360737E+03 0.  0.
          5    1    3    3  502    0 -0.81203781434E+02  0.10053864003E+02 -0.91296463659E+02  0.12266886719E+03  0.41800000000E+01 0.  1.
         -5    1    3    3    0  502  0.44537320774E+02 -0.82798137058E+01 -0.87372189413E+02  0.98506345681E+02  0.41800000000E+01 0.  1.
        -11    1    1    2    0    0 -0.65524474188E+01  0.93612161194E+01  0.32469403102E+01  0.11878954322E+02  0.00000000000E+00 0.  1.
         11    1    1    2    0    0  0.43218908078E+02 -0.11135266417E+02 -0.23682902263E+03  0.24099762267E+03  0.00000000000E+00 0. -1.
</event>
<event>
 7    1  0.2788485E-009  0.6345703E+02  0.7561462E-02  0.1383871E+00
          1   -1    0    0  501    0  0.00000000000E+00  0.00000000000E+00  0.97793320259E+03  0.97793320259E+03  0.00000000000E+00 0. -1.
         -1   -1    0    0    0  501 -0.00000000000E+00 -0.00000000000E+00 -0.15246427591E+02  0.15246427591E+02  0.00000000000E+00 0.  1.
         25    2    1    2    0    0 -0.11427019276E+02  0.33133175806E+02  0.70596438990E+03  0.71781769147E+03  0.12509250283E+03 0.  0.
          5    1    3    3  502    0  0.59465603874E+01  0.18601870171E+02  0.68880959458E+03  0.68909906482E+03  0.41800000000E+01 0.  1.
         -5    1    3    3    0  502 -0.17373579663E+02  0.14531305635E+02  0.17154795320E+02  0.28718626643E+02  0.41800000000E+01 0.  1.
        -11    1    1    2    0    0  0.32721080916E+02  0.11317120017E+02  0.39091365890E+02  0.52219548341E+02  0.00000000000E+00 0.  1.
         11    1    1    2    0    0 -0.21294061640E+02 -0.44450295823E+02  0.21763101921E+03  0.22314239037E+03  0.00000000000E+00 0. -1.
</event>
<event>
 7    1  0.2788485E-009  0.1473457E+03  0.7561462E-02  0.1203773E+00
          2   -1    0    0  501    0  0.00000000000E+00  0.00000000000E+00  0.17275860479E+04  0.17275860479E+04  0.00000000000E+00 0. -1.
         -2   -1    0    0    0  501 -0.00000000000E+00 -0.00000000000E+00 -0.39819410821E+02  0.39819410821E+02  0.00000000000E+00 0.  1.
         25    2    1    2    0    0  0.48531311251E+02 -0.99955022965E+02  0.15774065041E+04  0.15862549632E+04  0.12508890605E+03 0.  0.
          5    1    3    3  502    0 -0.37365535880E+02 -0.44579730859E+02  0.80430060650E+03  0.80641209917E+03  0.41800000000E+01 0. -1.
         -5    1    3    3    0  502  0.85896847131E+02 -0.55375292105E+02  0.77310589757E+03  0.77984286403E+03  0.41800000000E+01 0. -1.
        -11    1    1    2    0    0  0.18421586026E+02  0.40721236686E+02  0.70036783091E+02  0.83082639189E+02  0.00000000000E+00 0.  1.
         11    1    1    2    0    0 -0.66952897277E+02  0.59233786278E+02  0.40323349871E+02  0.98067856280E+02  0.00000000000E+00 0. -1.
</event>
<event>
 7    1  0.2788485E-009  0.1481933E+03  0.7561462E-02  0.1202711E+00
         -1   -1    0    0    0  501 -0.00000000000E+00  0.00000000000E+00  0.27850202474E+03  0.27850202474E+03  0.00000000000E+00 0.  1.
          1   -1    0    0  501    0  0.00000000000E+00 -0.00000000000E+00 -0.13412624753E+03  0.13412624753E+03  0.00000000000E+00 0. -1.
         25    2    1    2    0    0  0.33449162833E+02  0.11574294514E+03  0.14314282246E+03  0.22506161008E+03  0.12509030685E+03 0.  0.
          5    1    3    3  502    0  0.48088120268E+02  0.28325636563E+01  0.92045254894E+01  0.49220792530E+02  0.41800000000E+01 0.  1.
         -5    1    3    3    0  502 -0.14638957435E+02  0.11291038149E+03  0.13393829697E+03  0.17584081755E+03  0.41800000000E+01 0.  1.
        -11    1    1    2    0    0 -0.30855825930E+02 -0.16815007741E+02  0.62122771892E+02  0.71372720747E+02  0.00000000000E+00 0.  1.
         11    1    1    2    0    0 -0.25933369021E+01 -0.98927937402E+02 -0.60889817140E+02  0.11619394144E+03  0.00000000000E+00 0. -1.
</event>
<event>
 7    1  0.2788485E-009  0.9743325E+02  0.7561462E-02  0.1285788E+00
         -2   -1    0    0    0  501 -0.00000000000E+00  0.00000000000E+00  0.39973725136E+03  0.39973725136E+03  0.00000000000E+00 0.  1.
          2   -1    0    0  501    0  0.00000000000E+00 -0.00000000000E+00 -0.34114905037E+02  0.34114905037E+02  0.00000000000E+00 0. -1.
         25    2    1    2    0    0 -0.41256325515E+02 -0.11339472781E+02  0.21360727050E+03  0.25120900510E+03  0.12508888918E+03 0.  0.
          5    1    3    3  502    0 -0.19641265934E+02  0.54762938819E+02  0.12923509683E+03  0.14178836852E+03  0.41800000000E+01 0.  1.
         -5    1    3    3    0  502 -0.21615059581E+02 -0.66102411600E+02  0.84372173673E+02  0.10942063658E+03  0.41800000000E+01 0.  1.
        -11    1    1    2    0    0  0.27379414746E+02  0.31913713310E+02  0.15212167058E+03  0.15782623391E+03  0.00000000000E+00 0.  1.
         11    1    1    2    0    0  0.13876910769E+02 -0.20574240529E+02 -0.10659476456E+00  0.24816917381E+02  0.00000000000E+00 0. -1.
</event>
<event>
 7    1  0.2788485E-009  0.6993748E+02  0.7561462E-02  0.1360306E+00
          2   -1    0    0  501    0  0.00000000000E+00  0.00000000000E+00  0.72399738921E+02  0.72399738921E+02  0.00000000000E+00 0. -1.
         -2   -1    0    0    0  501 -0.00000000000E+00 -0.00000000000E+00 -0.21671349304E+03  0.21671349304E+03  0.00000000000E+00 0.  1.
         25    2    1    2    0    0  0.77452524339E+01  0.28192074495E+02 -0.16934486366E+02  0.12957352301E+03  0.12509092308E+03 0.  0.
          5    1    3    3  502    0  0.27656792082E+02  0.72662528587E+01  0.49326859863E+02  0.57169118262E+02  0.41800000000E+01 0. -1.
         -5    1    3    3    0  502 -0.19911539648E+02  0.20925821636E+02 -0.66261346229E+02  0.72404404744E+02  0.41800000000E+01 0. -1.
        -11    1    1    2    0    0  0.34211020324E+02 -0.17803307876E+02 -0.10284607658E+03  0.10983927873E+03  0.00000000000E+00 0.  1.
         11    1    1    2    0    0 -0.41956272758E+02 -0.10388766619E+02 -0.24533191170E+02  0.49700430225E+02  0.00000000000E+00 0. -1.
</event>
<event>
 7    1  0.2788485E-009  0.1044149E+03  0.7561462E-02  0.1271277E+00
          1   -1    0    0  501    0  0.00000000000E+00  0.00000000000E+00  0.57640799978E+02  0.57640799978E+02  0.00000000000E+00 0.  1.
         -1   -1    0    0    0  501 -0.00000000000E+00 -0.00000000000E+00 -0.34511987489E+03  0.34511987489E+03  0.00000000000E+00 0. -1.
         25    2    1    2    0    0  0.98233108503E+01  0.81681141847E+02 -0.10431569960E+03  0.18247719824E+03  0.12509139189E+03 0.  0.
          5    1    3    3  502    0  0.12367121596E+02  0.91630108820E+02 -0.16561544938E+02  0.94025420550E+02  0.41800000000E+01 0. -1.
         -5    1    3    3    0  502 -0.25438107454E+01 -0.99489669721E+01 -0.87754154658E+02  0.88451777690E+02  0.41800000000E+01 0. -1.
        -11    1    1    2    0    0  0.27047840385E+02 -0.48751143840E+02 -0.15185982346E+03  0.16177041039E+03  0.00000000000E+00 0. -1.
         11    1    1    2    0    0 -0.36871151235E+02 -0.32929998008E+02 -0.31303551857E+02  0.58513066242E+02  0.00000000000E+00 0.  1.
</event>
<event>
 7    1  0.2788485E-009  0.1165748E+03  0.7561462E-02  0.1248857E+00
          2   -1    0    0  501    0  0.00000000000E+00  0.00000000000E+00  0.18474991566E+03  0.18474991566E+03  0.00000000000E+00 0. -1.
         -2   -1    0    0    0  501 -0.00000000000E+00 -0.00000000000E+00 -0.11362165483E+03  0.11362165483E+03  0.00000000000E+00 0.  1.
         25    2    1    2    0    0  0.69042133217E+02 -0.63616046040E+02  0.39044928369E+02  0.16119876652E+03  0.12508684353E+03 0.  0.
          5    1    3    3  502    0  0.18832966137E+02 -0.39538035145E+02 -0.43285661908E+02  0.61717564465E+02  0.41800000000E+01 0. -1.
         -5    1    3    3    0  502  0.50209167080E+02 -0.24078010895E+02  0.82330590276E+02  0.99481202057E+02  0.41800000000E+01 0. -1.
        -11    1    1    2    0    0 -0.69870023041E+02  0.17600442558E+00  0.18733724093E+02  0.72338119382E+02  0.00000000000E+00 0.  1.
         11    1    1    2    0    0  0.82788982456E+00  0.63440041615E+02  0.13349608376E+02  0.64834684587E+02  0.00000000000E+00 0. -1.
</event>
<event>
 7    1  0.2788485E-009  0.9948979E+02  0.7561462E-02  0.1281373E+00
          2   -1    0    0  501    0  0.00000000000E+00  0.00000000000E+00  0.28870635574E+02  0.28870635574E+02  0.00000000000E+00 0. -1.
         -2   -1    0    0    0  501 -0.00000000000E+00 -0.00000000000E+00 -0.42959978115E+03  0.42959978115E+03  0.00000000000E+00 0.  1.
         25    2    1    2    0    0  0.27026469971E+02  0.28523251247E+01 -0.22852407800E+03  0.26193339665E+03  0.12508910511E+03 0.  0.
          5    1    3    3  502    0  0.14753138865E+02 -0.54990963913E+02 -0.16704378138E+03  0.17652976666E+03  0.41800000000E+01 0.  1.
         -5    1    3    3    0  502  0.12273331106E+02  0.57843289038E+02 -0.61480296616E+02  0.85403629988E+02  0.41800000000E+01 0.  1.
        -11    1    1    2    0    0 -0.25356853422E+02 -0.38949624369E+02 -0.46511928607E+02  0.65752587453E+02  0.00000000000E+00 0. -1.
         11    1    1    2    0    0 -0.16696165488E+01  0.36097299245E+02 -0.12569313897E+03  0.13078443262E+03  0.00000000000E+00 0.  1.
</event>
<event>
 7    1  0.2788485E-009  0.1134138E+03  0.7561462E-02  0.1254375E+00
         -2   -1    0    0    0  501 -0.00000000000E+00  0.00000000000E+00  0.29949309104E+02  0.29949309104E+02  0.00000000000E+00 0. -1.
          2   -1    0    0  501    0  0.00000000000E+00 -0.00000000000E+00 -0.10152061470E+04  0.10152061470E+04  0.00000000000E+00 0.  1.
         25    2    1    2    0    0  0.81194654397E+02 -0.39872867148E+02 -0.83455324217E+03  0.84871065532E+03  0.12509294543E+03 0.  0.
          5    1    3    3  502    0 -0.39399988818E+01  0.92503309378E+01 -0.29129037377E+01  0.11271629067E+02  0.41800000000E+01 0.  1.
         -5    1    3    3    0  502  0.85134653279E+02 -0.49123198086E+02 -0.83164033844E+03  0.83743902625E+03  0.41800000000E+01 0.  1.
        -11    1    1    2    0    0 -0.86614891915E+02  0.99898341670E+01 -0.75481294683E+02  0.11532286042E+03  0.00000000000E+00 0.  1.
         11    1    1    2    0    0  0.54202375180E+01  0.29883032981E+02 -0.75222301046E+02  0.81121940371E+02  0.00000000000E+00 0. -1.
</event>
<event>
 7    1  0.2788485E-009  0.1117194E+03  0.7561462E-02  0.1257419E+00
          3   -1    0    0  501    0  0.00000000000E+00  0.00000000000E+00  0.24006217192E+03  0.24006217192E+03  0.00000000000E+00 0.  1.
         -3   -1    0    0    0  501 -0.00000000000E+00 -0.00000000000E+00 -0.89154599098E+02  0.89154599098E+02  0.00000000000E+00 0. -1.
         25    2    1    2    0    0  0.49399165806E+01 -0.95414974434E+02  0.60777947017E+02  0.16872994759E+03  0.12508963286E+03 0.  0.
          5    1    3    3  502    0  0.27096533323E+02 -0.25448919619E+02 -0.32786840602E+02  0.49742526520E+02  0.41800000000E+01 0. -1.
         -5    1    3    3    0  502 -0.22156616743E+02 -0.69966054814E+02  0.93564787619E+02  0.11898742107E+03  0.41800000000E+01 0. -1.
        -11    1    1    2    0    0  0.22604034647E+02  0.14035261938E+02 -0.10113320965E+02  0.28464191907E+02  0.00000000000E+00 0. -1.
         11    1    1    2    0    0 -0.27543951227E+02  0.81379712495E+02  0.10024294677E+03  0.13202263151E+03  0.00000000000E+00 0.  1.
</event>
<event>
 7    1  0.2788485E-009  0.1190325E+03  0.7561462E-02  0.1244702E+00
          2   -1    0    0  501    0  0.00000000000E+00  0.00000000000E+00  0.25893602753E+03  0.25893602753E+03  0.00000000000E+00 0. -1.
         -2   -1    0    0    0  501 -0.00000000000E+00 -0.00000000000E+00 -0.81558600489E+02  0.81558600489E+02  0.00000000000E+00 0.  1.
         25    2    1    2    0    0  0.23082037568E+02  0.76381486656E+02  0.15502159208E+03  0.21458472471E+03  0.12509195860E+03 0.  0.
          5    1    3    3  502    0  0.40439242611E+02 -0.17086944613E+02  0.87243978803E+02  0.97756228735E+02  0.41800000000E+01 0.  1.
         -5    1    3    3    0  502 -0.17357205043E+02  0.93468431269E+02  0.67777613272E+02  0.11682849597E+03  0.41800000000E+01 0.  1.
        -11    1    1    2    0    0 -0.39510818764E+02 -0.71462689577E+02 -0.16616323426E+02  0.83331404676E+02  0.00000000000E+00 0.  1.
         11    1    1    2    0    0  0.16428781196E+02 -0.49187970783E+01  0.38972158392E+02  0.42578498635E+02  0.00000000000E+00 0. -1.
</event>
<event>
 7    1  0.2788485E-009  0.1025056E+03  0.7561462E-02  0.1275114E+00
          2   -1    0    0  501    0  0.00000000000E+00  0.00000000000E+00  0.69754872878E+02  0.69754872878E+02  0.00000000000E+00 0. -1.
         -2   -1    0    0    0  501 -0.00000000000E+00 -0.00000000000E+00 -0.21642525216E+03  0.21642525216E+03  0.00000000000E+00 0.  1.
         25    2    1    2    0    0  0.43715754943E+02 -0.40914234004E+02 -0.86278670361E+02  0.16332932875E+03  0.12508964344E+03 0.  0.
          5    1    3    3  502    0  0.14032534937E+02  0.40298861654E+02 -0.58265130427E+02  0.72340915885E+02  0.41800000000E+01 0. -1.
         -5    1    3    3    0  502  0.29683220006E+02 -0.81213095658E+02 -0.28013539934E+02  0.90988412867E+02  0.41800000000E+01 0. -1.
        -11    1    1    2    0    0 -0.11664480822E+02  0.41906393207E+02 -0.75707309848E+02  0.87314389816E+02  0.00000000000E+00 0.  1.
         11    1    1    2    0    0 -0.32051274121E+02 -0.99215920330E+00  0.15315600932E+02  0.35536406467E+02  0.00000000000E+00 0. -1.
</event>
<event>
 7    1  0.2788485E-009  0.1638808E+03  0.7561462E-02  0.1184384E+00
          2   -1    0    0  501    0  0.00000000000E+00  0.00000000000E+00  0.19965642902E+03  0.19965642902E+03  0.00000000000E+00 0. -1.
         -2   -1    0    0    0  501 -0.00000000000E+00 -0.00000000000E+00 -0.40652605788E+03  0.40652605788E+03  0.00000000000E+00 0.  1.
         25    2    1    2    0    0 -0.47472614890E+02 -0.15016012575E+03 -0.33288483995E+03  0.38892390127E+03  0.12509105396E+03 0.  0.
          5    1    3    3  502    0 -0.30605776639E+02 -0.97750681597E+02 -0.79874906246E+02  0.12995915652E+03  0.41800000000E+01 0.  1.
         -5    1    3    3    0  502 -0.16866838251E+02 -0.52409444149E+02 -0.25300993371E+03  0.25896474475E+03  0.41800000000E+01 0.  1.
        -11    1    1    2    0    0  0.13793565544E+02  0.13010291017E+03  0.68566296762E+02  0.14771041512E+03  0.00000000000E+00 0. -1.
         11    1    1    2    0    0  0.33679049346E+02  0.20057215579E+02  0.57448914331E+02  0.69548170497E+02  0.00000000000E+00 0.  1.
</event>
<event>
 7    1  0.2788485E-009  0.9296903E+02  0.7561462E-02  0.1295817E+00
         -1   -1    0    0    0  501 -0.00000000000E+00  0.00000000000E+00  0.34339504557E+02  0.34339504557E+02  0.00000000000E+00 0.  1.
          1   -1    0    0  501    0  0.00000000000E+00 -0.00000000000E+00 -0.37776060631E+03  0.37776060631E+03  0.00000000000E+00 0. -1.
         25    2    1    2    0    0 -0.25080726226E+02 -0.12921822590E+02 -0.15592446132E+03  0.20188163747E+03  0.12509093326E+03 0.  0.
          5    1    3    3  502    0 -0.37703059209E+02  0.37011344671E+02 -0.13692881064E+03  0.14682755835E+03  0.41800000000E+01 0. -1.
         -5    1    3    3    0  502  0.12622332984E+02 -0.49933167261E+02 -0.18995650675E+02  0.55054079116E+02  0.41800000000E+01 0. -1.
        -11    1    1    2    0    0  0.18105225031E+02 -0.31482652210E+02 -0.32162736169E+02  0.48511835273E+02  0.00000000000E+00 0.  1.
         11    1    1    2    0    0  0.69755011948E+01  0.44404474801E+02 -0.15533390427E+03  0.16170663813E+03  0.00000000000E+00 0. -1.
</event>
<event>
 7    1  0.2788485E-009  0.1248248E+03  0.7561462E-02  0.1235343E+00
         -1   -1    0    0    0  501 -0.00000000000E+00  0.00000000000E+00  0.23511130018E+02  0.23511130018E+02  0.00000000000E+00 0.  1.
          1   -1    0    0  501    0  0.00000000000E+00 -0.00000000000E+00 -0.72013256767E+03  0.72013256767E+03  0.00000000000E+00 0. -1.
         25    2    1    2    0    0  0.29301175895E+02 -0.65543765155E+02 -0.38891914591E+03  0.41480171290E+03  0.12509122633E+03 0.  0.
          5    1    3    3  502    0 -0.34017018943E+00 -0.93556618642E+02 -0.32993745404E+03  0.34297106669E+03  0.41800000000E+01 0.  1.
         -5    1    3    3    0  502  0.29641346084E+02  0.28012853486E+02 -0.58981691870E+02  0.71830646203E+02  0.41800000000E+01 0.  1.
        -11    1    1    2    0    0 -0.51149808102E+02  0.59085500616E+01 -0.11661778623E+03  0.12747910377E+03  0.00000000000E+00 0. -1.
         11    1    1    2    0    0  0.21848632208E+02  0.59635215094E+02 -0.19108450551E+03  0.20136288102E+03  0.00000000000E+00 0.  1.
</event>
<event>
 7    1  0.2788485E-009  0.1800218E+03  0.7561462E-02  0.1167782E+00
          2   -1    0    0  501    0  0.00000000000E+00  0.00000000000E+00  0.23547667134E+03  0.23547667134E+03  0.00000000000E+00 0. -1.
         -2   -1    0    0    0  501 -0.00000000000E+00 -0.00000000000E+00 -0.17462549418E+03  0.17462549418E+03  0.00000000000E+00 0.  1.
         25    2    1    2    0    0  0.94995892724E+02  0.14028034129E+03  0.57048553389E+02  0.21818513594E+03  0.12508965712E+03 0.  0.
          5    1    3    3  502    0  0.77530640860E+02  0.10491662087E+03 -0.19500994634E+02  0.13197067401E+03  0.41800000000E+01 0. -1.
         -5    1    3    3    0  502  0.17465251864E+02  0.35363720422E+02  0.76549548023E+02  0.86214461938E+02  0.41800000000E+01 0. -1.
        -11    1    1    2    0    0  0.10645040260E+02 -0.49315269834E+02  0.13333849316E+02  0.52183371475E+02  0.00000000000E+00 0. -1.
         11    1    1    2    0    0 -0.10564093298E+03 -0.90965071453E+02 -0.95312255424E+01  0.13973365810E+03  0.00000000000E+00 0.  1.
</event>
<event>
 7    1  0.2788485E-009  0.1018303E+03  0.7561462E-02  0.1276493E+00
          2   -1    0    0  501    0  0.00000000000E+00  0.00000000000E+00  0.42344677610E+03  0.42344677610E+03  0.00000000000E+00 0. -1.
         -2   -1    0    0    0  501 -0.00000000000E+00 -0.00000000000E+00 -0.36120635116E+02  0.36120635116E+02  0.00000000000E+00 0.  1.
         25    2    1    2    0    0 -0.46702327261E+02 -0.38198835795E+02  0.21807543856E+03  0.25854461365E+03  0.12509261334E+03 0.  0.
          5    1    3    3  502    0  0.39501142974E+02 -0.34254364701E+02  0.79530868196E+02  0.95269791610E+02  0.41800000000E+01 0.  1.
         -5    1    3    3    0  502 -0.86203470235E+02 -0.39444710938E+01  0.13854457037E+03  0.16327482204E+03  0.41800000000E+01 0.  1.
        -11    1    1    2    0    0  0.32043922640E+02  0.38578365312E+02  0.17732709548E+03  0.18428239753E+03  0.00000000000E+00 0. -1.
         11    1    1    2    0    0  0.14658404621E+02 -0.37952951765E+00 -0.80763930582E+01  0.16740400040E+02  0.00000000000E+00 0.  1.
</event>
<event>
 7    1  0.2788485E-009  0.1678397E+03  0.7561462E-02  0.1180120E+00
          2   -1    0    0  501    0  0.00000000000E+00  0.00000000000E+00  0.59557423217E+03  0.59557423217E+03  0.00000000000E+00 0. -1.
         -2   -1    0    0    0  501 -0.00000000000E+00 -0.00000000000E+00 -0.56806788536E+02  0.56806788536E+02  0.00000000000E+00 0.  1.
         25    2    1    2    0    0  0.49182572998E+02 -0.12491663990E+03  0.17345753635E+03  0.25250367078E+03  0.12508994537E+03 0.  0.
          5    1    3    3  502    0  0.84141574839E+02 -0.94961121347E+02  0.85238524449E+02  0.15290682664E+03  0.41800000000E+01 0. -1.
         -5    1    3    3    0  502 -0.34959001841E+02 -0.29955518550E+02  0.88219011903E+02  0.99596844139E+02  0.41800000000E+01 0. -1.
        -11    1    1    2    0    0 -0.19842025071E+02 -0.11525703242E+02  0.46255222717E+02  0.51634227241E+02  0.00000000000E+00 0. -1.
         11    1    1    2    0    0 -0.29340547927E+02  0.13644234314E+03  0.31905468456E+03  0.34824312268E+03  0.00000000000E+00 0.  1.
</event>
<event>
 7    1  0.2788485E-009  0.2280986E+03  0.7561462E-02  0.1127985E+00
         -1   -1    0    0    0  501 -0.00000000000E+00  0.00000000000E+00  0.10312358348E+03  0.10312358348E+03  0.00000000000E+00 0.  1.
          1   -1    0    0  501    0  0.00000000000E+00 -0.00000000000E+00 -0.77667882607E+03  0.77667882607E+03  0.00000000000E+00 0. -1.
         25    2    1    2    0    0 -0.14133636206E+03  0.15306691386E+03 -0.10030247914E+03  0.26289213506E+03  0.12508493114E+03 0.  0.
          5    1    3    3  502    0 -0.13004785495E+02 -0.19954800035E+02 -0.24663594956E+02  0.34541045241E+02  0.41800000000E+01 0.  1.
         -5    1    3    3    0  502 -0.12833157656E+03  0.17302171389E+03 -0.75638884182E+02  0.22835108982E+03  0.41800000000E+01 0.  1.
        -11    1    1    2    0    0  0.45030645686E+02 -0.92249385601E+02 -0.36936320622E+03  0.38336260420E+03  0.00000000000E+00 0. -1.
         11    1    1    2    0    0  0.96305716374E+02 -0.60817528256E+02 -0.20388955723E+03  0.23354767029E+03  0.00000000000E+00 0.  1.
</event>
<event>
 7    1  0.2896534E-009  0.1917408E+03  0.7561462E-02  0.1156901E+00
         -2   -1    0    0    0  501 -0.00000000000E+00  0.00000000000E+00  0.55682799046E+02  0.55682799046E+02  0.00000000000E+00 0.  1.
          2   -1    0    0  501    0  0.00000000000E+00 -0.00000000000E+00 -0.72666891980E+03  0.72666891980E+03  0.00000000000E+00 0. -1.
         25    2    1    2    0    0 -0.74075831879E+02  0.15182903542E+03 -0.34702341462E+03  0.40572433893E+03  0.12509078319E+03 0.  0.
          5    1    3    3  502    0 -0.12058094803E+02 -0.11391888412E+02  0.13416099698E+00  0.17107401060E+02  0.41800000000E+01 0.  1.
         -5    1    3    3    0  502 -0.62017737076E+02  0.16322092383E+03 -0.34715757562E+03  0.38861693787E+03  0.41800000000E+01 0.  1.
        -11    1    1    2    0    0  0.30086219399E+02 -0.14391075760E+03 -0.25793417016E+03  0.29689311694E+03  0.00000000000E+00 0. -1.
         11    1    1    2    0    0  0.43989612480E+02 -0.79182778156E+01 -0.66028535975E+02  0.79734262978E+02  0.00000000000E+00 0.  1.
</event>
<event>
 7    1  0.2788485E-009  0.1076337E+03  0.7561462E-02  0.1265016E+00
         -1   -1    0    0    0  501 -0.00000000000E+00  0.00000000000E+00  0.57036981935E+02  0.57036981935E+02  0.00000000000E+00 0.  1.
          1   -1    0    0  501    0  0.00000000000E+00 -0.00000000000E+00 -0.35888926020E+03  0.35888926020E+03  0.00000000000E+00 0. -1.
         25    2    1    2    0    0 -0.61752936050E+02  0.72917687931E+01 -0.26452451253E+03  0.29914199847E+03  0.12508446153E+03 0.  0.
          5    1    3    3  502    0  0.34565029609E+02 -0.71435941568E+01 -0.11731986352E+03  0.12258545992E+03  0.41800000000E+01 0. -1.
         -5    1    3    3    0  502 -0.96317965658E+02  0.14435362950E+02 -0.14720464902E+03  0.17655653855E+03  0.41800000000E+01 0. -1.
        -11    1    1    2    0    0  0.38931011132E+02  0.22305053083E+02 -0.58581417282E+02  0.73789711150E+02  0.00000000000E+00 0. -1.
         11    1    1    2    0    0  0.22821924918E+02 -0.29596821877E+02  0.21253651548E+02  0.42994532516E+02  0.00000000000E+00 0.  1.
</event>
<event>
 7    1  0.2788485E-009  0.6839743E+02  0.7561462E-02  0.1365629E+00
         -2   -1    0    0    0  501 -0.00000000000E+00  0.00000000000E+00  0.11003710508E+03  0.11003710508E+03  0.00000000000E+00 0.  1.
          2   -1    0    0  501    0  0.00000000000E+00 -0.00000000000E+00 -0.12048356535E+03  0.12048356535E+03  0.00000000000E+00 0. -1.
         25    2    1    2    0    0  0.61814698776E+00 -0.31953192469E+02 -0.36127344984E+02  0.13406919686E+03  0.12509186974E+03 0.  0.
          5    1    3    3  502    0  0.48078532887E+02 -0.62843911459E+01  0.23073126204E+02  0.53859822219E+02  0.41800000000E+01 0. -1.
         -5    1    3    3    0  502 -0.47460385899E+02 -0.25668801323E+02 -0.59200471188E+02  0.80209374639E+02  0.41800000000E+01 0. -1.
        -11    1    1    2    0    0 -0.59671908180E+01  0.12800177586E+02  0.57346261543E+02  0.59059678508E+02  0.00000000000E+00 0.  1.
         11    1    1    2    0    0  0.53490438303E+01  0.19153014883E+02 -0.31665376827E+02  0.37391795071E+02  0.00000000000E+00 0. -1.
</event>
<event>
 7    1  0.3063489E-009  0.8800153E+02  0.7561462E-02  0.1307765E+00
          2   -1    0    0  501    0  0.00000000000E+00  0.00000000000E+00  0.12420299358E+03  0.12420299358E+03  0.00000000000E+00 0. -1.
         -2   -1    0    0    0  501 -0.00000000000E+00 -0.00000000000E+00 -0.13935153599E+03  0.13935153599E+03  0.00000000000E+00 0.  1.
         25    2    1    2    0    0 -0.57229171594E+02 -0.89770178327E+01  0.38399942861E+02  0.14310459969E+03  0.12509438800E+03 0.  0.
          5    1    3    3  502    0 -0.60108913874E-01  0.40263698903E+02 -0.22264940032E+02  0.46199231780E+02  0.41800000000E+01 0.  1.
         -5    1    3    3    0  502 -0.57169062680E+02 -0.49240716736E+02  0.60664882893E+02  0.96905367905E+02  0.41800000000E+01 0.  1.
        -11    1    1    2    0    0  0.23708162229E+02  0.11479802580E+02  0.24184884439E+02  0.35759914134E+02  0.00000000000E+00 0.  1.
         11    1    1    2    0    0  0.33521009365E+02 -0.25027847478E+01 -0.77733369714E+02  0.84690015748E+02  0.00000000000E+00 0. -1.
</event>
<event>
 7    1  0.2788485E-009  0.1069800E+03  0.7561462E-02  0.1266267E+00
          1   -1    0    0  501    0  0.00000000000E+00  0.00000000000E+00  0.64398264387E+03  0.64398264387E+03  0.00000000000E+00 0. -1.
         -1   -1    0    0    0  501 -0.00000000000E+00 -0.00000000000E+00 -0.21675592957E+02  0.21675592957E+02  0.00000000000E+00 0.  1.
         25    2    1    2    0    0  0.23131309038E+02  0.43491354418E+02  0.41926019246E+03  0.44028662619E+03  0.12508656543E+03 0.  0.
          5    1    3    3  502    0  0.65269563251E+02 -0.81806632680E+01  0.17318114191E+03  0.18530034931E+03  0.41800000000E+01 0. -1.
         -5    1    3    3    0  502 -0.42138254213E+02  0.51672017685E+02  0.24607905055E+03  0.25498627688E+03  0.41800000000E+01 0. -1.
        -11    1    1    2    0    0 -0.10476658882E+01 -0.55899851638E+02  0.68304559019E+02  0.88268928846E+02  0.00000000000E+00 0.  1.
         11    1    1    2    0    0 -0.22083643149E+02  0.12408497220E+02  0.13474229943E+03  0.13710268179E+03  0.00000000000E+00 0. -1.
</event>
<event>
 7    1  0.2788485E-009  0.1337445E+03  0.7561462E-02  0.1222003E+00
         -1   -1    0    0    0  501 -0.00000000000E+00  0.00000000000E+00  0.39358233153E+02  0.39358233153E+02  0.00000000000E+00 0.  1.
          1   -1    0    0  501    0  0.00000000000E+00 -0.00000000000E+00 -0.93769434246E+03  0.93769434246E+03  0.00000000000E+00 0. -1.
         25    2    1    2    0    0  0.11316217695E+03  0.48547173005E+02 -0.72325687842E+03  0.74425142655E+03  0.12508863836E+03 0.  0.
          5    1    3    3  502    0  0.91319606981E+01  0.35601286878E+02 -0.45044078504E+03  0.45195709703E+03  0.41800000000E+01 0.  1.
         -5    1    3    3    0  502  0.10403021626E+03  0.12945886127E+02 -0.27281609338E+03  0.29229432952E+03  0.41800000000E+01 0.  1.
        -11    1    1    2    0    0 -0.32174423867E+02 -0.21509058514E+01  0.23375383020E+01  0.32330852641E+02  0.00000000000E+00 0.  1.
         11    1    1    2    0    0 -0.80987753088E+02 -0.46396267153E+02 -0.17741676919E+03  0.20047029641E+03  0.00000000000E+00 0. -1.
</event>
<event>
 7    1  0.2788485E-009  0.1526351E+03  0.7561462E-02  0.1197272E+00
         -2   -1    0    0    0  501 -0.00000000000E+00  0.00000000000E+00  0.37496132608E+02  0.37496132608E+02  0.00000000000E+00 0.  1.
          2   -1    0    0  501    0  0.00000000000E+00 -0.00000000000E+00 -0.81500010446E+03  0.81500010446E+03  0.00000000000E+00 0. -1.
         25    2    1    2    0    0  0.12430749665E+03  0.47962945334E+02 -0.33596637302E+03  0.38245734610E+03  0.12508964762E+03 0.  0.
          5    1    3    3  502    0  0.21552837470E+02  0.62387381118E+02 -0.67020827543E+02  0.94159300392E+02  0.41800000000E+01 0.  1.
         -5    1    3    3    0  502  0.10275465918E+03 -0.14424435784E+02 -0.26894554547E+03  0.28829804571E+03  0.41800000000E+01 0.  1.
        -11    1    1    2    0    0 -0.28031897450E+02 -0.21822897836E+02 -0.29741997116E+02  0.46331550125E+02  0.00000000000E+00 0.  1.
         11    1    1    2    0    0 -0.96275599203E+02 -0.26140047498E+02 -0.41179560172E+03  0.42370734084E+03  0.00000000000E+00 0. -1.
</event>
<event>
 7    1  0.2788485E-009  0.9894954E+02  0.7561462E-02  0.1282521E+00
          1   -1    0    0  501    0  0.00000000000E+00  0.00000000000E+00  0.23848457951E+03  0.23848457951E+03  0.00000000000E+00 0. -1.
         -1   -1    0    0    0  501 -0.00000000000E+00 -0.00000000000E+00 -0.55347887383E+02  0.55347887383E+02  0.00000000000E+00 0.  1.
         25    2    1    2    0    0  0.32166012716E+00 -0.21174833392E+02  0.66611163357E+02  0.14329331061E+03  0.12508976276E+03 0.  0.
          5    1    3    3  502    0 -0.49745455761E+02 -0.46063761453E+02  0.51448761259E+02  0.85211078641E+02  0.41800000000E+01 0. -1.
         -5    1    3    3    0  502  0.50067115888E+02  0.24888928061E+02  0.15162402098E+02  0.58082231972E+02  0.41800000000E+01 0. -1.
        -11    1    1    2    0    0  0.23282414094E+02 -0.17134246469E+02  0.37896784136E+01  0.29155014502E+02  0.00000000000E+00 0.  1.
         11    1    1    2    0    0 -0.23604074221E+02  0.38309079861E+02  0.11273585036E+03  0.12138414178E+03  0.00000000000E+00 0. -1.
</event>
<event>
 7    1  0.2788485E-009  0.1251166E+03  0.7561462E-02  0.1234887E+00
          1   -1    0    0  501    0  0.00000000000E+00  0.00000000000E+00  0.15002831227E+04  0.15002831227E+04  0.00000000000E+00 0. -1.
         -1   -1    0    0    0  501 -0.00000000000E+00 -0.00000000000E+00 -0.15792356164E+02  0.15792356164E+02  0.00000000000E+00 0.  1.
         25    2    1    2    0    0  0.23041227107E+02 -0.97693639330E+02  0.96533195828E+03  0.97856437749E+03  0.12508999119E+03 0.  0.
          5    1    3    3  502    0 -0.39143391828E+02 -0.40019179108E+02  0.63558485291E+03  0.63805902350E+03  0.41800000000E+01 0. -1.
         -5    1    3    3    0  502  0.62184618935E+02 -0.57674460222E+02  0.32974710538E+03  0.34050535399E+03  0.41800000000E+01 0. -1.
        -11    1    1    2    0    0 -0.35845429967E+02  0.74970307438E+02  0.49510525194E+03  0.50203052930E+03  0.00000000000E+00 0. -1.
         11    1    1    2    0    0  0.12804202860E+02  0.22723331893E+02  0.24053556289E+02  0.35480572055E+02  0.00000000000E+00 0.  1.
</event>
<event>
 7    1  0.2788485E-009  0.1248913E+03  0.7561462E-02  0.1235239E+00
         -2   -1    0    0    0  501 -0.00000000000E+00  0.00000000000E+00  0.41488659325E+02  0.41488659325E+02  0.00000000000E+00 0.  1.
          2   -1    0    0  501    0  0.00000000000E+00 -0.00000000000E+00 -0.41536553913E+03  0.41536553913E+03  0.00000000000E+00 0. -1.
         25    2    1    2    0    0 -0.69722692390E+02  0.20725337247E+02 -0.17859254091E+03  0.22986128958E+03  0.12510045301E+03 0.  0.
          5    1    3    3  502    0 -0.34256614716E+02 -0.52384358631E+02 -0.67359307389E+02  0.92045561397E+02  0.41800000000E+01 0. -1.
         -5    1    3    3    0  502 -0.35466077673E+02  0.73109695878E+02 -0.11123323352E+03  0.13781572819E+03  0.41800000000E+01 0. -1.
        -11    1    1    2    0    0  0.71804078094E+02 -0.42748146904E+02 -0.18415877890E+03  0.20223176195E+03  0.00000000000E+00 0. -1.
         11    1    1    2    0    0 -0.20813857046E+01  0.22022809657E+02 -0.11125559999E+02  0.24761146923E+02  0.00000000000E+00 0.  1.
</event>
<event>
 7    1  0.2788485E-009  0.1214283E+03  0.7561462E-02  0.1240759E+00
         -2   -1    0    0    0  501 -0.00000000000E+00  0.00000000000E+00  0.56239884572E+02  0.56239884572E+02  0.00000000000E+00 0.  1.
          2   -1    0    0  501    0  0.00000000000E+00 -0.00000000000E+00 -0.32017448227E+03  0.32017448227E+03  0.00000000000E+00 0. -1.
         25    2    1    2    0    0  0.76521990831E+02  0.81263916237E+01 -0.12783890043E+03  0.19470651788E+03  0.12508473256E+03 0.  0.
          5    1    3    3  502    0  0.75470096914E+02  0.43268203639E+02 -0.32422414773E+02  0.92933085357E+02  0.41800000000E+01 0.  1.
         -5    1    3    3    0  502  0.10518939174E+01 -0.35141812015E+02 -0.95416485654E+02  0.10177343252E+03  0.41800000000E+01 0.  1.
        -11    1    1    2    0    0 -0.76907474067E+02 -0.41223005049E+02 -0.96544783912E+02  0.13013451123E+03  0.00000000000E+00 0.  1.
         11    1    1    2    0    0  0.38548323574E+00  0.33096613425E+02 -0.39550913363E+02  0.51573337738E+02  0.00000000000E+00 0. -1.
</event>
<event>
 7    1  0.2788485E-009  0.1224016E+03  0.7561462E-02  0.1239187E+00
          2   -1    0    0  501    0  0.00000000000E+00  0.00000000000E+00  0.66480132706E+03  0.66480132706E+03  0.00000000000E+00 0. -1.
         -2   -1    0    0    0  501 -0.00000000000E+00 -0.00000000000E+00 -0.27207032998E+02  0.27207032998E+02  0.00000000000E+00 0.  1.
         25    2    1    2    0    0 -0.50751657218E+02 -0.30721754083E+02  0.48447837172E+03  0.50387256045E+03  0.12509479455E+03 0.  0.
          5    1    3    3  502    0 -0.13618012524E+02  0.47113128669E+02  0.12931743270E+03  0.13836751049E+03  0.41800000000E+01 0.  1.
         -5    1    3    3    0  502 -0.37133644694E+02 -0.77834882752E+02  0.35516093902E+03  0.36550504996E+03  0.41800000000E+01 0.  1.
        -11    1    1    2    0    0  0.25335409177E+02  0.63149333859E+02  0.91951915608E+02  0.11438914332E+03  0.00000000000E+00 0.  1.
         11    1    1    2    0    0  0.25416248040E+02 -0.32427579776E+02  0.61164006732E+02  0.73746656291E+02  0.00000000000E+00 0. -1.
</event>
<event>
 7    1  0.2788485E-009  0.9955591E+02  0.7561462E-02  0.1281233E+00
          1   -1    0    0  501    0  0.00000000000E+00  0.00000000000E+00  0.20890472599E+03  0.20890472599E+03  0.00000000000E+00 0. -1.
         -1   -1    0    0    0  501 -0.00000000000E+00 -0.00000000000E+00 -0.62550921523E+02  0.62550921523E+02  0.00000000000E+00 0.  1.
         25    2    1    2    0    0 -0.21252732787E+02 -0.25463335905E+02  0.10808893791E+03  0.16861272213E+03  0.12508785489E+03 0.  0.
          5    1    3    3  502    0 -0.40342816883E+02 -0.55076600698E+02  0.11370335002E+03  0.13269099074E+03  0.41800000000E+01 0.  1.
         -5    1    3    3    0  502  0.19090084095E+02  0.29613264794E+02 -0.56144121127E+01  0.35921731388E+02  0.41800000000E+01 0.  1.
        -11    1    1    2    0    0  0.52182768853E+02 -0.42330096838E+01  0.24552704627E+02  0.57825556985E+02  0.00000000000E+00 0. -1.
         11    1    1    2    0    0 -0.30930036065E+02  0.29696345589E+02  0.13712161929E+02  0.45017368394E+02  0.00000000000E+00 0.  1.
</event>
<event>
 7    1  0.2788485E-009  0.1377311E+03  0.7561462E-02  0.1216415E+00
         -1   -1    0    0    0  501 -0.00000000000E+00  0.00000000000E+00  0.14462591029E+03  0.14462591029E+03  0.00000000000E+00 0.  1.
          1   -1    0    0  501    0  0.00000000000E+00 -0.00000000000E+00 -0.29418204055E+03  0.29418204055E+03  0.00000000000E+00 0. -1.
         25    2    1    2    0    0 -0.72575970614E+02 -0.87414865684E+02  0.63989406008E+02  0.18070234760E+03  0.12510021620E+03 0.  0.
          5    1    3    3  502    0 -0.65376219147E+02 -0.11537240302E+03  0.30208031099E+02  0.13606924323E+03  0.41800000000E+01 0.  1.
         -5    1    3    3    0  502 -0.71997514668E+01  0.27957537340E+02  0.33781374910E+02  0.44633104374E+02  0.41800000000E+01 0.  1.
        -11    1    1    2    0    0  0.52980602167E+02  0.64232466967E+02 -0.62685416164E+02  0.10422195267E+03  0.00000000000E+00 0.  1.
         11    1    1    2    0    0  0.19595368447E+02  0.23182398717E+02 -0.15086012011E+03  0.15388365057E+03  0.00000000000E+00 0. -1.
</event>
<event>
 7    1  0.2788485E-009  0.1124628E+03  0.7561462E-02  0.1256076E+00
         -2   -1    0    0    0  501 -0.00000000000E+00  0.00000000000E+00  0.90667519577E+01  0.90667519577E+01  0.00000000000E+00 0.  1.
          2   -1    0    0  501    0  0.00000000000E+00 -0.00000000000E+00 -0.17598626410E+04  0.17598626410E+04  0.00000000000E+00 0. -1.
         25    2    1    2    0    0  0.35701110779E+02  0.47290340723E+01 -0.13568723794E+04  0.13631020594E+04  0.12509051682E+03 0.  0.
          5    1    3    3  502    0  0.82691032446E+02  0.84977837803E+00 -0.87857512198E+03  0.88246826930E+03  0.41800000000E+01 0. -1.
         -5    1    3    3    0  502 -0.46989921667E+02  0.38792556943E+01 -0.47829725740E+03  0.48063379012E+03  0.41800000000E+01 0. -1.
        -11    1    1    2    0    0  0.28419551837E+02 -0.10755334704E+02 -0.17533475710E+03  0.17794837790E+03  0.00000000000E+00 0.  1.
         11    1    1    2    0    0 -0.64120662616E+02  0.60263006320E+01 -0.21858875254E+03  0.22787895562E+03  0.00000000000E+00 0. -1.
</event>
<event>
 7    1  0.2788485E-009  0.1868099E+03  0.7561462E-02  0.1161370E+00
          1   -1    0    0  501    0  0.00000000000E+00  0.00000000000E+00  0.87639546495E+03  0.87639546495E+03  0.00000000000E+00 0. -1.
         -1   -1    0    0    0  501 -0.00000000000E+00 -0.00000000000E+00 -0.45727550084E+02  0.45727550084E+02  0.00000000000E+00 0.  1.
         25    2    1    2    0    0 -0.15967509642E+02  0.16507045788E+03  0.49894384211E+03  0.54045775848E+03  0.12508562545E+03 0.  0.
          5    1    3    3  502    0 -0.32088788195E+02  0.18143804031E+03  0.44722299664E+03  0.48370996881E+03  0.41800000000E+01 0. -1.
         -5    1    3    3    0  502  0.16121278552E+02 -0.16367582430E+02  0.51720845464E+02  0.56747789668E+02  0.41800000000E+01 0. -1.
        -11    1    1    2    0    0  0.11706737437E+02 -0.14373494804E+03  0.32964526823E+03  0.35980937433E+03  0.00000000000E+00 0. -1.
         11    1    1    2    0    0  0.42607722059E+01 -0.21335509833E+02  0.20788045287E+01  0.21855882226E+02  0.00000000000E+00 0.  1.
</event>
<event>
 7    1  0.2788485E-009  0.2016551E+03  0.7561462E-02  0.1148350E+00
         -1   -1    0    0    0  501 -0.00000000000E+00  0.00000000000E+00  0.43378372279E+02  0.43378372279E+02  0.00000000000E+00 0.  1.
          1   -1    0    0  501    0  0.00000000000E+00 -0.00000000000E+00 -0.11525098554E+04  0.11525098554E+04  0.00000000000E+00 0. -1.
         25    2    1    2    0    0 -0.18187493012E+03  0.16597532831E+01 -0.75988213415E+03  0.79129642223E+03  0.12509166654E+03 0.  0.
          5    1    3    3  502    0 -0.78441522147E+02 -0.53876339541E+02 -0.23794881117E+03  0.25630614799E+03  0.41800000000E+01 0. -1.
         -5    1    3    3    0  502 -0.10343340798E+03  0.55536092824E+02 -0.52193332298E+03  0.53499027424E+03  0.41800000000E+01 0. -1.
        -11    1    1    2    0    0  0.29979842393E+02  0.21553996329E+02 -0.14121320096E+03  0.14596072702E+03  0.00000000000E+00 0. -1.
         11    1    1    2    0    0  0.15189508773E+03 -0.23213749612E+02 -0.20803614798E+03  0.25863107840E+03  0.00000000000E+00 0.  1.
</event>
<event>
 7    1  0.2788485E-009  0.1470299E+03  0.7561462E-02  0.1204171E+00
         -1   -1    0    0    0  501 -0.00000000000E+00  0.00000000000E+00  0.12677755632E+04  0.12677755632E+04  0.00000000000E+00 0.  1.
          1   -1    0    0  501    0  0.00000000000E+00 -0.00000000000E+00 -0.24609671834E+02  0.24609671834E+02  0.00000000000E+00 0. -1.
         25    2    1    2    0    0 -0.88563075273E+02  0.10152826800E+03  0.78914011522E+03  0.81027262490E+03  0.12509275641E+03 0.  0.
          5    1    3    3  502    0  0.53609418834E+01 -0.74938717124E+01  0.23063080543E+01  0.10377343974E+02  0.41800000000E+01 0. -1.
         -5    1    3    3    0  502 -0.93924017156E+02  0.10902213971E+03  0.78683380717E+03  0.79989528092E+03  0.41800000000E+01 0. -1.
        -11    1    1    2    0    0  0.40022439242E+02 -0.74122237971E+02  0.14167102885E+03  0.16482288136E+03  0.00000000000E+00 0. -1.
         11    1    1    2    0    0  0.48540636030E+02 -0.27406030026E+02  0.31235474733E+03  0.31728972881E+03  0.00000000000E+00 0.  1.
</event>
<event>
 7    1  0.2788485E-009  0.1366229E+03  0.7561462E-02  0.1217947E+00
          2   -1    0    0  501    0  0.00000000000E+00  0.00000000000E+00  0.88172642623E+03  0.88172642623E+03  0.00000000000E+00 0. -1.
         -2   -1    0    0    0  501 -0.00000000000E+00 -0.00000000000E+00 -0.24491970824E+02  0.24491970824E+02  0.00000000000E+00 0.  1.
         25    2    1    2    0    0  0.54538535960E+02 -0.81416024976E+02  0.47942587215E+03  0.50507391908E+03  0.12508987097E+03 0.  0.
          5    1    3    3  502    0  0.36788275734E+02  0.19008372679E+02  0.25699534085E+03  0.26034356739E+03  0.41800000000E+01 0.  1.
         -5    1    3    3    0  502  0.17750260226E+02 -0.10042439766E+03  0.22243053130E+03  0.24473035169E+03  0.41800000000E+01 0.  1.
        -11    1    1    2    0    0 -0.45114212302E+02  0.99454080115E+02  0.26679936289E+03  0.28828511276E+03  0.00000000000E+00 0.  1.
         11    1    1    2    0    0 -0.94243236586E+01 -0.18038055139E+02  0.11100922037E+03  0.11285936522E+03  0.00000000000E+00 0. -1.
</event>
<event>
 7    1  0.2788485E-009  0.1744032E+03  0.7561462E-02  0.1173332E+00
         -1   -1    0    0    0  501 -0.00000000000E+00  0.00000000000E+00  0.60972674890E+02  0.60972674890E+02  0.00000000000E+00 0.  1.
          1   -1    0    0  501    0  0.00000000000E+00 -0.00000000000E+00 -0.56853834890E+03  0.56853834890E+03  0.00000000000E+00 0. -1.
         25    2    1    2    0    0 -0.44328091807E+02 -0.13221503747E+03 -0.16843540645E+03  0.25191986871E+03  0.12508932107E+03 0.  0.
          5    1    3    3  502    0  0.36073127127E+02 -0.84200985227E+02 -0.10117195102E+03  0.13654417779E+03  0.41800000000E+01 0.  1.
         -5    1    3    3    0  502 -0.80401218934E+02 -0.48014052242E+02 -0.67263455429E+02  0.11537569092E+03  0.41800000000E+01 0.  1.
        -11    1    1    2    0    0 -0.24754393024E+02  0.21088685528E+02 -0.97877313105E+02  0.10313816487E+03  0.00000000000E+00 0.  1.
         11    1    1    2    0    0  0.69082484831E+02  0.11112635194E+03 -0.24125295445E+03  0.27445299021E+03  0.00000000000E+00 0. -1.
</event>
<event>
 7    1  0.2788485E-009  0.1541813E+03  0.7561462E-02  0.1195427E+00
         -1   -1    0    0    0  501 -0.00000000000E+00  0.00000000000E+00  0.29880537630E+03  0.29880537630E+03  0.00000000000E+00 0.  1.
          1   -1    0    0  501    0  0.00000000000E+00 -0.00000000000E+00 -0.82252478668E+02  0.82252478668E+02  0.00000000000E+00 0. -1.
         25    2    1    2    0    0  0.56848244750E+02 -0.10673673530E+03  0.11831392205E+03  0.21040533581E+03  0.12509103722E+03 0.  0.
          5    1    3    3  502    0  0.78029600582E+02 -0.12245052224E+03  0.11071630728E+03  0.18264260746E+03  0.41800000000E+01 0.  1.
         -5    1    3    3    0  502 -0.21181355832E+02  0.15713786940E+02  0.75976147649E+01  0.27762728342E+02  0.41800000000E+01 0.  1.
        -11    1    1    2    0    0 -0.12073100297E+02  0.86372083494E+02  0.79519370703E+02  0.11802214570E+03  0.00000000000E+00 0.  1.
         11    1    1    2    0    0 -0.44775144453E+02  0.20364651803E+02  0.18719604877E+02  0.52630373461E+02  0.00000000000E+00 0. -1.
</event>
<event>
 7    1  0.2788485E-009  0.1144755E+03  0.7561462E-02  0.1252500E+00
         -2   -1    0    0    0  501 -0.00000000000E+00  0.00000000000E+00  0.97586121624E+01  0.97586121624E+01  0.00000000000E+00 0.  1.
          2   -1    0    0  501    0  0.00000000000E+00 -0.00000000000E+00 -0.14971441533E+04  0.14971441533E+04  0.00000000000E+00 0. -1.
         25    2    1    2    0    0 -0.36052103788E+02  0.36262837858E+02 -0.96573571888E+03  0.97514390627E+03  0.12508161983E+03 0.  0.
          5    1    3    3  502    0 -0.49804725060E+02 -0.31074043895E+02 -0.29014303343E+03  0.29605161558E+03  0.41800000000E+01 0. -1.
         -5    1    3    3    0  502  0.13752621272E+02  0.67336881753E+02 -0.67559268545E+03  0.67909229069E+03  0.41800000000E+01 0. -1.
        -11    1    1    2    0    0  0.54380544878E+01 -0.61395476041E+02 -0.36569115822E+03  0.37084902604E+03  0.00000000000E+00 0.  1.
         11    1    1    2    0    0  0.30614049300E+02  0.25132638182E+02 -0.15595866406E+03  0.16090983317E+03  0.00000000000E+00 0. -1.
</event>
<event>
 7    1  0.2788485E-009  0.7541419E+02  0.7561462E-02  0.1342593E+00
          1   -1    0    0  501    0  0.00000000000E+00  0.00000000000E+00  0.13244429392E+03  0.13244429392E+03  0.00000000000E+00 0. -1.
         -1   -1    0    0    0  501 -0.00000000000E+00 -0.00000000000E+00 -0.11147310065E+03  0.11147310065E+03  0.00000000000E+00 0.  1.
         25    2    1    2    0    0 -0.32797594415E+02  0.26903121251E+02 -0.22131014104E+02  0.13392353109E+03  0.12508505211E+03 0.  0.
          5    1    3    3  502    0  0.94795688092E+01 -0.25865472660E+02  0.35397261079E+02  0.45048012083E+02  0.41800000000E+01 0.  1.
         -5    1    3    3    0  502 -0.42277163224E+02  0.52768593911E+02 -0.57528275183E+02  0.88875519009E+02  0.41800000000E+01 0.  1.
        -11    1    1    2    0    0  0.23500754728E+02 -0.35489474364E+02 -0.19001538455E+02  0.46613804040E+02  0.00000000000E+00 0.  1.
         11    1    1    2    0    0  0.92968396868E+01  0.85863531128E+01  0.62103745829E+02  0.63380059435E+02  0.00000000000E+00 0. -1.
</event>
<event>
 7    1  0.2788485E-009  0.2309953E+03  0.7561462E-02  0.1125941E+00
          2   -1    0    0  501    0  0.00000000000E+00  0.00000000000E+00  0.64516718984E+03  0.64516718984E+03  0.00000000000E+00 0.  1.
         -2   -1    0    0    0  501 -0.00000000000E+00 -0.00000000000E+00 -0.92223139366E+02  0.92223139366E+02  0.00000000000E+00 0. -1.
         25    2    1    2    0    0  0.46608076368E+02 -0.20458322453E+03  0.23798189740E+03  0.34103868067E+03  0.12508153214E+03 0.  0.
          5    1    3    3  502    0  0.70618772917E+02 -0.14937413940E+03  0.10718817707E+03  0.19699345754E+03  0.41800000000E+01 0. -1.
         -5    1    3    3    0  502 -0.24010696549E+02 -0.55209085131E+02  0.13079372033E+03  0.14404522313E+03  0.41800000000E+01 0. -1.
        -11    1    1    2    0    0  0.35845570850E+02  0.58123094844E+02  0.59586623341E+02  0.90629822823E+02  0.00000000000E+00 0. -1.
         11    1    1    2    0    0 -0.82453647219E+02  0.14646012969E+03  0.25537552974E+03  0.30572182571E+03  0.00000000000E+00 0.  1.
</event>
<event>
 7    1  0.2788485E-009  0.1454999E+03  0.7561462E-02  0.1206114E+00
         -2   -1    0    0    0  501 -0.00000000000E+00  0.00000000000E+00  0.36714093462E+03  0.36714093462E+03  0.00000000000E+00 0.  1.
          2   -1    0    0  501    0  0.00000000000E+00 -0.00000000000E+00 -0.62077883497E+02  0.62077883497E+02  0.00000000000E+00 0. -1.
         25    2    1    2    0    0 -0.14935751126E+02 -0.96540934678E+02  0.21505433692E+03  0.26727984631E+03  0.12508764801E+03 0.  0.
          5    1    3    3  502    0 -0.29719004270E+02 -0.12271893078E+03  0.15477402513E+03  0.19978895475E+03  0.41800000000E+01 0.  1.
         -5    1    3    3    0  502  0.14783253144E+02  0.26177996102E+02  0.60280311785E+02  0.67490891551E+02  0.41800000000E+01 0.  1.
        -11    1    1    2    0    0 -0.25919575904E+02 -0.35893071986E+01  0.22011262305E+02  0.34193613577E+02  0.00000000000E+00 0.  1.
         11    1    1    2    0    0  0.40855327030E+02  0.10013024188E+03  0.67997451900E+02  0.12774535823E+03  0.00000000000E+00 0. -1.
</event>
<event>
 7    1  0.2788485E-009  0.2885892E+03  0.7561462E-02  0.1091088E+00
          2   -1    0    0  501    0  0.00000000000E+00  0.00000000000E+00  0.92636127286E+03  0.92636127286E+03  0.00000000000E+00 0.  1.
         -2   -1    0    0    0  501 -0.00000000000E+00 -0.00000000000E+00 -0.94512512661E+02  0.94512512661E+02  0.00000000000E+00 0. -1.
         25    2    1    2    0    0  0.73393288460E+02 -0.25936114789E+03  0.52323606609E+03  0.60173146063E+03  0.12509992015E+03 0.  0.
          5    1    3    3  502    0  0.10234435263E+03 -0.24081477145E+03  0.44644305799E+03  0.51748912751E+03  0.41800000000E+01 0. -1.
         -5    1    3    3    0  502 -0.28951064168E+02 -0.18546376438E+02  0.76793008098E+02  0.84242333113E+02  0.41800000000E+01 0. -1.
        -11    1    1    2    0    0 -0.21449225572E+02  0.20327811038E+03  0.19718427778E+03  0.28401355398E+03  0.00000000000E+00 0. -1.
         11    1    1    2    0    0 -0.51944062889E+02  0.56083037503E+02  0.11142841632E+03  0.13512877091E+03  0.00000000000E+00 0.  1.
</event>
<event>
 7    1  0.2788485E-009  0.2238509E+03  0.7561462E-02  0.1131044E+00
          1   -1    0    0  501    0  0.00000000000E+00  0.00000000000E+00  0.14647042478E+04  0.14647042478E+04  0.00000000000E+00 0. -1.
         -1   -1    0    0    0  501 -0.00000000000E+00 -0.00000000000E+00 -0.63718588028E+02  0.63718588028E+02  0.00000000000E+00 0.  1.
         25    2    1    2    0    0 -0.14562835054E+03  0.16001387660E+03  0.11775658213E+04  0.12037944448E+04  0.12509094473E+03 0.  0.
          5    1    3    3  502    0 -0.87665230390E+01  0.59867025719E+02  0.56259521036E+03  0.56585488936E+03  0.41800000000E+01 0.  1.
         -5    1    3    3    0  502 -0.13686182750E+03  0.10014685088E+03  0.61497061099E+03  0.63793955541E+03  0.41800000000E+01 0.  1.
        -11    1    1    2    0    0  0.10324179656E+03 -0.98383779617E+02  0.20116682496E+03  0.24658939173E+03  0.00000000000E+00 0. -1.
         11    1    1    2    0    0  0.42386553980E+02 -0.61630096980E+02  0.22253013494E+02  0.78038999363E+02  0.00000000000E+00 0.  1.
</event>
<event>
 7    1  0.2788485E-009  0.9661634E+02  0.7561462E-02  0.1287577E+00
          2   -1    0    0  501    0  0.00000000000E+00  0.00000000000E+00  0.19930064221E+03  0.19930064221E+03  0.00000000000E+00 0. -1.
         -2   -1    0    0    0  501 -0.00000000000E+00 -0.00000000000E+00 -0.61639907894E+02  0.61639907894E+02  0.00000000000E+00 0.  1.
         25    2    1    2    0    0 -0.11155258800E+02 -0.15812205787E+02  0.97384953917E+02  0.15970578585E+03  0.12509053975E+03 0.  0.
          5    1    3    3  502    0  0.51499964156E+02 -0.65362224691E+01  0.77148058667E+02  0.93082027634E+02  0.41800000000E+01 0. -1.
         -5    1    3    3    0  502 -0.62655222956E+02 -0.92759833174E+01  0.20236895249E+02  0.66623758221E+02  0.41800000000E+01 0. -1.
        -11    1    1    2    0    0 -0.27435617673E+02  0.25962152059E+02 -0.79919146329E+01  0.38608511447E+02  0.00000000000E+00 0.  1.
         11    1    1    2    0    0  0.38590876472E+02 -0.10149946273E+02  0.48267695027E+02  0.62626252798E+02  0.00000000000E+00 0. -1.
</event>
<event>
 7    1  0.2788485E-009  0.1091061E+03  0.7561462E-02  0.1262234E+00
         -2   -1    0    0    0  501 -0.00000000000E+00  0.00000000000E+00  0.31976151740E+02  0.31976151740E+02  0.00000000000E+00 0.  1.
          2   -1    0    0  501    0  0.00000000000E+00 -0.00000000000E+00 -0.63228062319E+03  0.63228062319E+03  0.00000000000E+00 0. -1.
         25    2    1    2    0    0 -0.91691373956E+02  0.11887512493E+02 -0.31551806368E+03  0.35177848996E+03  0.12509131256E+03 0.  0.
          5    1    3    3  502    0 -0.17137883698E+02  0.33004125637E+02 -0.24202403265E+03  0.24490015138E+03  0.41800000000E+01 0.  1.
         -5    1    3    3    0  502 -0.74553490258E+02 -0.21116613144E+02 -0.73494031038E+02  0.10687833858E+03  0.41800000000E+01 0.  1.
        -11    1    1    2    0    0  0.61741621594E+02  0.14334543625E+02 -0.25500413374E+03  0.26276342059E+03  0.00000000000E+00 0. -1.
         11    1    1    2    0    0  0.29949752361E+02 -0.26222056118E+02 -0.29782274031E+02  0.49714864377E+02  0.00000000000E+00 0.  1.
</event>
<event>
 7    1  0.2788485E-009  0.1002009E+03  0.7561462E-02  0.1279874E+00
          1   -1    0    0  501    0  0.00000000000E+00  0.00000000000E+00  0.16784851888E+03  0.16784851888E+03  0.00000000000E+00 0. -1.
         -1   -1    0    0    0  501 -0.00000000000E+00 -0.00000000000E+00 -0.75208604735E+02  0.75208604735E+02  0.00000000000E+00 0.  1.
         25    2    1    2    0    0 -0.10265027156E+02  0.17590052864E+02  0.27444279787E+02  0.12967524990E+03  0.12509077184E+03 0.  0.
          5    1    3    3  502    0  0.12394378279E+02 -0.51158235742E+02  0.21197245711E+02  0.56899748004E+02  0.41800000000E+01 0. -1.
         -5    1    3    3    0  502 -0.22659405435E+02  0.68748288606E+02  0.62470340763E+01  0.72775501893E+02  0.41800000000E+01 0. -1.
        -11    1    1    2    0    0 -0.23605876397E+02 -0.30739152410E+02  0.66560798806E+02  0.77022547537E+02  0.00000000000E+00 0. -1.
         11    1    1    2    0    0  0.33870903553E+02  0.13149099546E+02 -0.13651644485E+01  0.36359326181E+02  0.00000000000E+00 0.  1.
</event>
<event>
 7    1  0.2788485E-009  0.3586838E+02  0.7561462E-02  0.1541022E+00
         -1   -1    0    0    0  501 -0.00000000000E+00  0.00000000000E+00  0.35644356055E+02  0.35644356055E+02  0.00000000000E+00 0.  1.
          1   -1    0    0  501    0  0.00000000000E+00 -0.00000000000E+00 -0.34008310785E+03  0.34008310785E+03  0.00000000000E+00 0. -1.
         25    2    1    2    0    0  0.70817695576E+01  0.13818768510E+02 -0.15632191224E+03  0.20081280387E+03  0.12509249430E+03 0.  0.
          5    1    3    3  502    0  0.40649222840E+01  0.41816188761E+01 -0.17714794530E+03  0.17729319347E+03  0.41800000000E+01 0. -1.
         -5    1    3    3    0  502  0.30168472735E+01  0.96371496341E+01  0.20826033055E+02  0.23519610399E+02  0.41800000000E+01 0. -1.
        -11    1    1    2    0    0  0.10571715464E+02  0.15883486095E+02  0.35105291860E+01  0.19400260656E+02  0.00000000000E+00 0.  1.
         11    1    1    2    0    0 -0.17653485022E+02 -0.29702254605E+02 -0.15162736874E+03  0.15551439938E+03  0.00000000000E+00 0. -1.
</event>
<event>
 7    1  0.2788485E-009  0.1788823E+03  0.7561462E-02  0.1168889E+00
         -2   -1    0    0    0  501 -0.00000000000E+00  0.00000000000E+00  0.28122100553E+03  0.28122100553E+03  0.00000000000E+00 0. -1.
          2   -1    0    0  501    0  0.00000000000E+00 -0.00000000000E+00 -0.19208897530E+03  0.19208897530E+03  0.00000000000E+00 0.  1.
         25    2    1    2    0    0 -0.15122517828E+03 -0.72155058321E+02  0.16666409103E+03  0.26739068568E+03  0.12508178348E+03 0.  0.
          5    1    3    3  502    0 -0.29236045674E+02 -0.55828885230E+02  0.38871241478E+01  0.63278692518E+02  0.41800000000E+01 0. -1.
         -5    1    3    3    0  502 -0.12198913261E+03 -0.16326173091E+02  0.16277696688E+03  0.20411199316E+03  0.41800000000E+01 0. -1.
        -11    1    1    2    0    0  0.89612529822E+02  0.22676746734E+02 -0.86240890847E+02  0.12642045561E+03  0.00000000000E+00 0.  1.
         11    1    1    2    0    0  0.61612648462E+02  0.49478311587E+02  0.87088300434E+01  0.79498839543E+02  0.00000000000E+00 0. -1.
</event>
<event>
 7    1  0.2788485E-009  0.1237254E+03  0.7561462E-02  0.1237075E+00
         -1   -1    0    0    0  501 -0.00000000000E+00  0.00000000000E+00  0.97977553013E+02  0.97977553013E+02  0.00000000000E+00 0.  1.
          1   -1    0    0  501    0  0.00000000000E+00 -0.00000000000E+00 -0.17868686319E+03  0.17868686319E+03  0.00000000000E+00 0. -1.
         25    2    1    2    0    0 -0.10241401051E+02  0.62365656799E+02 -0.10777492302E+01  0.14014969817E+03  0.12508563031E+03 0.  0.
          5    1    3    3  502    0 -0.65077792931E+02  0.19724679212E+02 -0.13514649218E+02  0.69457182827E+02  0.41800000000E+01 0.  1.
         -5    1    3    3    0  502  0.54836391880E+02  0.42640977587E+02  0.12436899988E+02  0.70692515342E+02  0.41800000000E+01 0.  1.
        -11    1    1    2    0    0 -0.39986932292E+02 -0.29797759464E+02 -0.26490824758E+02  0.56467911415E+02  0.00000000000E+00 0.  1.
         11    1    1    2    0    0  0.50228333343E+02 -0.32567897335E+02 -0.53140736187E+02  0.80046806618E+02  0.00000000000E+00 0. -1.
</event>
<event>
 7    1  0.2788485E-009  0.1031308E+03  0.7561462E-02  0.1273847E+00
         -1   -1    0    0    0  501 -0.00000000000E+00  0.00000000000E+00  0.32062752235E+02  0.32062752235E+02  0.00000000000E+00 0.  1.
          1   -1    0    0  501    0  0.00000000000E+00 -0.00000000000E+00 -0.43258072504E+03  0.43258072504E+03  0.00000000000E+00 0. -1.
         25    2    1    2    0    0 -0.54480588579E+02 -0.87829406479E+00 -0.22459324868E+03  0.26279452097E+03  0.12509966813E+03 0.  0.
          5    1    3    3  502    0  0.70626965441E+01  0.50645406625E+02 -0.55556165691E+02  0.75622740237E+02  0.41800000000E+01 0.  1.
         -5    1    3    3    0  502 -0.61543285123E+02 -0.51523700690E+02 -0.16903708299E+03  0.18717178073E+03  0.41800000000E+01 0.  1.
        -11    1    1    2    0    0  0.25864576731E+02  0.25876101079E+02 -0.20689237513E+02  0.42030863486E+02  0.00000000000E+00 0.  1.
         11    1    1    2    0    0  0.28616011847E+02 -0.24997807014E+02 -0.15523548660E+03  0.15981809281E+03  0.00000000000E+00 0. -1.
</event>
<event>
 7    1  0.2788485E-009  0.1782917E+03  0.7561462E-02  0.1169467E+00
         -2   -1    0    0    0  501 -0.00000000000E+00  0.00000000000E+00  0.13910579730E+03  0.13910579730E+03  0.00000000000E+00 0.  1.
          2   -1    0    0  501    0  0.00000000000E+00 -0.00000000000E+00 -0.30574386695E+03  0.30574386695E+03  0.00000000000E+00 0. -1.
         25    2    1    2    0    0 -0.68267166138E+02  0.13151462140E+03  0.13123513101E+02  0.19436138078E+03  0.12509043980E+03 0.  0.
          5    1    3    3  502    0  0.11082557263E+02 -0.12849753661E+02 -0.19702374894E+02  0.26336196025E+02  0.41800000000E+01 0. -1.
         -5    1    3    3    0  502 -0.79349723402E+02  0.14436437506E+03  0.32825887995E+02  0.16802518476E+03  0.41800000000E+01 0. -1.
        -11    1    1    2    0    0 -0.17092095010E+02 -0.61767747635E+02 -0.70651549389E+02  0.95388866179E+02  0.00000000000E+00 0. -1.
         11    1    1    2    0    0  0.85359261148E+02 -0.69746873760E+02 -0.10911003337E+03  0.15509941729E+03  0.00000000000E+00 0.  1.
</event>
<event>
 7    1  0.2788485E-009  0.1789380E+03  0.7561462E-02  0.1168835E+00
         -2   -1    0    0    0  501 -0.00000000000E+00  0.00000000000E+00  0.10839782568E+03  0.10839782568E+03  0.00000000000E+00 0.  1.
          2   -1    0    0  501    0  0.00000000000E+00 -0.00000000000E+00 -0.33759928074E+03  0.33759928074E+03  0.00000000000E+00 0. -1.
         25    2    1    2    0    0  0.13130547631E+03  0.65522060779E+02 -0.18612944728E+03  0.26800494398E+03  0.12509280673E+03 0.  0.
          5    1    3    3  502    0  0.14613555272E+03  0.24533314606E+02 -0.15351056554E+03  0.21340208394E+03  0.41800000000E+01 0. -1.
         -5    1    3    3    0  502 -0.14830076411E+02  0.40988746172E+02 -0.32618881739E+02  0.54602860044E+02  0.41800000000E+01 0. -1.
        -11    1    1    2    0    0 -0.11652256276E+03 -0.20309334643E+02 -0.52652007814E+02  0.12946895625E+03  0.00000000000E+00 0.  1.
         11    1    1    2    0    0 -0.14782913553E+02 -0.45212726136E+02  0.95800000349E+01  0.48523206184E+02  0.00000000000E+00 0. -1.
</event>
<event>
 7    1  0.2788485E-009  0.1275444E+03  0.7561462E-02  0.1231146E+00
          1   -1    0    0  501    0  0.00000000000E+00  0.00000000000E+00  0.31633716959E+03  0.31633716959E+03  0.00000000000E+00 0. -1.
         -1   -1    0    0    0  501 -0.00000000000E+00 -0.00000000000E+00 -0.78818922192E+02  0.78818922192E+02  0.00000000000E+00 0.  1.
         25    2    1    2    0    0 -0.63859950962E+02  0.55776342104E+02  0.22356932342E+03  0.26985193712E+03  0.12509089461E+03 0.  0.
          5    1    3    3  502    0  0.16754589232E+02  0.61042523941E+02  0.59740314493E+02  0.87139448961E+02  0.41800000000E+01 0. -1.
         -5    1    3    3    0  502 -0.80614540194E+02 -0.52661818375E+01  0.16382900893E+03  0.18271248816E+03  0.41800000000E+01 0. -1.
        -11    1    1    2    0    0 -0.85910710941E+01  0.98020091251E+01 -0.18238646747E+02  0.22417272818E+02  0.00000000000E+00 0.  1.
         11    1    1    2    0    0  0.72451022056E+02 -0.65578351229E+02  0.32187570723E+02  0.10288688185E+03  0.00000000000E+00 0. -1.
</event>
<event>
 7    1  0.2788485E-009  0.1496336E+03  0.7561462E-02  0.1200924E+00
          2   -1    0    0  501    0  0.00000000000E+00  0.00000000000E+00  0.10084492004E+03  0.10084492004E+03  0.00000000000E+00 0. -1.
         -2   -1    0    0    0  501 -0.00000000000E+00 -0.00000000000E+00 -0.29662115728E+03  0.29662115728E+03  0.00000000000E+00 0.  1.
         25    2    1    2    0    0 -0.10825703851E+03 -0.12349228301E+02 -0.19442936395E+03  0.25558249944E+03  0.12509015401E+03 0.  0.
          5    1    3    3  502    0 -0.29928843763E+02  0.49210010822E+02 -0.11278707841E+03  0.12671131880E+03  0.41800000000E+01 0.  1.
         -5    1    3    3    0  502 -0.78328194749E+02 -0.61559239123E+02 -0.81642285531E+02  0.12887118064E+03  0.41800000000E+01 0.  1.
        -11    1    1    2    0    0  0.76909488794E+02  0.50819669941E+02  0.12371345823E+01  0.92191316410E+02  0.00000000000E+00 0. -1.
         11    1    1    2    0    0  0.31347549719E+02 -0.38470441640E+02 -0.25840078736E+01  0.49692261471E+02  0.00000000000E+00 0.  1.
</event>
<event>
 7    1  0.2788485E-009  0.1721010E+03  0.7561462E-02  0.1175674E+00
         -2   -1    0    0    0  501 -0.00000000000E+00  0.00000000000E+00  0.57016442902E+02  0.57016442902E+02  0.00000000000E+00 0.  1.
          2   -1    0    0  501    0  0.00000000000E+00 -0.00000000000E+00 -0.57795442173E+03  0.57795442173E+03  0.00000000000E+00 0. -1.
         25    2    1    2    0    0  0.95586685150E+02 -0.10457148819E+03 -0.29558980179E+03  0.35084659530E+03  0.12509193416E+03 0.  0.
          5    1    3    3  502    0  0.71694390330E+02 -0.12669714784E+03 -0.18476527945E+03  0.23526141581E+03  0.41800000000E+01 0.  1.
         -5    1    3    3    0  502  0.23892294820E+02  0.22125659654E+02 -0.11082452234E+03  0.11558517950E+03  0.41800000000E+01 0.  1.
        -11    1    1    2    0    0 -0.76307373074E+02  0.19848093417E+02 -0.66848612895E+02  0.10337068755E+03  0.00000000000E+00 0.  1.
         11    1    1    2    0    0 -0.19279312076E+02  0.84723394771E+02 -0.15849956414E+03  0.18075358179E+03  0.00000000000E+00 0. -1.
</event>
<event>
 7    1  0.2788485E-009  0.1088739E+03  0.7561462E-02  0.1262670E+00
         -2   -1    0    0    0  501 -0.00000000000E+00  0.00000000000E+00  0.23282334686E+03  0.23282334686E+03  0.00000000000E+00 0. -1.
          2   -1    0    0  501    0  0.00000000000E+00 -0.00000000000E+00 -0.64025779593E+02  0.64025779593E+02  0.00000000000E+00 0.  1.
         25    2    1    2    0    0 -0.26349475569E+02  0.50331602347E+02  0.83830154641E+02  0.16093874235E+03  0.12508484683E+03 0.  0.
          5    1    3    3  502    0 -0.45237943232E+02 -0.21501191310E+02  0.68535877749E+02  0.84990656395E+02  0.41800000000E+01 0.  1.
         -5    1    3    3    0  502  0.18888467662E+02  0.71832793657E+02  0.15294276892E+02  0.75948085959E+02  0.41800000000E+01 0.  1.
        -11    1    1    2    0    0  0.25960241414E+02  0.13500301597E+02 -0.46495960185E+00  0.29264457365E+02  0.00000000000E+00 0.  1.
         11    1    1    2    0    0  0.38923415584E+00 -0.63831903944E+02  0.85432372228E+02  0.10664592673E+03  0.00000000000E+00 0. -1.
</event>
<event>
 7    1  0.2788485E-009  0.1055531E+03  0.7561462E-02  0.1269034E+00
         -2   -1    0    0    0  501 -0.00000000000E+00  0.00000000000E+00  0.16720883294E+02  0.16720883294E+02  0.00000000000E+00 0.  1.
          2   -1    0    0  501    0  0.00000000000E+00 -0.00000000000E+00 -0.89632187117E+03  0.89632187117E+03  0.00000000000E+00 0. -1.
         25    2    1    2    0    0 -0.10010150414E+02  0.50666685509E+02 -0.56813045279E+03  0.58402540856E+03  0.12508457270E+03 0.  0.
          5    1    3    3  502    0  0.34402565298E+02  0.59309108842E+02 -0.47980728380E+03  0.48469950369E+03  0.41800000000E+01 0.  1.
         -5    1    3    3    0  502 -0.44412715712E+02 -0.86424233332E+01 -0.88323168989E+02  0.99325904870E+02  0.41800000000E+01 0.  1.
        -11    1    1    2    0    0 -0.27016647995E+02 -0.53402995954E+02 -0.25118290784E+03  0.25821431493E+03  0.00000000000E+00 0. -1.
         11    1    1    2    0    0  0.37026798409E+02  0.27363104453E+01 -0.60287627240E+02  0.70803030962E+02  0.00000000000E+00 0.  1.
</event>
<event>
 7    1  0.2841123E-009  0.9413600E+02  0.7561462E-02  0.1293134E+00
         -1   -1    0    0    0  501 -0.00000000000E+00  0.00000000000E+00  0.10516406405E+03  0.10516406405E+03  0.00000000000E+00 0.  1.
          1   -1    0    0  501    0  0.00000000000E+00 -0.00000000000E+00 -0.14127816630E+03  0.14127816630E+03  0.00000000000E+00 0. -1.
         25    2    1    2    0    0  0.24454743108E+02  0.47253045192E+02 -0.39946101010E+01  0.13599274044E+03  0.12508870374E+03 0.  0.
          5    1    3    3  502    0 -0.34827297929E+02 -0.10798022484E+02  0.28825253951E+02  0.46668036555E+02  0.41800000000E+01 0.  1.
         -5    1    3    3    0  502  0.59282041037E+02  0.58051067676E+02 -0.32819864052E+02  0.89324703886E+02  0.41800000000E+01 0.  1.
        -11    1    1    2    0    0  0.52897643361E+01 -0.36474889868E+02  0.25429338182E+02  0.44777789561E+02  0.00000000000E+00 0.  1.
         11    1    1    2    0    0 -0.29744507444E+02 -0.10778155324E+02 -0.57548830325E+02  0.65671700351E+02  0.00000000000E+00 0. -1.
</event>
<event>
 7    1  0.2788485E-009  0.9575306E+02  0.7561462E-02  0.1289489E+00
          2   -1    0    0  501    0  0.00000000000E+00  0.00000000000E+00  0.89135333688E+02  0.89135333688E+02  0.00000000000E+00 0.  1.
         -2   -1    0    0    0  501 -0.00000000000E+00 -0.00000000000E+00 -0.16723926410E+03  0.16723926410E+03  0.00000000000E+00 0. -1.
         25    2    1    2    0    0  0.30845083503E+02  0.45881943672E+02 -0.59730130477E+02  0.14923518147E+03  0.12508748527E+03 0.  0.
          5    1    3    3  502    0 -0.22220373897E+02  0.28456567951E+02  0.27496353859E+02  0.45574588876E+02  0.41800000000E+01 0.  1.
         -5    1    3    3    0  502  0.53065457400E+02  0.17425375721E+02 -0.87226484336E+02  0.10366059260E+03  0.41800000000E+01 0.  1.
        -11    1    1    2    0    0 -0.47997134830E+02 -0.60070794059E+02 -0.29372556520E+02  0.82310220065E+02  0.00000000000E+00 0. -1.
         11    1    1    2    0    0  0.17152051327E+02  0.14188850387E+02  0.10998756584E+02  0.24829196250E+02  0.00000000000E+00 0.  1.
</event>
<event>
 7    1  0.2788485E-009  0.1458310E+03  0.7561462E-02  0.1205692E+00
         -2   -1    0    0    0  501 -0.00000000000E+00  0.00000000000E+00  0.14155564067E+02  0.14155564067E+02  0.00000000000E+00 0.  1.
          2   -1    0    0  501    0  0.00000000000E+00 -0.00000000000E+00 -0.19100887823E+04  0.19100887823E+04  0.00000000000E+00 0. -1.
         25    2    1    2    0    0  0.43500607198E+02 -0.89644572980E+02 -0.14338566963E+04  0.14427487512E+04  0.12510188380E+03 0.  0.
          5    1    3    3  502    0  0.20269851473E+02  0.30826523983E+02 -0.34726782608E+03  0.34924712868E+03  0.41800000000E+01 0. -1.
         -5    1    3    3    0  502  0.23230755725E+02 -0.12047109696E+03 -0.10865888702E+04  0.10935016225E+04  0.41800000000E+01 0. -1.
        -11    1    1    2    0    0  0.13760175301E+02  0.69838467260E+02 -0.19370492556E+03  0.20636945540E+03  0.00000000000E+00 0. -1.
         11    1    1    2    0    0 -0.57260782498E+02  0.19806105720E+02 -0.26837159641E+03  0.27512613979E+03  0.00000000000E+00 0.  1.
</event>
<event>
 7    1  0.2788485E-009  0.1187732E+03  0.7561462E-02  0.1245135E+00
          2   -1    0    0  501    0  0.00000000000E+00  0.00000000000E+00  0.33726424560E+03  0.33726424560E+03  0.00000000000E+00 0. -1.
         -2   -1    0    0    0  501 -0.00000000000E+00 -0.00000000000E+00 -0.50425179661E+02  0.50425179661E+02  0.00000000000E+00 0.  1.
         25    2    1    2    0    0  0.40202525462E+02  0.13376270057E+02  0.77360027209E+02  0.15306206727E+03  0.12509298531E+03 0.  0.
          5    1    3    3  502    0  0.69822442165E+02  0.49114391350E+02  0.50112149018E+02  0.99076216858E+02  0.41800000000E+01 0.  1.
         -5    1    3    3    0  502 -0.29619916703E+02 -0.35738121294E+02  0.27247878191E+02  0.53985850415E+02  0.41800000000E+01 0.  1.
        -11    1    1    2    0    0  0.23671409416E+02 -0.31195599886E+02  0.70765568052E+02  0.80878097763E+02  0.00000000000E+00 0.  1.
         11    1    1    2    0    0 -0.63873934879E+02  0.17819329829E+02  0.13871347068E+03  0.15374926022E+03  0.00000000000E+00 0. -1.
</event>
<event>
 7    1  0.2788485E-009  0.2169050E+03  0.7561462E-02  0.1136212E+00
         -1   -1    0    0    0  501 -0.00000000000E+00  0.00000000000E+00  0.22332317200E+03  0.22332317200E+03  0.00000000000E+00 0.  1.
          1   -1    0    0  501    0  0.00000000000E+00 -0.00000000000E+00 -0.24020427283E+03  0.24020427283E+03  0.00000000000E+00 0. -1.
         25    2    1    2    0    0  0.85739508430E+02  0.16926420554E+03 -0.81253838278E+02  0.24134697212E+03  0.12507813611E+03 0.  0.
          5    1    3    3  502    0  0.45392545476E+02 -0.65096522796E+01 -0.84484245194E+01  0.46815670822E+02  0.41800000000E+01 0. -1.
         -5    1    3    3    0  502  0.40346962954E+02  0.17577385782E+03 -0.72805413758E+02  0.19453130130E+03  0.41800000000E+01 0. -1.
        -11    1    1    2    0    0 -0.17681750218E+02 -0.12486263095E+03  0.14754761320E+02  0.12696859407E+03  0.00000000000E+00 0. -1.
         11    1    1    2    0    0 -0.68057758213E+02 -0.44401574596E+02  0.49617976125E+02  0.95211878641E+02  0.00000000000E+00 0.  1.
</event>
<event>
 7    1  0.3375608E-009  0.1723716E+03  0.7561462E-02  0.1175397E+00
         -4   -1    0    0    0  501 -0.00000000000E+00  0.00000000000E+00  0.68710087068E+02  0.68710087068E+02  0.00000000000E+00 0.  1.
          4   -1    0    0  501    0  0.00000000000E+00 -0.00000000000E+00 -0.53409144772E+03  0.53409144772E+03  0.00000000000E+00 0. -1.
         25    2    1    2    0    0 -0.68515924959E+02 -0.13960042668E+03 -0.28102054750E+03  0.34467752077E+03  0.12508930453E+03 0.  0.
          5    1    3    3  502    0 -0.75562894829E+02 -0.11038284660E+03 -0.28423074746E+03  0.31416351491E+03  0.41800000000E+01 0.  1.
         -5    1    3    3    0  502  0.70469698699E+01 -0.29217580082E+02  0.32101999609E+01  0.30514005866E+02  0.41800000000E+01 0.  1.
        -11    1    1    2    0    0  0.24059166142E+02  0.13354753725E+03 -0.14218533803E+03  0.19654632669E+03  0.00000000000E+00 0.  1.
         11    1    1    2    0    0  0.44456758818E+02  0.60528894283E+01 -0.42175475127E+02  0.61577687332E+02  0.00000000000E+00 0. -1.
</event>
<event>
 7    1  0.2788485E-009  0.1104957E+03  0.7561462E-02  0.1259655E+00
         -1   -1    0    0    0  501 -0.00000000000E+00  0.00000000000E+00  0.21999990371E+02  0.21999990371E+02  0.00000000000E+00 0.  1.
          1   -1    0    0  501    0  0.00000000000E+00 -0.00000000000E+00 -0.67726110935E+03  0.67726110935E+03  0.00000000000E+00 0. -1.
         25    2    1    2    0    0 -0.95308791089E+01  0.49030133198E+02 -0.43431758535E+03  0.45472385891E+03  0.12508889358E+03 0.  0.
          5    1    3    3  502    0  0.24156985121E+02  0.80593766026E+02 -0.22296607478E+03  0.23834902549E+03  0.41800000000E+01 0. -1.
         -5    1    3    3    0  502 -0.33687864230E+02 -0.31563632828E+02 -0.21135151057E+03  0.21637483341E+03  0.41800000000E+01 0. -1.
        -11    1    1    2    0    0 -0.20922617011E+01  0.20145073802E+02 -0.11949872070E+03  0.12120291171E+03  0.00000000000E+00 0. -1.
         11    1    1    2    0    0  0.11623140810E+02 -0.69175207000E+02 -0.10144481293E+03  0.12333432911E+03  0.00000000000E+00 0.  1.
</event>
<event>
 7    1  0.2788485E-009  0.1091830E+03  0.7561462E-02  0.1262090E+00
         -1   -1    0    0    0  501 -0.00000000000E+00  0.00000000000E+00  0.30676385066E+02  0.30676385066E+02  0.00000000000E+00 0.  1.
          1   -1    0    0  501    0  0.00000000000E+00 -0.00000000000E+00 -0.58475181504E+03  0.58475181504E+03  0.00000000000E+00 0. -1.
         25    2    1    2    0    0  0.71274795790E+01 -0.74460778153E+02 -0.34129792976E+03  0.37111449520E+03  0.12508590345E+03 0.  0.
          5    1    3    3  502    0  0.93556315059E+00  0.15438564635E+02 -0.21668562939E+03  0.21727714777E+03  0.41800000000E+01 0.  1.
         -5    1    3    3    0  502  0.61919164284E+01 -0.89899342787E+02 -0.12461230037E+03  0.15383734743E+03  0.41800000000E+01 0.  1.
        -11    1    1    2    0    0  0.34787727976E+02  0.56895703756E+02 -0.81005274410E+02  0.10492455197E+03  0.00000000000E+00 0.  1.
         11    1    1    2    0    0 -0.41915207555E+02  0.17565074396E+02 -0.13177222580E+03  0.13938915293E+03  0.00000000000E+00 0. -1.
</event>
<event>
 7    1  0.2788485E-009  0.1046505E+03  0.7561462E-02  0.1270810E+00
         -1   -1    0    0    0  501 -0.00000000000E+00  0.00000000000E+00  0.33618880420E+03  0.33618880420E+03  0.00000000000E+00 0.  1.
          1   -1    0    0  501    0  0.00000000000E+00 -0.00000000000E+00 -0.40873705799E+02  0.40873705799E+02  0.00000000000E+00 0. -1.
         25    2    1    2    0    0 -0.31053049469E+02 -0.22528678740E+02  0.20590058187E+03  0.24395659372E+03  0.12509171340E+03 0.  0.
          5    1    3    3  502    0 -0.70864875107E+02 -0.25112941316E+02  0.72022255824E+02  0.10419773548E+03  0.41800000000E+01 0.  1.
         -5    1    3    3    0  502  0.39811825638E+02  0.25842625761E+01  0.13387832604E+03  0.13975885824E+03  0.41800000000E+01 0.  1.
        -11    1    1    2    0    0 -0.27841594136E+02  0.21172746667E+02  0.54097507673E+02  0.64420337642E+02  0.00000000000E+00 0.  1.
         11    1    1    2    0    0  0.58894643606E+02  0.13559320728E+01  0.35317008866E+02  0.68685578635E+02  0.00000000000E+00 0. -1.
</event>
<event>
 7    1  0.2788485E-009  0.4918227E+02  0.7561462E-02  0.1449803E+00
         -1   -1    0    0    0  501 -0.00000000000E+00  0.00000000000E+00  0.73193784341E+02  0.73193784341E+02  0.00000000000E+00 0.  1.
          1   -1    0    0  501    0  0.00000000000E+00 -0.00000000000E+00 -0.17461054743E+03  0.17461054743E+03  0.00000000000E+00 0. -1.
         25    2    1    2    0    0  0.11468941964E+02  0.20365958126E+02 -0.41428999890E+02  0.13381110981E+03  0.12507094865E+03 0.  0.
          5    1    3    3  502    0  0.15285447201E+02  0.14638182505E+02  0.43471252268E+02  0.48529820286E+02  0.41800000000E+01 0.  1.
         -5    1    3    3    0  502 -0.38165052373E+01  0.57277756212E+01 -0.84900252158E+02  0.85281289520E+02  0.41800000000E+01 0.  1.
        -11    1    1    2    0    0 -0.16520578311E+02  0.21194465847E+02  0.12998921607E+02  0.29851412919E+02  0.00000000000E+00 0.  1.
         11    1    1    2    0    0  0.50516363476E+01 -0.41560423974E+02 -0.72986684808E+02  0.84141809048E+02  0.00000000000E+00 0. -1.
</event>
<event>
 7    1  0.2788485E-009  0.7055483E+02  0.7561462E-02  0.1358216E+00
         -2   -1    0    0    0  501 -0.00000000000E+00  0.00000000000E+00  0.32176078302E+02  0.32176078302E+02  0.00000000000E+00 0.  1.
          2   -1    0    0  501    0  0.00000000000E+00 -0.00000000000E+00 -0.48705976767E+03  0.48705976767E+03  0.00000000000E+00 0. -1.
         25    2    1    2    0    0  0.34570818656E+02  0.18224747100E+02 -0.15159164699E+03  0.20038716418E+03  0.12509078793E+03 0.  0.
          5    1    3    3  502    0  0.27416955906E+02  0.62642480323E+01  0.15689766545E+02  0.32474165867E+02  0.41800000000E+01 0. -1.
         -5    1    3    3    0  502  0.71538627504E+01  0.11960499068E+02 -0.16728141353E+03  0.16791299832E+03  0.41800000000E+01 0. -1.
        -11    1    1    2    0    0 -0.10451388018E+02  0.36689742355E+02 -0.10697037297E+03  0.11356949150E+03  0.00000000000E+00 0.  1.
         11    1    1    2    0    0 -0.24119430638E+02 -0.54914489455E+02 -0.19632166941E+03  0.20527919029E+03  0.00000000000E+00 0. -1.
</event>
<event>
 7    1  0.2788485E-009  0.1256129E+03  0.7561462E-02  0.1234115E+00
         -1   -1    0    0    0  501 -0.00000000000E+00  0.00000000000E+00  0.21833708656E+03  0.21833708656E+03  0.00000000000E+00 0.  1.
          1   -1    0    0  501    0  0.00000000000E+00 -0.00000000000E+00 -0.11219267661E+03  0.11219267661E+03  0.00000000000E+00 0. -1.
         25    2    1    2    0    0  0.55034218444E+02 -0.64665634685E+02 -0.21161410329E+02  0.15266289947E+03  0.12509095123E+03 0.  0.
          5    1    3    3  502    0  0.85255075868E+02 -0.38842060239E+02 -0.47171275918E+02  0.10497492689E+03  0.41800000000E+01 0.  1.
         -5    1    3    3    0  502 -0.30220857423E+02 -0.25823574446E+02  0.26009865589E+02  0.47687972577E+02  0.41800000000E+01 0.  1.
        -11    1    1    2    0    0 -0.16018674375E+01  0.64019522040E+02  0.39998039065E+02  0.75504359546E+02  0.00000000000E+00 0. -1.
         11    1    1    2    0    0 -0.53432351007E+02  0.64611264544E+00  0.87307781214E+02  0.10236250415E+03  0.00000000000E+00 0.  1.
</event>
<event>
 7    1  0.2788485E-009  0.9180959E+02  0.7561462E-02  0.1298528E+00
          2   -1    0    0  501    0  0.00000000000E+00  0.00000000000E+00  0.25048352846E+03  0.25048352846E+03  0.00000000000E+00 0.  1.
         -2   -1    0    0    0  501 -0.00000000000E+00 -0.00000000000E+00 -0.54731659643E+02  0.54731659643E+02  0.00000000000E+00 0. -1.
         25    2    1    2    0    0  0.49562192956E+01  0.27101168513E+02  0.65550405236E+02  0.14388798928E+03  0.12509140813E+03 0.  0.
          5    1    3    3  502    0 -0.49577539150E+02  0.46508205501E+02  0.47775912391E+02  0.83192281925E+02  0.41800000000E+01 0.  1.
         -5    1    3    3    0  502  0.54533758446E+02 -0.19407036989E+02  0.17774492845E+02  0.60695707351E+02  0.41800000000E+01 0.  1.
        -11    1    1    2    0    0 -0.20797097649E+02  0.52567228716E+01 -0.44768761908E+01  0.21913348133E+02  0.00000000000E+00 0. -1.
         11    1    1    2    0    0  0.15840878354E+02 -0.32357891384E+02  0.13467833977E+03  0.13941385069E+03  0.00000000000E+00 0.  1.
</event>
<event>
 7    1  0.2788485E-009  0.1183360E+03  0.7561462E-02  0.1245868E+00
          1   -1    0    0  501    0  0.00000000000E+00  0.00000000000E+00  0.38987653081E+03  0.38987653081E+03  0.00000000000E+00 0. -1.
         -1   -1    0    0    0  501 -0.00000000000E+00 -0.00000000000E+00 -0.38280705846E+02  0.38280705846E+02  0.00000000000E+00 0.  1.
         25    2    1    2    0    0 -0.12775336141E+02 -0.53469647442E+02  0.22572551833E+03  0.26385877920E+03  0.12508890167E+03 0.  0.
          5    1    3    3  502    0 -0.27096725482E+02 -0.88938009674E+02  0.12357253501E+03  0.15469921107E+03  0.41800000000E+01 0.  1.
         -5    1    3    3    0  502  0.14321389342E+02  0.35468362232E+02  0.10215298332E+03  0.10915956813E+03  0.41800000000E+01 0.  1.
        -11    1    1    2    0    0  0.41500186243E+02  0.62492271305E+02  0.82565826933E+02  0.11155565969E+03  0.00000000000E+00 0.  1.
         11    1    1    2    0    0 -0.28724850103E+02 -0.90226238627E+01  0.43304479694E+02  0.52742797768E+02  0.00000000000E+00 0. -1.
</event>
<event>
 7    1  0.2788485E-009  0.1339078E+03  0.7561462E-02  0.1221770E+00
          1   -1    0    0  501    0  0.00000000000E+00  0.00000000000E+00  0.85639443749E+03  0.85639443749E+03  0.00000000000E+00 0. -1.
         -1   -1    0    0    0  501 -0.00000000000E+00 -0.00000000000E+00 -0.25339447107E+02  0.25339447107E+02  0.00000000000E+00 0.  1.
         25    2    1    2    0    0  0.90389644355E+02 -0.45103945856E+01  0.34156819875E+03  0.37484242871E+03  0.12508948996E+03 0.  0.
          5    1    3    3  502    0  0.97594167917E+01  0.47226904291E+02  0.58258153466E+02  0.75743722844E+02  0.41800000000E+01 0. -1.
         -5    1    3    3    0  502  0.80630227564E+02 -0.51737298876E+02  0.28331004529E+03  0.29909870587E+03  0.41800000000E+01 0. -1.
        -11    1    1    2    0    0 -0.57322505174E+02  0.43817046812E+02  0.19419429216E+03  0.20716473227E+03  0.00000000000E+00 0.  1.
         11    1    1    2    0    0 -0.33067139182E+02 -0.39306652227E+02  0.29529249947E+03  0.29972672361E+03  0.00000000000E+00 0. -1.
</event>
<event>
 7    1  0.2788485E-009  0.1418174E+03  0.7561462E-02  0.1210904E+00
         -2   -1    0    0    0  501 -0.00000000000E+00  0.00000000000E+00  0.81514296397E+03  0.81514296397E+03  0.00000000000E+00 0.  1.
          2   -1    0    0  501    0  0.00000000000E+00 -0.00000000000E+00 -0.28396964638E+02  0.28396964638E+02  0.00000000000E+00 0. -1.
         25    2    1    2    0    0  0.17546244241E+02 -0.91008938017E+02  0.57202540456E+03  0.59283283030E+03  0.12508878341E+03 0.  0.
          5    1    3    3  502    0 -0.24724821529E+02 -0.10720621796E+03  0.39389817073E+03  0.40899600399E+03  0.41800000000E+01 0.  1.
         -5    1    3    3    0  502  0.42271065770E+02  0.16197279947E+02  0.17812723383E+03  0.18383682632E+03  0.41800000000E+01 0.  1.
        -11    1    1    2    0    0  0.22830843189E+02  0.84058139618E+02  0.16206687564E+03  0.18399100635E+03  0.00000000000E+00 0.  1.
         11    1    1    2    0    0 -0.40377087431E+02  0.69507983986E+01  0.52653719123E+02  0.66716091951E+02  0.00000000000E+00 0. -1.
</event>
<event>
 7    1  0.2788485E-009  0.1709687E+03  0.7561462E-02  0.1176841E+00
          3   -1    0    0  501    0  0.00000000000E+00  0.00000000000E+00  0.42988080250E+03  0.42988080250E+03  0.00000000000E+00 0. -1.
         -3   -1    0    0    0  501 -0.00000000000E+00 -0.00000000000E+00 -0.86416295618E+02  0.86416295618E+02  0.00000000000E+00 0.  1.
         25    2    1    2    0    0  0.99418553160E+02  0.95242788931E+02  0.73292821412E+02  0.19993788690E+03  0.12509229949E+03 0.  0.
          5    1    3    3  502    0 -0.24707826196E+02  0.11626004064E+02  0.36475874883E+02  0.45755901197E+02  0.41800000000E+01 0. -1.
         -5    1    3    3    0  502  0.12412637936E+03  0.83616784867E+02  0.36816946529E+02  0.15418198570E+03  0.41800000000E+01 0. -1.
        -11    1    1    2    0    0 -0.85381088976E+02 -0.11320583173E+03  0.23299690149E+03  0.27275088780E+03  0.00000000000E+00 0. -1.
         11    1    1    2    0    0 -0.14037464184E+02  0.17963042799E+02  0.37174783986E+02  0.43608323423E+02  0.00000000000E+00 0.  1.
</event>
<event>
 7    1  0.2788485E-009  0.1673947E+03  0.7561462E-02  0.1180592E+00
          2   -1    0    0  501    0  0.00000000000E+00  0.00000000000E+00  0.13653127493E+03  0.13653127493E+03  0.00000000000E+00 0. -1.
         -2   -1    0    0    0  501 -0.00000000000E+00 -0.00000000000E+00 -0.23331716135E+03  0.23331716135E+03  0.00000000000E+00 0.  1.
         25    2    1    2    0    0  0.11868421486E+03 -0.71802482737E+02 -0.26033595986E+02  0.18858830899E+03  0.12508502222E+03 0.  0.
          5    1    3    3  502    0  0.14079694871E+03 -0.39943990520E+02 -0.11139620048E+02  0.14683618995E+03  0.41800000000E+01 0. -1.
         -5    1    3    3    0  502 -0.22112733852E+02 -0.31858492217E+02 -0.14893975938E+02  0.41752119036E+02  0.41800000000E+01 0. -1.
        -11    1    1    2    0    0 -0.64275065979E+02  0.68467720022E+01 -0.71682845077E+02  0.96522498268E+02  0.00000000000E+00 0.  1.
         11    1    1    2    0    0 -0.54409148881E+02  0.64955710734E+02  0.93055464430E+00  0.84737629014E+02  0.00000000000E+00 0. -1.
</event>
<event>
 7    1  0.2788485E-009  0.1848985E+03  0.7561462E-02  0.1163145E+00
          1   -1    0    0  501    0  0.00000000000E+00  0.00000000000E+00  0.14893459249E+04  0.14893459249E+04  0.00000000000E+00 0. -1.
         -1   -1    0    0    0  501 -0.00000000000E+00 -0.00000000000E+00 -0.32777457356E+02  0.32777457356E+02  0.00000000000E+00 0.  1.
         25    2    1    2    0    0 -0.48966341272E+02  0.14630752949E+03  0.11528250245E+04  0.11698102228E+04  0.12508726771E+03 0.  0.
          5    1    3    3  502    0 -0.78430841247E+02  0.42734449348E+02  0.45349251989E+03  0.46222350440E+03  0.41800000000E+01 0.  1.
         -5    1    3    3    0  502  0.29464499975E+02  0.10357308014E+03  0.69933250457E+03  0.70758671838E+03  0.41800000000E+01 0.  1.
        -11    1    1    2    0    0  0.28747732448E+02 -0.14942083659E+03  0.22994026786E+03  0.27572730245E+03  0.00000000000E+00 0.  1.
         11    1    1    2    0    0  0.20218608824E+02  0.31133071023E+01  0.73803175201E+02  0.76585857008E+02  0.00000000000E+00 0. -1.
</event>
<event>
 7    1  0.2788485E-009  0.1251576E+03  0.7561462E-02  0.1234823E+00
         -2   -1    0    0    0  501 -0.00000000000E+00  0.00000000000E+00  0.68215188047E+02  0.68215188047E+02  0.00000000000E+00 0.  1.
          2   -1    0    0  501    0  0.00000000000E+00 -0.00000000000E+00 -0.26543491008E+03  0.26543491008E+03  0.00000000000E+00 0. -1.
         25    2    1    2    0    0  0.34888143136E+02 -0.68908252929E+02 -0.89808574945E+02  0.17227453488E+03  0.12508958941E+03 0.  0.
          5    1    3    3  502    0  0.66005939351E+02 -0.85056447381E+02 -0.49148511533E+02  0.11842479410E+03  0.41800000000E+01 0. -1.
         -5    1    3    3    0  502 -0.31117796215E+02  0.16148194452E+02 -0.40660063412E+02  0.53849740779E+02  0.41800000000E+01 0. -1.
        -11    1    1    2    0    0 -0.28246853068E+01 -0.16133479868E+02 -0.52942165781E+02  0.55417875611E+02  0.00000000000E+00 0. -1.
         11    1    1    2    0    0 -0.32063457829E+02  0.85041732797E+02 -0.54468981303E+02  0.10595768764E+03  0.00000000000E+00 0.  1.
</event>
<event>
 7    1  0.2788485E-009  0.1071476E+03  0.7561462E-02  0.1265945E+00
          1   -1    0    0  501    0  0.00000000000E+00  0.00000000000E+00  0.30407052089E+03  0.30407052089E+03  0.00000000000E+00 0. -1.
         -1   -1    0    0    0  501 -0.00000000000E+00 -0.00000000000E+00 -0.52060152098E+02  0.52060152098E+02  0.00000000000E+00 0.  1.
         25    2    1    2    0    0  0.46212732059E+02 -0.29061114223E+02  0.20061655777E+03  0.24264012840E+03  0.12508822365E+03 0.  0.
          5    1    3    3  502    0  0.10044895922E+02  0.47971064438E+02  0.53847879777E+02  0.72932773935E+02  0.41800000000E+01 0.  1.
         -5    1    3    3    0  502  0.36167836137E+02 -0.77032178662E+02  0.14676867799E+03  0.16970735446E+03  0.41800000000E+01 0.  1.
        -11    1    1    2    0    0 -0.15938689719E+02  0.43524631294E+02 -0.62726658669E+01  0.46773728698E+02  0.00000000000E+00 0.  1.
         11    1    1    2    0    0 -0.30274042340E+02 -0.14463517070E+02  0.57666476893E+02  0.66716815893E+02  0.00000000000E+00 0. -1.
</event>
<event>
 7    1  0.2788485E-009  0.1024550E+03  0.7561462E-02  0.1275217E+00
          1   -1    0    0  501    0  0.00000000000E+00  0.00000000000E+00  0.19061785454E+02  0.19061785454E+02  0.00000000000E+00 0. -1.
         -1   -1    0    0    0  501 -0.00000000000E+00 -0.00000000000E+00 -0.68636037945E+03  0.68636037945E+03  0.00000000000E+00 0.  1.
         25    2    1    2    0    0 -0.18733284620E+02  0.33332449869E+02 -0.37645172871E+03  0.39852783446E+03  0.12508614084E+03 0.  0.
          5    1    3    3  502    0  0.47863185428E+02  0.62541768252E+01 -0.80631589931E+02  0.94068724568E+02  0.41800000000E+01 0. -1.
         -5    1    3    3    0  502 -0.66596470048E+02  0.27078273043E+02 -0.29582013877E+03  0.30445910990E+03  0.41800000000E+01 0. -1.
        -11    1    1    2    0    0  0.47942338434E+02 -0.25017683619E+02 -0.25118768934E+03  0.25694280995E+03  0.00000000000E+00 0.  1.
         11    1    1    2    0    0 -0.29209053813E+02 -0.83147662491E+01 -0.39659175955E+02  0.49951520496E+02  0.00000000000E+00 0. -1.
</event>
<event>
 7    1  0.2788485E-009  0.1407454E+03  0.7561462E-02  0.1212330E+00
          1   -1    0    0  501    0  0.00000000000E+00  0.00000000000E+00  0.15183347824E+03  0.15183347824E+03  0.00000000000E+00 0. -1.
         -1   -1    0    0    0  501 -0.00000000000E+00 -0.00000000000E+00 -0.15303966140E+03  0.15303966140E+03  0.00000000000E+00 0.  1.
         25    2    1    2    0    0 -0.33812619893E+02  0.76203893195E+02  0.29668879877E+02  0.15322380022E+03  0.12508782482E+03 0.  0.
          5    1    3    3  502    0 -0.24565722865E+02 -0.32444189743E+02  0.12381591945E+02  0.42741974768E+02  0.41800000000E+01 0.  1.
         -5    1    3    3    0  502 -0.92468970280E+01  0.10864808294E+03  0.17287287932E+02  0.11048182545E+03  0.41800000000E+01 0.  1.
        -11    1    1    2    0    0  0.14926405396E+02  0.24669830850E+02 -0.39226225880E+02  0.48683620746E+02  0.00000000000E+00 0.  1.
         11    1    1    2    0    0  0.18886214496E+02 -0.10087372404E+03  0.83511628454E+01  0.10296571867E+03  0.00000000000E+00 0. -1.
</event>
<event>
 7    1  0.2788485E-009  0.1146371E+03  0.7561462E-02  0.1252216E+00
          1   -1    0    0  501    0  0.00000000000E+00  0.00000000000E+00  0.16115111876E+03  0.16115111876E+03  0.00000000000E+00 0. -1.
         -1   -1    0    0    0  501 -0.00000000000E+00 -0.00000000000E+00 -0.87504611053E+02  0.87504611053E+02  0.00000000000E+00 0.  1.
         25    2    1    2    0    0 -0.89648285141E+01 -0.25474090954E+02  0.65609488726E+02  0.14381136281E+03  0.12509118914E+03 0.  0.
          5    1    3    3  502    0  0.56661215030E+02 -0.10443237804E+02  0.15587914783E+02  0.59833184704E+02  0.41800000000E+01 0.  1.
         -5    1    3    3    0  502 -0.65626043544E+02 -0.15030853150E+02  0.50021573943E+02  0.83978178102E+02  0.41800000000E+01 0.  1.
        -11    1    1    2    0    0 -0.33072803740E+02 -0.22701384945E+02 -0.17977134196E+01  0.40154638576E+02  0.00000000000E+00 0.  1.
         11    1    1    2    0    0  0.42037632254E+02  0.48175475899E+02  0.98347324035E+01  0.64689728435E+02  0.00000000000E+00 0. -1.
</event>
<event>
 7    1  0.2788485E-009  0.7104540E+02  0.7561462E-02  0.1356574E+00
          2   -1    0    0  501    0  0.00000000000E+00  0.00000000000E+00  0.21360750633E+03  0.21360750633E+03  0.00000000000E+00 0.  1.
         -2   -1    0    0    0  501 -0.00000000000E+00 -0.00000000000E+00 -0.77467476137E+02  0.77467476137E+02  0.00000000000E+00 0. -1.
         25    2    1    2    0    0  0.19827387595E+02  0.20651666852E+00  0.21197602568E+02  0.12842265170E+03  0.12509944511E+03 0.  0.
          5    1    3    3  502    0  0.94895032536E+01 -0.32739659611E+02  0.64384384335E+02  0.72970934828E+02  0.41800000000E+01 0. -1.
         -5    1    3    3    0  502  0.10337884341E+02  0.32946176280E+02 -0.43186781768E+02  0.55451716868E+02  0.41800000000E+01 0. -1.
        -11    1    1    2    0    0 -0.16259719325E+02 -0.34683202240E+02  0.12148368654E+03  0.12737970437E+03  0.00000000000E+00 0.  1.
         11    1    1    2    0    0 -0.35676682701E+01  0.34476685571E+02 -0.65412589158E+01  0.35272626399E+02  0.00000000000E+00 0. -1.
</event>
<event>
 7    1  0.2788485E-009  0.1792883E+03  0.7561462E-02  0.1168494E+00
         -1   -1    0    0    0  501 -0.00000000000E+00  0.00000000000E+00  0.24469097756E+03  0.24469097756E+03  0.00000000000E+00 0.  1.
          1   -1    0    0  501    0  0.00000000000E+00 -0.00000000000E+00 -0.17171515311E+03  0.17171515311E+03  0.00000000000E+00 0. -1.
         25    2    1    2    0    0 -0.14794217860E+03  0.15524532752E+02 -0.51746742737E+02  0.20112862038E+03  0.12508835767E+03 0.  0.
          5    1    3    3  502    0 -0.37062857810E+02  0.59328961270E+02 -0.41387689869E+02  0.81387925069E+02  0.41800000000E+01 0. -1.
         -5    1    3    3    0  502 -0.11087932079E+03 -0.43804428518E+02 -0.10359052868E+02  0.11974069531E+03  0.41800000000E+01 0. -1.
        -11    1    1    2    0    0  0.12809754192E+03 -0.43169101120E+02  0.73739724365E+02  0.15398083805E+03  0.00000000000E+00 0. -1.
         11    1    1    2    0    0  0.19844636684E+02  0.27644568368E+02  0.50982842827E+02  0.61296672243E+02  0.00000000000E+00 0.  1.
</event>
<event>
 7    1  0.2788485E-009  0.1289107E+03  0.7561462E-02  0.1229081E+00
         -1   -1    0    0    0  501 -0.00000000000E+00  0.00000000000E+00  0.36734887096E+02  0.36734887096E+02  0.00000000000E+00 0.  1.
          1   -1    0    0  501    0  0.00000000000E+00 -0.00000000000E+00 -0.88930713456E+03  0.88930713456E+03  0.00000000000E+00 0. -1.
         25    2    1    2    0    0  0.58935523236E+02 -0.45631165245E+02 -0.76248135353E+03  0.77626092392E+03  0.12509040087E+03 0.  0.
          5    1    3    3  502    0 -0.14304251277E+02 -0.62181196818E+02 -0.23901312271E+03  0.24741838668E+03  0.41800000000E+01 0.  1.
         -5    1    3    3    0  502  0.73239774514E+02  0.16550031573E+02 -0.52346823082E+03  0.52884253724E+03  0.41800000000E+01 0.  1.
        -11    1    1    2    0    0 -0.82258990549E+02  0.47989981131E+02 -0.64193485986E+02  0.11484939468E+03  0.00000000000E+00 0.  1.
         11    1    1    2    0    0  0.23323467313E+02 -0.23588158853E+01 -0.25897407951E+02  0.34931703057E+02  0.00000000000E+00 0. -1.
</event>
<event>
 7    1  0.2788485E-009  0.1334379E+03  0.7561462E-02  0.1222442E+00
         -1   -1    0    0    0  501 -0.00000000000E+00  0.00000000000E+00  0.35285622577E+03  0.35285622577E+03  0.00000000000E+00 0.  1.
          1   -1    0    0  501    0  0.00000000000E+00 -0.00000000000E+00 -0.57146276731E+02  0.57146276731E+02  0.00000000000E+00 0. -1.
         25    2    1    2    0    0 -0.77809355346E+02  0.85929643144E+01  0.93384153519E+02  0.17463139182E+03  0.12508952020E+03 0.  0.
          5    1    3    3  502    0  0.23772150985E+02  0.34990984988E+02  0.28154293759E+02  0.50986477129E+02  0.41800000000E+01 0.  1.
         -5    1    3    3    0  502 -0.10158150633E+03 -0.26398020674E+02  0.65229859760E+02  0.12364491469E+03  0.41800000000E+01 0.  1.
        -11    1    1    2    0    0 -0.18082791491E+02 -0.14611026262E+02  0.52042645466E+02  0.56999178798E+02  0.00000000000E+00 0. -1.
         11    1    1    2    0    0  0.95892146837E+02  0.60180619478E+01  0.15028315005E+03  0.17837193189E+03  0.00000000000E+00 0.  1.
</event>
<event>
 7    1  0.2788485E-009  0.7273992E+02  0.7561462E-02  0.1351016E+00
         -1   -1    0    0    0  501 -0.00000000000E+00  0.00000000000E+00  0.46542085282E+01  0.46542085282E+01  0.00000000000E+00 0.  1.
          1   -1    0    0  501    0  0.00000000000E+00 -0.00000000000E+00 -0.21155793047E+04  0.21155793047E+04  0.00000000000E+00 0. -1.
         25    2    1    2    0    0  0.25129681003E+02  0.10045868584E+02 -0.17829066515E+04  0.17874943546E+04  0.12509004512E+03 0.  0.
          5    1    3    3  502    0  0.50054944833E+02  0.29035231947E+02 -0.16445143176E+04  0.16455374063E+04  0.41800000000E+01 0.  1.
         -5    1    3    3    0  502 -0.24925263831E+02 -0.18989363363E+02 -0.13839233386E+03  0.14195694829E+03  0.41800000000E+01 0.  1.
        -11    1    1    2    0    0 -0.61965529894E+01  0.19665745873E+02 -0.12089215630E+03  0.12263789090E+03  0.00000000000E+00 0.  1.
         11    1    1    2    0    0 -0.18933128013E+02 -0.29711614457E+02 -0.20712628839E+03  0.21010126775E+03  0.00000000000E+00 0. -1.
</event>
<event>
 7    1  0.2788485E-009  0.1414825E+03  0.7561462E-02  0.1211348E+00
         -2   -1    0    0    0  501 -0.00000000000E+00  0.00000000000E+00  0.56654590857E+02  0.56654590857E+02  0.00000000000E+00 0.  1.
          2   -1    0    0  501    0  0.00000000000E+00 -0.00000000000E+00 -0.39917426170E+03  0.39917426170E+03  0.00000000000E+00 0. -1.
         25    2    1    2    0    0  0.53867431963E+02 -0.67235704560E+02 -0.11143093405E+03  0.18837936639E+03  0.12509033705E+03 0.  0.
          5    1    3    3  502    0  0.53075018151E+02  0.23027323027E+02 -0.24427123761E+02  0.62939430668E+02  0.41800000000E+01 0. -1.
         -5    1    3    3    0  502  0.79241381160E+00 -0.90263027588E+02 -0.87003810288E+02  0.12543993572E+03  0.41800000000E+01 0. -1.
        -11    1    1    2    0    0  0.77896630816E+01  0.72311850902E+02 -0.12155716627E+03  0.14165389971E+03  0.00000000000E+00 0.  1.
         11    1    1    2    0    0 -0.61657095044E+02 -0.50761463411E+01 -0.10953157053E+03  0.12579558646E+03  0.00000000000E+00 0. -1.
</event>
<event>
 7    1  0.2788485E-009  0.1220680E+03  0.7561462E-02  0.1239724E+00
         -1   -1    0    0    0  501 -0.00000000000E+00  0.00000000000E+00  0.12000038372E+03  0.12000038372E+03  0.00000000000E+00 0.  1.
          1   -1    0    0  501    0  0.00000000000E+00 -0.00000000000E+00 -0.16538718979E+03  0.16538718979E+03  0.00000000000E+00 0. -1.
         25    2    1    2    0    0  0.13643281194E+02 -0.73131260420E+02 -0.75069236424E+02  0.16375995543E+03  0.12509041680E+03 0.  0.
          5    1    3    3  502    0 -0.50009019992E+02 -0.48390984363E+02 -0.12064307207E+02  0.70750331141E+02  0.41800000000E+01 0. -1.
         -5    1    3    3    0  502  0.63652301186E+02 -0.24740276056E+02 -0.63004929217E+02  0.93009624294E+02  0.41800000000E+01 0. -1.
        -11    1    1    2    0    0  0.27407375965E+02  0.54329907233E+02  0.43048869979E+02  0.74539306971E+02  0.00000000000E+00 0. -1.
         11    1    1    2    0    0 -0.41050657160E+02  0.18801353186E+02 -0.13366439622E+02  0.47088311109E+02  0.00000000000E+00 0.  1.
</event>
<event>
 7    1  0.2788485E-009  0.1257785E+03  0.7561462E-02  0.1233858E+00
         -1   -1    0    0    0  501 -0.00000000000E+00  0.00000000000E+00  0.28570027555E+03  0.28570027555E+03  0.00000000000E+00 0.  1.
          1   -1    0    0  501    0  0.00000000000E+00 -0.00000000000E+00 -0.63543956562E+02  0.63543956562E+02  0.00000000000E+00 0. -1.
         25    2    1    2    0    0 -0.75290378105E+02  0.60473538544E+01  0.15314410792E+03  0.21167332470E+03  0.12508903660E+03 0.  0.
          5    1    3    3  502    0 -0.10191850821E+03 -0.17888537699E+02  0.13808925495E+03  0.17260792806E+03  0.41800000000E+01 0. -1.
         -5    1    3    3    0  502  0.26628130100E+02  0.23935891553E+02  0.15054852963E+02  0.39065396642E+02  0.41800000000E+01 0. -1.
        -11    1    1    2    0    0 -0.17924137614E+02 -0.54403521390E+01  0.32394312859E+02  0.37420096823E+02  0.00000000000E+00 0.  1.
         11    1    1    2    0    0  0.93214515720E+02 -0.60700171541E+00  0.36617898216E+02  0.10015081059E+03  0.00000000000E+00 0. -1.
</event>
<event>
 7    1  0.2788485E-009  0.2474226E+03  0.7561462E-02  0.1114945E+00
          3   -1    0    0  501    0  0.00000000000E+00  0.00000000000E+00  0.69729385706E+02  0.69729385706E+02  0.00000000000E+00 0. -1.
         -3   -1    0    0    0  501 -0.00000000000E+00 -0.00000000000E+00 -0.90080187028E+03  0.90080187028E+03  0.00000000000E+00 0.  1.
         25    2    1    2    0    0  0.11460158968E+03 -0.19203186367E+03 -0.48285451316E+03  0.54663183956E+03  0.12509247027E+03 0.  0.
          5    1    3    3  502    0 -0.22509086878E+02 -0.84910630791E+01 -0.74282172273E+02  0.78192523056E+02  0.41800000000E+01 0.  1.
         -5    1    3    3    0  502  0.13711067655E+03 -0.18354080059E+03 -0.40857234089E+03  0.46843931650E+03  0.41800000000E+01 0.  1.
        -11    1    1    2    0    0 -0.70998312019E+02  0.18363935999E+03 -0.27377636735E+03  0.33722051267E+03  0.00000000000E+00 0.  1.
         11    1    1    2    0    0 -0.43603277657E+02  0.83925036840E+01 -0.74441604063E+02  0.86678903754E+02  0.00000000000E+00 0. -1.
</event>
<event>
 7    1  0.2788485E-009  0.9798923E+02  0.7561462E-02  0.1284582E+00
          3   -1    0    0  501    0  0.00000000000E+00  0.00000000000E+00  0.27490361271E+02  0.27490361271E+02  0.00000000000E+00 0. -1.
         -3   -1    0    0    0  501 -0.00000000000E+00 -0.00000000000E+00 -0.50548776005E+03  0.50548776005E+03  0.00000000000E+00 0.  1.
         25    2    1    2    0    0  0.12421940079E+02  0.50219747390E+01 -0.36438307144E+03  0.38549005326E+03  0.12509210043E+03 0.  0.
          5    1    3    3  502    0 -0.39291533372E+02 -0.27071135173E+02 -0.69780287696E+02  0.84637059880E+02  0.41800000000E+01 0.  1.
         -5    1    3    3    0  502  0.51713473451E+02  0.32093109912E+02 -0.29460278374E+03  0.30085299338E+03  0.41800000000E+01 0.  1.
        -11    1    1    2    0    0 -0.25896713605E+02 -0.41091458534E+02 -0.90137717147E+02  0.10239119001E+03  0.00000000000E+00 0.  1.
         11    1    1    2    0    0  0.13474773527E+02  0.36069483795E+02 -0.23476610195E+02  0.45096878042E+02  0.00000000000E+00 0. -1.
</event>
<event>
 7    1  0.2788485E-009  0.1264143E+03  0.7561462E-02  0.1232875E+00
          1   -1    0    0  501    0  0.00000000000E+00  0.00000000000E+00  0.30286726280E+03  0.30286726280E+03  0.00000000000E+00 0. -1.
         -1   -1    0    0    0  501 -0.00000000000E+00 -0.00000000000E+00 -0.86553000993E+02  0.86553000993E+02  0.00000000000E+00 0.  1.
         25    2    1    2    0    0  0.12195128754E+02 -0.62339457422E+02 -0.54825977832E+01  0.14040289998E+03  0.12509191152E+03 0.  0.
          5    1    3    3  502    0 -0.50485087406E+02 -0.58456811508E+02 -0.24979578107E+01  0.77392861785E+02  0.41800000000E+01 0.  1.
         -5    1    3    3    0  502  0.62680216160E+02 -0.38826459135E+01 -0.29846399725E+01  0.63010038192E+02  0.41800000000E+01 0.  1.
        -11    1    1    2    0    0  0.33900481656E+02  0.56748528795E+02  0.11673053268E+03  0.13414788644E+03  0.00000000000E+00 0.  1.
         11    1    1    2    0    0 -0.46095610410E+02  0.55909286268E+01  0.10506632691E+03  0.11486947737E+03  0.00000000000E+00 0. -1.
</event>
<event>
 7    1  0.2788485E-009  0.2459886E+03  0.7561462E-02  0.1115866E+00
         -1   -1    0    0    0  501 -0.00000000000E+00  0.00000000000E+00  0.13443739914E+03  0.13443739914E+03  0.00000000000E+00 0.  1.
          1   -1    0    0  501    0  0.00000000000E+00 -0.00000000000E+00 -0.60974644525E+03  0.60974644525E+03  0.00000000000E+00 0. -1.
         25    2    1    2    0    0 -0.23899118085E+03 -0.50772624009E+01 -0.39123913283E+03  0.47524357158E+03  0.12508329285E+03 0.  0.
          5    1    3    3  502    0 -0.39162548316E+02 -0.93449987665E+01 -0.55986169908E+01  0.40863811677E+02  0.41800000000E+01 0.  1.
         -5    1    3    3    0  502 -0.19982863253E+03  0.42677363656E+01 -0.38564051584E+03  0.43437975990E+03  0.41800000000E+01 0.  1.
        -11    1    1    2    0    0  0.19820765047E+03  0.34637143200E+02 -0.85325023261E+02  0.21855517379E+03  0.00000000000E+00 0. -1.
         11    1    1    2    0    0  0.40783530372E+02 -0.29559880799E+02  0.12551099770E+01  0.50385099022E+02  0.00000000000E+00 0.  1.
</event>
<event>
 7    1  0.2788485E-009  0.1256599E+03  0.7561462E-02  0.1234042E+00
         -2   -1    0    0    0  501 -0.00000000000E+00  0.00000000000E+00  0.34132800963E+02  0.34132800963E+02  0.00000000000E+00 0. -1.
          2   -1    0    0  501    0  0.00000000000E+00 -0.00000000000E+00 -0.61129595065E+03  0.61129595065E+03  0.00000000000E+00 0.  1.
         25    2    1    2    0    0 -0.38873447024E+02 -0.65855729349E+02 -0.44234336175E+03  0.46600840517E+03  0.12509221412E+03 0.  0.
          5    1    3    3  502    0 -0.76179198235E+02 -0.26255687709E+02 -0.34602994073E+03  0.35531229033E+03  0.41800000000E+01 0. -1.
         -5    1    3    3    0  502  0.37305751211E+02 -0.39600041640E+02 -0.96313421023E+02  0.11069611484E+03  0.41800000000E+01 0. -1.
        -11    1    1    2    0    0 -0.13972999909E+02 -0.14343427151E+02 -0.38508621388E+02  0.43403831053E+02  0.00000000000E+00 0.  1.
         11    1    1    2    0    0  0.52846446932E+02  0.80199156500E+02 -0.96311166549E+02  0.13601651539E+03  0.00000000000E+00 0. -1.
</event>
<event>
 7    1  0.2788485E-009  0.1012405E+03  0.7561462E-02  0.1277709E+00
          4   -1    0    0  501    0  0.00000000000E+00  0.00000000000E+00  0.84908962957E+03  0.84908962957E+03  0.00000000000E+00 0. -1.
         -4   -1    0    0    0  501 -0.00000000000E+00 -0.00000000000E+00 -0.17845566383E+02  0.17845566383E+02  0.00000000000E+00 0.  1.
         25    2    1    2    0    0 -0.44407994562E+02  0.15978740305E+02  0.57448446347E+03  0.58983642893E+03  0.12508886443E+03 0.  0.
          5    1    3    3  502    0  0.25712032744E+02  0.45009889063E+02  0.32156314584E+03  0.32574119774E+03  0.41800000000E+01 0.  1.
         -5    1    3    3    0  502 -0.70120027306E+02 -0.29031148758E+02  0.25292131762E+03  0.26409523119E+03  0.41800000000E+01 0.  1.
        -11    1    1    2    0    0  0.14249326818E+02  0.21852628740E+02  0.14083148428E+02  0.29646513577E+02  0.00000000000E+00 0.  1.
         11    1    1    2    0    0  0.30158667744E+02 -0.37831369046E+02  0.24267645129E+03  0.24745225345E+03  0.00000000000E+00 0. -1.
</event>
<event>
 7    1  0.2788485E-009  0.1785546E+03  0.7561462E-02  0.1169209E+00
          1   -1    0    0  501    0  0.00000000000E+00  0.00000000000E+00  0.16755645852E+04  0.16755645852E+04  0.00000000000E+00 0. -1.
         -1   -1    0    0    0  501 -0.00000000000E+00 -0.00000000000E+00 -0.26604969081E+02  0.26604969081E+02  0.00000000000E+00 0.  1.
         25    2    1    2    0    0 -0.82022022413E+02 -0.13463863134E+03  0.12127137672E+04  0.12292995680E+04  0.12509026143E+03 0.  0.
          5    1    3    3  502    0  0.13517591618E+02 -0.37390729504E+02  0.91919391248E+02  0.10023691348E+03  0.41800000000E+01 0. -1.
         -5    1    3    3    0  502 -0.95539614030E+02 -0.97247901834E+02  0.11207943759E+04  0.11290626545E+04  0.41800000000E+01 0. -1.
        -11    1    1    2    0    0  0.66763872217E+02  0.14677356586E+03  0.36550442067E+03  0.39949139640E+03  0.00000000000E+00 0.  1.
         11    1    1    2    0    0  0.15258150195E+02 -0.12134934519E+02  0.70741428271E+02  0.73378589908E+02  0.00000000000E+00 0. -1.
</event>
<event>
 7    1  0.2788485E-009  0.2769158E+03  0.7561462E-02  0.1097386E+00
          2   -1    0    0  501    0  0.00000000000E+00  0.00000000000E+00  0.21887532235E+03  0.21887532235E+03  0.00000000000E+00 0. -1.
         -2   -1    0    0    0  501 -0.00000000000E+00 -0.00000000000E+00 -0.43928294627E+03  0.43928294627E+03  0.00000000000E+00 0.  1.
         25    2    1    2    0    0 -0.18347389994E+03 -0.19072880775E+03  0.13099780070E+02  0.29301172391E+03  0.12507644081E+03 0.  0.
          5    1    3    3  502    0 -0.34629044067E+02  0.17694542274E+01 -0.29776786183E+02  0.45895871891E+02  0.41800000000E+01 0.  1.
         -5    1    3    3    0  502 -0.14884485587E+03 -0.19249826198E+03  0.42876566253E+02  0.24711585202E+03  0.41800000000E+01 0.  1.
        -11    1    1    2    0    0  0.88608972824E+02  0.14570132523E+03 -0.17746712447E+03  0.24611990270E+03  0.00000000000E+00 0.  1.
         11    1    1    2    0    0  0.94864927112E+02  0.45027482523E+02 -0.56040279517E+02  0.11902664200E+03  0.00000000000E+00 0. -1.
</event>
<event>
 7    1  0.2788485E-009  0.1290074E+03  0.7561462E-02  0.1228936E+00
          1   -1    0    0  501    0  0.00000000000E+00  0.00000000000E+00  0.28255012563E+03  0.28255012563E+03  0.00000000000E+00 0. -1.
         -1   -1    0    0    0  501 -0.00000000000E+00 -0.00000000000E+00 -0.77175637452E+02  0.77175637452E+02  0.00000000000E+00 0.  1.
         25    2    1    2    0    0  0.89041661169E+02  0.42067072324E+02  0.79970534203E+02  0.17816002019E+03  0.12509056901E+03 0.  0.
          5    1    3    3  502    0  0.25099747104E+02 -0.24857028784E+02 -0.20849036049E+02  0.41231345949E+02  0.41800000000E+01 0. -1.
         -5    1    3    3    0  502  0.63941914065E+02  0.66924101108E+02  0.10081957025E+03  0.13692867424E+03  0.41800000000E+01 0. -1.
        -11    1    1    2    0    0 -0.21234740665E+02 -0.56590722549E+02  0.44791613991E+02  0.75231062558E+02  0.00000000000E+00 0. -1.
         11    1    1    2    0    0 -0.67806920504E+02  0.14523650225E+02  0.80612339981E+02  0.10633468033E+03  0.00000000000E+00 0.  1.
</event>
<event>
 7    1  0.2788485E-009  0.7893408E+02  0.7561462E-02  0.1332104E+00
         -2   -1    0    0    0  501 -0.00000000000E+00  0.00000000000E+00  0.17049607185E+03  0.17049607185E+03  0.00000000000E+00 0.  1.
          2   -1    0    0  501    0  0.00000000000E+00 -0.00000000000E+00 -0.13727035677E+03  0.13727035677E+03  0.00000000000E+00 0. -1.
         25    2    1    2    0    0  0.59640242680E+02 -0.30402038922E+02  0.10274174765E+03  0.17517058247E+03  0.12509046221E+03 0.  0.
          5    1    3    3  502    0  0.29804666843E+02 -0.69560324949E+00 -0.25923225364E+02  0.39727673513E+02  0.41800000000E+01 0.  1.
         -5    1    3    3    0  502  0.29835575837E+02 -0.29706435673E+02  0.12866497302E+03  0.13544290896E+03  0.41800000000E+01 0.  1.
        -11    1    1    2    0    0 -0.54732506273E+02  0.75015941593E-01 -0.82694768050E+02  0.99166917534E+02  0.00000000000E+00 0.  1.
         11    1    1    2    0    0 -0.49077364068E+01  0.30327022981E+02  0.13178735471E+02  0.33428928612E+02  0.00000000000E+00 0. -1.
</event>
<event>
 7    1  0.2788485E-009  0.8783797E+02  0.7561462E-02  0.1308173E+00
          2   -1    0    0  501    0  0.00000000000E+00  0.00000000000E+00  0.18488089187E+03  0.18488089187E+03  0.00000000000E+00 0. -1.
         -2   -1    0    0    0  501 -0.00000000000E+00 -0.00000000000E+00 -0.77118532525E+02  0.77118532525E+02  0.00000000000E+00 0.  1.
         25    2    1    2    0    0  0.15654425601E+02 -0.24454309035E+02  0.97018941105E+02  0.16094544675E+03  0.12509071758E+03 0.  0.
          5    1    3    3  502    0  0.41082135031E+02 -0.34749632433E+02  0.11558059348E+03  0.12756027894E+03  0.41800000000E+01 0. -1.
         -5    1    3    3    0  502 -0.25427709429E+02  0.10295323398E+02 -0.18561652377E+02  0.33385167809E+02  0.41800000000E+01 0. -1.
        -11    1    1    2    0    0 -0.36203302469E+02 -0.22553428568E+02  0.22783462874E+02  0.48357237621E+02  0.00000000000E+00 0. -1.
         11    1    1    2    0    0  0.20548876868E+02  0.47007737603E+02 -0.12040044631E+02  0.52696740030E+02  0.00000000000E+00 0.  1.
</event>
<event>
 7    1  0.2788485E-009  0.9498473E+02  0.7561462E-02  0.1291210E+00
          3   -1    0    0  501    0  0.00000000000E+00  0.00000000000E+00  0.37796972763E+03  0.37796972763E+03  0.00000000000E+00 0. -1.
         -3   -1    0    0    0  501 -0.00000000000E+00 -0.00000000000E+00 -0.42096094948E+02  0.42096094948E+02  0.00000000000E+00 0.  1.
         25    2    1    2    0    0  0.21985167620E+01 -0.60625486539E+02  0.21248496081E+03  0.25392467192E+03  0.12509035673E+03 0.  0.
          5    1    3    3  502    0  0.28456904624E+02 -0.48492066732E+02  0.20909777520E+02  0.60132912391E+02  0.41800000000E+01 0. -1.
         -5    1    3    3    0  502 -0.26258387862E+02 -0.12133419807E+02  0.19157518329E+03  0.19379175953E+03  0.41800000000E+01 0. -1.
        -11    1    1    2    0    0  0.37128483379E+02  0.68725194920E+01  0.18886839540E+02  0.42219290733E+02  0.00000000000E+00 0. -1.
         11    1    1    2    0    0 -0.39327000141E+02  0.53752967047E+02  0.10450183233E+03  0.12392185993E+03  0.00000000000E+00 0.  1.
</event>
<event>
 7    1  0.2788485E-009  0.8342052E+02  0.7561462E-02  0.1319615E+00
          2   -1    0    0  501    0  0.00000000000E+00  0.00000000000E+00  0.94886675085E+02  0.94886675085E+02  0.00000000000E+00 0. -1.
         -2   -1    0    0    0  501 -0.00000000000E+00 -0.00000000000E+00 -0.13935855995E+03  0.13935855995E+03  0.00000000000E+00 0.  1.
         25    2    1    2    0    0  0.30727322775E+02 -0.78341936069E+01  0.72049072304E+01  0.12924750397E+03  0.12508982229E+03 0.  0.
          5    1    3    3  502    0  0.61077464078E+02  0.77802826271E+01  0.46323364892E+02  0.77164214185E+02  0.41800000000E+01 0. -1.
         -5    1    3    3    0  502 -0.30350141303E+02 -0.15614476234E+02 -0.39118457661E+02  0.52083289786E+02  0.41800000000E+01 0. -1.
        -11    1    1    2    0    0 -0.30814036496E+02 -0.23907059079E+02  0.57110918423E+01  0.39416606767E+02  0.00000000000E+00 0. -1.
         11    1    1    2    0    0  0.86713721034E-01  0.31741252686E+02 -0.57387883938E+02  0.65581124298E+02  0.00000000000E+00 0.  1.
</event>
<event>
 7    1  0.2788485E-009  0.1109193E+03  0.7561462E-02  0.1258877E+00
          1   -1    0    0  501    0  0.00000000000E+00  0.00000000000E+00  0.66346598847E+03  0.66346598847E+03  0.00000000000E+00 0. -1.
         -1   -1    0    0    0  501 -0.00000000000E+00 -0.00000000000E+00 -0.22256493031E+02  0.22256493031E+02  0.00000000000E+00 0.  1.
         25    2    1    2    0    0  0.24009370902E+02 -0.60727774688E+01  0.49128104666E+03  0.50756077038E+03  0.12509012872E+03 0.  0.
          5    1    3    3  502    0  0.64659308435E+02 -0.38475498758E+02  0.29334430974E+03  0.30286886045E+03  0.41800000000E+01 0.  1.
         -5    1    3    3    0  502 -0.40649937533E+02  0.32402721289E+02  0.19793673692E+03  0.20469190993E+03  0.41800000000E+01 0.  1.
        -11    1    1    2    0    0  0.27501969840E+02 -0.22402745287E+02  0.74262932295E+02  0.82299601788E+02  0.00000000000E+00 0.  1.
         11    1    1    2    0    0 -0.51511340742E+02  0.28475522756E+02  0.75665516483E+02  0.95862109334E+02  0.00000000000E+00 0. -1.
</event>
<event>
 7    1  0.2788485E-009  0.1026323E+03  0.7561462E-02  0.1274856E+00
         -2   -1    0    0    0  501 -0.00000000000E+00  0.00000000000E+00  0.10984614541E+03  0.10984614541E+03  0.00000000000E+00 0.  1.
          2   -1    0    0  501    0  0.00000000000E+00 -0.00000000000E+00 -0.13590543009E+03  0.13590543009E+03  0.00000000000E+00 0. -1.
         25    2    1    2    0    0  0.81383148968E+00 -0.33597727877E+02  0.30805104461E+02  0.13313437014E+03  0.12508531653E+03 0.  0.
          5    1    3    3  502    0  0.91776328522E+01  0.36504954164E+02  0.47219600458E+02  0.60531014288E+02  0.41800000000E+01 0.  1.
         -5    1    3    3    0  502 -0.83638013625E+01 -0.70102682041E+02 -0.16414495997E+02  0.72603355855E+02  0.41800000000E+01 0.  1.
        -11    1    1    2    0    0 -0.39339619313E+02 -0.78132969242E+01 -0.29475434677E+02  0.49774034455E+02  0.00000000000E+00 0. -1.
         11    1    1    2    0    0  0.38525787824E+02  0.41411024801E+02 -0.27388954461E+02  0.62843170902E+02  0.00000000000E+00 0.  1.
</event>
<event>
 7    1  0.2788485E-009  0.1089078E+03  0.7561462E-02  0.1262606E+00
          2   -1    0    0  501    0  0.00000000000E+00  0.00000000000E+00  0.14666147217E+04  0.14666147217E+04  0.00000000000E+00 0. -1.
         -2   -1    0    0    0  501 -0.00000000000E+00 -0.00000000000E+00 -0.12716430757E+02  0.12716430757E+02  0.00000000000E+00 0.  1.
         25    2    1    2    0    0  0.22668335055E+02 -0.84960188488E+02  0.96322507738E+03  0.97528591381E+03  0.12509187401E+03 0.  0.
          5    1    3    3  502    0  0.54339208449E+02 -0.36018422151E+02  0.21311877893E+03  0.22290617453E+03  0.41800000000E+01 0. -1.
         -5    1    3    3    0  502 -0.31670873394E+02 -0.48941766338E+02  0.75010629845E+03  0.75237973929E+03  0.41800000000E+01 0. -1.
        -11    1    1    2    0    0 -0.12291463479E+02  0.47686298953E+01  0.98165144929E+01  0.16437270525E+02  0.00000000000E+00 0.  1.
         11    1    1    2    0    0 -0.10376871576E+02  0.80191558593E+02  0.48085669911E+03  0.48760796816E+03  0.00000000000E+00 0. -1.
</event>
<event>
 7    1  0.2788485E-009  0.1090489E+03  0.7561462E-02  0.1262341E+00
         -2   -1    0    0    0  501 -0.00000000000E+00  0.00000000000E+00  0.10138094135E+03  0.10138094135E+03  0.00000000000E+00 0. -1.
          2   -1    0    0  501    0  0.00000000000E+00 -0.00000000000E+00 -0.17917562288E+03  0.17917562288E+03  0.00000000000E+00 0.  1.
         25    2    1    2    0    0  0.67127363408E+02  0.25586367661E+00 -0.86001812867E+02  0.16598550155E+03  0.12509487010E+03 0.  0.
          5    1    3    3  502    0  0.88412111800E+02  0.39547218045E+02 -0.62213805912E+02  0.11518990413E+03  0.41800000000E+01 0. -1.
         -5    1    3    3    0  502 -0.21284748392E+02 -0.39291354369E+02 -0.23788006955E+02  0.50795597419E+02  0.41800000000E+01 0. -1.
        -11    1    1    2    0    0 -0.27439750779E+01 -0.10701107837E+02 -0.34754736940E+02  0.36468271798E+02  0.00000000000E+00 0.  1.
         11    1    1    2    0    0 -0.64383388330E+02  0.10445244160E+02  0.42961868270E+02  0.78102790883E+02  0.00000000000E+00 0. -1.
</event>
<event>
 7    1  0.2788485E-009  0.9107995E+02  0.7561462E-02  0.1300257E+00
         -2   -1    0    0    0  501 -0.00000000000E+00  0.00000000000E+00  0.25197143313E+02  0.25197143313E+02  0.00000000000E+00 0. -1.
          2   -1    0    0  501    0  0.00000000000E+00 -0.00000000000E+00 -0.58308618933E+03  0.58308618933E+03  0.00000000000E+00 0.  1.
         25    2    1    2    0    0 -0.54735381012E+02  0.11361420643E+02 -0.29308305395E+03  0.32352785647E+03  0.12509018181E+03 0.  0.
          5    1    3    3  502    0  0.18841795535E+02 -0.24044738617E-01 -0.21386300802E+03  0.21473209457E+03  0.41800000000E+01 0. -1.
         -5    1    3    3    0  502 -0.73577176547E+02  0.11385465382E+02 -0.79220045926E+02  0.10879576190E+03  0.41800000000E+01 0. -1.
        -11    1    1    2    0    0 -0.32425348774E+01  0.21434922582E+02 -0.15359833128E+02  0.26568673513E+02  0.00000000000E+00 0.  1.
         11    1    1    2    0    0  0.57977915890E+02 -0.32796343225E+02 -0.24944615894E+03  0.25818680266E+03  0.00000000000E+00 0. -1.
</event>
<event>
 7    1  0.2788485E-009  0.1306814E+03  0.7561462E-02  0.1226448E+00
         -2   -1    0    0    0  501 -0.00000000000E+00  0.00000000000E+00  0.13425354078E+03  0.13425354078E+03  0.00000000000E+00 0. -1.
          2   -1    0    0  501    0  0.00000000000E+00 -0.00000000000E+00 -0.29977026238E+03  0.29977026238E+03  0.00000000000E+00 0.  1.
         25    2    1    2    0    0 -0.45543131043E+02 -0.57462693402E+02 -0.25063748942E+03  0.28955683492E+03  0.12509145305E+03 0.  0.
          5    1    3    3  502    0 -0.73558706139E+02  0.74279196241E+01 -0.12171342738E+03  0.14246995488E+03  0.41800000000E+01 0. -1.
         -5    1    3    3    0  502  0.28015575096E+02 -0.64890613026E+02 -0.12892406204E+03  0.14708688004E+03  0.41800000000E+01 0. -1.
        -11    1    1    2    0    0  0.53932526377E+02  0.77710137024E+02  0.65552104336E+02  0.11508545165E+03  0.00000000000E+00 0.  1.
         11    1    1    2    0    0 -0.83893953341E+01 -0.20247443622E+02  0.19568663481E+02  0.29381516600E+02  0.00000000000E+00 0. -1.
</event>
<event>
 7    1  0.2788485E-009  0.1312719E+03  0.7561462E-02  0.1225581E+00
          2   -1    0    0  501    0  0.00000000000E+00  0.00000000000E+00  0.53605498236E+03  0.53605498236E+03  0.00000000000E+00 0. -1.
         -2   -1    0    0    0  501 -0.00000000000E+00 -0.00000000000E+00 -0.61648445707E+02  0.61648445707E+02  0.00000000000E+00 0.  1.
         25    2    1    2    0    0 -0.10039818283E+03  0.58115273719E+02  0.10569207213E+03  0.20068414306E+03  0.12508449548E+03 0.  0.
          5    1    3    3  502    0 -0.69664203353E+02  0.78286776991E+02  0.12145224682E+03  0.16046819417E+03  0.41800000000E+01 0. -1.
         -5    1    3    3    0  502 -0.30733979478E+02 -0.20171503272E+02 -0.15760174698E+02  0.40215948892E+02  0.41800000000E+01 0. -1.
        -11    1    1    2    0    0  0.69474677933E+02 -0.21468456952E+02  0.97671983879E+02  0.12176798410E+03  0.00000000000E+00 0.  1.
         11    1    1    2    0    0  0.30923504899E+02 -0.36646816767E+02  0.27104248065E+03  0.27525130091E+03  0.00000000000E+00 0. -1.
</event>
<event>
 7    1  0.2788485E-009  0.1099014E+03  0.7561462E-02  0.1260753E+00
          2   -1    0    0  501    0  0.00000000000E+00  0.00000000000E+00  0.53203349838E+03  0.53203349838E+03  0.00000000000E+00 0. -1.
         -2   -1    0    0    0  501 -0.00000000000E+00 -0.00000000000E+00 -0.27446885222E+02  0.27446885222E+02  0.00000000000E+00 0.  1.
         25    2    1    2    0    0  0.52430835074E+02 -0.91580691528E+00  0.30334906191E+03  0.33229188807E+03  0.12508962525E+03 0.  0.
          5    1    3    3  502    0  0.28928100486E+02  0.50527284844E+02  0.24117355049E+03  0.24813704957E+03  0.41800000000E+01 0. -1.
         -5    1    3    3    0  502  0.23502734588E+02 -0.51443091759E+02  0.62175511419E+02  0.84154838501E+02  0.41800000000E+01 0. -1.
        -11    1    1    2    0    0 -0.20823537953E+02 -0.44647989557E+02  0.81492155071E+02  0.95226225602E+02  0.00000000000E+00 0.  1.
         11    1    1    2    0    0 -0.31607297122E+02  0.45563796472E+02  0.11974539618E+03  0.13196226994E+03  0.00000000000E+00 0. -1.
</event>
<event>
 7    1  0.2788485E-009  0.4678557E+03  0.7561462E-02  0.1022527E+00
         -1   -1    0    0    0  501 -0.00000000000E+00  0.00000000000E+00  0.15916014599E+03  0.15916014599E+03  0.00000000000E+00 0.  1.
          1   -1    0    0  501    0  0.00000000000E+00 -0.00000000000E+00 -0.14769039392E+04  0.14769039392E+04  0.00000000000E+00 0. -1.
         25    2    1    2    0    0 -0.98243431057E+02 -0.44753635882E+03 -0.86441663991E+03  0.98630840268E+03  0.12509026191E+03 0.  0.
          5    1    3    3  502    0  0.24037885222E+02 -0.24983642929E+02 -0.69802260972E+02  0.78050178582E+02  0.41800000000E+01 0.  1.
         -5    1    3    3    0  502 -0.12228131628E+03 -0.42255271589E+03 -0.79461437894E+03  0.90825822409E+03  0.41800000000E+01 0.  1.
        -11    1    1    2    0    0  0.14444919448E+01  0.10283420315E+03 -0.65503807812E+02  0.12193321423E+03  0.00000000000E+00 0. -1.
         11    1    1    2    0    0  0.96798939112E+02  0.34470215567E+03 -0.38782334552E+03  0.52782246832E+03  0.00000000000E+00 0.  1.
</event>
<event>
 7    1  0.2788485E-009  0.1239958E+03  0.7561462E-02  0.1236647E+00
         -4   -1    0    0    0  501 -0.00000000000E+00  0.00000000000E+00  0.40059914704E+02  0.40059914704E+02  0.00000000000E+00 0.  1.
          4   -1    0    0  501    0  0.00000000000E+00 -0.00000000000E+00 -0.49596609834E+03  0.49596609834E+03  0.00000000000E+00 0. -1.
         25    2    1    2    0    0 -0.67628038931E+02  0.22848031840E+02 -0.14555964828E+03  0.20476982199E+03  0.12508990599E+03 0.  0.
          5    1    3    3  502    0 -0.89812203451E+02 -0.12247574785E+02 -0.13334395629E+03  0.16128954726E+03  0.41800000000E+01 0.  1.
         -5    1    3    3    0  502  0.22184164519E+02  0.35095606625E+02 -0.12215691995E+02  0.43480274732E+02  0.41800000000E+01 0.  1.
        -11    1    1    2    0    0 -0.10056824552E+02 -0.35426473339E+02 -0.11039347506E+03  0.11637394068E+03  0.00000000000E+00 0. -1.
         11    1    1    2    0    0  0.77684863484E+02  0.12578441498E+02 -0.19995306029E+03  0.21488225037E+03  0.00000000000E+00 0.  1.
</event>
<event>
 7    1  0.2788485E-009  0.1175897E+03  0.7561462E-02  0.1247127E+00
         -1   -1    0    0    0  501 -0.00000000000E+00  0.00000000000E+00  0.24569429801E+02  0.24569429801E+02  0.00000000000E+00 0.  1.
          1   -1    0    0  501    0  0.00000000000E+00 -0.00000000000E+00 -0.76479939825E+03  0.76479939825E+03  0.00000000000E+00 0. -1.
         25    2    1    2    0    0 -0.67477500527E+02  0.50520285737E+02 -0.43233865091E+03  0.45789691907E+03  0.12508943631E+03 0.  0.
          5    1    3    3  502    0 -0.69676309906E+02  0.71875312365E+01 -0.96906661844E+02  0.11964456643E+03  0.41800000000E+01 0.  1.
         -5    1    3    3    0  502  0.21988093793E+01  0.43332754500E+02 -0.33543198906E+03  0.33825235263E+03  0.41800000000E+01 0.  1.
        -11    1    1    2    0    0  0.44459899142E+02  0.18879321109E+02 -0.14733522867E+03  0.15505089811E+03  0.00000000000E+00 0.  1.
         11    1    1    2    0    0  0.23017601385E+02 -0.69399606845E+02 -0.16055608887E+03  0.17642101088E+03  0.00000000000E+00 0. -1.
</event>
<event>
 7    1  0.2788485E-009  0.1028900E+03  0.7561462E-02  0.1274334E+00
          1   -1    0    0  501    0  0.00000000000E+00  0.00000000000E+00  0.34229806836E+03  0.34229806836E+03  0.00000000000E+00 0.  1.
         -1   -1    0    0    0  501 -0.00000000000E+00 -0.00000000000E+00 -0.67266908305E+02  0.67266908305E+02  0.00000000000E+00 0. -1.
         25    2    1    2    0    0 -0.41237105299E+02 -0.52765284177E+01  0.27900401541E+03  0.30857449892E+03  0.12508653072E+03 0.  0.
          5    1    3    3  502    0 -0.22318000586E+01  0.50136485184E+02  0.19041160268E+03  0.19695862234E+03  0.41800000000E+01 0. -1.
         -5    1    3    3    0  502 -0.39005305241E+02 -0.55413013602E+02  0.88592412727E+02  0.11161587659E+03  0.41800000000E+01 0. -1.
        -11    1    1    2    0    0  0.30210068322E+01  0.37449484504E+02  0.23166003591E+02  0.44139031416E+02  0.00000000000E+00 0.  1.
         11    1    1    2    0    0  0.38216098467E+02 -0.32172956087E+02 -0.27138858938E+02  0.56851446330E+02  0.00000000000E+00 0. -1.
</event>
<event>
 7    1  0.2788485E-009  0.1117103E+03  0.7561462E-02  0.1257435E+00
          2   -1    0    0  501    0  0.00000000000E+00  0.00000000000E+00  0.35357784260E+03  0.35357784260E+03  0.00000000000E+00 0. -1.
         -2   -1    0    0    0  501 -0.00000000000E+00 -0.00000000000E+00 -0.62902538604E+02  0.62902538604E+02  0.00000000000E+00 0.  1.
         25    2    1    2    0    0 -0.14824597970E+02 -0.55883275750E+02  0.39709651725E+02  0.14341134195E+03  0.12508895774E+03 0.  0.
          5    1    3    3  502    0 -0.54212394049E+02  0.17781242413E+01 -0.12864575938E+02  0.55902728989E+02  0.41800000000E+01 0. -1.
         -5    1    3    3    0  502  0.39387796078E+02 -0.57661399991E+02  0.52574227662E+02  0.87508612965E+02  0.41800000000E+01 0. -1.
        -11    1    1    2    0    0 -0.17068163098E+02 -0.14110614169E+02  0.20765420670E+02  0.30358430780E+02  0.00000000000E+00 0.  1.
         11    1    1    2    0    0  0.31892761069E+02  0.69993889919E+02  0.23020023160E+03  0.24271060847E+03  0.00000000000E+00 0. -1.
</event>
<event>
 7    1  0.2788485E-009  0.9839022E+02  0.7561462E-02  0.1283718E+00
          2   -1    0    0  501    0  0.00000000000E+00  0.00000000000E+00  0.10465354755E+03  0.10465354755E+03  0.00000000000E+00 0. -1.
         -2   -1    0    0    0  501 -0.00000000000E+00 -0.00000000000E+00 -0.16921675308E+03  0.16921675308E+03  0.00000000000E+00 0.  1.
         25    2    1    2    0    0  0.40966384175E+02  0.65188240723E+02 -0.24393807383E+02  0.14889746172E+03  0.12509054684E+03 0.  0.
          5    1    3    3  502    0  0.12892862245E+02  0.36084992825E+02  0.50590720213E+02  0.63602248197E+02  0.41800000000E+01 0. -1.
         -5    1    3    3    0  502  0.28073521930E+02  0.29103247897E+02 -0.74984527596E+02  0.85295213526E+02  0.41800000000E+01 0. -1.
        -11    1    1    2    0    0 -0.64873133295E+02 -0.22516425150E+02 -0.16448748755E+02  0.70612138905E+02  0.00000000000E+00 0.  1.
         11    1    1    2    0    0  0.23906749120E+02 -0.42671815572E+02 -0.23720649386E+02  0.54360700005E+02  0.00000000000E+00 0. -1.
</event>
<event>
 7    1  0.2788485E-009  0.1532640E+03  0.7561462E-02  0.1196519E+00
          2   -1    0    0  501    0  0.00000000000E+00  0.00000000000E+00  0.52389807848E+03  0.52389807848E+03  0.00000000000E+00 0.  1.
         -2   -1    0    0    0  501 -0.00000000000E+00 -0.00000000000E+00 -0.62617711910E+02  0.62617711910E+02  0.00000000000E+00 0. -1.
         25    2    1    2    0    0  0.22428530743E+02  0.11898997029E+03  0.11219154399E+03  0.20711049406E+03  0.12508462011E+03 0.  0.
          5    1    3    3  502    0 -0.46184283606E+02  0.21673356457E+02  0.54372958494E+02  0.74676726279E+02  0.41800000000E+01 0. -1.
         -5    1    3    3    0  502  0.68612814349E+02  0.97316613829E+02  0.57818585497E+02  0.13243376778E+03  0.41800000000E+01 0. -1.
        -11    1    1    2    0    0 -0.34172967910E+02 -0.27255303994E+02  0.19375412812E+03  0.19862352704E+03  0.00000000000E+00 0.  1.
         11    1    1    2    0    0  0.11744437167E+02 -0.91734666292E+02  0.15533469447E+03  0.18078176930E+03  0.00000000000E+00 0. -1.
</event>
<event>
 7    1  0.2788485E-009  0.1063434E+03  0.7561462E-02  0.1267495E+00
         -1   -1    0    0    0  501 -0.00000000000E+00  0.00000000000E+00  0.62505827566E+02  0.62505827566E+02  0.00000000000E+00 0.  1.
          1   -1    0    0  501    0  0.00000000000E+00 -0.00000000000E+00 -0.32869402588E+03  0.32869402588E+03  0.00000000000E+00 0. -1.
         25    2    1    2    0    0 -0.90286776643E+02 -0.12261209230E+02 -0.14694043657E+03  0.21340277276E+03  0.12508881739E+03 0.  0.
          5    1    3    3  502    0 -0.82337417917E+02  0.20573427833E+02 -0.15646975685E+03  0.17805328846E+03  0.41800000000E+01 0. -1.
         -5    1    3    3    0  502 -0.79493587256E+01 -0.32834637062E+02  0.95293202873E+01  0.35349484300E+02  0.41800000000E+01 0. -1.
        -11    1    1    2    0    0  0.28750375086E+02  0.14286911081E+02  0.10831416825E+02  0.33882436250E+02  0.00000000000E+00 0.  1.
         11    1    1    2    0    0  0.61536401557E+02 -0.20257018514E+01 -0.13007917857E+03  0.14391464443E+03  0.00000000000E+00 0. -1.
</event>
<event>
 7    1  0.2788485E-009  0.1651257E+03  0.7561462E-02  0.1183028E+00
         -2   -1    0    0    0  501 -0.00000000000E+00  0.00000000000E+00  0.56290134462E+02  0.56290134462E+02  0.00000000000E+00 0.  1.
          2   -1    0    0  501    0  0.00000000000E+00 -0.00000000000E+00 -0.58497747392E+03  0.58497747392E+03  0.00000000000E+00 0. -1.
         25    2    1    2    0    0  0.12370389078E+03  0.72028588498E+02 -0.31725794898E+03  0.36985211000E+03  0.12508879616E+03 0.  0.
          5    1    3    3  502    0  0.83421184392E+02  0.74559772948E+01 -0.64335670378E+02  0.10569407025E+03  0.41800000000E+01 0.  1.
         -5    1    3    3    0  502  0.40282706388E+02  0.64572611203E+02 -0.25292227861E+03  0.26415803975E+03  0.41800000000E+01 0.  1.
        -11    1    1    2    0    0 -0.85527252100E+01  0.20653762537E+02 -0.29074440302E+02  0.36674924598E+02  0.00000000000E+00 0.  1.
         11    1    1    2    0    0 -0.11515116557E+03 -0.92682351035E+02 -0.18235495017E+03  0.23474057378E+03  0.00000000000E+00 0. -1.
</event>
<event>
 7    1  0.2788485E-009  0.1659160E+03  0.7561462E-02  0.1182175E+00
         -2   -1    0    0    0  501 -0.00000000000E+00  0.00000000000E+00  0.32792356425E+02  0.32792356425E+02  0.00000000000E+00 0.  1.
          2   -1    0    0  501    0  0.00000000000E+00 -0.00000000000E+00 -0.10793929260E+04  0.10793929260E+04  0.00000000000E+00 0. -1.
         25    2    1    2    0    0  0.11849647618E+03 -0.86123352182E+02 -0.40986781422E+03  0.45287726997E+03  0.12509016694E+03 0.  0.
          5    1    3    3  502    0  0.35283392456E+02 -0.90942207459E+02 -0.29609053425E+03  0.31177312224E+03  0.41800000000E+01 0.  1.
         -5    1    3    3    0  502  0.83213083725E+02  0.48188552770E+01 -0.11377727997E+03  0.14110414773E+03  0.41800000000E+01 0.  1.
        -11    1    1    2    0    0 -0.81691932972E+02  0.37848270924E+02 -0.51997701233E+03  0.52771408630E+03  0.00000000000E+00 0.  1.
         11    1    1    2    0    0 -0.36804543209E+02  0.48275081258E+02 -0.11675574301E+03  0.13159392614E+03  0.00000000000E+00 0. -1.
</event>
<event>
 7    1  0.2788485E-009  0.1894679E+03  0.7561462E-02  0.1158942E+00
          2   -1    0    0  501    0  0.00000000000E+00  0.00000000000E+00  0.31939228822E+03  0.31939228822E+03  0.00000000000E+00 0. -1.
         -2   -1    0    0    0  501 -0.00000000000E+00 -0.00000000000E+00 -0.16036456969E+03  0.16036456969E+03  0.00000000000E+00 0.  1.
         25    2    1    2    0    0 -0.49683149360E+02 -0.15137649923E+03  0.20710415027E+03  0.28969455919E+03  0.12509016234E+03 0.  0.
          5    1    3    3  502    0 -0.60739928241E+02 -0.21387304308E+02  0.34134831828E+02  0.73002841125E+02  0.41800000000E+01 0. -1.
         -5    1    3    3    0  502  0.11056778881E+02 -0.12998919493E+03  0.17296931844E+03  0.21669171807E+03  0.41800000000E+01 0. -1.
        -11    1    1    2    0    0  0.74185979974E+02  0.13609665637E+03 -0.40215262846E+02  0.16013471474E+03  0.00000000000E+00 0. -1.
         11    1    1    2    0    0 -0.24502830614E+02  0.15279842868E+02 -0.78611688918E+01  0.29927583974E+02  0.00000000000E+00 0.  1.
</event>
<event>
 7    1  0.2788485E-009  0.2131968E+03  0.7561462E-02  0.1139059E+00
         -1   -1    0    0    0  501 -0.00000000000E+00  0.00000000000E+00  0.50067123935E+02  0.50067123935E+02  0.00000000000E+00 0.  1.
          1   -1    0    0  501    0  0.00000000000E+00 -0.00000000000E+00 -0.11222562237E+04  0.11222562237E+04  0.00000000000E+00 0. -1.
         25    2    1    2    0    0  0.52440382530E+02  0.20451908170E+03 -0.52131930619E+03  0.57619306936E+03  0.12508631290E+03 0.  0.
          5    1    3    3  502    0 -0.22333957478E+01  0.57526439466E+02 -0.29636754603E+03  0.30193620855E+03  0.41800000000E+01 0.  1.
         -5    1    3    3    0  502  0.54673778278E+02  0.14699264223E+03 -0.22495176015E+03  0.27425686080E+03  0.41800000000E+01 0.  1.
        -11    1    1    2    0    0 -0.40491649922E+02 -0.12556980274E+03 -0.22695053086E+03  0.26251455680E+03  0.00000000000E+00 0. -1.
         11    1    1    2    0    0 -0.11948732608E+02 -0.78949278960E+02 -0.32391926277E+03  0.33361572153E+03  0.00000000000E+00 0.  1.
</event>
<event>
 7    1  0.2788485E-009  0.1295488E+03  0.7561462E-02  0.1228127E+00
          2   -1    0    0  501    0  0.00000000000E+00  0.00000000000E+00  0.95170644146E+03  0.95170644146E+03  0.00000000000E+00 0. -1.
         -2   -1    0    0    0  501 -0.00000000000E+00 -0.00000000000E+00 -0.39865833299E+02  0.39865833299E+02  0.00000000000E+00 0.  1.
         25    2    1    2    0    0 -0.95360776432E+02  0.42692208469E+02  0.79387028379E+03  0.81042852409E+03  0.12509221730E+03 0.  0.
          5    1    3    3  502    0 -0.75157512382E+02  0.65221393340E+02  0.75217207043E+03  0.75873762115E+03  0.41800000000E+01 0.  1.
         -5    1    3    3    0  502 -0.20203264049E+02 -0.22529184871E+02  0.41698213360E+02  0.51690902938E+02  0.41800000000E+01 0.  1.
        -11    1    1    2    0    0  0.43360213750E+02 -0.60103851646E+02  0.97811194396E+02  0.12271760619E+03  0.00000000000E+00 0. -1.
         11    1    1    2    0    0  0.52000562682E+02  0.17411643177E+02  0.20159129972E+02  0.58426144478E+02  0.00000000000E+00 0.  1.
</event>
<event>
 7    1  0.2788485E-009  0.1120276E+03  0.7561462E-02  0.1256861E+00
          2   -1    0    0  501    0  0.00000000000E+00  0.00000000000E+00  0.98693573982E+03  0.98693573982E+03  0.00000000000E+00 0. -1.
         -2   -1    0    0    0  501 -0.00000000000E+00 -0.00000000000E+00 -0.15309732092E+02  0.15309732092E+02  0.00000000000E+00 0.  1.
         25    2    1    2    0    0 -0.42325034227E+02  0.36327805924E+02  0.55214674071E+03  0.56888009235E+03  0.12508964063E+03 0.  0.
          5    1    3    3  502    0 -0.48239613831E+02 -0.33550243480E+02  0.34881176297E+03  0.35375103896E+03  0.41800000000E+01 0.  1.
         -5    1    3    3    0  502  0.59145796041E+01  0.69878049404E+02  0.20333497774E+03  0.21512905339E+03  0.41800000000E+01 0.  1.
        -11    1    1    2    0    0  0.59361006024E+02 -0.46185853295E+02  0.39428357614E+03  0.40139307479E+03  0.00000000000E+00 0. -1.
         11    1    1    2    0    0 -0.17035971797E+02  0.98580473714E+01  0.25195690876E+02  0.31972304761E+02  0.00000000000E+00 0.  1.
</event>
<event>
 7    1  0.2788485E-009  0.8560897E+02  0.7561462E-02  0.1313848E+00
          1   -1    0    0  501    0  0.00000000000E+00  0.00000000000E+00  0.85365939430E+03  0.85365939430E+03  0.00000000000E+00 0. -1.
         -1   -1    0    0    0  501 -0.00000000000E+00 -0.00000000000E+00 -0.21935542685E+02  0.21935542685E+02  0.00000000000E+00 0.  1.
         25    2    1    2    0    0 -0.35359847291E+02  0.40211342577E+02  0.26333355293E+03  0.29641115382E+03  0.12509093148E+03 0.  0.
          5    1    3    3  502    0 -0.35207442104E+02  0.22545693311E+02  0.11008966677E+02  0.43434341409E+02  0.41800000000E+01 0. -1.
         -5    1    3    3    0  502 -0.15240518726E+00  0.17665649266E+02  0.25232458625E+03  0.25297681242E+03  0.41800000000E+01 0. -1.
        -11    1    1    2    0    0 -0.21965008712E+02 -0.48390635754E+02  0.25283253871E+03  0.25835713241E+03  0.00000000000E+00 0. -1.
         11    1    1    2    0    0  0.57324856003E+02  0.81792931773E+01  0.31555775998E+03  0.32082665076E+03  0.00000000000E+00 0.  1.
</event>
<event>
 7    1  0.2788485E-009  0.1087279E+03  0.7561462E-02  0.1262944E+00
          1   -1    0    0  501    0  0.00000000000E+00  0.00000000000E+00  0.12408006331E+03  0.12408006331E+03  0.00000000000E+00 0. -1.
         -1   -1    0    0    0  501 -0.00000000000E+00 -0.00000000000E+00 -0.15400332360E+03  0.15400332360E+03  0.00000000000E+00 0.  1.
         25    2    1    2    0    0  0.50373475138E+02 -0.74086495434E+01 -0.86137847073E+02  0.16018703147E+03  0.12509109187E+03 0.  0.
          5    1    3    3  502    0 -0.33836479567E+02  0.19930832622E+02 -0.51789600800E+02  0.65128953543E+02  0.41800000000E+01 0. -1.
         -5    1    3    3    0  502  0.84209954705E+02 -0.27339482165E+02 -0.34348246273E+02  0.95058077924E+02  0.41800000000E+01 0. -1.
        -11    1    1    2    0    0 -0.31707022565E+02  0.40439754167E+02  0.16206695569E+01  0.51413379259E+02  0.00000000000E+00 0.  1.
         11    1    1    2    0    0 -0.18666452573E+02 -0.33031104624E+02  0.54593917224E+02  0.66482976184E+02  0.00000000000E+00 0. -1.
</event>
<event>
 7    1  0.2788485E-009  0.1065033E+03  0.7561462E-02  0.1267186E+00
         -4   -1    0    0    0  501 -0.00000000000E+00  0.00000000000E+00  0.46627287867E+03  0.46627287867E+03  0.00000000000E+00 0.  1.
          4   -1    0    0  501    0  0.00000000000E+00 -0.00000000000E+00 -0.27850711938E+02  0.27850711938E+02  0.00000000000E+00 0. -1.
         25    2    1    2    0    0  0.51357426116E+01 -0.23056475545E+02  0.31243079364E+03  0.33737204658E+03  0.12509564373E+03 0.  0.
          5    1    3    3  502    0 -0.27328776722E+02  0.44277505430E+02  0.13859543055E+03  0.14809971402E+03  0.41800000000E+01 0.  1.
         -5    1    3    3    0  502  0.32464519334E+02 -0.67333980974E+02  0.17383536309E+03  0.18927233256E+03  0.41800000000E+01 0.  1.
        -11    1    1    2    0    0  0.29401047080E+02  0.38219138153E+02  0.99777787638E+02  0.11081845964E+03  0.00000000000E+00 0.  1.
         11    1    1    2    0    0 -0.34536789692E+02 -0.15162662608E+02  0.26213585453E+02  0.45933084394E+02  0.00000000000E+00 0. -1.
</event>
<event>
 7    1  0.2788485E-009  0.9723575E+02  0.7561462E-02  0.1286219E+00
         -2   -1    0    0    0  501 -0.00000000000E+00  0.00000000000E+00  0.12240258508E+03  0.12240258508E+03  0.00000000000E+00 0. -1.
          2   -1    0    0  501    0  0.00000000000E+00 -0.00000000000E+00 -0.12515824205E+03  0.12515824205E+03  0.00000000000E+00 0.  1.
         25    2    1    2    0    0 -0.38115377209E+02 -0.84143123556E+01 -0.45896116919E+02  0.13884097164E+03  0.12508708656E+03 0.  0.
          5    1    3    3  502    0  0.84510489352E+01 -0.51985869305E+02 -0.52634443075E+02  0.74577529010E+02  0.41800000000E+01 0. -1.
         -5    1    3    3    0  502 -0.46566426144E+02  0.43571556950E+02  0.67383261557E+01  0.64263442627E+02  0.41800000000E+01 0. -1.
        -11    1    1    2    0    0 -0.18457841064E+02  0.10274109725E+02 -0.16268144042E+02  0.26662740631E+02  0.00000000000E+00 0.  1.
         11    1    1    2    0    0  0.56573218274E+02 -0.18597973695E+01  0.59408603989E+02  0.82057114865E+02  0.00000000000E+00 0. -1.
</event>
<event>
 7    1  0.2788485E-009  0.1008786E+03  0.7561462E-02  0.1278459E+00
          1   -1    0    0  501    0  0.00000000000E+00  0.00000000000E+00  0.66228718955E+03  0.66228718955E+03  0.00000000000E+00 0. -1.
         -1   -1    0    0    0  501 -0.00000000000E+00 -0.00000000000E+00 -0.22057979069E+02  0.22057979069E+02  0.00000000000E+00 0.  1.
         25    2    1    2    0    0 -0.27340648020E+01  0.53115134607E+02  0.34279735052E+03  0.36876250414E+03  0.12508824203E+03 0.  0.
          5    1    3    3  502    0 -0.19945055255E+02  0.83012541758E+02  0.14817276047E+03  0.17106000895E+03  0.41800000000E+01 0.  1.
         -5    1    3    3    0  502  0.17210990453E+02 -0.29897407151E+02  0.19462459006E+03  0.19770249518E+03  0.41800000000E+01 0.  1.
        -11    1    1    2    0    0 -0.21512387082E+02 -0.53090870500E+02  0.27979854621E+03  0.28560225803E+03  0.00000000000E+00 0. -1.
         11    1    1    2    0    0  0.24246451884E+02 -0.24264107401E-01  0.17633313748E+02  0.29980406459E+02  0.00000000000E+00 0.  1.
</event>
<event>
 7    1  0.2788485E-009  0.1281857E+03  0.7561462E-02  0.1230173E+00
          1   -1    0    0  501    0  0.00000000000E+00  0.00000000000E+00  0.12904515465E+04  0.12904515465E+04  0.00000000000E+00 0. -1.
         -1   -1    0    0    0  501 -0.00000000000E+00 -0.00000000000E+00 -0.19714098326E+02  0.19714098326E+02  0.00000000000E+00 0.  1.
         25    2    1    2    0    0 -0.90804865600E+02 -0.56040622056E+02  0.89249725030E+03  0.90751637924E+03  0.12509421198E+03 0.  0.
          5    1    3    3  502    0  0.62108056461E+01  0.19807353812E+02  0.37323160200E+03  0.37383178905E+03  0.41800000000E+01 0.  1.
         -5    1    3    3    0  502 -0.97015671246E+02 -0.75847975868E+02  0.51926564830E+03  0.53368459020E+03  0.41800000000E+01 0.  1.
        -11    1    1    2    0    0  0.90543163876E+01 -0.46355643367E+01 -0.77256626685E+00  0.10201272499E+02  0.00000000000E+00 0.  1.
         11    1    1    2    0    0  0.81750549212E+02  0.60676186392E+02  0.37901276418E+03  0.39244799312E+03  0.00000000000E+00 0. -1.
</event>
<event>
 7    1  0.2788485E-009  0.1519776E+03  0.7561462E-02  0.1198064E+00
          2   -1    0    0  501    0  0.00000000000E+00  0.00000000000E+00  0.26264622982E+03  0.26264622982E+03  0.00000000000E+00 0. -1.
         -2   -1    0    0    0  501 -0.00000000000E+00 -0.00000000000E+00 -0.11067341818E+03  0.11067341818E+03  0.00000000000E+00 0.  1.
         25    2    1    2    0    0 -0.10345940217E+03 -0.49547310588E+02  0.15503160036E+03  0.22987050781E+03  0.12508744687E+03 0.  0.
          5    1    3    3  502    0 -0.34001876002E+02 -0.81933541669E+02  0.10812727432E+03  0.13992216649E+03  0.41800000000E+01 0. -1.
         -5    1    3    3    0  502 -0.69457526172E+02  0.32386231082E+02  0.46904326041E+02  0.89948341324E+02  0.41800000000E+01 0. -1.
        -11    1    1    2    0    0  0.11285309264E+03  0.56976810495E+02 -0.14043043616E+02  0.12719820961E+03  0.00000000000E+00 0.  1.
         11    1    1    2    0    0 -0.93936904697E+01 -0.74294999076E+01  0.10984254892E+02  0.16250930590E+02  0.00000000000E+00 0. -1.
</event>
<event>
 7    1  0.2788485E-009  0.1075758E+03  0.7561462E-02  0.1265126E+00
         -1   -1    0    0    0  501 -0.00000000000E+00  0.00000000000E+00  0.36265559638E+02  0.36265559638E+02  0.00000000000E+00 0.  1.
          1   -1    0    0  501    0  0.00000000000E+00 -0.00000000000E+00 -0.49802603720E+03  0.49802603720E+03  0.00000000000E+00 0. -1.
         25    2    1    2    0    0 -0.76915679369E+02  0.11564628389E+02 -0.26659093779E+03  0.30457156130E+03  0.12507336040E+03 0.  0.
          5    1    3    3  502    0  0.24291404493E+02 -0.19027251516E+02 -0.22152722478E+02  0.38214187754E+02  0.41800000000E+01 0. -1.
         -5    1    3    3    0  502 -0.10120708386E+03  0.30591879905E+02 -0.24443821531E+03  0.26635737355E+03  0.41800000000E+01 0. -1.
        -11    1    1    2    0    0  0.25234493310E+02 -0.76667970007E+01  0.14217105839E+01  0.26411752873E+02  0.00000000000E+00 0.  1.
         11    1    1    2    0    0  0.51681186059E+02 -0.38978313886E+01 -0.19659125036E+03  0.20330828267E+03  0.00000000000E+00 0. -1.
</event>
<event>
 7    1  0.2788485E-009  0.1190515E+03  0.7561462E-02  0.1244670E+00
          2   -1    0    0  501    0  0.00000000000E+00  0.00000000000E+00  0.47920324778E+03  0.47920324778E+03  0.00000000000E+00 0. -1.
         -2   -1    0    0    0  501 -0.00000000000E+00 -0.00000000000E+00 -0.60223164213E+02  0.60223164213E+02  0.00000000000E+00 0.  1.
         25    2    1    2    0    0  0.91739156513E+01  0.10420190800E+03  0.99030934615E+02  0.19079103652E+03  0.12510753473E+03 0.  0.
          5    1    3    3  502    0  0.27244315044E+02  0.10236527845E+03  0.12172997378E+03  0.16142045053E+03  0.41800000000E+01 0.  1.
         -5    1    3    3    0  502 -0.18070399392E+02  0.18366295525E+01 -0.22699039164E+02  0.29370585988E+02  0.41800000000E+01 0.  1.
        -11    1    1    2    0    0 -0.26709083848E+02 -0.71870735583E+02  0.29345536826E+03  0.30330649672E+03  0.00000000000E+00 0. -1.
         11    1    1    2    0    0  0.17535168196E+02 -0.32331172418E+02  0.26493780695E+02  0.45328878754E+02  0.00000000000E+00 0.  1.
</event>
<event>
 7    1  0.2788485E-009  0.1913741E+03  0.7561462E-02  0.1157228E+00
         -2   -1    0    0    0  501 -0.00000000000E+00  0.00000000000E+00  0.15146329812E+02  0.15146329812E+02  0.00000000000E+00 0.  1.
          2   -1    0    0  501    0  0.00000000000E+00 -0.00000000000E+00 -0.27810969023E+04  0.27810969023E+04  0.00000000000E+00 0. -1.
         25    2    1    2    0    0  0.10238481660E+03  0.12455410202E+03 -0.18756982557E+04  0.18867662806E+04  0.12508667416E+03 0.  0.
          5    1    3    3  502    0  0.28468734485E+01  0.98165892816E+02 -0.10694046185E+04  0.10739126397E+04  0.41800000000E+01 0.  1.
         -5    1    3    3    0  502  0.99537943149E+02  0.26388209202E+02 -0.80629363719E+03  0.81285364088E+03  0.41800000000E+01 0.  1.
        -11    1    1    2    0    0 -0.70095033864E+02 -0.13089744488E+03 -0.79373808908E+03  0.80750703335E+03  0.00000000000E+00 0. -1.
         11    1    1    2    0    0 -0.32289782733E+02  0.63433428626E+01 -0.96514227747E+02  0.10196991824E+03  0.00000000000E+00 0.  1.
</event>
<event>
 7    1  0.2788485E-009  0.9464809E+02  0.7561462E-02  0.1291971E+00
          1   -1    0    0  501    0  0.00000000000E+00  0.00000000000E+00  0.35167399786E+03  0.35167399786E+03  0.00000000000E+00 0. -1.
         -1   -1    0    0    0  501 -0.00000000000E+00 -0.00000000000E+00 -0.60671417653E+02  0.60671417653E+02  0.00000000000E+00 0.  1.
         25    2    1    2    0    0  0.41077255233E+02 -0.23635220493E+02  0.27884662440E+03  0.30927096629E+03  0.12508847311E+03 0.  0.
          5    1    3    3  502    0  0.43616894425E+02  0.20845341600E+02  0.31367027886E+02  0.57778236249E+02  0.41800000000E+01 0. -1.
         -5    1    3    3    0  502 -0.25396391923E+01 -0.44480562093E+02  0.24747959652E+03  0.25149273004E+03  0.41800000000E+01 0. -1.
        -11    1    1    2    0    0  0.96847654488E+01 -0.24329749413E+02  0.19785102714E+02  0.32820446031E+02  0.00000000000E+00 0. -1.
         11    1    1    2    0    0 -0.50762020682E+02  0.47964969906E+02 -0.76291469099E+01  0.70254003191E+02  0.00000000000E+00 0.  1.
</event>
<event>
 7    1  0.2788485E-009  0.1144477E+03  0.7561462E-02  0.1252548E+00
         -1   -1    0    0    0  501 -0.00000000000E+00  0.00000000000E+00  0.17956434674E+03  0.17956434674E+03  0.00000000000E+00 0.  1.
          1   -1    0    0  501    0  0.00000000000E+00 -0.00000000000E+00 -0.90436457204E+02  0.90436457204E+02  0.00000000000E+00 0. -1.
         25    2    1    2    0    0  0.29051902519E+02  0.50056893044E+02  0.12732733639E+02  0.13841586875E+03  0.12508846723E+03 0.  0.
          5    1    3    3  502    0  0.59112575719E+02 -0.60964984579E+01 -0.24619515738E+02  0.64459730505E+02  0.41800000000E+01 0.  1.
         -5    1    3    3    0  502 -0.30060673200E+02  0.56153391502E+02  0.37352249377E+02  0.73956138244E+02  0.41800000000E+01 0.  1.
        -11    1    1    2    0    0  0.20424495202E+02  0.13845358301E+02  0.87065609343E+01  0.26165973210E+02  0.00000000000E+00 0.  1.
         11    1    1    2    0    0 -0.49476397721E+02 -0.63902251345E+02  0.67688594966E+02  0.10541896199E+03  0.00000000000E+00 0. -1.
</event>
<event>
 7    1  0.2788485E-009  0.9417932E+02  0.7561462E-02  0.1293035E+00
          2   -1    0    0  501    0  0.00000000000E+00  0.00000000000E+00  0.20162806214E+03  0.20162806214E+03  0.00000000000E+00 0. -1.
         -2   -1    0    0    0  501 -0.00000000000E+00 -0.00000000000E+00 -0.83623572187E+02  0.83623572187E+02  0.00000000000E+00 0.  1.
         25    2    1    2    0    0  0.68023377684E+02  0.14963400203E+02  0.67331702790E+02  0.15821578007E+03  0.12509033378E+03 0.  0.
          5    1    3    3  502    0  0.71639569293E+02  0.46274210746E+01  0.10019237401E+03  0.12332730892E+03  0.41800000000E+01 0.  1.
         -5    1    3    3    0  502 -0.36161916089E+01  0.10335979128E+02 -0.32860671224E+02  0.34888471156E+02  0.41800000000E+01 0.  1.
        -11    1    1    2    0    0 -0.61587585103E+02  0.23358648808E+02  0.57676145980E+02  0.87551098954E+02  0.00000000000E+00 0. -1.
         11    1    1    2    0    0 -0.64357925813E+01 -0.38322049011E+02 -0.70033588147E+01  0.39484755302E+02  0.00000000000E+00 0.  1.
</event>
<event>
 7    1  0.2788485E-009  0.9908027E+02  0.7561462E-02  0.1282242E+00
         -2   -1    0    0    0  501 -0.00000000000E+00  0.00000000000E+00  0.14684064771E+02  0.14684064771E+02  0.00000000000E+00 0.  1.
          2   -1    0    0  501    0  0.00000000000E+00 -0.00000000000E+00 -0.95891793295E+03  0.95891793295E+03  0.00000000000E+00 0. -1.
         25    2    1    2    0    0 -0.28250991572E+02 -0.28104676082E+02 -0.63275702763E+03  0.64623260942E+03  0.12508852112E+03 0.  0.
          5    1    3    3  502    0  0.36913400083E+02  0.35144504383E+01 -0.74930128843E+02  0.83707509077E+02  0.41800000000E+01 0.  1.
         -5    1    3    3    0  502 -0.65164391655E+02 -0.31619126520E+02 -0.55782689879E+03  0.56252510034E+03  0.41800000000E+01 0.  1.
        -11    1    1    2    0    0 -0.21430247629E+02 -0.11896650763E+02 -0.29919160835E+02  0.38677409400E+02  0.00000000000E+00 0.  1.
         11    1    1    2    0    0  0.49681239201E+02  0.40001326844E+02 -0.28155767971E+03  0.28869197890E+03  0.00000000000E+00 0. -1.
</event>
<event>
 7    1  0.2788485E-009  0.7710467E+02  0.7561462E-02  0.1337475E+00
          2   -1    0    0  501    0  0.00000000000E+00  0.00000000000E+00  0.53918228001E+03  0.53918228001E+03  0.00000000000E+00 0. -1.
         -2   -1    0    0    0  501 -0.00000000000E+00 -0.00000000000E+00 -0.28997286903E+02  0.28997286903E+02  0.00000000000E+00 0.  1.
         25    2    1    2    0    0 -0.45467528482E+02  0.43123367938E+02  0.30805426561E+03  0.33833930769E+03  0.12509650499E+03 0.  0.
          5    1    3    3  502    0 -0.22057234000E+02  0.33002555022E+02  0.12742945047E+02  0.41899227417E+02  0.41800000000E+01 0. -1.
         -5    1    3    3    0  502 -0.23410294481E+02  0.10120812917E+02  0.29531132056E+03  0.29644008027E+03  0.41800000000E+01 0. -1.
        -11    1    1    2    0    0  0.18654528634E+02 -0.55768019760E+02  0.18803301348E+03  0.19701390211E+03  0.00000000000E+00 0. -1.
         11    1    1    2    0    0  0.26812999848E+02  0.12644651822E+02  0.14097714017E+02  0.32826357109E+02  0.00000000000E+00 0.  1.
</event>
<event>
 7    1  0.2788485E-009  0.1380490E+03  0.7561462E-02  0.1215979E+00
          1   -1    0    0  501    0  0.00000000000E+00  0.00000000000E+00  0.61241441534E+02  0.61241441534E+02  0.00000000000E+00 0. -1.
         -1   -1    0    0    0  501 -0.00000000000E+00 -0.00000000000E+00 -0.34276024683E+03  0.34276024683E+03  0.00000000000E+00 0.  1.
         25    2    1    2    0    0 -0.54159870264E+02 -0.76582151162E+02 -0.17998261550E+03  0.23841027287E+03  0.12509036294E+03 0.  0.
          5    1    3    3  502    0  0.62517499077E+00  0.31570901823E+02 -0.19906714898E+02  0.37561448104E+02  0.41800000000E+01 0. -1.
         -5    1    3    3    0  502 -0.54785045255E+02 -0.10815305298E+03 -0.16007590061E+03  0.20084882476E+03  0.41800000000E+01 0. -1.
        -11    1    1    2    0    0  0.74713920595E+02  0.66589781200E+02 -0.56103618395E+02  0.11473441022E+03  0.00000000000E+00 0. -1.
         11    1    1    2    0    0 -0.20554050330E+02  0.99923699621E+01 -0.45432571400E+02  0.50857005284E+02  0.00000000000E+00 0.  1.
</event>
<event>
 7    1  0.2788485E-009  0.1389876E+03  0.7561462E-02  0.1214698E+00
          2   -1    0    0  501    0  0.00000000000E+00  0.00000000000E+00  0.70645193740E+03  0.70645193740E+03  0.00000000000E+00 0. -1.
         -2   -1    0    0    0  501 -0.00000000000E+00 -0.00000000000E+00 -0.32201421605E+02  0.32201421605E+02  0.00000000000E+00 0.  1.
         25    2    1    2    0    0 -0.86554808003E+02 -0.55885965884E+02  0.40198242058E+03  0.43341864712E+03  0.12508749435E+03 0.  0.
          5    1    3    3  502    0 -0.95384321875E+02 -0.85142755022E+02  0.35371697187E+03  0.37613910483E+03  0.41800000000E+01 0.  1.
         -5    1    3    3    0  502  0.88295138716E+01  0.29256789137E+02  0.48265448707E+02  0.57279542288E+02  0.41800000000E+01 0.  1.
        -11    1    1    2    0    0  0.95387324854E+02  0.45846083204E+02  0.27199552906E+03  0.29185985150E+03  0.00000000000E+00 0. -1.
         11    1    1    2    0    0 -0.88325168505E+01  0.10039882681E+02  0.27256615797E+00  0.13374860391E+02  0.00000000000E+00 0.  1.
</event>
<event>
 7    1  0.2994295E-009  0.1252765E+03  0.7561462E-02  0.1234638E+00
          2   -1    0    0  501    0  0.00000000000E+00  0.00000000000E+00  0.55988614199E+03  0.55988614199E+03  0.00000000000E+00 0. -1.
         -2   -1    0    0    0  501 -0.00000000000E+00 -0.00000000000E+00 -0.41076680774E+02  0.41076680774E+02  0.00000000000E+00 0.  1.
         25    2    1    2    0    0  0.93218751585E+02  0.33200993100E+02  0.20397794094E+03  0.25893492771E+03  0.12509298465E+03 0.  0.
          5    1    3    3  502    0 -0.23480332168E+02  0.15915003405E+02  0.91480900160E+02  0.95868873083E+02  0.41800000000E+01 0.  1.
         -5    1    3    3    0  502  0.11669908375E+03  0.17285989695E+02  0.11249704078E+03  0.16306605463E+03  0.41800000000E+01 0.  1.
        -11    1    1    2    0    0 -0.61832460937E+02 -0.56827600082E+01  0.69612290085E+02  0.93281391058E+02  0.00000000000E+00 0.  1.
         11    1    1    2    0    0 -0.31386290648E+02 -0.27518233092E+02  0.24521923019E+03  0.24874650399E+03  0.00000000000E+00 0. -1.
</event>
<event>
 7    1  0.2788485E-009  0.6689124E+02  0.7561462E-02  0.1370995E+00
          2   -1    0    0  501    0  0.00000000000E+00  0.00000000000E+00  0.71705134469E+03  0.71705134469E+03  0.00000000000E+00 0. -1.
         -2   -1    0    0    0  501 -0.00000000000E+00 -0.00000000000E+00 -0.19657176490E+02  0.19657176490E+02  0.00000000000E+00 0.  1.
         25    2    1    2    0    0  0.31699426833E+02 -0.36228441563E+01  0.51744118413E+03  0.53330146892E+03  0.12508836500E+03 0.  0.
          5    1    3    3  502    0  0.30770385971E+02  0.18234847666E+02  0.34576216395E+02  0.49923075450E+02  0.41800000000E+01 0. -1.
         -5    1    3    3    0  502  0.92904086217E+00 -0.21857691822E+02  0.48286496774E+03  0.48337839347E+03  0.41800000000E+01 0. -1.
        -11    1    1    2    0    0 -0.42378638706E+02  0.26687196944E+02  0.49195555955E+02  0.70202266523E+02  0.00000000000E+00 0.  1.
         11    1    1    2    0    0  0.10679211873E+02 -0.23064352788E+02  0.13075742812E+03  0.13320478574E+03  0.00000000000E+00 0. -1.
</event>
<event>
 7    1  0.2788485E-009  0.1039550E+03  0.7561462E-02  0.1272192E+00
         -1   -1    0    0    0  501 -0.00000000000E+00  0.00000000000E+00  0.82358075588E+02  0.82358075588E+02  0.00000000000E+00 0.  1.
          1   -1    0    0  501    0  0.00000000000E+00 -0.00000000000E+00 -0.21108477896E+03  0.21108477896E+03  0.00000000000E+00 0. -1.
         25    2    1    2    0    0  0.47063208451E+02  0.49460359572E+02 -0.10333747761E+03  0.17602898788E+03  0.12508516113E+03 0.  0.
          5    1    3    3  502    0  0.21051299067E+01  0.80250032785E+02 -0.88166063661E+02  0.11931146850E+03  0.41800000000E+01 0. -1.
         -5    1    3    3    0  502  0.44958078545E+02 -0.30789673213E+02 -0.15171413954E+02  0.56717519377E+02  0.41800000000E+01 0. -1.
        -11    1    1    2    0    0 -0.47201732920E+02 -0.35877236212E+02 -0.57472879419E+02  0.82573067870E+02  0.00000000000E+00 0. -1.
         11    1    1    2    0    0  0.13852446849E+00 -0.13583123360E+02  0.32083653659E+02  0.34840798805E+02  0.00000000000E+00 0.  1.
</event>
<event>
 7    1  0.2788485E-009  0.3921158E+03  0.7561462E-02  0.1046544E+00
          1   -1    0    0  501    0  0.00000000000E+00  0.00000000000E+00  0.32530614559E+03  0.32530614559E+03  0.00000000000E+00 0. -1.
         -1   -1    0    0    0  501 -0.00000000000E+00 -0.00000000000E+00 -0.52013071712E+03  0.52013071712E+03  0.00000000000E+00 0.  1.
         25    2    1    2    0    0 -0.11316618245E+03  0.36479053707E+03 -0.21036897976E+03  0.45363029449E+03  0.12508643268E+03 0.  0.
          5    1    3    3  502    0  0.26546465135E+02  0.40252699366E+02 -0.29369431113E+02  0.56612988804E+02  0.41800000000E+01 0. -1.
         -5    1    3    3    0  502 -0.13971264759E+03  0.32453783771E+03 -0.18099954865E+03  0.39701730568E+03  0.41800000000E+01 0. -1.
        -11    1    1    2    0    0  0.17721115669E+02 -0.85750226369E+02 -0.31720634901E+02  0.93130757226E+02  0.00000000000E+00 0. -1.
         11    1    1    2    0    0  0.95445066784E+02 -0.27904031071E+03  0.47265043135E+02  0.29867581100E+03  0.00000000000E+00 0.  1.
</event>
<event>
 7    1  0.2788485E-009  0.9013600E+02  0.7561462E-02  0.1302523E+00
          2   -1    0    0  501    0  0.00000000000E+00  0.00000000000E+00  0.35575447448E+03  0.35575447448E+03  0.00000000000E+00 0. -1.
         -2   -1    0    0    0  501 -0.00000000000E+00 -0.00000000000E+00 -0.48777240664E+02  0.48777240664E+02  0.00000000000E+00 0.  1.
         25    2    1    2    0    0  0.50173923921E+02  0.45839755591E+02  0.12623425806E+03  0.19026681103E+03  0.12509062970E+03 0.  0.
          5    1    3    3  502    0  0.38865203355E+02 -0.20223467753E+02 -0.35334546774E+01  0.44152580692E+02  0.41800000000E+01 0.  1.
         -5    1    3    3    0  502  0.11308720566E+02  0.66063223344E+02  0.12976771273E+03  0.14611423034E+03  0.41800000000E+01 0.  1.
        -11    1    1    2    0    0 -0.13187861538E+02 -0.52535580395E+01 -0.89517329409E+01  0.16782523251E+02  0.00000000000E+00 0.  1.
         11    1    1    2    0    0 -0.36986062383E+02 -0.40586197551E+02  0.18969470870E+03  0.19748238086E+03  0.00000000000E+00 0. -1.
</event>
<event>
 7    1  0.2788485E-009  0.8301425E+02  0.7561462E-02  0.1320709E+00
         -2   -1    0    0    0  501 -0.00000000000E+00  0.00000000000E+00  0.31707621378E+03  0.31707621378E+03  0.00000000000E+00 0.  1.
          2   -1    0    0  501    0  0.00000000000E+00 -0.00000000000E+00 -0.55471409456E+02  0.55471409456E+02  0.00000000000E+00 0. -1.
         25    2    1    2    0    0  0.46589938869E+02  0.43368094074E+02  0.83834364175E+02  0.16348783473E+03  0.12509459422E+03 0.  0.
          5    1    3    3  502    0  0.43452633878E+02  0.27714441348E+02 -0.22131211199E+02  0.56244862514E+02  0.41800000000E+01 0.  1.
         -5    1    3    3    0  502  0.31373049912E+01  0.15653652726E+02  0.10596557537E+03  0.10724297222E+03  0.41800000000E+01 0.  1.
        -11    1    1    2    0    0 -0.61945808523E+01  0.20960900763E+02  0.91677080316E+02  0.94246587461E+02  0.00000000000E+00 0.  1.
         11    1    1    2    0    0 -0.40395358017E+02 -0.64328994837E+02  0.86093359836E+02  0.11481320104E+03  0.00000000000E+00 0. -1.
</event>
<event>
 7    1  0.2788485E-009  0.8943733E+02  0.7561462E-02  0.1304220E+00
         -1   -1    0    0    0  501 -0.00000000000E+00  0.00000000000E+00  0.90706719019E+02  0.90706719019E+02  0.00000000000E+00 0.  1.
          1   -1    0    0  501    0  0.00000000000E+00 -0.00000000000E+00 -0.16606483558E+03  0.16606483558E+03  0.00000000000E+00 0. -1.
         25    2    1    2    0    0  0.40818416558E+01 -0.69715626893E+01  0.16422253516E+02  0.12642280727E+03  0.12509105352E+03 0.  0.
          5    1    3    3  502    0 -0.10386094704E+01 -0.46304115339E+02  0.54249259085E+02  0.71453511587E+02  0.41800000000E+01 0. -1.
         -5    1    3    3    0  502  0.51204511262E+01  0.39332552649E+02 -0.37827005569E+02  0.54969295684E+02  0.41800000000E+01 0. -1.
        -11    1    1    2    0    0 -0.13766807881E+02  0.48204318256E+02 -0.52311001574E+02  0.72454276502E+02  0.00000000000E+00 0.  1.
         11    1    1    2    0    0  0.96849662249E+01 -0.41232755567E+02 -0.39469368507E+02  0.57894470830E+02  0.00000000000E+00 0. -1.
</event>
<event>
 7    1  0.2788485E-009  0.1161723E+03  0.7561462E-02  0.1249549E+00
         -2   -1    0    0    0  501 -0.00000000000E+00  0.00000000000E+00  0.17328984319E+02  0.17328984319E+02  0.00000000000E+00 0.  1.
          2   -1    0    0  501    0  0.00000000000E+00 -0.00000000000E+00 -0.11599548377E+04  0.11599548377E+04  0.00000000000E+00 0. -1.
         25    2    1    2    0    0  0.72585968536E+02 -0.54269500838E+02 -0.59547044015E+03  0.61517991421E+03  0.12508948876E+03 0.  0.
          5    1    3    3  502    0  0.79648438288E+02 -0.24432240221E+02 -0.17813387459E+03  0.19669763029E+03  0.41800000000E+01 0.  1.
         -5    1    3    3    0  502 -0.70624697524E+01 -0.29837260617E+02 -0.41733656556E+03  0.41848228392E+03  0.41800000000E+01 0.  1.
        -11    1    1    2    0    0 -0.84603550419E+02  0.28036039828E+02 -0.49041094351E+03  0.49844425344E+03  0.00000000000E+00 0. -1.
         11    1    1    2    0    0  0.12017581884E+02  0.26233461010E+02 -0.56744469704E+02  0.63659654357E+02  0.00000000000E+00 0.  1.
</event>
<event>
 7    1  0.2788485E-009  0.1240947E+03  0.7561462E-02  0.1236491E+00
         -1   -1    0    0    0  501 -0.00000000000E+00  0.00000000000E+00  0.51172725299E+03  0.51172725299E+03  0.00000000000E+00 0.  1.
          1   -1    0    0  501    0  0.00000000000E+00 -0.00000000000E+00 -0.32794305536E+02  0.32794305536E+02  0.00000000000E+00 0. -1.
         25    2    1    2    0    0 -0.49967103265E+02  0.48685157307E+02  0.26293708007E+03  0.29941724138E+03  0.12509124833E+03 0.  0.
          5    1    3    3  502    0 -0.17553150799E+01  0.77099855257E+02  0.20355122634E+03  0.21771091602E+03  0.41800000000E+01 0.  1.
         -5    1    3    3    0  502 -0.48211788185E+02 -0.28414697950E+02  0.59385853730E+02  0.81706325354E+02  0.41800000000E+01 0.  1.
        -11    1    1    2    0    0 -0.23802046134E+02 -0.30812079613E+02  0.89175903957E+02  0.97305002424E+02  0.00000000000E+00 0.  1.
         11    1    1    2    0    0  0.73769149399E+02 -0.17873077694E+02  0.12681996343E+03  0.14779931473E+03  0.00000000000E+00 0. -1.
</event>
<event>
 7    1  0.2788485E-009  0.1586007E+03  0.7561462E-02  0.1190286E+00
         -3   -1    0    0    0  501 -0.00000000000E+00  0.00000000000E+00  0.50431027523E+03  0.50431027523E+03  0.00000000000E+00 0.  1.
          3   -1    0    0  501    0  0.00000000000E+00 -0.00000000000E+00 -0.79399248268E+02  0.79399248268E+02  0.00000000000E+00 0. -1.
         25    2    1    2    0    0 -0.19576251814E+02  0.13443409339E+03  0.36858813844E+03  0.41226151264E+03  0.12508630584E+03 0.  0.
          5    1    3    3  502    0  0.40100616394E+02  0.84543140184E+02  0.27490621491E+03  0.29042469141E+03  0.41800000000E+01 0. -1.
         -5    1    3    3    0  502 -0.59676868208E+02  0.49890953207E+02  0.93681923532E+02  0.12183682123E+03  0.41800000000E+01 0. -1.
        -11    1    1    2    0    0 -0.15725648975E+02 -0.17662102283E+02 -0.16992862889E+02  0.29120495908E+02  0.00000000000E+00 0.  1.
         11    1    1    2    0    0  0.35301900789E+02 -0.11677199111E+03  0.73315751417E+02  0.14232751495E+03  0.00000000000E+00 0. -1.
</event>
<event>
 7    1  0.2788485E-009  0.1567875E+03  0.7561462E-02  0.1192372E+00
         -2   -1    0    0    0  501 -0.00000000000E+00  0.00000000000E+00  0.43641955400E+02  0.43641955400E+02  0.00000000000E+00 0.  1.
          2   -1    0    0  501    0  0.00000000000E+00 -0.00000000000E+00 -0.66818823745E+03  0.66818823745E+03  0.00000000000E+00 0. -1.
         25    2    1    2    0    0  0.13026536235E+03  0.13076036146E+02 -0.29211833971E+03  0.34368904216E+03  0.12509590703E+03 0.  0.
          5    1    3    3  502    0  0.10162210426E+03  0.65652157305E+02 -0.19440513200E+03  0.22901547017E+03  0.41800000000E+01 0.  1.
         -5    1    3    3    0  502  0.28643258095E+02 -0.52576121159E+02 -0.97713207710E+02  0.11467357198E+03  0.41800000000E+01 0.  1.
        -11    1    1    2    0    0 -0.16410190226E+02  0.51418034475E+01 -0.99658481051E+00  0.17225726900E+02  0.00000000000E+00 0.  1.
         11    1    1    2    0    0 -0.11385517213E+03 -0.18217839594E+02 -0.33143135753E+03  0.35091542379E+03  0.00000000000E+00 0. -1.
</event>
<event>
 7    1  0.2788485E-009  0.1458251E+03  0.7561462E-02  0.1205699E+00
         -2   -1    0    0    0  501 -0.00000000000E+00  0.00000000000E+00  0.21616288442E+02  0.21616288442E+02  0.00000000000E+00 0.  1.
          2   -1    0    0  501    0  0.00000000000E+00 -0.00000000000E+00 -0.14209713104E+04  0.14209713104E+04  0.00000000000E+00 0. -1.
         25    2    1    2    0    0  0.50783355034E+01 -0.13420167686E+03 -0.87219500248E+03  0.89129529480E+03  0.12508917066E+03 0.  0.
          5    1    3    3  502    0 -0.61870231613E+01 -0.62213676927E+02 -0.71768547606E+03  0.72041566876E+03  0.41800000000E+01 0.  1.
         -5    1    3    3    0  502  0.11265358665E+02 -0.71987999928E+02 -0.15450952642E+03  0.17087962603E+03  0.41800000000E+01 0.  1.
        -11    1    1    2    0    0  0.96263360534E+01  0.13990387388E+03 -0.50488781463E+03  0.52400139851E+03  0.00000000000E+00 0. -1.
         11    1    1    2    0    0 -0.14704671557E+02 -0.57021970245E+01 -0.22272204858E+02  0.27290905550E+02  0.00000000000E+00 0.  1.
</event>
<event>
 7    1  0.2788485E-009  0.1053460E+03  0.7561462E-02  0.1269439E+00
          1   -1    0    0  501    0  0.00000000000E+00  0.00000000000E+00  0.43057169341E+03  0.43057169341E+03  0.00000000000E+00 0. -1.
         -1   -1    0    0    0  501 -0.00000000000E+00 -0.00000000000E+00 -0.29020954366E+02  0.29020954366E+02  0.00000000000E+00 0.  1.
         25    2    1    2    0    0  0.47883125076E+01 -0.22666583053E+02  0.19607193930E+03  0.23372482670E+03  0.12508552000E+03 0.  0.
          5    1    3    3  502    0 -0.35376438259E+02  0.33177658864E+02  0.39612410336E+02  0.62760376706E+02  0.41800000000E+01 0.  1.
         -5    1    3    3    0  502  0.40164750766E+02 -0.55844241916E+02  0.15645952897E+03  0.17096445000E+03  0.41800000000E+01 0.  1.
        -11    1    1    2    0    0  0.10026524343E+02 -0.33521591800E+02  0.64412022210E+02  0.73301684239E+02  0.00000000000E+00 0. -1.
         11    1    1    2    0    0 -0.14814836850E+02  0.56188174853E+02  0.14106677753E+03  0.15256613683E+03  0.00000000000E+00 0.  1.
</event>
<event>
 7    1  0.2788485E-009  0.8659638E+02  0.7561462E-02  0.1311310E+00
          2   -1    0    0  501    0  0.00000000000E+00  0.00000000000E+00  0.43040891178E+03  0.43040891178E+03  0.00000000000E+00 0. -1.
         -2   -1    0    0    0  501 -0.00000000000E+00 -0.00000000000E+00 -0.36948654632E+02  0.36948654632E+02  0.00000000000E+00 0.  1.
         25    2    1    2    0    0  0.60618621570E+02  0.31265887089E+01  0.26997210506E+03  0.30367456313E+03  0.12509560320E+03 0.  0.
          5    1    3    3  502    0  0.58145489309E+02 -0.28647420530E+02  0.26284371213E+03  0.27075055316E+03  0.41800000000E+01 0. -1.
         -5    1    3    3    0  502  0.24731322612E+01  0.31774009239E+02  0.71283929269E+01  0.32924009963E+02  0.41800000000E+01 0. -1.
        -11    1    1    2    0    0 -0.21443460110E+02  0.21059831109E+02  0.11236941268E+03  0.11631948837E+03  0.00000000000E+00 0. -1.
         11    1    1    2    0    0 -0.39175161460E+02 -0.24186419817E+02  0.11118739401E+02  0.47363514913E+02  0.00000000000E+00 0.  1.
</event>
<event>
 7    1  0.2788485E-009  0.2836824E+03  0.7561462E-02  0.1093695E+00
         -1   -1    0    0    0  501 -0.00000000000E+00  0.00000000000E+00  0.19369765123E+03  0.19369765123E+03  0.00000000000E+00 0.  1.
          1   -1    0    0  501    0  0.00000000000E+00 -0.00000000000E+00 -0.60305660229E+03  0.60305660229E+03  0.00000000000E+00 0. -1.
         25    2    1    2    0    0 -0.26796411827E+03 -0.39546070203E+02 -0.10560290914E+01  0.29835854753E+03  0.12509215537E+03 0.  0.
          5    1    3    3  502    0 -0.23220228396E+03 -0.67263288077E+02  0.29535910571E+02  0.24358179943E+03  0.41800000000E+01 0. -1.
         -5    1    3    3    0  502 -0.35761834313E+02  0.27717217874E+02 -0.30591939662E+02  0.54776748100E+02  0.41800000000E+01 0. -1.
        -11    1    1    2    0    0  0.95896767988E+02 -0.20192828129E+02 -0.98050319195E+02  0.13862829983E+03  0.00000000000E+00 0.  1.
         11    1    1    2    0    0  0.17206735029E+03  0.59738898332E+02 -0.31025260278E+03  0.35976740617E+03  0.00000000000E+00 0. -1.
</event>
<event>
 7    1  0.2788485E-009  0.1358716E+03  0.7561462E-02  0.1218995E+00
         -2   -1    0    0    0  501 -0.00000000000E+00  0.00000000000E+00  0.11462193880E+03  0.11462193880E+03  0.00000000000E+00 0.  1.
          2   -1    0    0  501    0  0.00000000000E+00 -0.00000000000E+00 -0.22037445465E+03  0.22037445465E+03  0.00000000000E+00 0. -1.
         25    2    1    2    0    0  0.43583746329E+02  0.89279063725E+02 -0.11771437942E+03  0.19842996779E+03  0.12508989899E+03 0.  0.
          5    1    3    3  502    0 -0.39564991331E+02  0.29920096358E+02 -0.11689056483E+02  0.51134207206E+02  0.41800000000E+01 0.  1.
         -5    1    3    3    0  502  0.83148737661E+02  0.59358967367E+02 -0.10602532294E+03  0.14729576058E+03  0.41800000000E+01 0.  1.
        -11    1    1    2    0    0 -0.59396630664E+02 -0.50961316265E+02 -0.23819426807E+02  0.81806971483E+02  0.00000000000E+00 0. -1.
         11    1    1    2    0    0  0.15812884335E+02 -0.38317747460E+02  0.35781290379E+02  0.54759454184E+02  0.00000000000E+00 0.  1.
</event>
<event>
 7    1  0.2788485E-009  0.8474962E+02  0.7561462E-02  0.1316089E+00
         -2   -1    0    0    0  501 -0.00000000000E+00  0.00000000000E+00  0.42669239200E+03  0.42669239200E+03  0.00000000000E+00 0.  1.
          2   -1    0    0  501    0  0.00000000000E+00 -0.00000000000E+00 -0.31005546741E+02  0.31005546741E+02  0.00000000000E+00 0. -1.
         25    2    1    2    0    0 -0.11295245272E+02  0.14480854993E+02  0.15732740087E+03  0.20183304300E+03  0.12508952176E+03 0.  0.
          5    1    3    3  502    0 -0.41854331360E+02  0.21883735223E+02  0.16287132139E+03  0.16963261081E+03  0.41800000000E+01 0. -1.
         -5    1    3    3    0  502  0.30559086088E+02 -0.74028802291E+01 -0.55439205181E+01  0.32200432185E+02  0.41800000000E+01 0. -1.
        -11    1    1    2    0    0  0.50105848888E+02 -0.46018349274E+01  0.10183219452E+03  0.11358507304E+03  0.00000000000E+00 0. -1.
         11    1    1    2    0    0 -0.38810603616E+02 -0.98790200660E+01  0.13652724987E+03  0.14227982270E+03  0.00000000000E+00 0.  1.
</event>
<event>
 7    1  0.2788485E-009  0.1011798E+03  0.7561462E-02  0.1277834E+00
         -2   -1    0    0    0  501 -0.00000000000E+00  0.00000000000E+00  0.17268113069E+02  0.17268113069E+02  0.00000000000E+00 0.  1.
          2   -1    0    0  501    0  0.00000000000E+00 -0.00000000000E+00 -0.85190800648E+03  0.85190800648E+03  0.00000000000E+00 0. -1.
         25    2    1    2    0    0  0.63611981651E+02 -0.25130209438E+02 -0.46790277935E+03  0.48913986682E+03  0.12508711665E+03 0.  0.
          5    1    3    3  502    0  0.62720881155E+02  0.16911491531E+02 -0.10332101942E+03  0.12211720981E+03  0.41800000000E+01 0.  1.
         -5    1    3    3    0  502  0.89110049549E+00 -0.42041700970E+02 -0.36458175994E+03  0.36702265701E+03  0.41800000000E+01 0.  1.
        -11    1    1    2    0    0 -0.17371073913E+02  0.42262694734E+02 -0.11968841946E+03  0.12811404032E+03  0.00000000000E+00 0.  1.
         11    1    1    2    0    0 -0.46240907738E+02 -0.17132485296E+02 -0.24704869460E+03  0.25192221241E+03  0.00000000000E+00 0. -1.
</event>
<event>
 7    1  0.2788485E-009  0.1098471E+03  0.7561462E-02  0.1260853E+00
          2   -1    0    0  501    0  0.00000000000E+00  0.00000000000E+00  0.14457335780E+02  0.14457335780E+02  0.00000000000E+00 0. -1.
         -2   -1    0    0    0  501 -0.00000000000E+00 -0.00000000000E+00 -0.13618388216E+04  0.13618388216E+04  0.00000000000E+00 0.  1.
         25    2    1    2    0    0  0.11461129414E+02  0.83486083025E+02 -0.93647903345E+03  0.94854918936E+03  0.12510515976E+03 0.  0.
          5    1    3    3  502    0 -0.50540010183E+01  0.85494417993E+02 -0.30463710294E+03  0.31647444655E+03  0.41800000000E+01 0. -1.
         -5    1    3    3    0  502  0.16515130433E+02 -0.20083349682E+01 -0.63184193051E+03  0.63207474281E+03  0.41800000000E+01 0. -1.
        -11    1    1    2    0    0  0.19337185528E+02  0.74974715337E+01 -0.46843290881E+02  0.51229217485E+02  0.00000000000E+00 0. -1.
         11    1    1    2    0    0 -0.30798314942E+02 -0.90983554558E+02 -0.36405916149E+03  0.37651775054E+03  0.00000000000E+00 0.  1.
</event>
<event>
 7    1  0.2788485E-009  0.1287707E+03  0.7561462E-02  0.1229291E+00
         -2   -1    0    0    0  501 -0.00000000000E+00  0.00000000000E+00  0.62328138077E+02  0.62328138077E+02  0.00000000000E+00 0.  1.
          2   -1    0    0  501    0  0.00000000000E+00 -0.00000000000E+00 -0.32323007857E+03  0.32323007857E+03  0.00000000000E+00 0. -1.
         25    2    1    2    0    0  0.76362733329E+02  0.51038669196E+02 -0.12181019893E+03  0.19728139040E+03  0.12508401033E+03 0.  0.
          5    1    3    3  502    0  0.23641842241E+02 -0.27884617294E+02 -0.89771626590E+02  0.97020131555E+02  0.41800000000E+01 0. -1.
         -5    1    3    3    0  502  0.52720891088E+02  0.78923286490E+02 -0.32038572335E+02  0.10026125884E+03  0.41800000000E+01 0. -1.
        -11    1    1    2    0    0 -0.42171666046E+02  0.20171502189E+02 -0.39795238163E+02  0.61392181083E+02  0.00000000000E+00 0. -1.
         11    1    1    2    0    0 -0.34191067283E+02 -0.71210171385E+02 -0.99296503409E+02  0.12688464517E+03  0.00000000000E+00 0.  1.
</event>
<event>
 7    1  0.2788485E-009  0.9805696E+02  0.7561462E-02  0.1284436E+00
         -1   -1    0    0    0  501 -0.00000000000E+00  0.00000000000E+00  0.83486976661E+02  0.83486976661E+02  0.00000000000E+00 0.  1.
          1   -1    0    0  501    0  0.00000000000E+00 -0.00000000000E+00 -0.17120905182E+03  0.17120905182E+03  0.00000000000E+00 0. -1.
         25    2    1    2    0    0 -0.15932075658E+02  0.22605977321E+02 -0.95298268558E+02  0.15966992033E+03  0.12509141547E+03 0.  0.
          5    1    3    3  502    0 -0.50944410183E+02 -0.11969862908E+02 -0.18339334358E+00  0.52498729318E+02  0.41800000000E+01 0.  1.
         -5    1    3    3    0  502  0.35012334525E+02  0.34575840229E+02 -0.95114875215E+02  0.10717119101E+03  0.41800000000E+01 0.  1.
        -11    1    1    2    0    0 -0.37611388671E+02 -0.54374195079E+01 -0.16856473198E+01  0.38039762034E+02  0.00000000000E+00 0.  1.
         11    1    1    2    0    0  0.53543464329E+02 -0.17168557813E+02  0.92618407197E+01  0.56986346113E+02  0.00000000000E+00 0. -1.
</event>
<event>
 7    1  0.2788485E-009  0.1515722E+03  0.7561462E-02  0.1198554E+00
         -4   -1    0    0    0  501 -0.00000000000E+00  0.00000000000E+00  0.14314500299E+03  0.14314500299E+03  0.00000000000E+00 0. -1.
          4   -1    0    0  501    0  0.00000000000E+00 -0.00000000000E+00 -0.21675278802E+03  0.21675278802E+03  0.00000000000E+00 0.  1.
         25    2    1    2    0    0  0.45258178283E+02  0.11938584743E+03 -0.93573654810E+02  0.20175483270E+03  0.12509076855E+03 0.  0.
          5    1    3    3  502    0  0.74015922289E+02  0.51950718874E+02 -0.10898427752E+02  0.91178298247E+02  0.41800000000E+01 0. -1.
         -5    1    3    3    0  502 -0.28757744006E+02  0.67435128553E+02 -0.82675227058E+02  0.11057653446E+03  0.41800000000E+01 0. -1.
        -11    1    1    2    0    0 -0.46856075044E+02 -0.45586176395E+02 -0.26915660290E+02  0.70696845868E+02  0.00000000000E+00 0.  1.
         11    1    1    2    0    0  0.15978967611E+01 -0.73799671031E+02  0.46881530073E+02  0.87446112437E+02  0.00000000000E+00 0. -1.
</event>
<event>
 7    1  0.2788485E-009  0.1105631E+03  0.7561462E-02  0.1259531E+00
          1   -1    0    0  501    0  0.00000000000E+00  0.00000000000E+00  0.18522426329E+03  0.18522426329E+03  0.00000000000E+00 0. -1.
         -1   -1    0    0    0  501 -0.00000000000E+00 -0.00000000000E+00 -0.11482081521E+03  0.11482081521E+03  0.00000000000E+00 0.  1.
         25    2    1    2    0    0  0.68140675353E+02 -0.55146238898E+02 -0.25497532122E+01  0.15276891274E+03  0.12509028802E+03 0.  0.
          5    1    3    3  502    0 -0.15926139294E+02  0.10651384815E+02 -0.35849949761E+02  0.40863005386E+02  0.41800000000E+01 0.  1.
         -5    1    3    3    0  502  0.84066814648E+02 -0.65797623713E+02  0.33300196549E+02  0.11190590736E+03  0.41800000000E+01 0.  1.
        -11    1    1    2    0    0 -0.21944524916E+02 -0.10048295947E+01 -0.19693982220E+02  0.29502962427E+02  0.00000000000E+00 0.  1.
         11    1    1    2    0    0 -0.46196150437E+02  0.56151068492E+02  0.92647183511E+02  0.11777320332E+03  0.00000000000E+00 0. -1.
</event>
<event>
 7    1  0.2788485E-009  0.2621535E+03  0.7561462E-02  0.1105856E+00
         -1   -1    0    0    0  501 -0.00000000000E+00  0.00000000000E+00  0.35002385130E+03  0.35002385130E+03  0.00000000000E+00 0.  1.
          1   -1    0    0  501    0  0.00000000000E+00 -0.00000000000E+00 -0.21348790102E+03  0.21348790102E+03  0.00000000000E+00 0. -1.
         25    2    1    2    0    0 -0.43363785836E+02 -0.24655992588E+03  0.73554318801E+02  0.28936036275E+03  0.12508783611E+03 0.  0.
          5    1    3    3  502    0  0.24580301746E+02 -0.14630023757E+02  0.33671545087E+02  0.44378758180E+02  0.41800000000E+01 0. -1.
         -5    1    3    3    0  502 -0.67944087583E+02 -0.23192990213E+03  0.39882773715E+02  0.24498160457E+03  0.41800000000E+01 0. -1.
        -11    1    1    2    0    0  0.22367821955E+02  0.21249883925E+03  0.18729641273E+02  0.21449213413E+03  0.00000000000E+00 0. -1.
         11    1    1    2    0    0  0.20995963881E+02  0.34061086636E+02  0.44251990213E+02  0.59659255443E+02  0.00000000000E+00 0.  1.
</event>
<event>
 7    1  0.2788485E-009  0.1702166E+03  0.7561462E-02  0.1177622E+00
         -1   -1    0    0    0  501 -0.00000000000E+00  0.00000000000E+00  0.40820697434E+02  0.40820697434E+02  0.00000000000E+00 0.  1.
          1   -1    0    0  501    0  0.00000000000E+00 -0.00000000000E+00 -0.94066414645E+03  0.94066414645E+03  0.00000000000E+00 0. -1.
         25    2    1    2    0    0  0.30561150666E+02 -0.14061706637E+03 -0.27888843036E+03  0.33783372389E+03  0.12508287303E+03 0.  0.
          5    1    3    3  502    0  0.66418064047E+02 -0.91353459946E+02 -0.24039966096E+03  0.26564315023E+03  0.41800000000E+01 0.  1.
         -5    1    3    3    0  502 -0.35856913382E+02 -0.49263606426E+02 -0.38488769401E+02  0.72190573660E+02  0.41800000000E+01 0.  1.
        -11    1    1    2    0    0 -0.41639651543E+02  0.21796555515E+02 -0.12508029808E+03  0.13361897837E+03  0.00000000000E+00 0.  1.
         11    1    1    2    0    0  0.11078500877E+02  0.11882051086E+03 -0.49587472057E+03  0.51003214162E+03  0.00000000000E+00 0. -1.
</event>
<event>
 7    1  0.2788485E-009  0.9925465E+02  0.7561462E-02  0.1281871E+00
          4   -1    0    0  501    0  0.00000000000E+00  0.00000000000E+00  0.25907602874E+03  0.25907602874E+03  0.00000000000E+00 0. -1.
         -4   -1    0    0    0  501 -0.00000000000E+00 -0.00000000000E+00 -0.62169396374E+02  0.62169396374E+02  0.00000000000E+00 0.  1.
         25    2    1    2    0    0 -0.16444552110E+02  0.59715459089E+02  0.13151045093E+03  0.19177745963E+03  0.12508891225E+03 0.  0.
          5    1    3    3  502    0  0.27700588274E+02 -0.84845951777E+01 -0.79448890365E+01  0.30329929242E+02  0.41800000000E+01 0. -1.
         -5    1    3    3    0  502 -0.44145140383E+02  0.68200054266E+02  0.13945533997E+03  0.16144753038E+03  0.41800000000E+01 0. -1.
        -11    1    1    2    0    0  0.37044073796E+01 -0.70864169707E+02  0.10146410027E+02  0.71682653541E+02  0.00000000000E+00 0.  1.
         11    1    1    2    0    0  0.12740144730E+02  0.11148710618E+02  0.55249771408E+02  0.57785311947E+02  0.00000000000E+00 0. -1.
</event>
<event>
 7    1  0.2788485E-009  0.1711199E+03  0.7561462E-02  0.1176685E+00
          3   -1    0    0  501    0  0.00000000000E+00  0.00000000000E+00  0.17406771680E+03  0.17406771680E+03  0.00000000000E+00 0. -1.
         -3   -1    0    0    0  501 -0.00000000000E+00 -0.00000000000E+00 -0.17549311121E+03  0.17549311121E+03  0.00000000000E+00 0.  1.
         25    2    1    2    0    0 -0.12929461216E+03 -0.47455587155E+02  0.11734540241E+02  0.18643598938E+03  0.12510615178E+03 0.  0.
          5    1    3    3  502    0 -0.13328806750E+03 -0.67605554355E+00  0.28575226816E+02  0.13638248413E+03  0.41800000000E+01 0.  1.
         -5    1    3    3    0  502  0.39934553403E+01 -0.46779531611E+02 -0.16840686575E+02  0.50053505249E+02  0.41800000000E+01 0.  1.
        -11    1    1    2    0    0  0.10148284788E+03  0.72181825453E+02 -0.30939180987E+01  0.12457349906E+03  0.00000000000E+00 0.  1.
         11    1    1    2    0    0  0.27811764286E+02 -0.24726238298E+02 -0.10066016560E+02  0.38551339568E+02  0.00000000000E+00 0. -1.
</event>
<event>
 7    1  0.2788485E-009  0.1097735E+03  0.7561462E-02  0.1260990E+00
          1   -1    0    0  501    0  0.00000000000E+00  0.00000000000E+00  0.27046089569E+03  0.27046089569E+03  0.00000000000E+00 0. -1.
         -1   -1    0    0    0  501 -0.00000000000E+00 -0.00000000000E+00 -0.51461812104E+02  0.51461812104E+02  0.00000000000E+00 0.  1.
         25    2    1    2    0    0  0.71028974239E+01  0.32974232717E+02  0.15470121047E+03  0.20178629837E+03  0.12508994569E+03 0.  0.
          5    1    3    3  502    0 -0.27252148629E+02 -0.35700214830E+02  0.92372180687E+02  0.10279726217E+03  0.41800000000E+01 0.  1.
         -5    1    3    3    0  502  0.34355046052E+02  0.68674447547E+02  0.62329029783E+02  0.98989036205E+02  0.41800000000E+01 0.  1.
        -11    1    1    2    0    0  0.42099359235E+02 -0.20252573520E+02  0.47469409550E+02  0.66602309459E+02  0.00000000000E+00 0. -1.
         11    1    1    2    0    0 -0.49202256659E+02 -0.12721659197E+02  0.16828463565E+02  0.53534099965E+02  0.00000000000E+00 0.  1.
</event>
<event>
 7    1  0.2788485E-009  0.1064528E+03  0.7561462E-02  0.1267283E+00
          1   -1    0    0  501    0  0.00000000000E+00  0.00000000000E+00  0.33516337073E+03  0.33516337073E+03  0.00000000000E+00 0. -1.
         -1   -1    0    0    0  501 -0.00000000000E+00 -0.00000000000E+00 -0.49561258774E+02  0.49561258774E+02  0.00000000000E+00 0.  1.
         25    2    1    2    0    0  0.43531152845E+02 -0.94272941203E+01  0.24007639592E+03  0.27434996191E+03  0.12508953025E+03 0.  0.
          5    1    3    3  502    0  0.30953460404E+02 -0.56517072592E+02  0.61426798725E+02  0.89123623170E+02  0.41800000000E+01 0. -1.
         -5    1    3    3    0  502  0.12577692442E+02  0.47089778471E+02  0.17864959720E+03  0.18522633874E+03  0.41800000000E+01 0. -1.
        -11    1    1    2    0    0 -0.48163703928E+02 -0.31936494172E+02  0.18216970460E+02  0.60593234348E+02  0.00000000000E+00 0. -1.
         11    1    1    2    0    0  0.46325510823E+01  0.41363788293E+02  0.27308745575E+02  0.49781433249E+02  0.00000000000E+00 0.  1.
</event>
<event>
 7    1  0.2788485E-009  0.2077185E+03  0.7561462E-02  0.1143386E+00
         -1   -1    0    0    0  501 -0.00000000000E+00  0.00000000000E+00  0.71179221458E+02  0.71179221458E+02  0.00000000000E+00 0.  1.
          1   -1    0    0  501    0  0.00000000000E+00 -0.00000000000E+00 -0.77596584503E+03  0.77596584503E+03  0.00000000000E+00 0. -1.
         25    2    1    2    0    0 -0.16110334081E+03 -0.10856432409E+03 -0.50329079340E+03  0.55379429935E+03  0.12508398931E+03 0.  0.
          5    1    3    3  502    0 -0.57173366104E+02 -0.72069340632E+02 -0.36766712555E+03  0.37902423572E+03  0.41800000000E+01 0.  1.
         -5    1    3    3    0  502 -0.10392997470E+03 -0.36494983458E+02 -0.13562366785E+03  0.17477006363E+03  0.41800000000E+01 0.  1.
        -11    1    1    2    0    0  0.69084916037E+02  0.98835408963E+02 -0.11802359001E+03  0.16873272204E+03  0.00000000000E+00 0.  1.
         11    1    1    2    0    0  0.92018424771E+02  0.97289151272E+01 -0.83472240160E+02  0.12461804510E+03  0.00000000000E+00 0. -1.
</event>
<event>
 7    1  0.2788485E-009  0.8062352E+02  0.7561462E-02  0.1327291E+00
         -1   -1    0    0    0  501 -0.00000000000E+00  0.00000000000E+00  0.25714149884E+03  0.25714149884E+03  0.00000000000E+00 0.  1.
          1   -1    0    0  501    0  0.00000000000E+00 -0.00000000000E+00 -0.60099148103E+02  0.60099148103E+02  0.00000000000E+00 0. -1.
         25    2    1    2    0    0  0.45966972771E+02  0.36375087139E+02  0.13380796107E+03  0.19232582950E+03  0.12509414333E+03 0.  0.
          5    1    3    3  502    0  0.55134069346E+02  0.18505494742E+02  0.13849932163E+01  0.58323319046E+02  0.41800000000E+01 0.  1.
         -5    1    3    3    0  502 -0.91670965747E+01  0.17869592397E+02  0.13242296786E+03  0.13400251045E+03  0.41800000000E+01 0.  1.
        -11    1    1    2    0    0 -0.12045741892E+02 -0.45688264020E+02 -0.56325829531E+01  0.47584066216E+02  0.00000000000E+00 0. -1.
         11    1    1    2    0    0 -0.33921230880E+02  0.93131768815E+01  0.68866972621E+02  0.77330751231E+02  0.00000000000E+00 0.  1.
</event>
<event>
 7    1  0.2788485E-009  0.1370811E+03  0.7561462E-02  0.1217311E+00
          2   -1    0    0  501    0  0.00000000000E+00  0.00000000000E+00  0.31754691004E+03  0.31754691004E+03  0.00000000000E+00 0. -1.
         -2   -1    0    0    0  501 -0.00000000000E+00 -0.00000000000E+00 -0.94534392762E+02  0.94534392762E+02  0.00000000000E+00 0.  1.
         25    2    1    2    0    0  0.12361362477E+03 -0.33095436137E+02  0.68168852468E+02  0.19149658860E+03  0.12509322474E+03 0.  0.
          5    1    3    3  502    0 -0.57569956918E+01 -0.74417366586E+01 -0.26938092314E+02  0.28838440689E+02  0.41800000000E+01 0.  1.
         -5    1    3    3    0  502  0.12937062046E+03 -0.25653699478E+02  0.95106944782E+02  0.16265814791E+03  0.41800000000E+01 0.  1.
        -11    1    1    2    0    0 -0.76083683597E+02  0.40129242889E+01  0.26499216596E+02  0.80666219394E+02  0.00000000000E+00 0.  1.
         11    1    1    2    0    0 -0.47529941171E+02  0.29082511848E+02  0.12834444822E+03  0.13991849481E+03  0.00000000000E+00 0. -1.
</event>
<event>
 7    1  0.2788485E-009  0.1134337E+03  0.7561462E-02  0.1254340E+00
          2   -1    0    0  501    0  0.00000000000E+00  0.00000000000E+00  0.10245032945E+04  0.10245032945E+04  0.00000000000E+00 0.  1.
         -2   -1    0    0    0  501 -0.00000000000E+00 -0.00000000000E+00 -0.31416806503E+02  0.31416806503E+02  0.00000000000E+00 0. -1.
         25    2    1    2    0    0 -0.61308779915E+02 -0.38338251407E+02  0.88356131748E+03  0.89529671523E+03  0.12508804314E+03 0.  0.
          5    1    3    3  502    0 -0.40729443778E+02 -0.84249776319E+02  0.54484342846E+03  0.55283699798E+03  0.41800000000E+01 0.  1.
         -5    1    3    3    0  502 -0.20579336137E+02  0.45911524912E+02  0.33871788901E+03  0.34245971724E+03  0.41800000000E+01 0.  1.
        -11    1    1    2    0    0  0.30968559490E+02  0.41963629015E+02  0.57811283677E+01  0.52473033857E+02  0.00000000000E+00 0. -1.
         11    1    1    2    0    0  0.30340220425E+02 -0.36253776077E+01  0.10374404212E+03  0.10815035189E+03  0.00000000000E+00 0.  1.
</event>
<event>
 7    1  0.2788485E-009  0.3056793E+03  0.7561462E-02  0.1082436E+00
         -2   -1    0    0    0  501 -0.00000000000E+00  0.00000000000E+00  0.14592898689E+03  0.14592898689E+03  0.00000000000E+00 0. -1.
          2   -1    0    0  501    0  0.00000000000E+00 -0.00000000000E+00 -0.70285574134E+03  0.70285574134E+03  0.00000000000E+00 0.  1.
         25    2    1    2    0    0 -0.26552754964E+03  0.13829444991E+03 -0.24509241439E+03  0.40663194834E+03  0.12509602443E+03 0.  0.
          5    1    3    3  502    0 -0.13615265460E+02  0.23190762579E+02 -0.79233237087E+02  0.83776877369E+02  0.41800000000E+01 0. -1.
         -5    1    3    3    0  502 -0.25191228418E+03  0.11510368733E+03 -0.16585917730E+03  0.32285507097E+03  0.41800000000E+01 0. -1.
        -11    1    1    2    0    0  0.25082003452E+03 -0.14633481765E+03 -0.26774029820E+03  0.39498029806E+03  0.00000000000E+00 0. -1.
         11    1    1    2    0    0  0.14707515117E+02  0.80403677412E+01 -0.44094041864E+02  0.47172481833E+02  0.00000000000E+00 0.  1.
</event>
<event>
 7    1  0.2788485E-009  0.1183358E+03  0.7561462E-02  0.1245868E+00
         -2   -1    0    0    0  501 -0.00000000000E+00  0.00000000000E+00  0.31725075145E+03  0.31725075145E+03  0.00000000000E+00 0.  1.
          2   -1    0    0  501    0  0.00000000000E+00 -0.00000000000E+00 -0.96546397974E+02  0.96546397974E+02  0.00000000000E+00 0. -1.
         25    2    1    2    0    0  0.88410886009E+02  0.50383188466E+02  0.83785872836E+01  0.16147002529E+03  0.12508963945E+03 0.  0.
          5    1    3    3  502    0  0.11866843159E+02  0.31426345946E+02 -0.52011872150E+02  0.62057589630E+02  0.41800000000E+01 0.  1.
         -5    1    3    3    0  502  0.76544042850E+02  0.18956842520E+02  0.60390459433E+02  0.99412435664E+02  0.41800000000E+01 0.  1.
        -11    1    1    2    0    0 -0.33587626407E+02 -0.59453110310E+02  0.16766174894E+03  0.18103387261E+03  0.00000000000E+00 0.  1.
         11    1    1    2    0    0 -0.54823259602E+02  0.90699218439E+01  0.44664017252E+02  0.71293251523E+02  0.00000000000E+00 0. -1.
</event>
<event>
 7    1  0.2788485E-009  0.1030507E+03  0.7561462E-02  0.1274008E+00
         -2   -1    0    0    0  501 -0.00000000000E+00  0.00000000000E+00  0.24452194573E+02  0.24452194573E+02  0.00000000000E+00 0. -1.
          2   -1    0    0  501    0  0.00000000000E+00 -0.00000000000E+00 -0.51244181641E+03  0.51244181641E+03  0.00000000000E+00 0.  1.
         25    2    1    2    0    0 -0.83315834121E+01 -0.19956173471E+02 -0.32616181266E+03  0.34999515269E+03  0.12508962679E+03 0.  0.
          5    1    3    3  502    0  0.53817797162E+02 -0.32444703317E+02 -0.14789041514E+03  0.16074222020E+03  0.41800000000E+01 0.  1.
         -5    1    3    3    0  502 -0.62149380574E+02  0.12488529846E+02 -0.17827139752E+03  0.18925293249E+03  0.41800000000E+01 0.  1.
        -11    1    1    2    0    0 -0.18681914571E+02  0.41192268239E+02 -0.40209426848E+02  0.60519541490E+02  0.00000000000E+00 0. -1.
         11    1    1    2    0    0  0.27013497983E+02 -0.21236094768E+02 -0.12161838233E+03  0.12637931680E+03  0.00000000000E+00 0.  1.
</event>
<event>
 7    1  0.2788485E-009  0.9893805E+02  0.7561462E-02  0.1282545E+00
          2   -1    0    0  501    0  0.00000000000E+00  0.00000000000E+00  0.62049490057E+02  0.62049490057E+02  0.00000000000E+00 0. -1.
         -2   -1    0    0    0  501 -0.00000000000E+00 -0.00000000000E+00 -0.29746863895E+03  0.29746863895E+03  0.00000000000E+00 0.  1.
         25    2    1    2    0    0 -0.28719071344E+02  0.23454865053E+02 -0.22527319118E+03  0.26032768233E+03  0.12509027049E+03 0.  0.
          5    1    3    3  502    0  0.35876598726E+02  0.11192626225E+02 -0.16231894472E+02  0.41150358639E+02  0.41800000000E+01 0.  1.
         -5    1    3    3    0  502 -0.64595670070E+02  0.12262238828E+02 -0.20904129670E+03  0.21917732369E+03  0.41800000000E+01 0.  1.
        -11    1    1    2    0    0  0.42297517123E+02  0.21337783094E+02  0.96891213617E+01  0.48355558263E+02  0.00000000000E+00 0. -1.
         11    1    1    2    0    0 -0.13578445779E+02 -0.44792648147E+02 -0.19835079076E+02  0.50834888411E+02  0.00000000000E+00 0.  1.
</event>
<event>
 7    1  0.2788485E-009  0.1263857E+03  0.7561462E-02  0.1232919E+00
          2   -1    0    0  501    0  0.00000000000E+00  0.00000000000E+00  0.13220842082E+04  0.13220842082E+04  0.00000000000E+00 0.  1.
         -2   -1    0    0    0  501 -0.00000000000E+00 -0.00000000000E+00 -0.12539199946E+02  0.12539199946E+02  0.00000000000E+00 0. -1.
         25    2    1    2    0    0  0.62752084516E+02  0.22403350574E+02  0.80635537176E+03  0.81871576174E+03  0.12508708458E+03 0.  0.
          5    1    3    3  502    0  0.75985442918E+02 -0.32166193233E+02  0.55612829264E+03  0.56223180433E+03  0.41800000000E+01 0.  1.
         -5    1    3    3    0  502 -0.13233358402E+02  0.54569543807E+02  0.25022707912E+03  0.25648395742E+03  0.41800000000E+01 0.  1.
        -11    1    1    2    0    0 -0.80934819764E+02 -0.38441663142E+02  0.39646342705E+03  0.40646212062E+03  0.00000000000E+00 0.  1.
         11    1    1    2    0    0  0.18182735249E+02  0.16038312568E+02  0.10672620949E+03  0.10944552582E+03  0.00000000000E+00 0. -1.
</event>
<event>
 7    1  0.2788485E-009  0.1204500E+03  0.7561462E-02  0.1242356E+00
          1   -1    0    0  501    0  0.00000000000E+00  0.00000000000E+00  0.44047230898E+02  0.44047230898E+02  0.00000000000E+00 0.  1.
         -1   -1    0    0    0  501 -0.00000000000E+00 -0.00000000000E+00 -0.39297678549E+03  0.39297678549E+03  0.00000000000E+00 0. -1.
         25    2    1    2    0    0 -0.42932642210E+02 -0.60211255050E+02 -0.19686465965E+03  0.24468944788E+03  0.12509446305E+03 0.  0.
          5    1    3    3  502    0 -0.78624014117E+02 -0.40720246891E+02 -0.74877456608E+02  0.11603439150E+03  0.41800000000E+01 0.  1.
         -5    1    3    3    0  502  0.35691371907E+02 -0.19491008159E+02 -0.12198720304E+03  0.12865505638E+03  0.41800000000E+01 0.  1.
        -11    1    1    2    0    0  0.63689171048E+02  0.21088794733E+02 -0.59302990747E+02  0.89542685260E+02  0.00000000000E+00 0.  1.
         11    1    1    2    0    0 -0.20756528838E+02  0.39122460317E+02 -0.92761904195E+02  0.10279188324E+03  0.00000000000E+00 0. -1.
</event>
<event>
 7    1  0.2788485E-009  0.8674921E+02  0.7561462E-02  0.1310921E+00
          3   -1    0    0  501    0  0.00000000000E+00  0.00000000000E+00  0.59154767469E+02  0.59154767469E+02  0.00000000000E+00 0. -1.
         -3   -1    0    0    0  501 -0.00000000000E+00 -0.00000000000E+00 -0.20404372291E+03  0.20404372291E+03  0.00000000000E+00 0.  1.
         25    2    1    2    0    0 -0.13997202544E+02  0.14655709250E+00 -0.97944959285E+02  0.15948821681E+03  0.12508930047E+03 0.  0.
          5    1    3    3  502    0  0.14598643973E+02  0.47069228590E+02 -0.28016491896E+01  0.49537403284E+02  0.41800000000E+01 0.  1.
         -5    1    3    3    0  502 -0.28595846517E+02 -0.46922671497E+02 -0.95143310095E+02  0.10995081352E+03  0.41800000000E+01 0.  1.
        -11    1    1    2    0    0  0.16813251613E+02  0.32273165061E+02 -0.58738142418E+02  0.69097119966E+02  0.00000000000E+00 0.  1.
         11    1    1    2    0    0 -0.28160490689E+01 -0.32419722153E+02  0.11794146258E+02  0.34613153610E+02  0.00000000000E+00 0. -1.
</event>
<event>
 7    1  0.2788485E-009  0.1597402E+03  0.7561462E-02  0.1188990E+00
         -2   -1    0    0    0  501 -0.00000000000E+00  0.00000000000E+00  0.38511714020E+02  0.38511714020E+02  0.00000000000E+00 0.  1.
          2   -1    0    0  501    0  0.00000000000E+00 -0.00000000000E+00 -0.81460449608E+03  0.81460449608E+03  0.00000000000E+00 0. -1.
         25    2    1    2    0    0  0.66538696256E+02  0.10294204666E+03 -0.24973019542E+03  0.30501963153E+03  0.12508933625E+03 0.  0.
          5    1    3    3  502    0  0.90866488407E+02  0.11011919896E+03 -0.23605275765E+03  0.27590094869E+03  0.41800000000E+01 0.  1.
         -5    1    3    3    0  502 -0.24327792151E+02 -0.71771522992E+01 -0.13677437767E+02  0.29118682834E+02  0.41800000000E+01 0.  1.
        -11    1    1    2    0    0 -0.21698731899E+02 -0.10385187746E+03 -0.32820116289E+03  0.34492325340E+03  0.00000000000E+00 0.  1.
         11    1    1    2    0    0 -0.44839964357E+02  0.90983079739E+00 -0.19816142376E+03  0.20317332517E+03  0.00000000000E+00 0. -1.
</event>
<event>
 7    1  0.2788485E-009  0.1408721E+03  0.7561462E-02  0.1212160E+00
         -2   -1    0    0    0  501 -0.00000000000E+00  0.00000000000E+00  0.72163685842E+02  0.72163685842E+02  0.00000000000E+00 0.  1.
          2   -1    0    0  501    0  0.00000000000E+00 -0.00000000000E+00 -0.35341372527E+03  0.35341372527E+03  0.00000000000E+00 0. -1.
         25    2    1    2    0    0 -0.92316669729E+01 -0.91520038735E+02 -0.53558564304E+02  0.16423841963E+03  0.12507836546E+03 0.  0.
          5    1    3    3  502    0  0.16890567589E+02 -0.11634257818E+03 -0.49883273523E+02  0.12777597641E+03  0.41800000000E+01 0.  1.
         -5    1    3    3    0  502 -0.26122234562E+02  0.24822539442E+02 -0.36752907814E+01  0.36462443215E+02  0.41800000000E+01 0.  1.
        -11    1    1    2    0    0  0.49187723052E+02  0.53526407373E+02 -0.14014587836E+03  0.15787772359E+03  0.00000000000E+00 0.  1.
         11    1    1    2    0    0 -0.39956056079E+02  0.37993631362E+02 -0.87545596761E+02  0.10346126789E+03  0.00000000000E+00 0. -1.
</event>
<event>
 7    1  0.2788485E-009  0.1595951E+03  0.7561462E-02  0.1189155E+00
          1   -1    0    0  501    0  0.00000000000E+00  0.00000000000E+00  0.45977138867E+03  0.45977138867E+03  0.00000000000E+00 0. -1.
         -1   -1    0    0    0  501 -0.00000000000E+00 -0.00000000000E+00 -0.59730575054E+02  0.59730575054E+02  0.00000000000E+00 0.  1.
         25    2    1    2    0    0 -0.76137663763E+02 -0.65505433657E+02  0.14994779286E+03  0.21958136369E+03  0.12507489361E+03 0.  0.
          5    1    3    3  502    0  0.32766503872E+02 -0.79290781871E+01  0.15992401990E+02  0.37546549486E+02  0.41800000000E+01 0. -1.
         -5    1    3    3    0  502 -0.10890416764E+03 -0.57576355470E+02  0.13395539087E+03  0.18203481420E+03  0.41800000000E+01 0. -1.
        -11    1    1    2    0    0  0.83649388868E+02 -0.11636357273E+02  0.16119558956E+03  0.18197978779E+03  0.00000000000E+00 0. -1.
         11    1    1    2    0    0 -0.75117251051E+01  0.77141790929E+02  0.88897431190E+02  0.11794081225E+03  0.00000000000E+00 0.  1.
</event>
<event>
 7    1  0.2788485E-009  0.8754707E+02  0.7561462E-02  0.1308903E+00
         -1   -1    0    0    0  501 -0.00000000000E+00  0.00000000000E+00  0.58324082930E+02  0.58324082930E+02  0.00000000000E+00 0.  1.
          1   -1    0    0  501    0  0.00000000000E+00 -0.00000000000E+00 -0.25904717160E+03  0.25904717160E+03  0.00000000000E+00 0. -1.
         25    2    1    2    0    0  0.76986178358E+01 -0.27312013447E+02 -0.16828178092E+03  0.21159486918E+03  0.12509362925E+03 0.  0.
          5    1    3    3  502    0  0.45013561652E+02  0.33098194362E+02 -0.88142785939E+02  0.10444297160E+03  0.41800000000E+01 0.  1.
         -5    1    3    3    0  502 -0.37314943816E+02 -0.60410207809E+02 -0.80138994977E+02  0.10715189758E+03  0.41800000000E+01 0.  1.
        -11    1    1    2    0    0  0.88404263558E+01 -0.60419079938E+01  0.30679428580E+02  0.32494386105E+02  0.00000000000E+00 0.  1.
         11    1    1    2    0    0 -0.16539044192E+02  0.33353921441E+02 -0.63120736336E+02  0.73281999248E+02  0.00000000000E+00 0. -1.
</event>
<event>
 7    1  0.2788485E-009  0.2566356E+03  0.7561462E-02  0.1109182E+00
         -1   -1    0    0    0  501 -0.00000000000E+00  0.00000000000E+00  0.36806076980E+02  0.36806076980E+02  0.00000000000E+00 0.  1.
          1   -1    0    0  501    0  0.00000000000E+00 -0.00000000000E+00 -0.26753568722E+04  0.26753568722E+04  0.00000000000E+00 0. -1.
         25    2    1    2    0    0 -0.24726550588E+03 -0.25212972148E+02 -0.20228880027E+04  0.20419345289E+04  0.12507927213E+03 0.  0.
          5    1    3    3  502    0 -0.19338270234E+03  0.19682192116E+02 -0.11590585162E+04  0.11752524727E+04  0.41800000000E+01 0.  1.
         -5    1    3    3    0  502 -0.53882803535E+02 -0.44895164264E+02 -0.86382948649E+03  0.86668205613E+03  0.41800000000E+01 0.  1.
        -11    1    1    2    0    0  0.72722017845E+02  0.93921124749E+01 -0.89827704449E+02  0.11595568181E+03  0.00000000000E+00 0.  1.
         11    1    1    2    0    0  0.17454348803E+03  0.15820859673E+02 -0.52583508808E+03  0.55427273853E+03  0.00000000000E+00 0. -1.
</event>
<event>
 7    1  0.2788485E-009  0.1336197E+03  0.7561462E-02  0.1222181E+00
          1   -1    0    0  501    0  0.00000000000E+00  0.00000000000E+00  0.13537095678E+04  0.13537095678E+04  0.00000000000E+00 0. -1.
         -1   -1    0    0    0  501 -0.00000000000E+00 -0.00000000000E+00 -0.15377518513E+02  0.15377518513E+02  0.00000000000E+00 0.  1.
         25    2    1    2    0    0 -0.52337137853E+02 -0.65393733104E+02  0.96178865590E+03  0.97349977098E+03  0.12509544020E+03 0.  0.
          5    1    3    3  502    0 -0.84754627946E+02 -0.78228980219E+02  0.73128614417E+03  0.74033777248E+03  0.41800000000E+01 0. -1.
         -5    1    3    3    0  502  0.32417490094E+02  0.12835247115E+02  0.23050251173E+03  0.23316199850E+03  0.41800000000E+01 0. -1.
        -11    1    1    2    0    0  0.20818207281E+02 -0.18023110720E+02  0.14240302851E+03  0.14504086598E+03  0.00000000000E+00 0. -1.
         11    1    1    2    0    0  0.31518930572E+02  0.83416843824E+02  0.23414036485E+03  0.25054644933E+03  0.00000000000E+00 0.  1.
</event>
<event>
 7    1  0.2788485E-009  0.1464562E+03  0.7561462E-02  0.1204896E+00
          1   -1    0    0  501    0  0.00000000000E+00  0.00000000000E+00  0.28381365859E+02  0.28381365859E+02  0.00000000000E+00 0. -1.
         -1   -1    0    0    0  501 -0.00000000000E+00 -0.00000000000E+00 -0.90896614882E+03  0.90896614882E+03  0.00000000000E+00 0.  1.
         25    2    1    2    0    0  0.80065348730E+02  0.84838678997E+02 -0.42728315174E+03  0.46024431061E+03  0.12508346081E+03 0.  0.
          5    1    3    3  502    0  0.57566905324E+02 -0.22916508710E+00 -0.29967544753E+03  0.30518330124E+03  0.41800000000E+01 0. -1.
         -5    1    3    3    0  502  0.22498443406E+02  0.85067844084E+02 -0.12760770421E+03  0.15506100937E+03  0.41800000000E+01 0. -1.
        -11    1    1    2    0    0  0.13112364679E+02 -0.43012400648E+02 -0.17388157103E+03  0.17960178580E+03  0.00000000000E+00 0. -1.
         11    1    1    2    0    0 -0.93177713409E+02 -0.41826278349E+02 -0.27942006019E+03  0.29750141827E+03  0.00000000000E+00 0.  1.
</event>
<event>
 7    1  0.2788485E-009  0.1739838E+03  0.7561462E-02  0.1173756E+00
          1   -1    0    0  501    0  0.00000000000E+00  0.00000000000E+00  0.75081114288E+03  0.75081114288E+03  0.00000000000E+00 0. -1.
         -1   -1    0    0    0  501 -0.00000000000E+00 -0.00000000000E+00 -0.46202106335E+02  0.46202106335E+02  0.00000000000E+00 0.  1.
         25    2    1    2    0    0 -0.14153585505E+03 -0.44178034663E+02  0.43757603039E+03  0.47864436069E+03  0.12507415658E+03 0.  0.
          5    1    3    3  502    0  0.67695455131E+01 -0.38854426639E+02  0.14810424742E+03  0.15332264581E+03  0.41800000000E+01 0. -1.
         -5    1    3    3    0  502 -0.14830540056E+03 -0.53236080246E+01  0.28947178297E+03  0.32532171488E+03  0.41800000000E+01 0. -1.
        -11    1    1    2    0    0  0.29987879868E+02  0.37615712069E+02  0.14562967627E+03  0.15336954503E+03  0.00000000000E+00 0.  1.
         11    1    1    2    0    0  0.11154797518E+03  0.65623225948E+01  0.12140332989E+03  0.16499934349E+03  0.00000000000E+00 0. -1.
</event>
<event>
 7    1  0.2916220E-009  0.1022365E+03  0.7561462E-02  0.1275662E+00
         -2   -1    0    0    0  501 -0.00000000000E+00  0.00000000000E+00  0.86372514376E+02  0.86372514376E+02  0.00000000000E+00 0.  1.
          2   -1    0    0  501    0  0.00000000000E+00 -0.00000000000E+00 -0.22953022930E+03  0.22953022930E+03  0.00000000000E+00 0. -1.
         25    2    1    2    0    0 -0.66191486137E+02  0.14570666191E+01 -0.14684705255E+03  0.20394908267E+03  0.12509090934E+03 0.  0.
          5    1    3    3  502    0 -0.10138308307E+03  0.45046705771E+01 -0.84300278049E+02  0.13199557140E+03  0.41800000000E+01 0.  1.
         -5    1    3    3    0  502  0.35191596929E+02 -0.30476039580E+01 -0.62546774499E+02  0.71953511273E+02  0.41800000000E+01 0.  1.
        -11    1    1    2    0    0  0.24245064324E+02  0.53781101399E+01 -0.42476778966E+02  0.49203901919E+02  0.00000000000E+00 0. -1.
         11    1    1    2    0    0  0.41946421813E+02 -0.68351767589E+01  0.46166116591E+02  0.62749759086E+02  0.00000000000E+00 0.  1.
</event>
<event>
 7    1  0.2788485E-009  0.1253751E+03  0.7561462E-02  0.1234484E+00
         -1   -1    0    0    0  501 -0.00000000000E+00  0.00000000000E+00  0.35490362191E+02  0.35490362191E+02  0.00000000000E+00 0.  1.
          1   -1    0    0  501    0  0.00000000000E+00 -0.00000000000E+00 -0.65978961400E+03  0.65978961400E+03  0.00000000000E+00 0. -1.
         25    2    1    2    0    0 -0.28448184993E+02 -0.77576489242E+02 -0.18042841104E+03  0.23458240030E+03  0.12508828925E+03 0.  0.
          5    1    3    3  502    0  0.34855151474E+02 -0.12470609077E+02 -0.11943939231E+03  0.12511450160E+03  0.41800000000E+01 0.  1.
         -5    1    3    3    0  502 -0.63303336467E+02 -0.65105880165E+02 -0.60989018724E+02  0.10946789870E+03  0.41800000000E+01 0.  1.
        -11    1    1    2    0    0  0.55315016150E+02  0.19585961561E+02 -0.18672729578E+03  0.19573053898E+03  0.00000000000E+00 0.  1.
         11    1    1    2    0    0 -0.26866831157E+02  0.57990527681E+02 -0.25714354499E+03  0.26496703691E+03  0.00000000000E+00 0. -1.
</event>
<event>
 7    1  0.2788485E-009  0.1847984E+03  0.7561462E-02  0.1163238E+00
          1   -1    0    0  501    0  0.00000000000E+00  0.00000000000E+00  0.40330385448E+03  0.40330385448E+03  0.00000000000E+00 0. -1.
         -1   -1    0    0    0  501 -0.00000000000E+00 -0.00000000000E+00 -0.13865845714E+03  0.13865845714E+03  0.00000000000E+00 0.  1.
         25    2    1    2    0    0  0.15800608757E+02  0.15937099943E+03 -0.18492401633E+02  0.20405408359E+03  0.12508926978E+03 0.  0.
          5    1    3    3  502    0  0.16008066241E+02 -0.17831583013E+02 -0.10856853097E+02  0.26637702542E+02  0.41800000000E+01 0. -1.
         -5    1    3    3    0  502 -0.20745748432E+00  0.17720258244E+03 -0.76355485360E+01  0.17741638105E+03  0.41800000000E+01 0. -1.
        -11    1    1    2    0    0  0.12152437435E+02 -0.91280072489E+01  0.91712673944E+02  0.92963524105E+02  0.00000000000E+00 0. -1.
         11    1    1    2    0    0 -0.27953046192E+02 -0.15024299218E+03  0.19142512502E+03  0.24494470393E+03  0.00000000000E+00 0.  1.
</event>
<event>
 7    1  0.3502935E-009  0.9862979E+02  0.7561462E-02  0.1283204E+00
         -1   -1    0    0    0  501 -0.00000000000E+00  0.00000000000E+00  0.21694484039E+03  0.21694484039E+03  0.00000000000E+00 0.  1.
          1   -1    0    0  501    0  0.00000000000E+00 -0.00000000000E+00 -0.80739709596E+02  0.80739709596E+02  0.00000000000E+00 0. -1.
         25    2    1    2    0    0  0.39391827295E+02 -0.42829210984E+02  0.20825563157E+02  0.13952394292E+03  0.12508864535E+03 0.  0.
          5    1    3    3  502    0  0.76024022182E+02 -0.58980483775E+02  0.23650973728E+02  0.99172528320E+02  0.41800000000E+01 0. -1.
         -5    1    3    3    0  502 -0.36632194887E+02  0.16151272791E+02 -0.28254105709E+01  0.40351414596E+02  0.41800000000E+01 0. -1.
        -11    1    1    2    0    0 -0.21832950748E+02  0.11243648039E+02  0.11930832631E+03  0.12180958126E+03  0.00000000000E+00 0.  1.
         11    1    1    2    0    0 -0.17558876548E+02  0.31585562946E+02 -0.39287586806E+01  0.36351025804E+02  0.00000000000E+00 0. -1.
</event>
<event>
 7    1  0.2788485E-009  0.8480494E+02  0.7561462E-02  0.1315943E+00
          1   -1    0    0  501    0  0.00000000000E+00  0.00000000000E+00  0.32641546397E+03  0.32641546397E+03  0.00000000000E+00 0. -1.
         -1   -1    0    0    0  501 -0.00000000000E+00 -0.00000000000E+00 -0.50068735048E+02  0.50068735048E+02  0.00000000000E+00 0.  1.
         25    2    1    2    0    0  0.49833005496E+02  0.24353596739E+02  0.95924308756E+02  0.16710743130E+03  0.12508794696E+03 0.  0.
          5    1    3    3  502    0  0.34808383549E+02  0.30718467945E+02 -0.19451729994E+02  0.50508316522E+02  0.41800000000E+01 0.  1.
         -5    1    3    3    0  502  0.15024621947E+02 -0.63648712054E+01  0.11537603875E+03  0.11659911478E+03  0.41800000000E+01 0.  1.
        -11    1    1    2    0    0  0.60367199899E+01 -0.45883402837E+02  0.82804632247E+02  0.94859558115E+02  0.00000000000E+00 0.  1.
         11    1    1    2    0    0 -0.55869725486E+02  0.21529806097E+02  0.97617787914E+02  0.11451720960E+03  0.00000000000E+00 0. -1.
</event>
<event>
 7    1  0.2788485E-009  0.9911127E+02  0.7561462E-02  0.1282176E+00
         -1   -1    0    0    0  501 -0.00000000000E+00  0.00000000000E+00  0.97493296905E+02  0.97493296905E+02  0.00000000000E+00 0.  1.
          1   -1    0    0  501    0  0.00000000000E+00 -0.00000000000E+00 -0.16116321046E+03  0.16116321046E+03  0.00000000000E+00 0. -1.
         25    2    1    2    0    0 -0.32770748774E+02 -0.33473264042E+02 -0.88626144543E+02  0.16030099777E+03  0.12508970785E+03 0.  0.
          5    1    3    3  502    0 -0.24258263387E+02  0.46597250771E+02 -0.30332658560E+02  0.60805507130E+02  0.41800000000E+01 0. -1.
         -5    1    3    3    0  502 -0.85124853864E+01 -0.80070514813E+02 -0.58293485983E+02  0.99495490641E+02  0.41800000000E+01 0. -1.
        -11    1    1    2    0    0 -0.74131296624E+01  0.21832698405E+02  0.46052133238E+02  0.51501652272E+02  0.00000000000E+00 0.  1.
         11    1    1    2    0    0  0.40183878436E+02  0.11640565638E+02 -0.21095902253E+02  0.46853857327E+02  0.00000000000E+00 0. -1.
</event>
<event>
 7    1  0.2788485E-009  0.8742837E+02  0.7561462E-02  0.1309202E+00
          4   -1    0    0  501    0  0.00000000000E+00  0.00000000000E+00  0.93525002720E+02  0.93525002720E+02  0.00000000000E+00 0. -1.
         -4   -1    0    0    0  501 -0.00000000000E+00 -0.00000000000E+00 -0.14419239416E+03  0.14419239416E+03  0.00000000000E+00 0.  1.
         25    2    1    2    0    0  0.29411974654E+02 -0.28795270545E+02 -0.25807040241E+02  0.13419197232E+03  0.12508896934E+03 0.  0.
          5    1    3    3  502    0  0.35607031680E+02  0.13955998506E+02 -0.65119099400E+02  0.75634648846E+02  0.41800000000E+01 0. -1.
         -5    1    3    3    0  502 -0.61950570255E+01 -0.42751269051E+02  0.39312059159E+02  0.58557323473E+02  0.41800000000E+01 0. -1.
        -11    1    1    2    0    0 -0.51579459500E+02 -0.57920907589E+01  0.58524368740E+01  0.52232556658E+02  0.00000000000E+00 0.  1.
         11    1    1    2    0    0  0.22167484845E+02  0.34587361304E+02 -0.30712788069E+02  0.51292867899E+02  0.00000000000E+00 0. -1.
</event>
<event>
 7    1  0.2788485E-009  0.1031075E+03  0.7561462E-02  0.1273894E+00
         -2   -1    0    0    0  501 -0.00000000000E+00  0.00000000000E+00  0.41118729105E+02  0.41118729105E+02  0.00000000000E+00 0.  1.
          2   -1    0    0  501    0  0.00000000000E+00 -0.00000000000E+00 -0.99373186120E+03  0.99373186120E+03  0.00000000000E+00 0. -1.
         25    2    1    2    0    0  0.75276075977E+01  0.27025312628E+02 -0.92382937721E+03  0.93268176011E+03  0.12509002783E+03 0.  0.
          5    1    3    3  502    0 -0.40360639018E+02 -0.28871192392E+02 -0.50143956022E+03  0.50390637214E+03  0.41800000000E+01 0. -1.
         -5    1    3    3    0  502  0.47888246616E+02  0.55896505020E+02 -0.42238981699E+03  0.42877538797E+03  0.41800000000E+01 0. -1.
        -11    1    1    2    0    0  0.35270427167E+02 -0.10323255363E+02 -0.40569168318E+02  0.54739657031E+02  0.00000000000E+00 0. -1.
         11    1    1    2    0    0 -0.42798034765E+02 -0.16702057265E+02  0.11785413431E+02  0.47429173157E+02  0.00000000000E+00 0.  1.
</event>
<event>
 7    1  0.2788485E-009  0.1085558E+03  0.7561462E-02  0.1263268E+00
         -2   -1    0    0    0  501 -0.00000000000E+00  0.00000000000E+00  0.85003236526E+02  0.85003236526E+02  0.00000000000E+00 0.  1.
          2   -1    0    0  501    0  0.00000000000E+00 -0.00000000000E+00 -0.19472579402E+03  0.19472579402E+03  0.00000000000E+00 0. -1.
         25    2    1    2    0    0  0.69749064245E+01 -0.67116721735E+02 -0.44660188784E+02  0.14897930797E+03  0.12508796139E+03 0.  0.
          5    1    3    3  502    0  0.64956960152E+02 -0.28266610922E+02 -0.32328179812E+02  0.77980712841E+02  0.41800000000E+01 0.  1.
         -5    1    3    3    0  502 -0.57982053728E+02 -0.38850110814E+02 -0.12332008972E+02  0.70998595127E+02  0.41800000000E+01 0.  1.
        -11    1    1    2    0    0  0.52011097239E+01  0.63234867151E+02 -0.85605907323E+02  0.10655548477E+03  0.00000000000E+00 0. -1.
         11    1    1    2    0    0 -0.12176016148E+02  0.38818545843E+01  0.20543538615E+02  0.24194237807E+02  0.00000000000E+00 0.  1.
</event>
<event>
 7    1  0.2788485E-009  0.1282747E+03  0.7561462E-02  0.1230038E+00
         -2   -1    0    0    0  501 -0.00000000000E+00  0.00000000000E+00  0.29008864438E+02  0.29008864438E+02  0.00000000000E+00 0.  1.
          2   -1    0    0  501    0  0.00000000000E+00 -0.00000000000E+00 -0.75582856031E+03  0.75582856031E+03  0.00000000000E+00 0. -1.
         25    2    1    2    0    0  0.46375941089E+02 -0.85556172831E+02 -0.49301760778E+03  0.51786331350E+03  0.12508182629E+03 0.  0.
          5    1    3    3  502    0 -0.42800778681E+02 -0.32696936051E+02 -0.19271282904E+03  0.20014170770E+03  0.41800000000E+01 0. -1.
         -5    1    3    3    0  502  0.89176719770E+02 -0.52859236780E+02 -0.30030477874E+03  0.31772160580E+03  0.41800000000E+01 0. -1.
        -11    1    1    2    0    0 -0.19944909002E+02  0.54276937274E+02 -0.43618897791E+02  0.72431992651E+02  0.00000000000E+00 0.  1.
         11    1    1    2    0    0 -0.26431032087E+02  0.31279235556E+02 -0.19018319030E+03  0.19454211859E+03  0.00000000000E+00 0. -1.
</event>
<event>
 7    1  0.2788485E-009  0.8470353E+02  0.7561462E-02  0.1316210E+00
         -2   -1    0    0    0  501 -0.00000000000E+00  0.00000000000E+00  0.33696399408E+02  0.33696399408E+02  0.00000000000E+00 0. -1.
          2   -1    0    0  501    0  0.00000000000E+00 -0.00000000000E+00 -0.39058885341E+03  0.39058885341E+03  0.00000000000E+00 0.  1.
         25    2    1    2    0    0 -0.48478979140E+02  0.12140512573E+02 -0.22411000870E+03  0.26147656323E+03  0.12508834341E+03 0.  0.
          5    1    3    3  502    0 -0.44206553673E+02 -0.43126527626E+02 -0.52756567109E+02  0.81331694596E+02  0.41800000000E+01 0. -1.
         -5    1    3    3    0  502 -0.42724254670E+01  0.55267040198E+02 -0.17135344159E+03  0.18014486864E+03  0.41800000000E+01 0. -1.
        -11    1    1    2    0    0  0.22684435768E+02  0.15090109288E+01 -0.13165505444E+03  0.13360357069E+03  0.00000000000E+00 0.  1.
         11    1    1    2    0    0  0.25794543372E+02 -0.13649523501E+02 -0.11273908588E+01  0.29205118896E+02  0.00000000000E+00 0. -1.
</event>
<event>
 7    1  0.2788485E-009  0.8894497E+02  0.7561462E-02  0.1305427E+00
          1   -1    0    0  501    0  0.00000000000E+00  0.00000000000E+00  0.12623351301E+03  0.12623351301E+03  0.00000000000E+00 0. -1.
         -1   -1    0    0    0  501 -0.00000000000E+00 -0.00000000000E+00 -0.11925546793E+03  0.11925546793E+03  0.00000000000E+00 0.  1.
         25    2    1    2    0    0  0.11585127094E+02 -0.49696773060E+01 -0.53603730081E+02  0.13666591912E+03  0.12508117648E+03 0.  0.
          5    1    3    3  502    0 -0.51825626436E+02  0.84148761169E+01 -0.48372811692E+02  0.71512984880E+02  0.41800000000E+01 0. -1.
         -5    1    3    3    0  502  0.63410753529E+02 -0.13384553423E+02 -0.52309183895E+01  0.65152934245E+02  0.41800000000E+01 0. -1.
        -11    1    1    2    0    0  0.57193284062E+01  0.29615520234E+02  0.70852495549E+02  0.77005622403E+02  0.00000000000E+00 0. -1.
         11    1    1    2    0    0 -0.17304455500E+02 -0.24645842928E+02 -0.10270720387E+02  0.31817439417E+02  0.00000000000E+00 0.  1.
</event>
<event>
 7    1  0.2788485E-009  0.9257194E+02  0.7561462E-02  0.1296740E+00
         -2   -1    0    0    0  501 -0.00000000000E+00  0.00000000000E+00  0.81174311158E+02  0.81174311158E+02  0.00000000000E+00 0.  1.
          2   -1    0    0  501    0  0.00000000000E+00 -0.00000000000E+00 -0.18530992082E+03  0.18530992082E+03  0.00000000000E+00 0. -1.
         25    2    1    2    0    0  0.20819398951E+02  0.53434307017E+02 -0.53021379805E+02  0.14746989711E+03  0.12508969301E+03 0.  0.
          5    1    3    3  502    0 -0.13048798435E+02 -0.36514403342E+01 -0.75841563763E+02  0.77155812167E+02  0.41800000000E+01 0. -1.
         -5    1    3    3    0  502  0.33868197386E+02  0.57085747351E+02  0.22820183958E+02  0.70314084938E+02  0.41800000000E+01 0. -1.
        -11    1    1    2    0    0  0.29874567336E+02  0.12344643942E+01 -0.24894053568E+01  0.30003513376E+02  0.00000000000E+00 0.  1.
         11    1    1    2    0    0 -0.50693966287E+02 -0.54668771411E+02 -0.48624824498E+02  0.89010821494E+02  0.00000000000E+00 0. -1.
</event>
<event>
 7    1  0.2788485E-009  0.1243701E+03  0.7561462E-02  0.1236057E+00
         -1   -1    0    0    0  501 -0.00000000000E+00  0.00000000000E+00  0.60440626018E+02  0.60440626018E+02  0.00000000000E+00 0.  1.
          1   -1    0    0  501    0  0.00000000000E+00 -0.00000000000E+00 -0.43997738555E+03  0.43997738555E+03  0.00000000000E+00 0. -1.
         25    2    1    2    0    0  0.93096101853E+02 -0.13747721329E+02 -0.84365943252E+02  0.17781748024E+03  0.12508221247E+03 0.  0.
          5    1    3    3  502    0  0.10617979073E+03 -0.13494985931E+02 -0.10696038225E+03  0.15137456317E+03  0.41800000000E+01 0. -1.
         -5    1    3    3    0  502 -0.13083688877E+02 -0.25273539877E+00  0.22594438995E+02  0.26442917073E+02  0.41800000000E+01 0. -1.
        -11    1    1    2    0    0  0.16820886388E+02 -0.16302459279E+01 -0.21984372259E+02  0.27729272336E+02  0.00000000000E+00 0.  1.
         11    1    1    2    0    0 -0.10991698824E+03  0.15377967257E+02 -0.27318644402E+03  0.29487125898E+03  0.00000000000E+00 0. -1.
</event>
<event>
 7    1  0.2788485E-009  0.1199597E+03  0.7561462E-02  0.1243164E+00
         -2   -1    0    0    0  501 -0.00000000000E+00  0.00000000000E+00  0.21670921598E+02  0.21670921598E+02  0.00000000000E+00 0.  1.
          2   -1    0    0  501    0  0.00000000000E+00 -0.00000000000E+00 -0.90511907742E+03  0.90511907742E+03  0.00000000000E+00 0. -1.
         25    2    1    2    0    0  0.29222160137E+02 -0.69471184454E+02 -0.63938146770E+03  0.65584758147E+03  0.12508880354E+03 0.  0.
          5    1    3    3  502    0 -0.28547662306E+02 -0.67551117201E+02 -0.20796716321E+03  0.22055823683E+03  0.41800000000E+01 0.  1.
         -5    1    3    3    0  502  0.57769822443E+02 -0.19200672531E+01 -0.43141430448E+03  0.43528934464E+03  0.41800000000E+01 0.  1.
        -11    1    1    2    0    0 -0.34234670130E+02  0.85297283303E+02 -0.23429766405E+03  0.25168042148E+03  0.00000000000E+00 0. -1.
         11    1    1    2    0    0  0.50125099925E+01 -0.15826098849E+02 -0.97690240765E+01  0.19261996070E+02  0.00000000000E+00 0.  1.
</event>
<event>
 7    1  0.2788485E-009  0.1169728E+03  0.7561462E-02  0.1248176E+00
         -2   -1    0    0    0  501 -0.00000000000E+00  0.00000000000E+00  0.11079308688E+03  0.11079308688E+03  0.00000000000E+00 0.  1.
          2   -1    0    0  501    0  0.00000000000E+00 -0.00000000000E+00 -0.20525973552E+03  0.20525973552E+03  0.00000000000E+00 0. -1.
         25    2    1    2    0    0 -0.60317149043E+02 -0.83686490735E+02 -0.63133828913E+02  0.17399547100E+03  0.12508779467E+03 0.  0.
          5    1    3    3  502    0 -0.79189757894E+02 -0.61326110588E+02 -0.89500858209E+02  0.13438670178E+03  0.41800000000E+01 0.  1.
         -5    1    3    3    0  502  0.18872608851E+02 -0.22360380146E+02  0.26367029296E+02  0.39608769219E+02  0.41800000000E+01 0.  1.
        -11    1    1    2    0    0  0.15174799637E+02  0.11657069567E+02  0.31149835803E+02  0.36557818390E+02  0.00000000000E+00 0.  1.
         11    1    1    2    0    0  0.45142349406E+02  0.72029421168E+02 -0.62482655526E+02  0.10549953301E+03  0.00000000000E+00 0. -1.
</event>
<event>
 7    1  0.2788485E-009  0.9110289E+02  0.7561462E-02  0.1300203E+00
         -2   -1    0    0    0  501 -0.00000000000E+00  0.00000000000E+00  0.16038158516E+02  0.16038158516E+02  0.00000000000E+00 0.  1.
          2   -1    0    0  501    0  0.00000000000E+00 -0.00000000000E+00 -0.52467679259E+03  0.52467679259E+03  0.00000000000E+00 0. -1.
         25    2    1    2    0    0  0.98506517672E+01  0.23801525395E+01 -0.32101754582E+03  0.34467369229E+03  0.12507993029E+03 0.  0.
          5    1    3    3  502    0  0.17584198215E+02  0.62285102747E+02 -0.15953937244E+03  0.17221765824E+03  0.41800000000E+01 0. -1.
         -5    1    3    3    0  502 -0.77335464480E+01 -0.59904950207E+02 -0.16147817339E+03  0.17245603405E+03  0.41800000000E+01 0. -1.
        -11    1    1    2    0    0  0.23444300663E+02 -0.16388152406E+01 -0.74362713357E+02  0.77988038101E+02  0.00000000000E+00 0.  1.
         11    1    1    2    0    0 -0.33294952430E+02 -0.74133729887E+00 -0.11325837489E+03  0.11805322072E+03  0.00000000000E+00 0. -1.
</event>
<event>
 7    1  0.2788485E-009  0.9493121E+02  0.7561462E-02  0.1291331E+00
         -1   -1    0    0    0  501 -0.00000000000E+00  0.00000000000E+00  0.31851690319E+02  0.31851690319E+02  0.00000000000E+00 0.  1.
          1   -1    0    0  501    0  0.00000000000E+00 -0.00000000000E+00 -0.59467027564E+03  0.59467027564E+03  0.00000000000E+00 0. -1.
         25    2    1    2    0    0  0.68138665929E+02 -0.27834531762E+02 -0.39942549645E+03  0.42497638039E+03  0.12508620116E+03 0.  0.
          5    1    3    3  502    0  0.55167899595E+02  0.23611519088E+02 -0.33967628224E+03  0.34496151973E+03  0.41800000000E+01 0.  1.
         -5    1    3    3    0  502  0.12970766335E+02 -0.51446050851E+02 -0.59749214219E+02  0.80014860665E+02  0.41800000000E+01 0.  1.
        -11    1    1    2    0    0 -0.28114782756E+02  0.68151204434E+00  0.29843121741E+01  0.28280940353E+02  0.00000000000E+00 0.  1.
         11    1    1    2    0    0 -0.40023883173E+02  0.27153019718E+02 -0.16637740104E+03  0.17326464522E+03  0.00000000000E+00 0. -1.
</event>
<event>
 7    1  0.2788485E-009  0.2327432E+03  0.7561462E-02  0.1124724E+00
          2   -1    0    0  501    0  0.00000000000E+00  0.00000000000E+00  0.23563689976E+03  0.23563689976E+03  0.00000000000E+00 0. -1.
         -2   -1    0    0    0  501 -0.00000000000E+00 -0.00000000000E+00 -0.42568756564E+03  0.42568756564E+03  0.00000000000E+00 0.  1.
         25    2    1    2    0    0  0.20572113925E+03 -0.93493526034E+02  0.10460101462E+03  0.27865962692E+03  0.12509032284E+03 0.  0.
          5    1    3    3  502    0  0.41695719242E+01 -0.11220816225E+01  0.49902700018E+02  0.50263269554E+02  0.41800000000E+01 0. -1.
         -5    1    3    3    0  502  0.20155156733E+03 -0.92371444412E+02  0.54698314602E+02  0.22839635736E+03  0.41800000000E+01 0. -1.
        -11    1    1    2    0    0 -0.19562015201E+03  0.62861319322E+02 -0.27983674224E+03  0.34717055124E+03  0.00000000000E+00 0.  1.
         11    1    1    2    0    0 -0.10100987240E+02  0.30632206712E+02 -0.14814938257E+02  0.35494287242E+02  0.00000000000E+00 0. -1.
</event>
<event>
 7    1  0.2788485E-009  0.2003614E+03  0.7561462E-02  0.1149434E+00
          2   -1    0    0  501    0  0.00000000000E+00  0.00000000000E+00  0.16282748378E+04  0.16282748378E+04  0.00000000000E+00 0. -1.
         -2   -1    0    0    0  501 -0.00000000000E+00 -0.00000000000E+00 -0.28991010979E+02  0.28991010979E+02  0.00000000000E+00 0.  1.
         25    2    1    2    0    0  0.71192855878E+02 -0.16305405679E+03  0.10470471405E+04  0.10693974868E+04  0.12509285425E+03 0.  0.
          5    1    3    3  502    0  0.75168425186E+02 -0.45560267388E+02  0.28353562375E+03  0.29687699885E+03  0.41800000000E+01 0.  1.
         -5    1    3    3    0  502 -0.39755693081E+01 -0.11749378940E+03  0.76351151678E+03  0.77252048799E+03  0.41800000000E+01 0.  1.
        -11    1    1    2    0    0 -0.89090260613E+02  0.13209604522E+03  0.49831058971E+03  0.52316334305E+03  0.00000000000E+00 0. -1.
         11    1    1    2    0    0  0.17897404736E+02  0.30958011573E+02  0.53926096547E+02  0.64705018859E+02  0.00000000000E+00 0.  1.
</event>
<event>
 7    1  0.2788485E-009  0.9184434E+02  0.7561462E-02  0.1298446E+00
          2   -1    0    0  501    0  0.00000000000E+00  0.00000000000E+00  0.24754155888E+02  0.24754155888E+02  0.00000000000E+00 0. -1.
         -2   -1    0    0    0  501 -0.00000000000E+00 -0.00000000000E+00 -0.62109992266E+03  0.62109992266E+03  0.00000000000E+00 0.  1.
         25    2    1    2    0    0 -0.51806973404E+02  0.34770775190E+02 -0.31969881769E+03  0.34892370215E+03  0.12508975414E+03 0.  0.
          5    1    3    3  502    0 -0.26004574687E+02  0.47115512846E+02 -0.31505542000E+03  0.31964589709E+03  0.41800000000E+01 0. -1.
         -5    1    3    3    0  502 -0.25802398716E+02 -0.12344737655E+02 -0.46433976930E+01  0.29277805065E+02  0.41800000000E+01 0. -1.
        -11    1    1    2    0    0  0.40858998944E+02  0.19617638606E+02 -0.73565414276E+02  0.86407058258E+02  0.00000000000E+00 0. -1.
         11    1    1    2    0    0  0.10947974459E+02 -0.54388413797E+02 -0.20308153480E+03  0.21052331813E+03  0.00000000000E+00 0.  1.
</event>
<event>
 7    1  0.2788485E-009  0.9442772E+02  0.7561462E-02  0.1292470E+00
         -2   -1    0    0    0  501 -0.00000000000E+00  0.00000000000E+00  0.41459091796E+02  0.41459091796E+02  0.00000000000E+00 0.  1.
          2   -1    0    0  501    0  0.00000000000E+00 -0.00000000000E+00 -0.46357816086E+03  0.46357816086E+03  0.00000000000E+00 0. -1.
         25    2    1    2    0    0 -0.72598934192E+02 -0.42366472281E+01 -0.32025770324E+03  0.35142651504E+03  0.12508814717E+03 0.  0.
          5    1    3    3  502    0 -0.38109679496E+02  0.83669676919E+01 -0.12104595398E+02  0.41065161017E+02  0.41800000000E+01 0.  1.
         -5    1    3    3    0  502 -0.34489254696E+02 -0.12603614920E+02 -0.30815310784E+03  0.31036135403E+03  0.41800000000E+01 0.  1.
        -11    1    1    2    0    0  0.85708537360E+02  0.23942156826E+02 -0.66639683914E+02  0.11117566155E+03  0.00000000000E+00 0.  1.
         11    1    1    2    0    0 -0.13109603168E+02 -0.19705509598E+02 -0.35221681906E+02  0.42435076057E+02  0.00000000000E+00 0. -1.
</event>
<event>
 7    1  0.2788485E-009  0.1440007E+03  0.7561462E-02  0.1208045E+00
         -2   -1    0    0    0  501 -0.00000000000E+00  0.00000000000E+00  0.53448482270E+02  0.53448482270E+02  0.00000000000E+00 0.  1.
          2   -1    0    0  501    0  0.00000000000E+00 -0.00000000000E+00 -0.48951458495E+03  0.48951458495E+03  0.00000000000E+00 0. -1.
         25    2    1    2    0    0 -0.82124921368E+02  0.44555348192E+02 -0.11417656517E+03  0.19342703426E+03  0.12509215716E+03 0.  0.
          5    1    3    3  502    0 -0.25849766486E+02 -0.43659641204E+02 -0.30190626540E+02  0.59188858988E+02  0.41800000000E+01 0. -1.
         -5    1    3    3    0  502 -0.56275154882E+02  0.88214989395E+02 -0.83985938634E+02  0.13423817527E+03  0.41800000000E+01 0. -1.
        -11    1    1    2    0    0 -0.20416724996E+02  0.37006897659E+00 -0.86540890368E+02  0.88917407274E+02  0.00000000000E+00 0. -1.
         11    1    1    2    0    0  0.10254164636E+03 -0.44925417168E+02 -0.23534864714E+03  0.26061862569E+03  0.00000000000E+00 0.  1.
</event>
<event>
 7    1  0.2788485E-009  0.1047420E+03  0.7561462E-02  0.1270629E+00
          2   -1    0    0  501    0  0.00000000000E+00  0.00000000000E+00  0.14833069966E+03  0.14833069966E+03  0.00000000000E+00 0. -1.
         -2   -1    0    0    0  501 -0.00000000000E+00 -0.00000000000E+00 -0.89588182487E+02  0.89588182487E+02  0.00000000000E+00 0.  1.
         25    2    1    2    0    0 -0.10896113671E+02  0.38766575778E+02  0.30483133363E+02  0.13489654449E+03  0.12508510544E+03 0.  0.
          5    1    3    3  502    0  0.29189465607E+02 -0.24758526148E+02 -0.20883219451E+02  0.43801721131E+02  0.41800000000E+01 0. -1.
         -5    1    3    3    0  502 -0.40085579278E+02  0.63525101926E+02  0.51366352814E+02  0.91094823355E+02  0.41800000000E+01 0. -1.
        -11    1    1    2    0    0  0.24381871360E+01 -0.66607615930E+02  0.70678199839E+01  0.67025915404E+02  0.00000000000E+00 0.  1.
         11    1    1    2    0    0  0.84579265347E+01  0.27841040152E+02  0.21191563830E+02  0.35996422261E+02  0.00000000000E+00 0. -1.
</event>
<event>
 7    1  0.2788485E-009  0.1257616E+03  0.7561462E-02  0.1233884E+00
          1   -1    0    0  501    0  0.00000000000E+00  0.00000000000E+00  0.79672413506E+02  0.79672413506E+02  0.00000000000E+00 0. -1.
         -1   -1    0    0    0  501 -0.00000000000E+00 -0.00000000000E+00 -0.32511591013E+03  0.32511591013E+03  0.00000000000E+00 0.  1.
         25    2    1    2    0    0 -0.86927066466E+02 -0.38554316966E+01 -0.23346851436E+03  0.27879424020E+03  0.12508997536E+03 0.  0.
          5    1    3    3  502    0  0.83459118826E+01  0.26939642618E+02 -0.45108519188E+01  0.28865529175E+02  0.41800000000E+01 0.  1.
         -5    1    3    3    0  502 -0.95272978349E+02 -0.30795074315E+02 -0.22895766244E+03  0.24992871102E+03  0.41800000000E+01 0.  1.
        -11    1    1    2    0    0  0.92613311121E+02  0.28977845101E+02 -0.19868144563E+02  0.99053945262E+02  0.00000000000E+00 0.  1.
         11    1    1    2    0    0 -0.56862446554E+01 -0.25122413405E+02  0.78931622992E+01  0.26940138171E+02  0.00000000000E+00 0. -1.
</event>
<event>
 7    1  0.2788485E-009  0.7898056E+02  0.7561462E-02  0.1331970E+00
          1   -1    0    0  501    0  0.00000000000E+00  0.00000000000E+00  0.17420037967E+03  0.17420037967E+03  0.00000000000E+00 0. -1.
         -1   -1    0    0    0  501 -0.00000000000E+00 -0.00000000000E+00 -0.88090084990E+02  0.88090084990E+02  0.00000000000E+00 0.  1.
         25    2    1    2    0    0 -0.22832664992E+02 -0.33779401875E+02 -0.57822964095E+01  0.13169257315E+03  0.12508844987E+03 0.  0.
          5    1    3    3  502    0 -0.54696249807E+02  0.11044544883E+02 -0.38167159984E+02  0.67733789322E+02  0.41800000000E+01 0.  1.
         -5    1    3    3    0  502  0.31863584814E+02 -0.44823946758E+02  0.32384863575E+02  0.63958783830E+02  0.41800000000E+01 0.  1.
        -11    1    1    2    0    0  0.26594292437E+02  0.22093228995E+02  0.10623458539E+03  0.11171908651E+03  0.00000000000E+00 0. -1.
         11    1    1    2    0    0 -0.37616274452E+01  0.11686172880E+02 -0.14341994300E+02  0.18878804998E+02  0.00000000000E+00 0.  1.
</event>
<event>
 7    1  0.2788485E-009  0.1177011E+03  0.7561462E-02  0.1246938E+00
          2   -1    0    0  501    0  0.00000000000E+00  0.00000000000E+00  0.97810134274E+03  0.97810134274E+03  0.00000000000E+00 0. -1.
         -2   -1    0    0    0  501 -0.00000000000E+00 -0.00000000000E+00 -0.15110611900E+02  0.15110611900E+02  0.00000000000E+00 0.  1.
         25    2    1    2    0    0 -0.36988743860E+02 -0.33100523346E+02  0.44194909318E+03  0.46198542897E+03  0.12509086218E+03 0.  0.
          5    1    3    3  502    0 -0.57541077683E+02  0.32132815513E+02  0.21296107300E+03  0.22296498485E+03  0.41800000000E+01 0.  1.
         -5    1    3    3    0  502  0.20552333823E+02 -0.65233338859E+02  0.22898802018E+03  0.23902044412E+03  0.41800000000E+01 0.  1.
        -11    1    1    2    0    0 -0.29029642093E+02  0.70736098988E+01  0.10467878836E+03  0.10885956462E+03  0.00000000000E+00 0.  1.
         11    1    1    2    0    0  0.66018385953E+02  0.26026913447E+02  0.41636284931E+03  0.42236696105E+03  0.00000000000E+00 0. -1.
</event>
<event>
 7    1  0.2788485E-009  0.1860285E+03  0.7561462E-02  0.1162093E+00
         -1   -1    0    0    0  501 -0.00000000000E+00  0.00000000000E+00  0.55811950156E+02  0.55811950156E+02  0.00000000000E+00 0.  1.
          1   -1    0    0  501    0  0.00000000000E+00 -0.00000000000E+00 -0.80873675778E+03  0.80873675778E+03  0.00000000000E+00 0. -1.
         25    2    1    2    0    0  0.13327317557E+03 -0.10836630538E+03 -0.51307968314E+03  0.55533741168E+03  0.12507551357E+03 0.  0.
          5    1    3    3  502    0  0.24873400820E+00 -0.16478052953E+02  0.38324420314E+00  0.17006098137E+02  0.41800000000E+01 0.  1.
         -5    1    3    3    0  502  0.13302444156E+03 -0.91888252430E+02 -0.51346292734E+03  0.53833131354E+03  0.41800000000E+01 0.  1.
        -11    1    1    2    0    0 -0.10052503889E+02  0.60187267618E+02 -0.96195638629E+02  0.11391734244E+03  0.00000000000E+00 0. -1.
         11    1    1    2    0    0 -0.12322067168E+03  0.48179037765E+02 -0.14364948586E+03  0.19529395382E+03  0.00000000000E+00 0.  1.
</event>
<event>
 7    1  0.2788485E-009  0.1536517E+03  0.7561462E-02  0.1196056E+00
         -2   -1    0    0    0  501 -0.00000000000E+00  0.00000000000E+00  0.12104098385E+03  0.12104098385E+03  0.00000000000E+00 0.  1.
          2   -1    0    0  501    0  0.00000000000E+00 -0.00000000000E+00 -0.28704223359E+03  0.28704223359E+03  0.00000000000E+00 0. -1.
         25    2    1    2    0    0 -0.91213391543E+02  0.10646893503E+03 -0.15068390931E+03  0.24084960464E+03  0.12508946640E+03 0.  0.
          5    1    3    3  502    0 -0.43590406208E+01  0.19731164009E+02 -0.10932224064E+03  0.11125261690E+03  0.41800000000E+01 0.  1.
         -5    1    3    3    0  502 -0.86854350922E+02  0.86737771021E+02 -0.41361668676E+02  0.12959698774E+03  0.41800000000E+01 0.  1.
        -11    1    1    2    0    0 -0.14309607261E+02 -0.30916777682E+02 -0.15557436921E+02  0.37451913779E+02  0.00000000000E+00 0.  1.
         11    1    1    2    0    0  0.10552299880E+03 -0.75552157348E+02  0.24009649902E+00  0.12978169903E+03  0.00000000000E+00 0. -1.
</event>
<event>
 7    1  0.2788485E-009  0.9661528E+02  0.7561462E-02  0.1287579E+00
         -1   -1    0    0    0  501 -0.00000000000E+00  0.00000000000E+00  0.27653882417E+03  0.27653882417E+03  0.00000000000E+00 0.  1.
          1   -1    0    0  501    0  0.00000000000E+00 -0.00000000000E+00 -0.42123479714E+02  0.42123479714E+02  0.00000000000E+00 0. -1.
         25    2    1    2    0    0 -0.25845408465E+01  0.27944171402E+01  0.15154883959E+03  0.19653455428E+03  0.12507714270E+03 0.  0.
          5    1    3    3  502    0  0.46196904444E+01 -0.59302392917E+02  0.53125703533E+02  0.79861931616E+02  0.41800000000E+01 0. -1.
         -5    1    3    3    0  502 -0.72042312909E+01  0.62096810057E+02  0.98423136056E+02  0.11667262266E+03  0.41800000000E+01 0. -1.
        -11    1    1    2    0    0 -0.14148073896E+02 -0.33285935438E+02  0.45724295884E+01  0.36455844597E+02  0.00000000000E+00 0. -1.
         11    1    1    2    0    0  0.16732614743E+02  0.30491518297E+02  0.78294075280E+02  0.85671905011E+02  0.00000000000E+00 0.  1.
</event>
<event>
 7    1  0.2788485E-009  0.1756796E+03  0.7561462E-02  0.1172051E+00
         -3   -1    0    0    0  501 -0.00000000000E+00  0.00000000000E+00  0.12503977510E+03  0.12503977510E+03  0.00000000000E+00 0.  1.
          3   -1    0    0  501    0  0.00000000000E+00 -0.00000000000E+00 -0.32587344134E+03  0.32587344134E+03  0.00000000000E+00 0. -1.
         25    2    1    2    0    0 -0.71182342931E+02  0.15577080041E+03 -0.87620830711E+02  0.22946952579E+03  0.12508950831E+03 0.  0.
          5    1    3    3  502    0 -0.51016328148E+01  0.25706890161E+02  0.31421599458E+02  0.41129796639E+02  0.41800000000E+01 0. -1.
         -5    1    3    3    0  502 -0.66080710116E+02  0.13006391024E+03 -0.11904243017E+03  0.18833972915E+03  0.41800000000E+01 0. -1.
        -11    1    1    2    0    0  0.28161400812E+02 -0.15485275609E+02  0.56204098731E+01  0.32625868012E+02  0.00000000000E+00 0.  1.
         11    1    1    2    0    0  0.43020942120E+02 -0.14028552480E+03 -0.11883324540E+03  0.18881782263E+03  0.00000000000E+00 0. -1.
</event>
<event>
 7    1  0.2788485E-009  0.1042502E+03  0.7561462E-02  0.1271604E+00
         -2   -1    0    0    0  501 -0.00000000000E+00  0.00000000000E+00  0.70604357279E+02  0.70604357279E+02  0.00000000000E+00 0.  1.
          2   -1    0    0  501    0  0.00000000000E+00 -0.00000000000E+00 -0.26035404809E+03  0.26035404809E+03  0.00000000000E+00 0. -1.
         25    2    1    2    0    0 -0.74158438560E+02 -0.15281264934E+01 -0.14315856256E+03  0.20406790267E+03  0.12509007029E+03 0.  0.
          5    1    3    3  502    0 -0.95975114498E+01  0.44220614688E+02 -0.62330743371E+01  0.45868274495E+02  0.41800000000E+01 0. -1.
         -5    1    3    3    0  502 -0.64560927110E+02 -0.45748741182E+02 -0.13692548823E+03  0.15819962818E+03  0.41800000000E+01 0. -1.
        -11    1    1    2    0    0  0.60537841925E+02  0.17319237891E+02  0.12528372416E+02  0.64200828822E+02  0.00000000000E+00 0.  1.
         11    1    1    2    0    0  0.13620596635E+02 -0.15791111398E+02 -0.59119500665E+02  0.62689673876E+02  0.00000000000E+00 0. -1.
</event>
<event>
 7    1  0.2788485E-009  0.1588675E+03  0.7561462E-02  0.1189981E+00
         -1   -1    0    0    0  501 -0.00000000000E+00  0.00000000000E+00  0.73944584960E+02  0.73944584960E+02  0.00000000000E+00 0.  1.
          1   -1    0    0  501    0  0.00000000000E+00 -0.00000000000E+00 -0.49654263996E+03  0.49654263996E+03  0.00000000000E+00 0. -1.
         25    2    1    2    0    0  0.87210591025E+02 -0.78275995684E+02 -0.37691289389E+03  0.41405458742E+03  0.12508018666E+03 0.  0.
          5    1    3    3  502    0  0.73642458069E+02 -0.11155204023E+03 -0.31717255114E+03  0.34421355131E+03  0.41800000000E+01 0.  1.
         -5    1    3    3    0  502  0.13568132956E+02  0.33276044547E+02 -0.59740342751E+02  0.69841036108E+02  0.41800000000E+01 0.  1.
        -11    1    1    2    0    0 -0.86670980519E+02  0.96433456658E+02 -0.31619372585E+02  0.13345806514E+03  0.00000000000E+00 0. -1.
         11    1    1    2    0    0 -0.53961050606E+00 -0.18157460973E+02 -0.14065788521E+02  0.22974572362E+02  0.00000000000E+00 0.  1.
</event>
<event>
 7    1  0.2788485E-009  0.7617389E+02  0.7561462E-02  0.1340274E+00
          2   -1    0    0  501    0  0.00000000000E+00  0.00000000000E+00  0.30000618090E+03  0.30000618090E+03  0.00000000000E+00 0. -1.
         -2   -1    0    0    0  501 -0.00000000000E+00 -0.00000000000E+00 -0.50208289847E+02  0.50208289847E+02  0.00000000000E+00 0.  1.
         25    2    1    2    0    0 -0.36678173031E+02  0.24432651640E+02  0.86910720066E+02  0.15856577831E+03  0.12508952772E+03 0.  0.
          5    1    3    3  502    0 -0.14393080931E+02  0.27729640333E+02 -0.27532098204E+02  0.41851912300E+02  0.41800000000E+01 0. -1.
         -5    1    3    3    0  502 -0.22285092100E+02 -0.32969886930E+01  0.11444281827E+03  0.11671386601E+03  0.41800000000E+01 0. -1.
        -11    1    1    2    0    0 -0.28994433811E+02 -0.49567401783E+01  0.29272558172E+02  0.41498543675E+02  0.00000000000E+00 0.  1.
         11    1    1    2    0    0  0.65672606842E+02 -0.19475911461E+02  0.13361461281E+03  0.15015014877E+03  0.00000000000E+00 0. -1.
</event>
<event>
 7    1  0.2788485E-009  0.1621405E+03  0.7561462E-02  0.1186301E+00
         -2   -1    0    0    0  501 -0.00000000000E+00  0.00000000000E+00  0.23723121224E+03  0.23723121224E+03  0.00000000000E+00 0.  1.
          2   -1    0    0  501    0  0.00000000000E+00 -0.00000000000E+00 -0.15029460182E+03  0.15029460182E+03  0.00000000000E+00 0. -1.
         25    2    1    2    0    0 -0.49949308571E+02  0.14353197226E+03  0.71060852873E+02  0.20926889033E+03  0.12508982039E+03 0.  0.
          5    1    3    3  502    0  0.22512759474E+01  0.36529868892E+02  0.81744624336E+02  0.89661338226E+02  0.41800000000E+01 0. -1.
         -5    1    3    3    0  502 -0.52200584519E+02  0.10700210336E+03 -0.10683771464E+02  0.11960755211E+03  0.41800000000E+01 0. -1.
        -11    1    1    2    0    0  0.56177310865E+02 -0.51934176657E+02  0.35552895621E+02  0.84362653752E+02  0.00000000000E+00 0. -1.
         11    1    1    2    0    0 -0.62280022939E+01 -0.91597795599E+02 -0.19677138076E+02  0.93894269975E+02  0.00000000000E+00 0.  1.
</event>
<event>
 7    1  0.2788485E-009  0.1727136E+03  0.7561462E-02  0.1175047E+00
         -2   -1    0    0    0  501 -0.00000000000E+00  0.00000000000E+00  0.76803878632E+03  0.76803878632E+03  0.00000000000E+00 0.  1.
          2   -1    0    0  501    0  0.00000000000E+00 -0.00000000000E+00 -0.46425097095E+02  0.46425097095E+02  0.00000000000E+00 0. -1.
         25    2    1    2    0    0 -0.13078383161E+03  0.81125615574E+02  0.35194637357E+03  0.40397957570E+03  0.12508985411E+03 0.  0.
          5    1    3    3  502    0 -0.12549276082E+03  0.95781747061E+02  0.35408421217E+03  0.38770565871E+03  0.41800000000E+01 0.  1.
         -5    1    3    3    0  502 -0.52910707902E+01 -0.14656131487E+02 -0.21378386011E+01  0.16273916989E+02  0.41800000000E+01 0.  1.
        -11    1    1    2    0    0  0.12430948594E+03 -0.41253742387E+02  0.22562961765E+03  0.26088971600E+03  0.00000000000E+00 0. -1.
         11    1    1    2    0    0  0.64743456701E+01 -0.39871873187E+02  0.14403769801E+03  0.14959459172E+03  0.00000000000E+00 0.  1.
</event>
<event>
 7    1  0.2788485E-009  0.1020675E+03  0.7561462E-02  0.1276007E+00
         -1   -1    0    0    0  501 -0.00000000000E+00  0.00000000000E+00  0.23377843877E+02  0.23377843877E+02  0.00000000000E+00 0.  1.
          1   -1    0    0  501    0  0.00000000000E+00 -0.00000000000E+00 -0.47427521607E+03  0.47427521607E+03  0.00000000000E+00 0. -1.
         25    2    1    2    0    0 -0.47958176757E+02  0.21240906404E+02 -0.25761634885E+03  0.29113957866E+03  0.12507960762E+03 0.  0.
          5    1    3    3  502    0  0.27989666179E+02  0.46697596004E+02 -0.88953309538E+02  0.10437552665E+03  0.41800000000E+01 0.  1.
         -5    1    3    3    0  502 -0.75947842936E+02 -0.25456689600E+02 -0.16866303931E+03  0.18676405201E+03  0.41800000000E+01 0.  1.
        -11    1    1    2    0    0  0.29071187178E+02 -0.35333959324E+02 -0.15450841672E+03  0.16114115999E+03  0.00000000000E+00 0.  1.
         11    1    1    2    0    0  0.18886989579E+02  0.14093052921E+02 -0.38772606622E+02  0.45372321301E+02  0.00000000000E+00 0. -1.
</event>
<event>
 7    1  0.2788485E-009  0.1544418E+03  0.7561462E-02  0.1195119E+00
         -2   -1    0    0    0  501 -0.00000000000E+00  0.00000000000E+00  0.23247539575E+02  0.23247539575E+02  0.00000000000E+00 0.  1.
          2   -1    0    0  501    0  0.00000000000E+00 -0.00000000000E+00 -0.12407350626E+04  0.12407350626E+04  0.00000000000E+00 0. -1.
         25    2    1    2    0    0 -0.12892605700E+03  0.13941540204E+02 -0.58352616839E+03  0.61070970611E+03  0.12508901321E+03 0.  0.
          5    1    3    3  502    0  0.21616996701E+02 -0.62519793753E+01 -0.37477106389E+02  0.43913411343E+02  0.41800000000E+01 0. -1.
         -5    1    3    3    0  502 -0.15054305370E+03  0.20193519579E+02 -0.54604906200E+03  0.56679629477E+03  0.41800000000E+01 0. -1.
        -11    1    1    2    0    0  0.12298408067E+03 -0.47174884172E+01 -0.62951636073E+03  0.64143447617E+03  0.00000000000E+00 0. -1.
         11    1    1    2    0    0  0.59419763278E+01 -0.92240517867E+01 -0.44449938611E+01  0.11838419847E+02  0.00000000000E+00 0.  1.
</event>
<event>
 7    1  0.2788485E-009  0.3285411E+03  0.7561462E-02  0.1071784E+00
         -1   -1    0    0    0  501 -0.00000000000E+00  0.00000000000E+00  0.34601227263E+03  0.34601227263E+03  0.00000000000E+00 0.  1.
          1   -1    0    0  501    0  0.00000000000E+00 -0.00000000000E+00 -0.37266485197E+03  0.37266485197E+03  0.00000000000E+00 0. -1.
         25    2    1    2    0    0  0.27738975685E+03  0.15653866510E+03 -0.13829327891E+03  0.36908011596E+03  0.12508265318E+03 0.  0.
          5    1    3    3  502    0  0.92180080876E+02  0.12147077708E+02  0.62611494400E+01  0.93281258565E+02  0.41800000000E+01 0.  1.
         -5    1    3    3    0  502  0.18520967598E+03  0.14439158740E+03 -0.14455442835E+03  0.27579885740E+03  0.41800000000E+01 0.  1.
        -11    1    1    2    0    0 -0.17582390366E+03 -0.51942168050E+02  0.81911772963E+02  0.20080232187E+03  0.00000000000E+00 0.  1.
         11    1    1    2    0    0 -0.10156585319E+03 -0.10459649706E+03  0.29728926603E+02  0.14879468676E+03  0.00000000000E+00 0. -1.
</event>
<event>
 7    1  0.2788485E-009  0.7824891E+02  0.7561462E-02  0.1334096E+00
          1   -1    0    0  501    0  0.00000000000E+00  0.00000000000E+00  0.56829218939E+02  0.56829218939E+02  0.00000000000E+00 0. -1.
         -1   -1    0    0    0  501 -0.00000000000E+00 -0.00000000000E+00 -0.25177422064E+03  0.25177422064E+03  0.00000000000E+00 0.  1.
         25    2    1    2    0    0 -0.20842809222E+02 -0.10046209287E+02 -0.51115406217E+02  0.13709425784E+03  0.12508677693E+03 0.  0.
          5    1    3    3  502    0  0.22289225703E+02  0.10916608643E+01  0.34030124464E+02  0.40908716393E+02  0.41800000000E+01 0.  1.
         -5    1    3    3    0  502 -0.43132034926E+02 -0.11137870151E+02 -0.85145530681E+02  0.96185541446E+02  0.41800000000E+01 0.  1.
        -11    1    1    2    0    0  0.16379397863E+02  0.48060926229E+02 -0.10678719295E+03  0.11824399300E+03  0.00000000000E+00 0.  1.
         11    1    1    2    0    0  0.44634113588E+01 -0.38014716943E+02 -0.37042402537E+02  0.53265188734E+02  0.00000000000E+00 0. -1.
</event>
<event>
 7    1  0.2788485E-009  0.3962063E+03  0.7561462E-02  0.1045101E+00
         -1   -1    0    0    0  501 -0.00000000000E+00  0.00000000000E+00  0.15620709447E+03  0.15620709447E+03  0.00000000000E+00 0.  1.
          1   -1    0    0  501    0  0.00000000000E+00 -0.00000000000E+00 -0.10934037598E+04  0.10934037598E+04  0.00000000000E+00 0. -1.
         25    2    1    2    0    0  0.34462984531E+03 -0.17936632452E+03 -0.60640077024E+03  0.73096608677E+03  0.12509003639E+03 0.  0.
          5    1    3    3  502    0  0.12736560059E+03 -0.92538798517E+01 -0.24424623446E+03  0.27564710402E+03  0.41800000000E+01 0. -1.
         -5    1    3    3    0  502  0.21726424473E+03 -0.17011244466E+03 -0.36215453578E+03  0.45531898275E+03  0.41800000000E+01 0. -1.
        -11    1    1    2    0    0 -0.26253322615E+03  0.14194776019E+03 -0.19821175225E+03  0.35827469934E+03  0.00000000000E+00 0.  1.
         11    1    1    2    0    0 -0.82096619163E+02  0.37418564324E+02 -0.13258414288E+03  0.16037006821E+03  0.00000000000E+00 0. -1.
</event>
<event>
 7    1  0.2788485E-009  0.1349872E+03  0.7561462E-02  0.1220238E+00
          2   -1    0    0  501    0  0.00000000000E+00  0.00000000000E+00  0.45974934519E+03  0.45974934519E+03  0.00000000000E+00 0. -1.
         -2   -1    0    0    0  501 -0.00000000000E+00 -0.00000000000E+00 -0.51428921690E+02  0.51428921690E+02  0.00000000000E+00 0.  1.
         25    2    1    2    0    0  0.10326173873E+03 -0.38074475700E+02  0.16137732809E+03  0.23195667740E+03  0.12509438749E+03 0.  0.
          5    1    3    3  502    0  0.12104919245E+03 -0.16251461514E+02  0.16267567388E+03  0.20346465115E+03  0.41800000000E+01 0.  1.
         -5    1    3    3    0  502 -0.17787453723E+02 -0.21823014186E+02 -0.12983457870E+01  0.28492026251E+02  0.41800000000E+01 0.  1.
        -11    1    1    2    0    0 -0.67002349029E+02  0.47147363852E+02  0.10931795576E+03  0.13661114210E+03  0.00000000000E+00 0.  1.
         11    1    1    2    0    0 -0.36259389697E+02 -0.90728881516E+01  0.13762513964E+03  0.14261044738E+03  0.00000000000E+00 0. -1.
</event>
<event>
 7    1  0.2788485E-009  0.1053159E+03  0.7561462E-02  0.1269498E+00
          2   -1    0    0  501    0  0.00000000000E+00  0.00000000000E+00  0.52866327385E+03  0.52866327385E+03  0.00000000000E+00 0. -1.
         -2   -1    0    0    0  501 -0.00000000000E+00 -0.00000000000E+00 -0.32174104415E+02  0.32174104415E+02  0.00000000000E+00 0.  1.
         25    2    1    2    0    0  0.10209166837E+02 -0.50807742656E+01  0.43668059007E+03  0.45438716926E+03  0.12509084894E+03 0.  0.
          5    1    3    3  502    0 -0.20584324897E+02 -0.59407228273E+02  0.21595563173E+03  0.22496053093E+03  0.41800000000E+01 0. -1.
         -5    1    3    3    0  502  0.30793491734E+02  0.54326454007E+02  0.22072495834E+03  0.22942663833E+03  0.41800000000E+01 0. -1.
        -11    1    1    2    0    0  0.22062957740E+01  0.44065260485E+02  0.17132340916E+02  0.47330033044E+02  0.00000000000E+00 0.  1.
         11    1    1    2    0    0 -0.12415462611E+02 -0.38984486220E+02  0.42676238448E+02  0.59120175962E+02  0.00000000000E+00 0. -1.
</event>
<event>
 7    1  0.2788485E-009  0.1362078E+03  0.7561462E-02  0.1218525E+00
          2   -1    0    0  501    0  0.00000000000E+00  0.00000000000E+00  0.12990402678E+04  0.12990402678E+04  0.00000000000E+00 0.  1.
         -2   -1    0    0    0  501 -0.00000000000E+00 -0.00000000000E+00 -0.17048927476E+02  0.17048927476E+02  0.00000000000E+00 0. -1.
         25    2    1    2    0    0 -0.43317765811E+02 -0.76893668989E+02  0.89562900700E+03  0.90861881771E+03  0.12509105705E+03 0.  0.
          5    1    3    3  502    0 -0.76313041144E+02 -0.22677852833E+02  0.65072592691E+03  0.65559108415E+03  0.41800000000E+01 0. -1.
         -5    1    3    3    0  502  0.32995275333E+02 -0.54215816156E+02  0.24490308009E+03  0.25302773357E+03  0.41800000000E+01 0. -1.
        -11    1    1    2    0    0 -0.28242189424E+02  0.38895449750E+02  0.12953795262E+03  0.13816858704E+03  0.00000000000E+00 0. -1.
         11    1    1    2    0    0  0.71559955235E+02  0.37998219238E+02  0.25682438073E+03  0.26930179055E+03  0.00000000000E+00 0.  1.
</event>
<event>
 7    1  0.2788485E-009  0.9460448E+02  0.7561462E-02  0.1292069E+00
         -1   -1    0    0    0  501 -0.00000000000E+00  0.00000000000E+00  0.43262362573E+02  0.43262362573E+02  0.00000000000E+00 0.  1.
          1   -1    0    0  501    0  0.00000000000E+00 -0.00000000000E+00 -0.37605303154E+03  0.37605303154E+03  0.00000000000E+00 0. -1.
         25    2    1    2    0    0 -0.46581575098E+02  0.20393804649E+02 -0.26363842321E+03  0.29620794374E+03  0.12509267498E+03 0.  0.
          5    1    3    3  502    0 -0.66312620975E+02  0.34654932125E+02 -0.75224036125E+02  0.10618124143E+03  0.41800000000E+01 0. -1.
         -5    1    3    3    0  502  0.19731045877E+02 -0.14261127476E+02 -0.18841438708E+03  0.19002670230E+03  0.41800000000E+01 0. -1.
        -11    1    1    2    0    0  0.64649545392E+02 -0.27364950863E+02 -0.24361667072E+02  0.74309454833E+02  0.00000000000E+00 0.  1.
         11    1    1    2    0    0 -0.18067970294E+02  0.69711462140E+01 -0.44790578688E+02  0.48797995545E+02  0.00000000000E+00 0. -1.
</event>
<event>
 7    1  0.2788485E-009  0.1553878E+03  0.7561462E-02  0.1194005E+00
          2   -1    0    0  501    0  0.00000000000E+00  0.00000000000E+00  0.12953943164E+03  0.12953943164E+03  0.00000000000E+00 0. -1.
         -2   -1    0    0    0  501 -0.00000000000E+00 -0.00000000000E+00 -0.23706084377E+03  0.23706084377E+03  0.00000000000E+00 0.  1.
         25    2    1    2    0    0  0.76390355872E+02 -0.10987913098E+03 -0.86574438289E+02  0.20261255666E+03  0.12509118617E+03 0.  0.
          5    1    3    3  502    0 -0.58409220446E+01  0.16052215407E+02  0.13276486333E+02  0.22034688088E+02  0.41800000000E+01 0.  1.
         -5    1    3    3    0  502  0.82231277916E+02 -0.12593134639E+03 -0.99850924622E+02  0.18057786858E+03  0.41800000000E+01 0.  1.
        -11    1    1    2    0    0 -0.83326920677E+02  0.95347046048E+02  0.12122507151E+02  0.12720609293E+03  0.00000000000E+00 0. -1.
         11    1    1    2    0    0  0.69365648050E+01  0.14532084936E+02 -0.33069480993E+02  0.36781625808E+02  0.00000000000E+00 0.  1.
</event>
<event>
 7    1  0.2788485E-009  0.1246702E+03  0.7561462E-02  0.1235586E+00
          1   -1    0    0  501    0  0.00000000000E+00  0.00000000000E+00  0.39093779152E+03  0.39093779152E+03  0.00000000000E+00 0. -1.
         -1   -1    0    0    0  501 -0.00000000000E+00 -0.00000000000E+00 -0.50808893864E+02  0.50808893864E+02  0.00000000000E+00 0.  1.
         25    2    1    2    0    0  0.73052909879E+02  0.56558451697E+02  0.18121552655E+03  0.23879767581E+03  0.12509866829E+03 0.  0.
          5    1    3    3  502    0  0.48842939487E+02 -0.34124994810E+02  0.88738330978E+02  0.10696780728E+03  0.41800000000E+01 0.  1.
         -5    1    3    3    0  502  0.24209970391E+02  0.90683446507E+02  0.92477195576E+02  0.13182986854E+03  0.41800000000E+01 0.  1.
        -11    1    1    2    0    0 -0.58692464206E+02 -0.31085436303E+02  0.16046410238E+03  0.17366587995E+03  0.00000000000E+00 0. -1.
         11    1    1    2    0    0 -0.14360445673E+02 -0.25473015395E+02 -0.15507312789E+01  0.29283129627E+02  0.00000000000E+00 0.  1.
</event>
<event>
 7    1  0.2788485E-009  0.1330988E+03  0.7561462E-02  0.1222929E+00
          1   -1    0    0  501    0  0.00000000000E+00  0.00000000000E+00  0.43674334105E+03  0.43674334105E+03  0.00000000000E+00 0. -1.
         -1   -1    0    0    0  501 -0.00000000000E+00 -0.00000000000E+00 -0.79031123719E+02  0.79031123719E+02  0.00000000000E+00 0.  1.
         25    2    1    2    0    0 -0.10214108572E+03  0.28373615370E+02  0.34268029432E+03  0.37988884781E+03  0.12509152304E+03 0.  0.
          5    1    3    3  502    0  0.99164707521E+01 -0.99819391211E+01 -0.25363152920E+01  0.14895663666E+02  0.41800000000E+01 0.  1.
         -5    1    3    3    0  502 -0.11205755647E+03  0.38355554491E+02  0.34521660961E+03  0.36499318414E+03  0.41800000000E+01 0.  1.
        -11    1    1    2    0    0  0.61736054731E+02  0.24535417633E+02 -0.42734365571E+01  0.66570184258E+02  0.00000000000E+00 0. -1.
         11    1    1    2    0    0  0.40405030987E+02 -0.52909033002E+02  0.19305359573E+02  0.69315432701E+02  0.00000000000E+00 0.  1.
</event>
<event>
 7    1  0.2788485E-009  0.9792551E+02  0.7561462E-02  0.1284720E+00
          1   -1    0    0  501    0  0.00000000000E+00  0.00000000000E+00  0.57085655893E+03  0.57085655893E+03  0.00000000000E+00 0. -1.
         -1   -1    0    0    0  501 -0.00000000000E+00 -0.00000000000E+00 -0.26959389037E+02  0.26959389037E+02  0.00000000000E+00 0.  1.
         25    2    1    2    0    0  0.32453837447E+02 -0.39975405331E+02  0.37180312071E+03  0.39564934336E+03  0.12509819236E+03 0.  0.
          5    1    3    3  502    0  0.55855158276E+02 -0.36531661861E+02  0.36444266753E+03  0.37052704536E+03  0.41800000000E+01 0.  1.
         -5    1    3    3    0  502 -0.23401320829E+02 -0.34437434701E+01  0.73604531781E+01  0.25122297997E+02  0.41800000000E+01 0.  1.
        -11    1    1    2    0    0 -0.64336637626E+02  0.33066217908E+02  0.13155966976E+03  0.15013502062E+03  0.00000000000E+00 0.  1.
         11    1    1    2    0    0  0.31882800179E+02  0.69091874233E+01  0.40534379423E+02  0.52031583997E+02  0.00000000000E+00 0. -1.
</event>
<event>
 7    1  0.2788485E-009  0.1079202E+03  0.7561462E-02  0.1264470E+00
         -2   -1    0    0    0  501 -0.00000000000E+00  0.00000000000E+00  0.52711083064E+02  0.52711083064E+02  0.00000000000E+00 0.  1.
          2   -1    0    0  501    0  0.00000000000E+00 -0.00000000000E+00 -0.30714518011E+03  0.30714518011E+03  0.00000000000E+00 0. -1.
         25    2    1    2    0    0 -0.18159144951E+02  0.48263225280E+02 -0.24229916541E+03  0.27751604460E+03  0.12508867253E+03 0.  0.
          5    1    3    3  502    0 -0.32631424782E+02 -0.36433310186E+02 -0.81113200109E+02  0.94810440387E+02  0.41800000000E+01 0.  1.
         -5    1    3    3    0  502  0.14472279831E+02  0.84696535466E+02 -0.16118596530E+03  0.18270560422E+03  0.41800000000E+01 0.  1.
        -11    1    1    2    0    0  0.96153110231E+01 -0.62979774527E+02 -0.50566073195E+01  0.63909901292E+02  0.00000000000E+00 0.  1.
         11    1    1    2    0    0  0.85438339278E+01  0.14716549247E+02 -0.70783243255E+01  0.18430317284E+02  0.00000000000E+00 0. -1.
</event>
<event>
 7    1  0.2788485E-009  0.9679068E+02  0.7561462E-02  0.1287193E+00
         -1   -1    0    0    0  501 -0.00000000000E+00  0.00000000000E+00  0.52861717497E+02  0.52861717497E+02  0.00000000000E+00 0.  1.
          1   -1    0    0  501    0  0.00000000000E+00 -0.00000000000E+00 -0.41824107391E+03  0.41824107391E+03  0.00000000000E+00 0. -1.
         25    2    1    2    0    0 -0.18372376731E+02  0.30243519844E+02 -0.34783323328E+03  0.37133287588E+03  0.12509169365E+03 0.  0.
          5    1    3    3  502    0 -0.36575802886E+02  0.73870198191E+02 -0.22291770531E+03  0.23770648136E+03  0.41800000000E+01 0. -1.
         -5    1    3    3    0  502  0.18203426155E+02 -0.43626678347E+02 -0.12491552796E+03  0.13362639452E+03  0.41800000000E+01 0. -1.
        -11    1    1    2    0    0  0.21672012293E+00 -0.41973644510E+02 -0.47142328766E+02  0.63120780750E+02  0.00000000000E+00 0. -1.
         11    1    1    2    0    0  0.18155656608E+02  0.11730124666E+02  0.29596205633E+02  0.36649134770E+02  0.00000000000E+00 0.  1.
</event>
<event>
 7    1  0.3158023E-009  0.6606895E+02  0.7561462E-02  0.1373995E+00
          2   -1    0    0  501    0  0.00000000000E+00  0.00000000000E+00  0.35302269555E+03  0.35302269555E+03  0.00000000000E+00 0. -1.
         -2   -1    0    0    0  501 -0.00000000000E+00 -0.00000000000E+00 -0.41255979521E+02  0.41255979521E+02  0.00000000000E+00 0.  1.
         25    2    1    2    0    0 -0.27676179545E+02  0.27909671909E+02  0.23188925815E+03  0.26639262515E+03  0.12508989563E+03 0.  0.
          5    1    3    3  502    0 -0.44691634991E+02  0.48277736646E+02  0.50543624152E+02  0.83067517335E+02  0.41800000000E+01 0. -1.
         -5    1    3    3    0  502  0.17015455445E+02 -0.20368064737E+02  0.18134563400E+03  0.18332510781E+03  0.41800000000E+01 0. -1.
        -11    1    1    2    0    0  0.14066642310E+02 -0.12861724725E+02  0.98511292201E+02  0.10033827326E+03  0.00000000000E+00 0. -1.
         11    1    1    2    0    0  0.13609537236E+02 -0.15047947184E+02 -0.18633834316E+02  0.27547776671E+02  0.00000000000E+00 0.  1.
</event>
<event>
 7    1  0.2788485E-009  0.1166892E+03  0.7561462E-02  0.1248661E+00
         -1   -1    0    0    0  501 -0.00000000000E+00  0.00000000000E+00  0.31407470047E+03  0.31407470047E+03  0.00000000000E+00 0.  1.
          1   -1    0    0  501    0  0.00000000000E+00 -0.00000000000E+00 -0.82716154133E+02  0.82716154133E+02  0.00000000000E+00 0. -1.
         25    2    1    2    0    0 -0.81272119988E+01 -0.65200039878E+01  0.14361309369E+03  0.19073799189E+03  0.12509076242E+03 0.  0.
          5    1    3    3  502    0 -0.13497732331E+02  0.52054729980E+02  0.27580473872E+02  0.60580843757E+02  0.41800000000E+01 0. -1.
         -5    1    3    3    0  502  0.53705203324E+01 -0.58574733967E+02  0.11603261982E+03  0.13015714813E+03  0.41800000000E+01 0. -1.
        -11    1    1    2    0    0  0.54517721619E+01  0.63347067331E+02 -0.33687475718E+02  0.71954282564E+02  0.00000000000E+00 0. -1.
         11    1    1    2    0    0  0.26754398369E+01 -0.56827063343E+02  0.12143292836E+03  0.13409858015E+03  0.00000000000E+00 0.  1.
</event>
<event>
 7    1  0.2788485E-009  0.1832030E+03  0.7561462E-02  0.1164739E+00
          1   -1    0    0  501    0  0.00000000000E+00  0.00000000000E+00  0.11898624662E+04  0.11898624662E+04  0.00000000000E+00 0. -1.
         -1   -1    0    0    0  501 -0.00000000000E+00 -0.00000000000E+00 -0.30254321192E+02  0.30254321192E+02  0.00000000000E+00 0.  1.
         25    2    1    2    0    0  0.14736145744E+03 -0.20343411567E+02  0.74323670437E+03  0.76822897123E+03  0.12508277253E+03 0.  0.
          5    1    3    3  502    0  0.16852572883E+03 -0.11306693383E+02  0.68359448609E+03  0.70416450948E+03  0.41800000000E+01 0. -1.
         -5    1    3    3    0  502 -0.21164271386E+02 -0.90367181843E+01  0.59642218278E+02  0.64064461755E+02  0.41800000000E+01 0. -1.
        -11    1    1    2    0    0 -0.11860413405E+03 -0.24193073569E+02  0.31570431921E+03  0.33811457021E+03  0.00000000000E+00 0. -1.
         11    1    1    2    0    0 -0.28757323396E+02  0.44536485136E+02  0.10066712144E+03  0.11377324596E+03  0.00000000000E+00 0.  1.
</event>
<event>
 7    1  0.2788485E-009  0.1068193E+03  0.7561462E-02  0.1266576E+00
         -3   -1    0    0    0  501 -0.00000000000E+00  0.00000000000E+00  0.26722323135E+03  0.26722323135E+03  0.00000000000E+00 0.  1.
          3   -1    0    0  501    0  0.00000000000E+00 -0.00000000000E+00 -0.59650947187E+02  0.59650947187E+02  0.00000000000E+00 0. -1.
         25    2    1    2    0    0  0.55494822892E+02  0.18364613172E+02  0.78568950570E+02  0.15886519905E+03  0.12509251413E+03 0.  0.
          5    1    3    3  502    0  0.62961568567E+02 -0.21161138581E+02  0.94343498713E+02  0.11545614341E+03  0.41800000000E+01 0.  1.
         -5    1    3    3    0  502 -0.74667456749E+01  0.39525751752E+02 -0.15774548143E+02  0.43409055641E+02  0.41800000000E+01 0.  1.
        -11    1    1    2    0    0 -0.71586893515E+02  0.11705867703E+02  0.97944890249E+02  0.12188072935E+03  0.00000000000E+00 0.  1.
         11    1    1    2    0    0  0.16092070623E+02 -0.30070480875E+02  0.31058443341E+02  0.46128250126E+02  0.00000000000E+00 0. -1.
</event>
<event>
 7    1  0.2788485E-009  0.1350306E+03  0.7561462E-02  0.1220177E+00
         -2   -1    0    0    0  501 -0.00000000000E+00  0.00000000000E+00  0.27191340434E+03  0.27191340434E+03  0.00000000000E+00 0.  1.
          2   -1    0    0  501    0  0.00000000000E+00 -0.00000000000E+00 -0.77257045665E+02  0.77257045665E+02  0.00000000000E+00 0. -1.
         25    2    1    2    0    0 -0.27167343203E+02  0.82414866516E+02  0.15935558530E+03  0.22039819062E+03  0.12510349757E+03 0.  0.
          5    1    3    3  502    0 -0.43084877851E+02  0.10911191880E+03  0.14306099836E+03  0.18505577315E+03  0.41800000000E+01 0. -1.
         -5    1    3    3    0  502  0.15917534648E+02 -0.26697052280E+02  0.16294586939E+02  0.35342417479E+02  0.41800000000E+01 0. -1.
        -11    1    1    2    0    0  0.54268009660E+02 -0.76133824968E+02  0.37786457827E+02  0.10084241455E+03  0.00000000000E+00 0.  1.
         11    1    1    2    0    0 -0.27100666457E+02 -0.62810415478E+01 -0.24856844492E+01  0.27929844835E+02  0.00000000000E+00 0. -1.
</event>
<event>
 7    1  0.2788485E-009  0.9825313E+02  0.7561462E-02  0.1284013E+00
          2   -1    0    0  501    0  0.00000000000E+00  0.00000000000E+00  0.75171107110E+02  0.75171107110E+02  0.00000000000E+00 0.  1.
         -2   -1    0    0    0  501 -0.00000000000E+00 -0.00000000000E+00 -0.17529981682E+03  0.17529981682E+03  0.00000000000E+00 0. -1.
         25    2    1    2    0    0 -0.14439684034E+02 -0.16101654719E+02 -0.88079340809E+02  0.15450937363E+03  0.12508960189E+03 0.  0.
          5    1    3    3  502    0 -0.32904839654E+02  0.36322067383E+02  0.12650050511E+01  0.49204610449E+02  0.41800000000E+01 0.  1.
         -5    1    3    3    0  502  0.18465155620E+02 -0.52423722103E+02 -0.89344345860E+02  0.10530476318E+03  0.41800000000E+01 0.  1.
        -11    1    1    2    0    0 -0.37024656703E+02  0.15430993957E+02 -0.18348045246E+02  0.44108860139E+02  0.00000000000E+00 0. -1.
         11    1    1    2    0    0  0.51464340737E+02  0.67066076275E+00  0.62986763453E+01  0.51852690162E+02  0.00000000000E+00 0.  1.
</event>
<event>
 7    1  0.2788485E-009  0.9902016E+02  0.7561462E-02  0.1282370E+00
         -1   -1    0    0    0  501 -0.00000000000E+00  0.00000000000E+00  0.13013884577E+02  0.13013884577E+02  0.00000000000E+00 0.  1.
          1   -1    0    0  501    0  0.00000000000E+00 -0.00000000000E+00 -0.18851758958E+04  0.18851758958E+04  0.00000000000E+00 0. -1.
         25    2    1    2    0    0 -0.18438161764E+02 -0.28490875357E+02 -0.16673204721E+04  0.16723506918E+04  0.12509030292E+03 0.  0.
          5    1    3    3  502    0 -0.63579428839E+02 -0.45658834721E+02 -0.11886338866E+04  0.11912157914E+04  0.41800000000E+01 0. -1.
         -5    1    3    3    0  502  0.45141267075E+02  0.17167959365E+02 -0.47868658549E+03  0.48113490037E+03  0.41800000000E+01 0. -1.
        -11    1    1    2    0    0 -0.19260692149E+02  0.27361953319E+02 -0.17380012395E+03  0.17699190331E+03  0.00000000000E+00 0. -1.
         11    1    1    2    0    0  0.37698853913E+02  0.11289220382E+01 -0.31041415125E+02  0.48847185224E+02  0.00000000000E+00 0.  1.
</event>
<event>
 7    1  0.2788485E-009  0.1187219E+03  0.7561462E-02  0.1245220E+00
          1   -1    0    0  501    0  0.00000000000E+00  0.00000000000E+00  0.11368497211E+03  0.11368497211E+03  0.00000000000E+00 0. -1.
         -1   -1    0    0    0  501 -0.00000000000E+00 -0.00000000000E+00 -0.17780385767E+03  0.17780385767E+03  0.00000000000E+00 0.  1.
         25    2    1    2    0    0 -0.45326701723E+02  0.32404894626E+02  0.38741497145E+02  0.14230921475E+03  0.12508565831E+03 0.  0.
          5    1    3    3  502    0 -0.72649225339E+02  0.57103563886E+02  0.57370536116E+01  0.92677468325E+02  0.41800000000E+01 0.  1.
         -5    1    3    3    0  502  0.27322523617E+02 -0.24698669260E+02  0.33004443533E+02  0.49631746422E+02  0.41800000000E+01 0.  1.
        -11    1    1    2    0    0  0.67828665859E+02  0.71880430388E+00 -0.68693080952E+02  0.96540064028E+02  0.00000000000E+00 0. -1.
         11    1    1    2    0    0 -0.22501964137E+02 -0.33123698930E+02 -0.34167301756E+02  0.52639551006E+02  0.00000000000E+00 0.  1.
</event>
<event>
 7    1  0.2788485E-009  0.1717599E+03  0.7561462E-02  0.1176025E+00
         -1   -1    0    0    0  501 -0.00000000000E+00  0.00000000000E+00  0.13932162411E+03  0.13932162411E+03  0.00000000000E+00 0.  1.
          1   -1    0    0  501    0  0.00000000000E+00 -0.00000000000E+00 -0.30019615185E+03  0.30019615185E+03  0.00000000000E+00 0. -1.
         25    2    1    2    0    0  0.56879867708E+02  0.12446175159E+03 -0.19792041749E+03  0.27119430100E+03  0.12509120784E+03 0.  0.
          5    1    3    3  502    0 -0.33500813738E+02  0.74570437240E+02 -0.80900358952E+02  0.11508864023E+03  0.41800000000E+01 0. -1.
         -5    1    3    3    0  502  0.90380681446E+02  0.49891314349E+02 -0.11702005853E+03  0.15610566077E+03  0.41800000000E+01 0. -1.
        -11    1    1    2    0    0 -0.70892990152E+01 -0.10443364307E+03  0.45243241725E+02  0.11403330604E+03  0.00000000000E+00 0. -1.
         11    1    1    2    0    0 -0.49790568693E+02 -0.20028108524E+02 -0.81973519746E+01  0.54290168919E+02  0.00000000000E+00 0.  1.
</event>
<event>
 7    1  0.2912490E-009  0.2997422E+03  0.7561462E-02  0.1085370E+00
         -1   -1    0    0    0  501 -0.00000000000E+00  0.00000000000E+00  0.15865206623E+03  0.15865206623E+03  0.00000000000E+00 0.  1.
          1   -1    0    0  501    0  0.00000000000E+00 -0.00000000000E+00 -0.62764418423E+03  0.62764418423E+03  0.00000000000E+00 0. -1.
         25    2    1    2    0    0  0.29162247258E+03  0.38444412661E+02 -0.19709065975E+03  0.37551688044E+03  0.12508621009E+03 0.  0.
          5    1    3    3  502    0  0.24681454380E+03  0.18210293252E+01 -0.10857337084E+03  0.26967829804E+03  0.41800000000E+01 0.  1.
         -5    1    3    3    0  502  0.44807928784E+02  0.36623383335E+02 -0.88517288906E+02  0.10583858240E+03  0.41800000000E+01 0.  1.
        -11    1    1    2    0    0 -0.18332993319E+03 -0.16125519577E+02 -0.10898942610E+03  0.21388920446E+03  0.00000000000E+00 0.  1.
         11    1    1    2    0    0 -0.10829253939E+03 -0.22318893084E+02 -0.16291203215E+03  0.19689016556E+03  0.00000000000E+00 0. -1.
</event>
<event>
 7    1  0.2788485E-009  0.2040381E+03  0.7561462E-02  0.1146376E+00
          2   -1    0    0  501    0  0.00000000000E+00  0.00000000000E+00  0.10152532192E+04  0.10152532192E+04  0.00000000000E+00 0. -1.
         -2   -1    0    0    0  501 -0.00000000000E+00 -0.00000000000E+00 -0.52698914439E+02  0.52698914439E+02  0.00000000000E+00 0.  1.
         25    2    1    2    0    0  0.15142389006E+03 -0.96291070312E+02  0.71954666619E+03  0.75206246148E+03  0.12509746777E+03 0.  0.
          5    1    3    3  502    0  0.70677935291E+02 -0.10887580165E+03  0.52861669233E+03  0.54433665184E+03  0.41800000000E+01 0.  1.
         -5    1    3    3    0  502  0.80745954766E+02  0.12584731343E+02  0.19092997386E+03  0.20772580964E+03  0.41800000000E+01 0.  1.
        -11    1    1    2    0    0 -0.65861213205E+02  0.88699402361E+02  0.17208433980E+03  0.20449524051E+03  0.00000000000E+00 0. -1.
         11    1    1    2    0    0 -0.85562676853E+02  0.75916679511E+01  0.70923298734E+02  0.11139443162E+03  0.00000000000E+00 0.  1.
</event>
<event>
 7    1  0.2788485E-009  0.1072145E+03  0.7561462E-02  0.1265817E+00
          1   -1    0    0  501    0  0.00000000000E+00  0.00000000000E+00  0.21942728954E+03  0.21942728954E+03  0.00000000000E+00 0. -1.
         -1   -1    0    0    0  501 -0.00000000000E+00 -0.00000000000E+00 -0.76782204072E+02  0.76782204072E+02  0.00000000000E+00 0.  1.
         25    2    1    2    0    0 -0.29870701015E+02 -0.60153960052E+02  0.11040668436E+03  0.17985852495E+03  0.12509474551E+03 0.  0.
          5    1    3    3  502    0  0.22487325748E+02 -0.81923702751E+02  0.63395939600E+02  0.10608341270E+03  0.41800000000E+01 0. -1.
         -5    1    3    3    0  502 -0.52358026764E+02  0.21769742699E+02  0.47010744764E+02  0.73775112247E+02  0.41800000000E+01 0. -1.
        -11    1    1    2    0    0  0.31736748167E+02  0.34823439469E+02  0.61583953501E+02  0.77540160236E+02  0.00000000000E+00 0. -1.
         11    1    1    2    0    0 -0.18660471513E+01  0.25330520583E+02 -0.29345552402E+02  0.38810808427E+02  0.00000000000E+00 0.  1.
</event>
<event>
 7    1  0.2788485E-009  0.1269959E+03  0.7561462E-02  0.1231983E+00
         -2   -1    0    0    0  501 -0.00000000000E+00  0.00000000000E+00  0.91958939141E+02  0.91958939141E+02  0.00000000000E+00 0.  1.
          2   -1    0    0  501    0  0.00000000000E+00 -0.00000000000E+00 -0.21669909541E+03  0.21669909541E+03  0.00000000000E+00 0. -1.
         25    2    1    2    0    0  0.40484254535E+02 -0.79739447721E+02 -0.47446924574E+02  0.16092376805E+03  0.12509154281E+03 0.  0.
          5    1    3    3  502    0  0.47985948760E+02 -0.97374283245E+02 -0.71373533985E+02  0.12998483015E+03  0.41800000000E+01 0. -1.
         -5    1    3    3    0  502 -0.75016942256E+01  0.17634835524E+02  0.23926609410E+02  0.30938937895E+02  0.41800000000E+01 0. -1.
        -11    1    1    2    0    0 -0.50720763545E+02  0.94808733562E+02 -0.68654798776E+02  0.12757261936E+03  0.00000000000E+00 0.  1.
         11    1    1    2    0    0  0.10236509011E+02 -0.15069285840E+02 -0.86384329156E+01  0.20161647148E+02  0.00000000000E+00 0. -1.
</event>
<event>
 7    1  0.2788485E-009  0.8463931E+02  0.7561462E-02  0.1316378E+00
         -1   -1    0    0    0  501 -0.00000000000E+00  0.00000000000E+00  0.18180032587E+03  0.18180032587E+03  0.00000000000E+00 0.  1.
          1   -1    0    0  501    0  0.00000000000E+00 -0.00000000000E+00 -0.93376682356E+02  0.93376682356E+02  0.00000000000E+00 0. -1.
         25    2    1    2    0    0 -0.28530561166E+02 -0.54222003938E+02  0.11294082478E+03  0.17932133427E+03  0.12508594002E+03 0.  0.
          5    1    3    3  502    0 -0.47591557581E+02 -0.18781631674E+02 -0.78540276786E+01  0.51931341135E+02  0.41800000000E+01 0. -1.
         -5    1    3    3    0  502  0.19060996416E+02 -0.35440372264E+02  0.12079485246E+03  0.12738999314E+03  0.41800000000E+01 0. -1.
        -11    1    1    2    0    0  0.26709207524E+02  0.37371574915E+01  0.15769159206E+02  0.31241230685E+02  0.00000000000E+00 0.  1.
         11    1    1    2    0    0  0.18213536421E+01  0.50484846446E+02 -0.40286340475E+02  0.64614443266E+02  0.00000000000E+00 0. -1.
</event>
<event>
 7    1  0.2788485E-009  0.5718347E+02  0.7561462E-02  0.1410046E+00
          3   -1    0    0  501    0  0.00000000000E+00  0.00000000000E+00  0.57633991623E+02  0.57633991623E+02  0.00000000000E+00 0. -1.
         -3   -1    0    0    0  501 -0.00000000000E+00 -0.00000000000E+00 -0.54256354528E+03  0.54256354528E+03  0.00000000000E+00 0.  1.
         25    2    1    2    0    0 -0.34860917032E+02  0.44624440363E+02 -0.47735548412E+03  0.49671189545E+03  0.12509126529E+03 0.  0.
          5    1    3    3  502    0 -0.19005476337E+02  0.21564366185E+02 -0.13563037185E+02  0.32057111495E+02  0.41800000000E+01 0. -1.
         -5    1    3    3    0  502 -0.15855440695E+02  0.23060074178E+02 -0.46379244694E+03  0.46465478396E+03  0.41800000000E+01 0. -1.
        -11    1    1    2    0    0  0.96976924570E+01 -0.17629725869E+02  0.39106688068E+02  0.43979376131E+02  0.00000000000E+00 0. -1.
         11    1    1    2    0    0  0.25163224575E+02 -0.26994714493E+02 -0.46680757605E+02  0.59506265319E+02  0.00000000000E+00 0.  1.
</event>
<event>
 7    1  0.2788485E-009  0.1340847E+03  0.7561462E-02  0.1221518E+00
          2   -1    0    0  501    0  0.00000000000E+00  0.00000000000E+00  0.11572145071E+04  0.11572145071E+04  0.00000000000E+00 0. -1.
         -2   -1    0    0    0  501 -0.00000000000E+00 -0.00000000000E+00 -0.18435764920E+02  0.18435764920E+02  0.00000000000E+00 0.  1.
         25    2    1    2    0    0  0.78340353598E+02  0.18702832543E+02  0.84401255120E+03  0.85702508233E+03  0.12509115967E+03 0.  0.
          5    1    3    3  502    0 -0.33685746678E+02  0.10910854642E+01  0.24692865785E+03  0.24925319349E+03  0.41800000000E+01 0.  1.
         -5    1    3    3    0  502  0.11202610028E+03  0.17611747079E+02  0.59708389334E+03  0.60777188884E+03  0.41800000000E+01 0.  1.
        -11    1    1    2    0    0  0.50718337425E+01 -0.35315934072E+02  0.78084272604E+02  0.85849241843E+02  0.00000000000E+00 0.  1.
         11    1    1    2    0    0 -0.83412187341E+02  0.16613101530E+02  0.21668191834E+03  0.23277594780E+03  0.00000000000E+00 0. -1.
</event>
<event>
 7    1  0.2788485E-009  0.2349486E+03  0.7561462E-02  0.1123204E+00
          2   -1    0    0  501    0  0.00000000000E+00  0.00000000000E+00  0.99599723104E+03  0.99599723104E+03  0.00000000000E+00 0. -1.
         -2   -1    0    0    0  501 -0.00000000000E+00 -0.00000000000E+00 -0.62334872360E+02  0.62334872360E+02  0.00000000000E+00 0.  1.
         25    2    1    2    0    0  0.63421672483E+02 -0.20508936070E+03  0.33984331923E+03  0.42098077473E+03  0.12508947460E+03 0.  0.
          5    1    3    3  502    0  0.25174159177E+02  0.10857163171E+02  0.53695428552E+02  0.60434160289E+02  0.41800000000E+01 0. -1.
         -5    1    3    3    0  502  0.38247513306E+02 -0.21594652388E+03  0.28614789068E+03  0.36054661444E+03  0.41800000000E+01 0. -1.
        -11    1    1    2    0    0 -0.56064592959E+02  0.80999881936E+02  0.17911258592E+03  0.20441511170E+03  0.00000000000E+00 0.  1.
         11    1    1    2    0    0 -0.73570795240E+01  0.12408947877E+03  0.41470645352E+03  0.43293621696E+03  0.00000000000E+00 0. -1.
</event>
<event>
 7    1  0.2788485E-009  0.1041576E+03  0.7561462E-02  0.1271788E+00
         -1   -1    0    0    0  501 -0.00000000000E+00  0.00000000000E+00  0.36625531952E+02  0.36625531952E+02  0.00000000000E+00 0.  1.
          1   -1    0    0  501    0  0.00000000000E+00 -0.00000000000E+00 -0.35234755608E+03  0.35234755608E+03  0.00000000000E+00 0. -1.
         25    2    1    2    0    0  0.18508354362E+02  0.18762607097E+02 -0.14534506387E+03  0.19356202220E+03  0.12508586746E+03 0.  0.
          5    1    3    3  502    0 -0.10138437999E+02 -0.51003094173E+02 -0.55119375896E+02  0.75892829302E+02  0.41800000000E+01 0.  1.
         -5    1    3    3    0  502  0.28646792361E+02  0.69765701270E+02 -0.90225687974E+02  0.11766919290E+03  0.41800000000E+01 0.  1.
        -11    1    1    2    0    0  0.53682893716E+01  0.27784798530E+02 -0.16215777158E+02  0.32615410299E+02  0.00000000000E+00 0.  1.
         11    1    1    2    0    0 -0.23876643733E+02 -0.46547405627E+02 -0.15416118310E+03  0.16279565554E+03  0.00000000000E+00 0. -1.
</event>
<event>
 7    1  0.2788485E-009  0.1525668E+03  0.7561462E-02  0.1197354E+00
         -4   -1    0    0    0  501 -0.00000000000E+00  0.00000000000E+00  0.20125658520E+03  0.20125658520E+03  0.00000000000E+00 0.  1.
          4   -1    0    0  501    0  0.00000000000E+00 -0.00000000000E+00 -0.11671522391E+03  0.11671522391E+03  0.00000000000E+00 0. -1.
         25    2    1    2    0    0  0.29152566393E+02 -0.10424886808E+03  0.55012503228E+02  0.17432933522E+03  0.12508654197E+03 0.  0.
          5    1    3    3  502    0 -0.42879030897E+02 -0.76667025567E+02  0.24656896397E+02  0.91333887686E+02  0.41800000000E+01 0. -1.
         -5    1    3    3    0  502  0.72031597290E+02 -0.27581842516E+02  0.30355606831E+02  0.82995447531E+02  0.41800000000E+01 0. -1.
        -11    1    1    2    0    0  0.21744698206E+02 -0.22986303254E+01 -0.24222310934E+00  0.21867196287E+02  0.00000000000E+00 0.  1.
         11    1    1    2    0    0 -0.50897264599E+02  0.10654749841E+03  0.29771081177E+02  0.12177527760E+03  0.00000000000E+00 0. -1.
</event>
<event>
 7    1  0.2788485E-009  0.1108016E+03  0.7561462E-02  0.1259093E+00
          1   -1    0    0  501    0  0.00000000000E+00  0.00000000000E+00  0.19697056290E+03  0.19697056290E+03  0.00000000000E+00 0. -1.
         -1   -1    0    0    0  501 -0.00000000000E+00 -0.00000000000E+00 -0.80402018678E+02  0.80402018678E+02  0.00000000000E+00 0.  1.
         25    2    1    2    0    0  0.13569927220E+02  0.48445147437E+01  0.12916878088E+03  0.18039611325E+03  0.12510224409E+03 0.  0.
          5    1    3    3  502    0  0.48995807345E+02 -0.43334487024E+02  0.74957995600E+02  0.99572287346E+02  0.41800000000E+01 0.  1.
         -5    1    3    3    0  502 -0.35425880124E+02  0.48179001768E+02  0.54210785278E+02  0.80823825908E+02  0.41800000000E+01 0.  1.
        -11    1    1    2    0    0  0.37153306867E+02  0.17033794284E+02 -0.67757096134E+01  0.41429803278E+02  0.00000000000E+00 0. -1.
         11    1    1    2    0    0 -0.50723234087E+02 -0.21878309028E+02 -0.58245270453E+01  0.55546665044E+02  0.00000000000E+00 0.  1.
</event>
<event>
 7    1  0.2788485E-009  0.1069483E+03  0.7561462E-02  0.1266328E+00
         -1   -1    0    0    0  501 -0.00000000000E+00  0.00000000000E+00  0.18988541986E+03  0.18988541986E+03  0.00000000000E+00 0.  1.
          1   -1    0    0  501    0  0.00000000000E+00 -0.00000000000E+00 -0.85514512850E+02  0.85514512850E+02  0.00000000000E+00 0. -1.
         25    2    1    2    0    0  0.18326007454E+02  0.46494105772E+02  0.10169400469E+03  0.16878066975E+03  0.12509076493E+03 0.  0.
          5    1    3    3  502    0  0.63408823170E+02  0.62293179107E+01  0.19684868510E+02  0.66816537666E+02  0.41800000000E+01 0. -1.
         -5    1    3    3    0  502 -0.45082815716E+02  0.40264787861E+02  0.82009136182E+02  0.10196413208E+03  0.41800000000E+01 0. -1.
        -11    1    1    2    0    0  0.27063878721E+02 -0.41494929506E+01 -0.26433112808E+02  0.38057604705E+02  0.00000000000E+00 0.  1.
         11    1    1    2    0    0 -0.45389886174E+02 -0.42344612821E+02  0.29110015127E+02  0.68561658254E+02  0.00000000000E+00 0. -1.
</event>
<event>
 7    1  0.2788485E-009  0.9125695E+02  0.7561462E-02  0.1299836E+00
          1   -1    0    0  501    0  0.00000000000E+00  0.00000000000E+00  0.12135577999E+03  0.12135577999E+03  0.00000000000E+00 0. -1.
         -1   -1    0    0    0  501 -0.00000000000E+00 -0.00000000000E+00 -0.13574217777E+03  0.13574217777E+03  0.00000000000E+00 0.  1.
         25    2    1    2    0    0  0.20217933645E+02  0.43995504986E+02 -0.55077737525E+02  0.14499704623E+03  0.12508483899E+03 0.  0.
          5    1    3    3  502    0 -0.14826724158E+02  0.51336898519E+02  0.23516196492E+02  0.58530272477E+02  0.41800000000E+01 0.  1.
         -5    1    3    3    0  502  0.35044657803E+02 -0.73413935330E+01 -0.78593934017E+02  0.86466773756E+02  0.41800000000E+01 0.  1.
        -11    1    1    2    0    0  0.30740907162E+02 -0.18611414968E+02 -0.84254584119E+01  0.36910384579E+02  0.00000000000E+00 0.  1.
         11    1    1    2    0    0 -0.50958840807E+02 -0.25384090018E+02  0.49116798148E+02  0.75190526948E+02  0.00000000000E+00 0. -1.
</event>
<event>
 7    1  0.2788485E-009  0.1675053E+03  0.7561462E-02  0.1180475E+00
         -2   -1    0    0    0  501 -0.00000000000E+00  0.00000000000E+00  0.11564976028E+03  0.11564976028E+03  0.00000000000E+00 0.  1.
          2   -1    0    0  501    0  0.00000000000E+00 -0.00000000000E+00 -0.35193567767E+03  0.35193567767E+03  0.00000000000E+00 0. -1.
         25    2    1    2    0    0  0.13248899329E+03 -0.78606781307E+02 -0.41420587356E+02  0.20272005800E+03  0.12508955770E+03 0.  0.
          5    1    3    3  502    0  0.12579704861E+03 -0.48181361483E+02 -0.77021412850E+02  0.15522922235E+03  0.41800000000E+01 0. -1.
         -5    1    3    3    0  502  0.66919446859E+01 -0.30425419824E+02  0.35600825493E+02  0.47490835653E+02  0.41800000000E+01 0. -1.
        -11    1    1    2    0    0  0.51396783184E+01  0.17467196780E+02  0.47357554548E+00  0.18213827998E+02  0.00000000000E+00 0.  1.
         11    1    1    2    0    0 -0.13762867161E+03  0.61139584528E+02 -0.19533890558E+03  0.24665155195E+03  0.00000000000E+00 0. -1.
</event>
<event>
 7    1  0.2788485E-009  0.1387352E+03  0.7561462E-02  0.1215041E+00
          1   -1    0    0  501    0  0.00000000000E+00  0.00000000000E+00  0.57978594265E+03  0.57978594265E+03  0.00000000000E+00 0. -1.
         -1   -1    0    0    0  501 -0.00000000000E+00 -0.00000000000E+00 -0.34852420805E+02  0.34852420805E+02  0.00000000000E+00 0.  1.
         25    2    1    2    0    0 -0.69614702494E+02 -0.56622862199E+02  0.32823125770E+03  0.36254044131E+03  0.12508979866E+03 0.  0.
          5    1    3    3  502    0 -0.93092501027E+02 -0.54203146057E+01  0.24280421601E+03  0.26012872442E+03  0.41800000000E+01 0.  1.
         -5    1    3    3    0  502  0.23477798533E+02 -0.51202547594E+02  0.85427041692E+02  0.10241171689E+03  0.41800000000E+01 0.  1.
        -11    1    1    2    0    0 -0.17838021065E+02  0.32255134286E+02  0.47995823376E+02  0.60516012301E+02  0.00000000000E+00 0.  1.
         11    1    1    2    0    0  0.87452723559E+02  0.24367727913E+02  0.16870644076E+03  0.19158190984E+03  0.00000000000E+00 0. -1.
</event>
<event>
 7    1  0.2788485E-009  0.1740929E+03  0.7561462E-02  0.1173646E+00
          1   -1    0    0  501    0  0.00000000000E+00  0.00000000000E+00  0.13576693573E+03  0.13576693573E+03  0.00000000000E+00 0. -1.
         -1   -1    0    0    0  501 -0.00000000000E+00 -0.00000000000E+00 -0.24507258991E+03  0.24507258991E+03  0.00000000000E+00 0.  1.
         25    2    1    2    0    0 -0.14260917335E+03  0.17021715962E+01 -0.24407554242E+02  0.19125837602E+03  0.12507503341E+03 0.  0.
          5    1    3    3  502    0 -0.11571856947E+03  0.49601508525E+02  0.99000795763E+01  0.12635893693E+03  0.41800000000E+01 0.  1.
         -5    1    3    3    0  502 -0.26890603885E+02 -0.47899336929E+02 -0.34307633818E+02  0.64899439087E+02  0.41800000000E+01 0.  1.
        -11    1    1    2    0    0  0.11865163330E+03  0.34632781316E+02 -0.76183515294E+02  0.14519492976E+03  0.00000000000E+00 0.  1.
         11    1    1    2    0    0  0.23957540049E+02 -0.36334952912E+02 -0.87145846451E+01  0.44386219865E+02  0.00000000000E+00 0. -1.
</event>
<event>
 7    1  0.2788485E-009  0.1231750E+03  0.7561462E-02  0.1237949E+00
          2   -1    0    0  501    0  0.00000000000E+00  0.00000000000E+00  0.23644248667E+03  0.23644248667E+03  0.00000000000E+00 0. -1.
         -2   -1    0    0    0  501 -0.00000000000E+00 -0.00000000000E+00 -0.87853178712E+02  0.87853178712E+02  0.00000000000E+00 0.  1.
         25    2    1    2    0    0 -0.65635294336E+02  0.13822420288E+02  0.15430978986E+03  0.20966563052E+03  0.12509641965E+03 0.  0.
          5    1    3    3  502    0  0.16316210136E+02 -0.40256531398E+02  0.49477680670E+02  0.65972117730E+02  0.41800000000E+01 0.  1.
         -5    1    3    3    0  502 -0.81951504472E+02  0.54078951686E+02  0.10483210919E+03  0.14369351279E+03  0.41800000000E+01 0.  1.
        -11    1    1    2    0    0 -0.10373642170E+02 -0.25506113155E+02 -0.22922875968E+02  0.35827817444E+02  0.00000000000E+00 0. -1.
         11    1    1    2    0    0  0.76008936506E+02  0.11683692867E+02  0.17202394061E+02  0.78802217413E+02  0.00000000000E+00 0.  1.
</event>
<event>
 7    1  0.2788485E-009  0.1867330E+03  0.7561462E-02  0.1161441E+00
          2   -1    0    0  501    0  0.00000000000E+00  0.00000000000E+00  0.36704616907E+03  0.36704616907E+03  0.00000000000E+00 0. -1.
         -2   -1    0    0    0  501 -0.00000000000E+00 -0.00000000000E+00 -0.15525353481E+03  0.15525353481E+03  0.00000000000E+00 0.  1.
         25    2    1    2    0    0 -0.63436367169E+02 -0.14962817355E+03  0.25815413299E+03  0.32970243094E+03  0.12508946234E+03 0.  0.
          5    1    3    3  502    0  0.12200217553E+02 -0.99299397058E+02  0.74649469067E+02  0.12489688225E+03  0.41800000000E+01 0. -1.
         -5    1    3    3    0  502 -0.75636584722E+02 -0.50328776488E+02  0.18350466392E+03  0.20480554868E+03  0.41800000000E+01 0. -1.
        -11    1    1    2    0    0 -0.72069200236E+01  0.89004654324E+02 -0.43830969634E+02  0.99473222963E+02  0.00000000000E+00 0.  1.
         11    1    1    2    0    0  0.70643287193E+02  0.60623519222E+02 -0.25305290943E+01  0.93124049986E+02  0.00000000000E+00 0. -1.
</event>
<event>
 7    1  0.2788485E-009  0.7839781E+02  0.7561462E-02  0.1333661E+00
          1   -1    0    0  501    0  0.00000000000E+00  0.00000000000E+00  0.47997623592E+02  0.47997623592E+02  0.00000000000E+00 0. -1.
         -1   -1    0    0    0  501 -0.00000000000E+00 -0.00000000000E+00 -0.25981142098E+03  0.25981142098E+03  0.00000000000E+00 0.  1.
         25    2    1    2    0    0  0.20326305624E+02 -0.27830638948E+02 -0.15121361889E+03  0.19925076761E+03  0.12509039408E+03 0.  0.
          5    1    3    3  502    0 -0.21519403246E+02 -0.44466164593E+02 -0.94768991795E+01  0.50473840033E+02  0.41800000000E+01 0. -1.
         -5    1    3    3    0  502  0.41845708870E+02  0.16635525644E+02 -0.14173671971E+03  0.14877692757E+03  0.41800000000E+01 0. -1.
        -11    1    1    2    0    0  0.16421926966E+02  0.17107683999E+02 -0.65784396372E+02  0.69928101240E+02  0.00000000000E+00 0.  1.
         11    1    1    2    0    0 -0.36748232590E+02  0.10722954949E+02  0.51842178755E+01  0.38630175722E+02  0.00000000000E+00 0. -1.
</event>
<event>
 7    1  0.2788485E-009  0.9118644E+02  0.7561462E-02  0.1300004E+00
          1   -1    0    0  501    0  0.00000000000E+00  0.00000000000E+00  0.74231496841E+03  0.74231496841E+03  0.00000000000E+00 0. -1.
         -1   -1    0    0    0  501 -0.00000000000E+00 -0.00000000000E+00 -0.20405610273E+02  0.20405610273E+02  0.00000000000E+00 0.  1.
         25    2    1    2    0    0 -0.32531316985E+02 -0.15731438373E+02  0.54316664395E+03  0.55855379255E+03  0.12508625557E+03 0.  0.
          5    1    3    3  502    0 -0.44601281728E+02  0.44647704272E+02  0.19623094422E+03  0.20617164620E+03  0.41800000000E+01 0.  1.
         -5    1    3    3    0  502  0.12069964743E+02 -0.60379142646E+02  0.34693569973E+03  0.35238214635E+03  0.41800000000E+01 0.  1.
        -11    1    1    2    0    0  0.34446229573E+02 -0.65360936723E+01  0.17840190113E+03  0.18181447021E+03  0.00000000000E+00 0.  1.
         11    1    1    2    0    0 -0.19149125879E+01  0.22267532046E+02  0.34081306003E+00  0.22352315924E+02  0.00000000000E+00 0. -1.
</event>
<event>
 7    1  0.2788485E-009  0.8573721E+02  0.7561462E-02  0.1313516E+00
          2   -1    0    0  501    0  0.00000000000E+00  0.00000000000E+00  0.12868770068E+03  0.12868770068E+03  0.00000000000E+00 0. -1.
         -2   -1    0    0    0  501 -0.00000000000E+00 -0.00000000000E+00 -0.15969862344E+03  0.15969862344E+03  0.00000000000E+00 0.  1.
         25    2    1    2    0    0  0.68359619741E+02  0.23271501844E+02  0.42523400791E+02  0.15056574727E+03  0.12508878538E+03 0.  0.
          5    1    3    3  502    0  0.33629690076E+02  0.25317373161E+02 -0.41665914887E+02  0.59375468855E+02  0.41800000000E+01 0.  1.
         -5    1    3    3    0  502  0.34729929665E+02 -0.20458713169E+01  0.84189315678E+02  0.91190278420E+02  0.41800000000E+01 0.  1.
        -11    1    1    2    0    0 -0.64815112468E+02  0.55888361273E+01 -0.84589436465E+02  0.10671272958E+03  0.00000000000E+00 0.  1.
         11    1    1    2    0    0 -0.35445072731E+01 -0.28860337972E+02  0.11055112918E+02  0.31107847262E+02  0.00000000000E+00 0. -1.
</event>
<event>
 7    1  0.2788485E-009  0.1641604E+03  0.7561462E-02  0.1184078E+00
          1   -1    0    0  501    0  0.00000000000E+00  0.00000000000E+00  0.72628056971E+02  0.72628056971E+02  0.00000000000E+00 0. -1.
         -1   -1    0    0    0  501 -0.00000000000E+00 -0.00000000000E+00 -0.56206324239E+03  0.56206324239E+03  0.00000000000E+00 0.  1.
         25    2    1    2    0    0 -0.27930222545E+02  0.13759839301E+03 -0.10490289601E+03  0.21533236384E+03  0.12509993700E+03 0.  0.
          5    1    3    3  502    0  0.17164717291E+02  0.13765167310E+03 -0.97100049055E+02  0.16937680642E+03  0.41800000000E+01 0.  1.
         -5    1    3    3    0  502 -0.45094939836E+02 -0.53280087941E-01 -0.78028469580E+01  0.45955557425E+02  0.41800000000E+01 0.  1.
        -11    1    1    2    0    0 -0.76521907073E+01 -0.27617631572E+02 -0.15364702450E+02  0.32517128988E+02  0.00000000000E+00 0. -1.
         11    1    1    2    0    0  0.35582413252E+02 -0.10998076144E+03 -0.36916758695E+03  0.38684180653E+03  0.00000000000E+00 0.  1.
</event>
<event>
 7    1  0.2788485E-009  0.2105151E+03  0.7561462E-02  0.1141159E+00
          1   -1    0    0  501    0  0.00000000000E+00  0.00000000000E+00  0.98775455556E+03  0.98775455556E+03  0.00000000000E+00 0. -1.
         -1   -1    0    0    0  501 -0.00000000000E+00 -0.00000000000E+00 -0.50758150152E+02  0.50758150152E+02  0.00000000000E+00 0.  1.
         25    2    1    2    0    0 -0.11348857502E+03 -0.16062598865E+03  0.48648789602E+03  0.53944257364E+03  0.12508977732E+03 0.  0.
          5    1    3    3  502    0  0.12888872937E+02 -0.13155503671E+02  0.14778271088E+03  0.14898453731E+03  0.41800000000E+01 0. -1.
         -5    1    3    3    0  502 -0.12637744796E+03 -0.14747048498E+03  0.33870518515E+03  0.39045803634E+03  0.41800000000E+01 0. -1.
        -11    1    1    2    0    0  0.67829390405E+02  0.39620459902E+02  0.23445140634E+03  0.24726113520E+03  0.00000000000E+00 0. -1.
         11    1    1    2    0    0  0.45659184618E+02  0.12100552875E+03  0.21605710304E+03  0.25180899687E+03  0.00000000000E+00 0.  1.
</event>
<event>
 7    1  0.2788485E-009  0.1039996E+03  0.7561462E-02  0.1272103E+00
         -1   -1    0    0    0  501 -0.00000000000E+00  0.00000000000E+00  0.93267983497E+02  0.93267983497E+02  0.00000000000E+00 0.  1.
          1   -1    0    0  501    0  0.00000000000E+00 -0.00000000000E+00 -0.21806252225E+03  0.21806252225E+03  0.00000000000E+00 0. -1.
         25    2    1    2    0    0 -0.27862727608E+02  0.81724548727E+02 -0.11039994321E+03  0.18786121445E+03  0.12509378474E+03 0.  0.
          5    1    3    3  502    0 -0.36578956324E+01  0.30037369484E+02 -0.12510090052E+03  0.12877628461E+03  0.41800000000E+01 0. -1.
         -5    1    3    3    0  502 -0.24204831976E+02  0.51687179243E+02  0.14700957311E+02  0.59084929846E+02  0.41800000000E+01 0. -1.
        -11    1    1    2    0    0  0.57318673262E+02 -0.63702603908E+02  0.90802529268E+00  0.85698754711E+02  0.00000000000E+00 0.  1.
         11    1    1    2    0    0 -0.29455945654E+02 -0.18021944820E+02 -0.15302620839E+02  0.37770536586E+02  0.00000000000E+00 0. -1.
</event>
<event>
 7    1  0.2788485E-009  0.1553112E+03  0.7561462E-02  0.1194094E+00
          3   -1    0    0  501    0  0.00000000000E+00  0.00000000000E+00  0.48983863756E+03  0.48983863756E+03  0.00000000000E+00 0. -1.
         -3   -1    0    0    0  501 -0.00000000000E+00 -0.00000000000E+00 -0.72009947054E+02  0.72009947054E+02  0.00000000000E+00 0.  1.
         25    2    1    2    0    0 -0.66554988461E+02  0.96944081112E+02  0.36780624439E+03  0.40590110572E+03  0.12508618173E+03 0.  0.
          5    1    3    3  502    0 -0.96311649117E+02  0.52916610952E+02  0.30084253281E+03  0.32031204070E+03  0.41800000000E+01 0. -1.
         -5    1    3    3    0  502  0.29756660656E+02  0.44027470160E+02  0.66963711579E+02  0.85589065017E+02  0.41800000000E+01 0. -1.
        -11    1    1    2    0    0 -0.21889453056E+02 -0.25838847942E+02  0.69811273074E+01  0.34576442219E+02  0.00000000000E+00 0.  1.
         11    1    1    2    0    0  0.88444441517E+02 -0.71105233170E+02  0.43041318811E+02  0.12137103668E+03  0.00000000000E+00 0. -1.
</event>
<event>
 7    1  0.2788485E-009  0.2780864E+03  0.7561462E-02  0.1096739E+00
         -2   -1    0    0    0  501 -0.00000000000E+00  0.00000000000E+00  0.63763409098E+02  0.63763409098E+02  0.00000000000E+00 0.  1.
          2   -1    0    0  501    0  0.00000000000E+00 -0.00000000000E+00 -0.14079827185E+04  0.14079827185E+04  0.00000000000E+00 0. -1.
         25    2    1    2    0    0 -0.72432708343E+01  0.27206619686E+03 -0.53761387072E+03  0.61542666039E+03  0.12509524323E+03 0.  0.
          5    1    3    3  502    0 -0.76138270485E+00  0.20041900207E+02  0.12130102237E+01  0.20523188382E+02  0.41800000000E+01 0. -1.
         -5    1    3    3    0  502 -0.64818881295E+01  0.25202429665E+03 -0.53882688095E+03  0.59490347201E+03  0.41800000000E+01 0. -1.
        -11    1    1    2    0    0 -0.11371336741E+02 -0.26225471367E+03 -0.77585236336E+03  0.81905661091E+03  0.00000000000E+00 0.  1.
         11    1    1    2    0    0  0.18614607575E+02 -0.98114831822E+01 -0.30753075276E+02  0.37262856256E+02  0.00000000000E+00 0. -1.
</event>
<event>
 7    1  0.2788485E-009  0.6150872E+02  0.7561462E-02  0.1391607E+00
         -2   -1    0    0    0  501 -0.00000000000E+00  0.00000000000E+00  0.18716362837E+03  0.18716362837E+03  0.00000000000E+00 0. -1.
          2   -1    0    0  501    0  0.00000000000E+00 -0.00000000000E+00 -0.92353512457E+02  0.92353512457E+02  0.00000000000E+00 0.  1.
         25    2    1    2    0    0 -0.22384831788E+02  0.25941372593E+02 -0.18590621243E+02  0.13102019211E+03  0.12508654618E+03 0.  0.
          5    1    3    3  502    0  0.77792046423E+01  0.17805317991E+02  0.50939225718E+02  0.54679269292E+02  0.41800000000E+01 0.  1.
         -5    1    3    3    0  502 -0.30164036430E+02  0.81360546015E+01 -0.69529846960E+02  0.76340922817E+02  0.41800000000E+01 0.  1.
        -11    1    1    2    0    0  0.42408935271E+02 -0.28985133106E+02  0.11713329315E+03  0.12790177519E+03  0.00000000000E+00 0. -1.
         11    1    1    2    0    0 -0.20024103483E+02  0.30437605131E+01 -0.37325559964E+01  0.20595173527E+02  0.00000000000E+00 0.  1.
</event>
<event>
 7    1  0.2788485E-009  0.1397709E+03  0.7561462E-02  0.1213638E+00
          2   -1    0    0  501    0  0.00000000000E+00  0.00000000000E+00  0.11220988008E+04  0.11220988008E+04  0.00000000000E+00 0. -1.
         -2   -1    0    0    0  501 -0.00000000000E+00 -0.00000000000E+00 -0.19804017607E+02  0.19804017607E+02  0.00000000000E+00 0.  1.
         25    2    1    2    0    0 -0.41725396708E+02  0.87954405219E+02  0.70319909556E+03  0.72084225289E+03  0.12509036504E+03 0.  0.
          5    1    3    3  502    0 -0.77893759747E+02  0.89589425752E+02  0.46824303481E+03  0.48307630356E+03  0.41800000000E+01 0. -1.
         -5    1    3    3    0  502  0.36168363039E+02 -0.16350205331E+01  0.23495606075E+03  0.23776594933E+03  0.41800000000E+01 0. -1.
        -11    1    1    2    0    0  0.47048603293E+01 -0.87149239128E+02  0.34236677729E+03  0.35331591499E+03  0.00000000000E+00 0. -1.
         11    1    1    2    0    0  0.37020536379E+02 -0.80516609039E+00  0.56728910323E+02  0.67744650509E+02  0.00000000000E+00 0.  1.
</event>
<event>
 7    1  0.2788485E-009  0.1360556E+03  0.7561462E-02  0.1218737E+00
          2   -1    0    0  501    0  0.00000000000E+00  0.00000000000E+00  0.25004764309E+02  0.25004764309E+02  0.00000000000E+00 0. -1.
         -2   -1    0    0    0  501 -0.00000000000E+00 -0.00000000000E+00 -0.84050136298E+03  0.84050136298E+03  0.00000000000E+00 0.  1.
         25    2    1    2    0    0  0.43639551318E+02  0.82760591824E+02 -0.49977339179E+03  0.52361737133E+03  0.12509189590E+03 0.  0.
          5    1    3    3  502    0 -0.28744366114E+02  0.72304972711E+02 -0.19120774150E+03  0.20647547184E+03  0.41800000000E+01 0.  1.
         -5    1    3    3    0  502  0.72383917432E+02  0.10455619113E+02 -0.30856565028E+03  0.31714189948E+03  0.41800000000E+01 0.  1.
        -11    1    1    2    0    0 -0.51086455056E+02 -0.15674057446E+02 -0.76430351856E+02  0.93258247098E+02  0.00000000000E+00 0.  1.
         11    1    1    2    0    0  0.74469037377E+01 -0.67086534378E+02 -0.23929285502E+03  0.24863050886E+03  0.00000000000E+00 0. -1.
</event>
<event>
 7    1  0.2788485E-009  0.6408605E+02  0.7561462E-02  0.1381443E+00
         -2   -1    0    0    0  501 -0.00000000000E+00  0.00000000000E+00  0.15113648667E+03  0.15113648667E+03  0.00000000000E+00 0.  1.
          2   -1    0    0  501    0  0.00000000000E+00 -0.00000000000E+00 -0.71162868216E+02  0.71162868216E+02  0.00000000000E+00 0. -1.
         25    2    1    2    0    0  0.68600197812E+01  0.12611942087E+01  0.82050598165E+02  0.14976153104E+03  0.12509022759E+03 0.  0.
          5    1    3    3  502    0  0.31373013234E+02  0.40234265953E+02 -0.47563187108E+01  0.51411643466E+02  0.41800000000E+01 0.  1.
         -5    1    3    3    0  502 -0.24512993453E+02 -0.38973071744E+02  0.86806916876E+02  0.98349887578E+02  0.41800000000E+01 0.  1.
        -11    1    1    2    0    0 -0.16497637362E+02 -0.86300272628E+01  0.31636150705E+02  0.36708247581E+02  0.00000000000E+00 0.  1.
         11    1    1    2    0    0  0.96376175808E+01  0.73688330541E+01 -0.33713130411E+02  0.35829576265E+02  0.00000000000E+00 0. -1.
</event>
<event>
 7    1  0.2788485E-009  0.1199627E+03  0.7561462E-02  0.1243159E+00
         -1   -1    0    0    0  501 -0.00000000000E+00  0.00000000000E+00  0.17259942641E+02  0.17259942641E+02  0.00000000000E+00 0.  1.
          1   -1    0    0  501    0  0.00000000000E+00 -0.00000000000E+00 -0.16976546063E+04  0.16976546063E+04  0.00000000000E+00 0. -1.
         25    2    1    2    0    0  0.50458676566E+02  0.70413740820E+02 -0.13687313057E+04  0.13771623987E+04  0.12508681849E+03 0.  0.
          5    1    3    3  502    0 -0.20626317984E+01 -0.27284496837E+02 -0.10574232201E+03  0.10930512011E+03  0.41800000000E+01 0.  1.
         -5    1    3    3    0  502  0.52521308365E+02  0.97698237657E+02 -0.12629889837E+04  0.12678572786E+04  0.41800000000E+01 0.  1.
        -11    1    1    2    0    0 -0.21673782131E+02 -0.69113116437E+02 -0.29644579823E+03  0.30516632676E+03  0.00000000000E+00 0. -1.
         11    1    1    2    0    0 -0.28784894435E+02 -0.13006243826E+01 -0.15217559755E+02  0.32585823548E+02  0.00000000000E+00 0.  1.
</event>
<event>
 7    1  0.2788485E-009  0.1023810E+03  0.7561462E-02  0.1275367E+00
          1   -1    0    0  501    0  0.00000000000E+00  0.00000000000E+00  0.80463878844E+02  0.80463878844E+02  0.00000000000E+00 0. -1.
         -1   -1    0    0    0  501 -0.00000000000E+00 -0.00000000000E+00 -0.19014427247E+03  0.19014427247E+03  0.00000000000E+00 0.  1.
         25    2    1    2    0    0  0.24481463594E+02 -0.51894934536E+02 -0.73944702080E+02  0.15622851652E+03  0.12508838523E+03 0.  0.
          5    1    3    3  502    0  0.38678410874E+02  0.14963729406E+02  0.14714952969E+02  0.44203335919E+02  0.41800000000E+01 0.  1.
         -5    1    3    3    0  502 -0.14196947281E+02 -0.66858663943E+02 -0.88659655048E+02  0.11202518061E+03  0.41800000000E+01 0.  1.
        -11    1    1    2    0    0 -0.50116679155E+02  0.46583808032E+02  0.19994247351E+01  0.68452395134E+02  0.00000000000E+00 0. -1.
         11    1    1    2    0    0  0.25635215562E+02  0.53111265042E+01 -0.37735116285E+02  0.45927239659E+02  0.00000000000E+00 0.  1.
</event>
<event>
 7    1  0.2788485E-009  0.9537047E+02  0.7561462E-02  0.1290344E+00
          1   -1    0    0  501    0  0.00000000000E+00  0.00000000000E+00  0.39467392584E+02  0.39467392584E+02  0.00000000000E+00 0.  1.
         -1   -1    0    0    0  501 -0.00000000000E+00 -0.00000000000E+00 -0.40272590790E+03  0.40272590790E+03  0.00000000000E+00 0. -1.
         25    2    1    2    0    0  0.13757262660E+02  0.10142464433E+02 -0.94110275587E+02  0.15746922187E+03  0.12509068712E+03 0.  0.
          5    1    3    3  502    0 -0.20910943468E+02  0.44204308308E+02  0.26051477523E+01  0.49148220970E+02  0.41800000000E+01 0. -1.
         -5    1    3    3    0  502  0.34668206128E+02 -0.34061843875E+02 -0.96715423340E+02  0.10832100090E+03  0.41800000000E+01 0. -1.
        -11    1    1    2    0    0 -0.53031497438E+02 -0.48745994799E+01 -0.15374566547E+03  0.16270780894E+03  0.00000000000E+00 0. -1.
         11    1    1    2    0    0  0.39274234778E+02 -0.52678649531E+01 -0.11540257426E+03  0.12201626967E+03  0.00000000000E+00 0.  1.
</event>
<event>
 7    1  0.2788485E-009  0.1761658E+03  0.7561462E-02  0.1171566E+00
          2   -1    0    0  501    0  0.00000000000E+00  0.00000000000E+00  0.79336914386E+03  0.79336914386E+03  0.00000000000E+00 0. -1.
         -2   -1    0    0    0  501 -0.00000000000E+00 -0.00000000000E+00 -0.90030942304E+02  0.90030942304E+02  0.00000000000E+00 0.  1.
         25    2    1    2    0    0 -0.33975243570E+02 -0.15040893245E+03  0.67326063524E+03  0.70192940990E+03  0.12509136416E+03 0.  0.
          5    1    3    3  502    0 -0.47407710828E+02 -0.15304734240E+03  0.44089718059E+03  0.46912554430E+03  0.41800000000E+01 0.  1.
         -5    1    3    3    0  502  0.13432467258E+02  0.26384099501E+01  0.23236345464E+03  0.23280386560E+03  0.41800000000E+01 0.  1.
        -11    1    1    2    0    0  0.57410991709E+02  0.55027222706E+02  0.23990407082E+02  0.83063571074E+02  0.00000000000E+00 0.  1.
         11    1    1    2    0    0 -0.23435748139E+02  0.95381709740E+02  0.60871592337E+01  0.98407105187E+02  0.00000000000E+00 0. -1.
</event>
<event>
 7    1  0.2788485E-009  0.9843617E+02  0.7561462E-02  0.1283619E+00
         -1   -1    0    0    0  501 -0.00000000000E+00  0.00000000000E+00  0.51060254534E+02  0.51060254534E+02  0.00000000000E+00 0.  1.
          1   -1    0    0  501    0  0.00000000000E+00 -0.00000000000E+00 -0.48575898701E+03  0.48575898701E+03  0.00000000000E+00 0. -1.
         25    2    1    2    0    0  0.84187633523E+02  0.35480397356E+02 -0.34400085962E+03  0.37726714116E+03  0.12508992024E+03 0.  0.
          5    1    3    3  502    0  0.28750449718E+02 -0.12023928420E+02 -0.67233811524E+01  0.32153374127E+02  0.41800000000E+01 0.  1.
         -5    1    3    3    0  502  0.55437183804E+02  0.47504325775E+02 -0.33727747846E+03  0.34511376703E+03  0.41800000000E+01 0.  1.
        -11    1    1    2    0    0 -0.73408859240E+02 -0.25783923801E+02 -0.11038961402E+02  0.78584540530E+02  0.00000000000E+00 0.  1.
         11    1    1    2    0    0 -0.10778774282E+02 -0.96964735545E+01 -0.79658911460E+02  0.80967559858E+02  0.00000000000E+00 0. -1.
</event>
<event>
 7    1  0.2788485E-009  0.1314786E+03  0.7561462E-02  0.1225278E+00
          1   -1    0    0  501    0  0.00000000000E+00  0.00000000000E+00  0.22576568393E+03  0.22576568393E+03  0.00000000000E+00 0. -1.
         -1   -1    0    0    0  501 -0.00000000000E+00 -0.00000000000E+00 -0.92408739549E+02  0.92408739549E+02  0.00000000000E+00 0.  1.
         25    2    1    2    0    0 -0.49565937794E+02 -0.76491028511E+02  0.11344055834E+03  0.19189601536E+03  0.12509061037E+03 0.  0.
          5    1    3    3  502    0  0.32945488682E+02 -0.35478944574E+02  0.39856553110E+01  0.48759804971E+02  0.41800000000E+01 0.  1.
         -5    1    3    3    0  502 -0.82511426476E+02 -0.41012083936E+02  0.10945490303E+03  0.14313621039E+03  0.41800000000E+01 0.  1.
        -11    1    1    2    0    0 -0.15264508632E+02  0.49672982252E+02  0.21161529746E+02  0.56109007572E+02  0.00000000000E+00 0. -1.
         11    1    1    2    0    0  0.64830446426E+02  0.26818046259E+02 -0.12451437120E+01  0.70169400538E+02  0.00000000000E+00 0.  1.
</event>
<event>
 7    1  0.2788485E-009  0.2002583E+03  0.7561462E-02  0.1149521E+00
          2   -1    0    0  501    0  0.00000000000E+00  0.00000000000E+00  0.13902202311E+04  0.13902202311E+04  0.00000000000E+00 0. -1.
         -2   -1    0    0    0  501 -0.00000000000E+00 -0.00000000000E+00 -0.37962502912E+02  0.37962502912E+02  0.00000000000E+00 0.  1.
         25    2    1    2    0    0  0.16921575353E+03  0.72030316666E+02  0.95000816015E+03  0.97569741794E+03  0.12509040439E+03 0.  0.
          5    1    3    3  502    0  0.10968663220E+03  0.84692956653E+02  0.42232439189E+03  0.44449906476E+03  0.41800000000E+01 0. -1.
         -5    1    3    3    0  502  0.59529121325E+02 -0.12662639987E+02  0.52768376826E+03  0.53119835318E+03  0.41800000000E+01 0. -1.
        -11    1    1    2    0    0 -0.10121966541E+03  0.81328250376E+00  0.14705149002E+03  0.17852233141E+03  0.00000000000E+00 0.  1.
         11    1    1    2    0    0 -0.67996088114E+02 -0.72843599169E+02  0.25519807799E+03  0.27396298463E+03  0.00000000000E+00 0. -1.
</event>
<event>
 7    1  0.2788485E-009  0.1717470E+03  0.7561462E-02  0.1176038E+00
          1   -1    0    0  501    0  0.00000000000E+00  0.00000000000E+00  0.14586316174E+03  0.14586316174E+03  0.00000000000E+00 0. -1.
         -1   -1    0    0    0  501 -0.00000000000E+00 -0.00000000000E+00 -0.31011828094E+03  0.31011828094E+03  0.00000000000E+00 0.  1.
         25    2    1    2    0    0 -0.15960244040E+03  0.50714077788E+02 -0.76246721188E+01  0.20916601579E+03  0.12508968730E+03 0.  0.
          5    1    3    3  502    0 -0.11884441464E+03  0.58282988150E+02  0.46946540211E+02  0.14050747894E+03  0.41800000000E+01 0.  1.
         -5    1    3    3    0  502 -0.40758025760E+02 -0.75689103627E+01 -0.54571212330E+02  0.68658536855E+02  0.41800000000E+01 0.  1.
        -11    1    1    2    0    0  0.64574434054E+02 -0.33763060142E+02 -0.12598341238E+03  0.14553907365E+03  0.00000000000E+00 0.  1.
         11    1    1    2    0    0  0.95028006347E+02 -0.16951017646E+02 -0.30647034698E+02  0.10127635324E+03  0.00000000000E+00 0. -1.
</event>
<event>
 7    1  0.2788485E-009  0.1008066E+03  0.7561462E-02  0.1278609E+00
          1   -1    0    0  501    0  0.00000000000E+00  0.00000000000E+00  0.45856237042E+03  0.45856237042E+03  0.00000000000E+00 0. -1.
         -1   -1    0    0    0  501 -0.00000000000E+00 -0.00000000000E+00 -0.38950090915E+02  0.38950090915E+02  0.00000000000E+00 0.  1.
         25    2    1    2    0    0  0.35367026231E+02 -0.61181249174E+02  0.28387933659E+03  0.31816477372E+03  0.12508946277E+03 0.  0.
          5    1    3    3  502    0  0.55994385840E+02 -0.83381743120E+01  0.23917620946E+03  0.24582031643E+03  0.41800000000E+01 0.  1.
         -5    1    3    3    0  502 -0.20627359609E+02 -0.52843074862E+02  0.44703127132E+02  0.72344457291E+02  0.41800000000E+01 0.  1.
        -11    1    1    2    0    0 -0.45125257173E+02  0.27372482635E+02  0.13410980726E+03  0.14412141425E+03  0.00000000000E+00 0. -1.
         11    1    1    2    0    0  0.97582309416E+01  0.33808766539E+02  0.16231356456E+01  0.35226273367E+02  0.00000000000E+00 0.  1.
</event>
<event>
 7    1  0.2788485E-009  0.1179376E+03  0.7561462E-02  0.1246539E+00
          2   -1    0    0  501    0  0.00000000000E+00  0.00000000000E+00  0.48756814318E+03  0.48756814318E+03  0.00000000000E+00 0. -1.
         -2   -1    0    0    0  501 -0.00000000000E+00 -0.00000000000E+00 -0.63089931898E+02  0.63089931898E+02  0.00000000000E+00 0.  1.
         25    2    1    2    0    0 -0.39200326193E+02  0.92893868721E+02  0.37068890566E+03  0.40401015371E+03  0.12509197858E+03 0.  0.
          5    1    3    3  502    0  0.24795650901E+02  0.39962495154E+02  0.36632855361E+02  0.59760051995E+02  0.41800000000E+01 0.  1.
         -5    1    3    3    0  502 -0.63995977094E+02  0.52931373567E+02  0.33405605030E+03  0.34425010172E+03  0.41800000000E+01 0.  1.
        -11    1    1    2    0    0  0.27031882464E+02 -0.25974967914E+02  0.67548189578E+02  0.77253993702E+02  0.00000000000E+00 0. -1.
         11    1    1    2    0    0  0.12168443729E+02 -0.66918900807E+02 -0.13758883959E+02  0.69393927658E+02  0.00000000000E+00 0.  1.
</event>
<event>
 7    1  0.2788485E-009  0.2022838E+03  0.7561462E-02  0.1147826E+00
          2   -1    0    0  501    0  0.00000000000E+00  0.00000000000E+00  0.17174924542E+04  0.17174924542E+04  0.00000000000E+00 0. -1.
         -2   -1    0    0    0  501 -0.00000000000E+00 -0.00000000000E+00 -0.30735080989E+02  0.30735080989E+02  0.00000000000E+00 0.  1.
         25    2    1    2    0    0 -0.16494539851E+03 -0.54436736777E+02  0.12676208491E+04  0.12855661419E+04  0.12508935015E+03 0.  0.
          5    1    3    3  502    0 -0.17208331082E+03 -0.15980988690E+02  0.96007749347E+03  0.97551746459E+03  0.41800000000E+01 0. -1.
         -5    1    3    3    0  502  0.71379123127E+01 -0.38455748087E+02  0.30754335560E+03  0.31004867735E+03  0.41800000000E+01 0. -1.
        -11    1    1    2    0    0  0.11197860557E+02 -0.18936536675E+02  0.82374322287E+02  0.85261441898E+02  0.00000000000E+00 0. -1.
         11    1    1    2    0    0  0.15374753795E+03  0.73373273452E+02  0.33676220190E+03  0.37739995139E+03  0.00000000000E+00 0.  1.
</event>
<event>
 7    1  0.2788485E-009  0.7653205E+02  0.7561462E-02  0.1339191E+00
         -2   -1    0    0    0  501 -0.00000000000E+00  0.00000000000E+00  0.38118107388E+02  0.38118107388E+02  0.00000000000E+00 0.  1.
          2   -1    0    0  501    0  0.00000000000E+00 -0.00000000000E+00 -0.46980872099E+03  0.46980872099E+03  0.00000000000E+00 0. -1.
         25    2    1    2    0    0  0.83816056159E+01 -0.64286781755E+00 -0.38125278628E+03  0.40133863992E+03  0.12509337413E+03 0.  0.
          5    1    3    3  502    0  0.20380487528E+02  0.24978380889E+02 -0.18386848298E+02  0.37347454720E+02  0.41800000000E+01 0.  1.
         -5    1    3    3    0  502 -0.11998881912E+02 -0.25621248707E+02 -0.36286593798E+03  0.36399118519E+03  0.41800000000E+01 0.  1.
        -11    1    1    2    0    0  0.35343955186E+02  0.23671285693E+02 -0.34162400675E+02  0.54558175872E+02  0.00000000000E+00 0. -1.
         11    1    1    2    0    0 -0.43725560802E+02 -0.23028417876E+02 -0.16275426643E+02  0.52030012586E+02  0.00000000000E+00 0.  1.
</event>
<event>
 7    1  0.2788485E-009  0.9081304E+02  0.7561462E-02  0.1300895E+00
          1   -1    0    0  501    0  0.00000000000E+00  0.00000000000E+00  0.11123553197E+03  0.11123553197E+03  0.00000000000E+00 0. -1.
         -1   -1    0    0    0  501 -0.00000000000E+00 -0.00000000000E+00 -0.18815402850E+03  0.18815402850E+03  0.00000000000E+00 0.  1.
         25    2    1    2    0    0  0.69408846219E+00  0.63642723160E+01 -0.14062975685E+03  0.18832346272E+03  0.12509201564E+03 0.  0.
          5    1    3    3  502    0 -0.60411832920E+02  0.46860876116E+01 -0.91322462227E+02  0.10967594760E+03  0.41800000000E+01 0.  1.
         -5    1    3    3    0  502  0.61105921382E+02  0.16781847044E+01 -0.49307294626E+02  0.78647515124E+02  0.41800000000E+01 0.  1.
        -11    1    1    2    0    0  0.79991707583E+01 -0.31771884676E+02  0.75070599937E+02  0.81908695287E+02  0.00000000000E+00 0. -1.
         11    1    1    2    0    0 -0.86932592205E+01  0.25407612361E+02 -0.11359339622E+02  0.29157402463E+02  0.00000000000E+00 0.  1.
</event>
<event>
 7    1  0.2788485E-009  0.1199387E+03  0.7561462E-02  0.1243198E+00
         -2   -1    0    0    0  501 -0.00000000000E+00  0.00000000000E+00  0.56875023792E+03  0.56875023792E+03  0.00000000000E+00 0.  1.
          2   -1    0    0  501    0  0.00000000000E+00 -0.00000000000E+00 -0.29769508554E+02  0.29769508554E+02  0.00000000000E+00 0. -1.
         25    2    1    2    0    0 -0.37616362991E+02  0.60757774435E+02  0.26859377237E+03  0.30479018033E+03  0.12509173255E+03 0.  0.
          5    1    3    3  502    0  0.17848447290E+01 -0.36530161294E+02  0.95055248296E+02  0.10193434644E+03  0.41800000000E+01 0. -1.
         -5    1    3    3    0  502 -0.39401207720E+02  0.97287935730E+02  0.17353852407E+03  0.20285583390E+03  0.41800000000E+01 0. -1.
        -11    1    1    2    0    0 -0.17520289504E+02 -0.30372974385E+02  0.18120233689E+03  0.18456371532E+03  0.00000000000E+00 0. -1.
         11    1    1    2    0    0  0.55136652495E+02 -0.30384800050E+02  0.89184620104E+02  0.10916585082E+03  0.00000000000E+00 0.  1.
</event>
<event>
 7    1  0.3658431E-009  0.1418177E+03  0.7561462E-02  0.1210904E+00
         -2   -1    0    0    0  501 -0.00000000000E+00  0.00000000000E+00  0.35991301480E+02  0.35991301480E+02  0.00000000000E+00 0.  1.
          2   -1    0    0  501    0  0.00000000000E+00 -0.00000000000E+00 -0.79893573180E+03  0.79893573180E+03  0.00000000000E+00 0. -1.
         25    2    1    2    0    0 -0.11229134935E+03  0.61944057254E+02 -0.46205264153E+03  0.49556728294E+03  0.12509146659E+03 0.  0.
          5    1    3    3  502    0 -0.66984743857E+02  0.44193304115E+02 -0.42931515483E+03  0.43677108261E+03  0.41800000000E+01 0.  1.
         -5    1    3    3    0  502 -0.45306605489E+02  0.17750753139E+02 -0.32737486694E+02  0.58796200328E+02  0.41800000000E+01 0.  1.
        -11    1    1    2    0    0  0.53156373217E+02 -0.76860057634E+02 -0.21057782991E+03  0.23038248831E+03  0.00000000000E+00 0.  1.
         11    1    1    2    0    0  0.59134976129E+02  0.14916000379E+02 -0.90313958890E+02  0.10897726203E+03  0.00000000000E+00 0. -1.
</event>
<event>
 7    1  0.2788485E-009  0.1763401E+03  0.7561462E-02  0.1171393E+00
         -1   -1    0    0    0  501 -0.00000000000E+00  0.00000000000E+00  0.30876938289E+02  0.30876938289E+02  0.00000000000E+00 0.  1.
          1   -1    0    0  501    0  0.00000000000E+00 -0.00000000000E+00 -0.12699698512E+04  0.12699698512E+04  0.00000000000E+00 0. -1.
         25    2    1    2    0    0  0.57791521539E+02 -0.13528776549E+03 -0.40346977016E+03  0.44730020787E+03  0.12508789342E+03 0.  0.
          5    1    3    3  502    0  0.85870264540E+02 -0.70917538339E+02 -0.16847706802E+03  0.20200246143E+03  0.41800000000E+01 0.  1.
         -5    1    3    3    0  502 -0.28078743002E+02 -0.64370227151E+02 -0.23499270213E+03  0.24529774644E+03  0.41800000000E+01 0.  1.
        -11    1    1    2    0    0 -0.12021814018E+02  0.12287000897E+03 -0.66945835507E+03  0.68074668732E+03  0.00000000000E+00 0. -1.
         11    1    1    2    0    0 -0.45769707520E+02  0.12417756519E+02 -0.16616478764E+03  0.17279989425E+03  0.00000000000E+00 0.  1.
</event>
<event>
 7    1  0.2788485E-009  0.1079016E+03  0.7561462E-02  0.1264506E+00
         -2   -1    0    0    0  501 -0.00000000000E+00  0.00000000000E+00  0.25462621787E+02  0.25462621787E+02  0.00000000000E+00 0.  1.
          2   -1    0    0  501    0  0.00000000000E+00 -0.00000000000E+00 -0.50417328085E+03  0.50417328085E+03  0.00000000000E+00 0. -1.
         25    2    1    2    0    0  0.33784635725E+02 -0.11216215436E+02 -0.28807465074E+03  0.31607196472E+03  0.12508907779E+03 0.  0.
          5    1    3    3  502    0  0.33628260192E+02  0.49060745928E+02 -0.20401528634E+03  0.21255005560E+03  0.41800000000E+01 0. -1.
         -5    1    3    3    0  502  0.15637553273E+00 -0.60276961364E+02 -0.84059364401E+02  0.10352190912E+03  0.41800000000E+01 0. -1.
        -11    1    1    2    0    0  0.10391000468E+02 -0.32188456107E+02 -0.78161461640E+02  0.85166212097E+02  0.00000000000E+00 0.  1.
         11    1    1    2    0    0 -0.44175636192E+02  0.43404671543E+02 -0.11247454668E+03  0.12839772582E+03  0.00000000000E+00 0. -1.
</event>
<event>
 7    1  0.2788485E-009  0.1299732E+03  0.7561462E-02  0.1227496E+00
          2   -1    0    0  501    0  0.00000000000E+00  0.00000000000E+00  0.17607410493E+03  0.17607410493E+03  0.00000000000E+00 0. -1.
         -2   -1    0    0    0  501 -0.00000000000E+00 -0.00000000000E+00 -0.10358941459E+03  0.10358941459E+03  0.00000000000E+00 0.  1.
         25    2    1    2    0    0 -0.14118580273E+02  0.77530945888E+02  0.27776701311E+02  0.15043180280E+03  0.12509116787E+03 0.  0.
          5    1    3    3  502    0 -0.21917886073E+02 -0.30300216621E+02 -0.35440198528E+01  0.37795890437E+02  0.41800000000E+01 0.  1.
         -5    1    3    3    0  502  0.77993057997E+01  0.10783116251E+03  0.31320721163E+02  0.11263591236E+03  0.41800000000E+01 0.  1.
        -11    1    1    2    0    0  0.25652508680E+02  0.87280662386E+01 -0.70212718292E+01  0.27991580876E+02  0.00000000000E+00 0.  1.
         11    1    1    2    0    0 -0.11533928407E+02 -0.86259012127E+02  0.51729260857E+02  0.10124013585E+03  0.00000000000E+00 0. -1.
</event>
<event>
 7    1  0.2788485E-009  0.1263332E+03  0.7561462E-02  0.1233000E+00
         -2   -1    0    0    0  501 -0.00000000000E+00  0.00000000000E+00  0.67673038874E+02  0.67673038874E+02  0.00000000000E+00 0.  1.
          2   -1    0    0  501    0  0.00000000000E+00 -0.00000000000E+00 -0.32922560645E+03  0.32922560645E+03  0.00000000000E+00 0. -1.
         25    2    1    2    0    0 -0.21514379718E+02 -0.91117702055E+02 -0.20022836031E+03  0.25397581903E+03  0.12508803386E+03 0.  0.
          5    1    3    3  502    0  0.22763055696E+02 -0.71317651470E+02 -0.18995992319E+03  0.20422195997E+03  0.41800000000E+01 0. -1.
         -5    1    3    3    0  502 -0.44277435413E+02 -0.19800050585E+02 -0.10268437118E+02  0.49753859055E+02  0.41800000000E+01 0. -1.
        -11    1    1    2    0    0 -0.22818317967E+02  0.80150915365E+02 -0.42198468835E+02  0.93410682690E+02  0.00000000000E+00 0.  1.
         11    1    1    2    0    0  0.44332697685E+02  0.10966786691E+02 -0.19125738435E+02  0.49512143611E+02  0.00000000000E+00 0. -1.
</event>
<event>
 7    1  0.2788485E-009  0.9867511E+02  0.7561462E-02  0.1283107E+00
         -2   -1    0    0    0  501 -0.00000000000E+00  0.00000000000E+00  0.74241243636E+03  0.74241243636E+03  0.00000000000E+00 0.  1.
          2   -1    0    0  501    0  0.00000000000E+00 -0.00000000000E+00 -0.23823707975E+02  0.23823707975E+02  0.00000000000E+00 0. -1.
         25    2    1    2    0    0 -0.17007756694E+01 -0.76097165094E+02  0.41924253022E+03  0.44407775082E+03  0.12508828263E+03 0.  0.
          5    1    3    3  502    0 -0.24798248489E+02 -0.68008733432E+02  0.98160436226E+02  0.12203722625E+03  0.41800000000E+01 0.  1.
         -5    1    3    3    0  502  0.23097472819E+02 -0.80884316620E+01  0.32108209400E+03  0.32204052457E+03  0.41800000000E+01 0.  1.
        -11    1    1    2    0    0 -0.31555486573E+02  0.39652416897E+02  0.23849252509E+03  0.24381703678E+03  0.00000000000E+00 0.  1.
         11    1    1    2    0    0  0.33256262243E+02  0.36444748197E+02  0.60853673068E+02  0.78341356737E+02  0.00000000000E+00 0. -1.
</event>
<event>
 7    1  0.2788485E-009  0.1876458E+03  0.7561462E-02  0.1160602E+00
         -2   -1    0    0    0  501 -0.00000000000E+00  0.00000000000E+00  0.39091420759E+02  0.39091420759E+02  0.00000000000E+00 0.  1.
          2   -1    0    0  501    0  0.00000000000E+00 -0.00000000000E+00 -0.95133110119E+03  0.95133110119E+03  0.00000000000E+00 0. -1.
         25    2    1    2    0    0  0.13308845423E+03 -0.83037533612E+02 -0.55806886395E+03  0.59303980691E+03  0.12509031547E+03 0.  0.
          5    1    3    3  502    0  0.58492372924E+02 -0.10713019393E+03 -0.33749400989E+03  0.35891212748E+03  0.41800000000E+01 0. -1.
         -5    1    3    3    0  502  0.74596081309E+02  0.24092660320E+02 -0.22057485407E+03  0.23412767943E+03  0.41800000000E+01 0. -1.
        -11    1    1    2    0    0 -0.10409645694E+02  0.45046175901E+02 -0.55256566908E+02  0.72047254446E+02  0.00000000000E+00 0.  1.
         11    1    1    2    0    0 -0.12267880854E+03  0.37991357711E+02 -0.29891424957E+03  0.32533546060E+03  0.00000000000E+00 0. -1.
</event>
<event>
 7    1  0.3068617E-009  0.9304048E+02  0.7561462E-02  0.1295651E+00
         -3   -1    0    0    0  501 -0.00000000000E+00  0.00000000000E+00  0.27620698898E+02  0.27620698898E+02  0.00000000000E+00 0.  1.
          3   -1    0    0  501    0  0.00000000000E+00 -0.00000000000E+00 -0.47174072232E+03  0.47174072232E+03  0.00000000000E+00 0. -1.
         25    2    1    2    0    0  0.77670259126E+01 -0.35442375584E+02 -0.26626499711E+03  0.29641572895E+03  0.12509495194E+03 0.  0.
          5    1    3    3  502    0  0.44118384694E+02 -0.48920471008E+02 -0.24117970230E+03  0.25004952620E+03  0.41800000000E+01 0. -1.
         -5    1    3    3    0  502 -0.36351358781E+02  0.13478095424E+02 -0.25085294815E+02  0.46366202750E+02  0.41800000000E+01 0. -1.
        -11    1    1    2    0    0 -0.22696629928E+02  0.53223318911E+02 -0.62070950267E+02  0.84856711891E+02  0.00000000000E+00 0.  1.
         11    1    1    2    0    0  0.14929604015E+02 -0.17780943327E+02 -0.11578407604E+03  0.11808898038E+03  0.00000000000E+00 0. -1.
</event>
<event>
 7    1  0.3054167E-009  0.1537737E+03  0.7561462E-02  0.1195911E+00
         -2   -1    0    0    0  501 -0.00000000000E+00  0.00000000000E+00  0.59170036751E+02  0.59170036751E+02  0.00000000000E+00 0.  1.
          2   -1    0    0  501    0  0.00000000000E+00 -0.00000000000E+00 -0.59878428579E+03  0.59878428579E+03  0.00000000000E+00 0. -1.
         25    2    1    2    0    0 -0.49810891066E+02  0.14152321730E+03 -0.22771510600E+03  0.30002069728E+03  0.12509317884E+03 0.  0.
          5    1    3    3  502    0  0.47676696637E+01  0.34979647738E+01  0.14333012038E+02  0.16058457761E+02  0.41800000000E+01 0.  1.
         -5    1    3    3    0  502 -0.54578560729E+02  0.13802525253E+03 -0.24204811804E+03  0.28396223952E+03  0.41800000000E+01 0.  1.
        -11    1    1    2    0    0  0.45807034212E+02 -0.98688460086E+02 -0.12307976492E+03  0.16427515049E+03  0.00000000000E+00 0.  1.
         11    1    1    2    0    0  0.40038568533E+01 -0.42834757215E+02 -0.18881937812E+03  0.19365847477E+03  0.00000000000E+00 0. -1.
</event>
<event>
 7    1  0.2788485E-009  0.9665131E+02  0.7561462E-02  0.1287500E+00
          1   -1    0    0  501    0  0.00000000000E+00  0.00000000000E+00  0.69021921735E+02  0.69021921735E+02  0.00000000000E+00 0. -1.
         -1   -1    0    0    0  501 -0.00000000000E+00 -0.00000000000E+00 -0.18579856476E+03  0.18579856476E+03  0.00000000000E+00 0.  1.
         25    2    1    2    0    0  0.27611321306E+02 -0.16178092396E+01 -0.87174592751E+02  0.15495997948E+03  0.12509269862E+03 0.  0.
          5    1    3    3  502    0 -0.28293886868E+02  0.30200683794E+02  0.56203524783E+01  0.41972444505E+02  0.41800000000E+01 0.  1.
         -5    1    3    3    0  502  0.55905208174E+02 -0.31818493034E+02 -0.92794945229E+02  0.11298753498E+03  0.41800000000E+01 0.  1.
        -11    1    1    2    0    0 -0.57407831079E+02  0.28392099751E-01 -0.38020883682E+02  0.68856716965E+02  0.00000000000E+00 0.  1.
         11    1    1    2    0    0  0.29796509773E+02  0.15894171398E+01  0.84188334071E+01  0.31003790049E+02  0.00000000000E+00 0. -1.
</event>
<event>
 7    1  0.2788485E-009  0.1016564E+03  0.7561462E-02  0.1276851E+00
          1   -1    0    0  501    0  0.00000000000E+00  0.00000000000E+00  0.66612868727E+03  0.66612868727E+03  0.00000000000E+00 0. -1.
         -1   -1    0    0    0  501 -0.00000000000E+00 -0.00000000000E+00 -0.25213080998E+02  0.25213080998E+02  0.00000000000E+00 0.  1.
         25    2    1    2    0    0 -0.42822531316E+02  0.10214273580E+02  0.50661057952E+03  0.52367961571E+03  0.12509180651E+03 0.  0.
          5    1    3    3  502    0 -0.77009724710E+02  0.26881882187E+02  0.22273931974E+03  0.23724124904E+03  0.41800000000E+01 0.  1.
         -5    1    3    3    0  502  0.34187193394E+02 -0.16667608607E+02  0.28387125979E+03  0.28643836667E+03  0.41800000000E+01 0.  1.
        -11    1    1    2    0    0  0.11617398315E+02 -0.39139388225E+02  0.11285330597E+03  0.12001135081E+03  0.00000000000E+00 0. -1.
         11    1    1    2    0    0  0.31205133001E+02  0.28925114646E+02  0.21451720778E+02  0.47650801748E+02  0.00000000000E+00 0.  1.
</event>
<event>
 7    1  0.2788485E-009  0.2067910E+03  0.7561462E-02  0.1144133E+00
          2   -1    0    0  501    0  0.00000000000E+00  0.00000000000E+00  0.45444427952E+03  0.45444427952E+03  0.00000000000E+00 0. -1.
         -2   -1    0    0    0  501 -0.00000000000E+00 -0.00000000000E+00 -0.13873785965E+03  0.13873785965E+03  0.00000000000E+00 0.  1.
         25    2    1    2    0    0  0.19173042493E+03 -0.18839993973E+02  0.23004131550E+02  0.23085014045E+03  0.12508835300E+03 0.  0.
          5    1    3    3  502    0  0.14669690512E+02  0.33017218219E+02  0.28524492509E+02  0.46221808613E+02  0.41800000000E+01 0. -1.
         -5    1    3    3    0  502  0.17706073442E+03 -0.51857212192E+02 -0.55203609581E+01  0.18462833183E+03  0.41800000000E+01 0. -1.
        -11    1    1    2    0    0 -0.66701425373E+02  0.55260563935E+01  0.18513644533E+03  0.19686320336E+03  0.00000000000E+00 0. -1.
         11    1    1    2    0    0 -0.12502899956E+03  0.13313937580E+02  0.10756584299E+03  0.16546879537E+03  0.00000000000E+00 0.  1.
</event>
<event>
 7    1  0.2788485E-009  0.1042190E+03  0.7561462E-02  0.1271666E+00
         -1   -1    0    0    0  501 -0.00000000000E+00  0.00000000000E+00  0.17682457774E+03  0.17682457774E+03  0.00000000000E+00 0.  1.
          1   -1    0    0  501    0  0.00000000000E+00 -0.00000000000E+00 -0.16473613271E+03  0.16473613271E+03  0.00000000000E+00 0. -1.
         25    2    1    2    0    0  0.76393466895E+02  0.49405606305E+02 -0.88283106835E+02  0.17809963388E+03  0.12509475176E+03 0.  0.
          5    1    3    3  502    0  0.68427203908E+02  0.11220662363E+02 -0.11233816208E+03  0.13208149211E+03  0.41800000000E+01 0.  1.
         -5    1    3    3    0  502  0.79662629868E+01  0.38184943942E+02  0.24055055241E+02  0.46018141776E+02  0.41800000000E+01 0.  1.
        -11    1    1    2    0    0 -0.15015594578E+02 -0.32927176293E+02 -0.87047877067E+01  0.37221503841E+02  0.00000000000E+00 0. -1.
         11    1    1    2    0    0 -0.61377872317E+02 -0.16478430012E+02  0.10907633958E+03  0.12623957273E+03  0.00000000000E+00 0.  1.
</event>
<event>
 7    1  0.2788485E-009  0.1093771E+03  0.7561462E-02  0.1261728E+00
         -1   -1    0    0    0  501 -0.00000000000E+00  0.00000000000E+00  0.32264989070E+02  0.32264989070E+02  0.00000000000E+00 0.  1.
          1   -1    0    0  501    0  0.00000000000E+00 -0.00000000000E+00 -0.39546828930E+03  0.39546828930E+03  0.00000000000E+00 0. -1.
         25    2    1    2    0    0 -0.15581453678E+02 -0.35906148013E+02 -0.18368467600E+03  0.22565396057E+03  0.12509043353E+03 0.  0.
          5    1    3    3  502    0 -0.47099392152E+02  0.27961812293E+02 -0.50767525014E+02  0.74799931041E+02  0.41800000000E+01 0.  1.
         -5    1    3    3    0  502  0.31517938474E+02 -0.63867960306E+02 -0.13291715098E+03  0.15085402953E+03  0.41800000000E+01 0.  1.
        -11    1    1    2    0    0 -0.33227028213E+02  0.27106540086E+02 -0.75072014111E+02  0.86455810805E+02  0.00000000000E+00 0.  1.
         11    1    1    2    0    0  0.48808481891E+02  0.87996079268E+01 -0.10444661012E+03  0.11562350700E+03  0.00000000000E+00 0. -1.
</event>
<event>
 7    1  0.2788485E-009  0.8961615E+02  0.7561462E-02  0.1303784E+00
         -2   -1    0    0    0  501 -0.00000000000E+00  0.00000000000E+00  0.41992456415E+03  0.41992456415E+03  0.00000000000E+00 0. -1.
          2   -1    0    0  501    0  0.00000000000E+00 -0.00000000000E+00 -0.57382039475E+02  0.57382039475E+02  0.00000000000E+00 0.  1.
         25    2    1    2    0    0  0.56094624367E+02 -0.21573119599E+02  0.33802423561E+03  0.36540347027E+03  0.12508919161E+03 0.  0.
          5    1    3    3  502    0  0.50593000842E+02 -0.43433504936E+02  0.71354307498E+02  0.97749837257E+02  0.41800000000E+01 0. -1.
         -5    1    3    3    0  502  0.55016235255E+01  0.21860385337E+02  0.26666992811E+03  0.26765363302E+03  0.41800000000E+01 0. -1.
        -11    1    1    2    0    0  0.51718011700E+01  0.27464131731E+02 -0.21328200586E+02  0.35155628274E+02  0.00000000000E+00 0.  1.
         11    1    1    2    0    0 -0.61266425537E+02 -0.58910121327E+01  0.45846489652E+02  0.76747505077E+02  0.00000000000E+00 0. -1.
</event>
<event>
 7    1  0.2788485E-009  0.1108248E+03  0.7561462E-02  0.1259050E+00
          1   -1    0    0  501    0  0.00000000000E+00  0.00000000000E+00  0.10996192446E+03  0.10996192446E+03  0.00000000000E+00 0. -1.
         -1   -1    0    0    0  501 -0.00000000000E+00 -0.00000000000E+00 -0.19837601831E+03  0.19837601831E+03  0.00000000000E+00 0.  1.
         25    2    1    2    0    0 -0.73776857996E+02  0.65411484573E+02 -0.25655340700E+02  0.16133055152E+03  0.12509062019E+03 0.  0.
          5    1    3    3  502    0  0.18401512527E+01  0.43890105215E+02  0.39432476007E+02  0.59178712866E+02  0.41800000000E+01 0.  1.
         -5    1    3    3    0  502 -0.75617009248E+02  0.21521379358E+02 -0.65087816707E+02  0.10215183866E+03  0.41800000000E+01 0.  1.
        -11    1    1    2    0    0  0.19335448110E+02 -0.13627041603E+02  0.22997460082E+02  0.32991498703E+02  0.00000000000E+00 0. -1.
         11    1    1    2    0    0  0.54441409886E+02 -0.51784442971E+02 -0.85756213230E+02  0.11401589254E+03  0.00000000000E+00 0.  1.
</event>
<event>
 7    1  0.2788485E-009  0.1277671E+03  0.7561462E-02  0.1230807E+00
          1   -1    0    0  501    0  0.00000000000E+00  0.00000000000E+00  0.98308530493E+02  0.98308530493E+02  0.00000000000E+00 0. -1.
         -1   -1    0    0    0  501 -0.00000000000E+00 -0.00000000000E+00 -0.23348309926E+03  0.23348309926E+03  0.00000000000E+00 0.  1.
         25    2    1    2    0    0 -0.87243336449E+02 -0.16546727779E+02 -0.13447974808E+03  0.20399709901E+03  0.12507925410E+03 0.  0.
          5    1    3    3  502    0  0.20427588586E+02 -0.93719321814E+01  0.88714874925E+01  0.24521320898E+02  0.41800000000E+01 0. -1.
         -5    1    3    3    0  502 -0.10767092503E+03 -0.71747955972E+01 -0.14335123557E+03  0.17947577811E+03  0.41800000000E+01 0. -1.
        -11    1    1    2    0    0  0.96003287142E+02 -0.10195216893E+02  0.11304755098E+02  0.97202731841E+02  0.00000000000E+00 0. -1.
         11    1    1    2    0    0 -0.87599506931E+01  0.26741944671E+02 -0.11999575787E+02  0.30591798902E+02  0.00000000000E+00 0.  1.
</event>
<event>
 7    1  0.2788485E-009  0.1082540E+03  0.7561462E-02  0.1263838E+00
         -1   -1    0    0    0  501 -0.00000000000E+00  0.00000000000E+00  0.39848377530E+02  0.39848377530E+02  0.00000000000E+00 0.  1.
          1   -1    0    0  501    0  0.00000000000E+00 -0.00000000000E+00 -0.42611030525E+03  0.42611030525E+03  0.00000000000E+00 0. -1.
         25    2    1    2    0    0  0.15765026820E+02  0.43520308798E+02 -0.30678208824E+03  0.33452264156E+03  0.12509034618E+03 0.  0.
          5    1    3    3  502    0  0.68461511763E+02  0.39090705951E+02 -0.15927374802E+03  0.17776574780E+03  0.41800000000E+01 0. -1.
         -5    1    3    3    0  502 -0.52696484943E+02  0.44296028470E+01 -0.14750834022E+03  0.15675689376E+03  0.41800000000E+01 0. -1.
        -11    1    1    2    0    0 -0.39447270462E+02 -0.46121166109E+02 -0.14743653327E+02  0.62454979174E+02  0.00000000000E+00 0.  1.
         11    1    1    2    0    0  0.23682243642E+02  0.26008573114E+01 -0.64736186155E+02  0.68981062043E+02  0.00000000000E+00 0. -1.
</event>
<event>
 7    1  0.2788485E-009  0.1391624E+03  0.7561462E-02  0.1214460E+00
         -1   -1    0    0    0  501 -0.00000000000E+00  0.00000000000E+00  0.17276597250E+02  0.17276597250E+02  0.00000000000E+00 0.  1.
          1   -1    0    0  501    0  0.00000000000E+00 -0.00000000000E+00 -0.12534002855E+04  0.12534002855E+04  0.00000000000E+00 0. -1.
         25    2    1    2    0    0  0.92259890337E+02 -0.17478057648E+02 -0.53571055817E+03  0.55807627431E+03  0.12508379572E+03 0.  0.
          5    1    3    3  502    0  0.90040101320E+02 -0.57531183904E+02 -0.29018530934E+03  0.30926047780E+03  0.41800000000E+01 0. -1.
         -5    1    3    3    0  502  0.22197890177E+01  0.40053126256E+02 -0.24552524882E+03  0.24881579651E+03  0.41800000000E+01 0. -1.
        -11    1    1    2    0    0  0.49740118436E+00 -0.27826346804E+02 -0.16402043882E+03  0.16636483203E+03  0.00000000000E+00 0.  1.
         11    1    1    2    0    0 -0.92757291522E+02  0.45304404451E+02 -0.53639269126E+03  0.54623577641E+03  0.00000000000E+00 0. -1.
</event>
<event>
 7    1  0.2788485E-009  0.1452213E+03  0.7561462E-02  0.1206471E+00
         -1   -1    0    0    0  501 -0.00000000000E+00  0.00000000000E+00  0.24538960784E+03  0.24538960784E+03  0.00000000000E+00 0.  1.
          1   -1    0    0  501    0  0.00000000000E+00 -0.00000000000E+00 -0.11902963970E+03  0.11902963970E+03  0.00000000000E+00 0. -1.
         25    2    1    2    0    0 -0.58746809883E+02  0.11628052551E+03  0.54567639567E+02  0.18867308177E+03  0.12509019232E+03 0.  0.
          5    1    3    3  502    0 -0.37825046456E+02  0.12541945411E+03  0.18574005296E+01  0.13107896836E+03  0.41800000000E+01 0.  1.
         -5    1    3    3    0  502 -0.20921763427E+02 -0.91389286026E+01  0.52710239037E+02  0.57594113417E+02  0.41800000000E+01 0.  1.
        -11    1    1    2    0    0  0.53595219318E+02 -0.63323848440E+02 -0.40994030797E+01  0.83061196841E+02  0.00000000000E+00 0. -1.
         11    1    1    2    0    0  0.51515905650E+01 -0.52956677066E+02  0.75891731650E+02  0.92684968922E+02  0.00000000000E+00 0.  1.
</event>
<event>
 7    1  0.2788485E-009  0.1509526E+03  0.7561462E-02  0.1199307E+00
         -2   -1    0    0    0  501 -0.00000000000E+00  0.00000000000E+00  0.52609929324E+02  0.52609929324E+02  0.00000000000E+00 0.  1.
          2   -1    0    0  501    0  0.00000000000E+00 -0.00000000000E+00 -0.58184039410E+03  0.58184039410E+03  0.00000000000E+00 0. -1.
         25    2    1    2    0    0 -0.45039012187E+02  0.11546324777E+03 -0.37618758789E+03  0.41536104146E+03  0.12508964497E+03 0.  0.
          5    1    3    3  502    0 -0.37873957766E+02  0.14232753641E+03 -0.30202547792E+03  0.33604824953E+03  0.41800000000E+01 0.  1.
         -5    1    3    3    0  502 -0.71650544204E+01 -0.26864288644E+02 -0.74162109963E+02  0.79312791928E+02  0.41800000000E+01 0.  1.
        -11    1    1    2    0    0  0.40810157319E+02 -0.71844533182E+02 -0.29057135268E+02  0.87586659935E+02  0.00000000000E+00 0.  1.
         11    1    1    2    0    0  0.42288548674E+01 -0.43618714584E+02 -0.12398574162E+03  0.13150262203E+03  0.00000000000E+00 0. -1.
</event>
<event>
 7    1  0.2788485E-009  0.1068407E+03  0.7561462E-02  0.1266535E+00
          1   -1    0    0  501    0  0.00000000000E+00  0.00000000000E+00  0.27065526484E+03  0.27065526484E+03  0.00000000000E+00 0. -1.
         -1   -1    0    0    0  501 -0.00000000000E+00 -0.00000000000E+00 -0.74495060442E+02  0.74495060442E+02  0.00000000000E+00 0.  1.
         25    2    1    2    0    0 -0.91761530745E+01  0.80214121049E+02  0.47203217671E+02  0.15618722516E+03  0.12509116093E+03 0.  0.
          5    1    3    3  502    0  0.19560724676E+02  0.81628004494E+02  0.77410807540E+02  0.11426136089E+03  0.41800000000E+01 0. -1.
         -5    1    3    3    0  502 -0.28736877751E+02 -0.14138834447E+01 -0.30207589868E+02  0.41925864271E+02  0.41800000000E+01 0. -1.
        -11    1    1    2    0    0  0.30823010869E+02 -0.20421513500E+02  0.13570055711E+02  0.39385817557E+02  0.00000000000E+00 0.  1.
         11    1    1    2    0    0 -0.21646857795E+02 -0.59792607549E+02  0.13538693101E+03  0.14957728256E+03  0.00000000000E+00 0. -1.
</event>
<event>
 7    1  0.2788485E-009  0.1231671E+03  0.7561462E-02  0.1237962E+00
         -1   -1    0    0    0  501 -0.00000000000E+00  0.00000000000E+00  0.23789783685E+02  0.23789783685E+02  0.00000000000E+00 0.  1.
          1   -1    0    0  501    0  0.00000000000E+00 -0.00000000000E+00 -0.82338786243E+03  0.82338786243E+03  0.00000000000E+00 0. -1.
         25    2    1    2    0    0 -0.74141774662E+02  0.12309240949E+02 -0.56236344198E+03  0.58098954196E+03  0.12509071440E+03 0.  0.
          5    1    3    3  502    0 -0.98054152100E+02  0.36908838282E+02 -0.33534184351E+03  0.35135239219E+03  0.41800000000E+01 0.  1.
         -5    1    3    3    0  502  0.23912377438E+02 -0.24599597333E+02 -0.22702159847E+03  0.22963714977E+03  0.41800000000E+01 0.  1.
        -11    1    1    2    0    0  0.88780159129E+02 -0.16211056226E+01 -0.12999126047E+03  0.15742386235E+03  0.00000000000E+00 0.  1.
         11    1    1    2    0    0 -0.14638384467E+02 -0.10688135327E+02 -0.10724337629E+03  0.10876424181E+03  0.00000000000E+00 0. -1.
</event>
<event>
 7    1  0.2788485E-009  0.1031043E+03  0.7561462E-02  0.1273900E+00
          1   -1    0    0  501    0  0.00000000000E+00  0.00000000000E+00  0.47519514874E+02  0.47519514874E+02  0.00000000000E+00 0. -1.
         -1   -1    0    0    0  501 -0.00000000000E+00 -0.00000000000E+00 -0.62089093281E+03  0.62089093281E+03  0.00000000000E+00 0.  1.
         25    2    1    2    0    0 -0.61699197192E+02  0.14833067116E+01 -0.75195701531E+02  0.15846295477E+03  0.12508846219E+03 0.  0.
          5    1    3    3  502    0 -0.31789563775E+02 -0.36780174590E+02 -0.94245144470E+02  0.10612717496E+03  0.41800000000E+01 0.  1.
         -5    1    3    3    0  502 -0.29909633417E+02  0.38263481301E+02  0.19049442940E+02  0.52335779814E+02  0.41800000000E+01 0.  1.
        -11    1    1    2    0    0 -0.15538297302E+02 -0.23664394593E+02 -0.14608391549E+03  0.14880172250E+03  0.00000000000E+00 0. -1.
         11    1    1    2    0    0  0.77237494494E+02  0.22181087881E+02 -0.35209180092E+03  0.36114577042E+03  0.00000000000E+00 0.  1.
</event>
<event>
 7    1  0.2788485E-009  0.1044150E+03  0.7561462E-02  0.1271277E+00
          1   -1    0    0  501    0  0.00000000000E+00  0.00000000000E+00  0.49544901745E+03  0.49544901745E+03  0.00000000000E+00 0. -1.
         -1   -1    0    0    0  501 -0.00000000000E+00 -0.00000000000E+00 -0.28728394859E+02  0.28728394859E+02  0.00000000000E+00 0.  1.
         25    2    1    2    0    0 -0.54676089235E+01 -0.14319136351E+02  0.36564045468E+03  0.38674896814E+03  0.12508752873E+03 0.  0.
          5    1    3    3  502    0 -0.46584755466E+02 -0.49162183496E+02  0.15350094912E+03  0.16783049040E+03  0.41800000000E+01 0.  1.
         -5    1    3    3    0  502  0.41117146542E+02  0.34843047145E+02  0.21213950556E+03  0.21891847774E+03  0.41800000000E+01 0.  1.
        -11    1    1    2    0    0 -0.12214344448E+02 -0.33646821265E+02  0.18468828868E+02  0.40278982500E+02  0.00000000000E+00 0.  1.
         11    1    1    2    0    0  0.17681953371E+02  0.47965957615E+02  0.82611339047E+02  0.97149461677E+02  0.00000000000E+00 0. -1.
</event>
<event>
 7    1  0.2788485E-009  0.1052101E+03  0.7561462E-02  0.1269706E+00
          1   -1    0    0  501    0  0.00000000000E+00  0.00000000000E+00  0.18127361495E+03  0.18127361495E+03  0.00000000000E+00 0. -1.
         -1   -1    0    0    0  501 -0.00000000000E+00 -0.00000000000E+00 -0.10867011109E+03  0.10867011109E+03  0.00000000000E+00 0.  1.
         25    2    1    2    0    0  0.55809202525E+02 -0.54285398363E+02  0.83529233679E+02  0.16936867805E+03  0.12508814757E+03 0.  0.
          5    1    3    3  502    0  0.21310214927E+02 -0.80301285238E+02  0.97359790356E+01  0.83753706539E+02  0.41800000000E+01 0.  1.
         -5    1    3    3    0  502  0.34498987598E+02  0.26015886876E+02  0.73793254643E+02  0.85614971507E+02  0.41800000000E+01 0.  1.
        -11    1    1    2    0    0 -0.46317530745E+02  0.24163348757E+02  0.36404926357E+02  0.63674953793E+02  0.00000000000E+00 0. -1.
         11    1    1    2    0    0 -0.94916717802E+01  0.30122049606E+02 -0.47330656183E+02  0.56900094204E+02  0.00000000000E+00 0.  1.
</event>
<event>
 7    1  0.2788485E-009  0.1037086E+03  0.7561462E-02  0.1272685E+00
         -2   -1    0    0    0  501 -0.00000000000E+00  0.00000000000E+00  0.43147037634E+02  0.43147037634E+02  0.00000000000E+00 0. -1.
          2   -1    0    0  501    0  0.00000000000E+00 -0.00000000000E+00 -0.31010137307E+03  0.31010137307E+03  0.00000000000E+00 0.  1.
         25    2    1    2    0    0  0.29200846167E+02  0.18218216508E+02 -0.13410967574E+03  0.18659551764E+03  0.12509152348E+03 0.  0.
          5    1    3    3  502    0 -0.38736494279E+02  0.12240477077E+02 -0.10437124571E+03  0.11207664609E+03  0.41800000000E+01 0.  1.
         -5    1    3    3    0  502  0.67937340446E+02  0.59777394310E+01 -0.29738430028E+02  0.74518871544E+02  0.41800000000E+01 0.  1.
        -11    1    1    2    0    0  0.23388557493E+02 -0.35832029699E+02 -0.76109440454E+02  0.87313263025E+02  0.00000000000E+00 0.  1.
         11    1    1    2    0    0 -0.52589403660E+02  0.17613813191E+02 -0.56735219241E+02  0.79339630039E+02  0.00000000000E+00 0. -1.
</event>
<event>
 7    1  0.2788485E-009  0.8916367E+02  0.7561462E-02  0.1304890E+00
         -2   -1    0    0    0  501 -0.00000000000E+00  0.00000000000E+00  0.48015752290E+02  0.48015752290E+02  0.00000000000E+00 0.  1.
          2   -1    0    0  501    0  0.00000000000E+00 -0.00000000000E+00 -0.29541080515E+03  0.29541080515E+03  0.00000000000E+00 0. -1.
         25    2    1    2    0    0  0.33983386167E+01  0.44065812417E+02 -0.16990457924E+03  0.21556645492E+03  0.12509190985E+03 0.  0.
          5    1    3    3  502    0  0.47513209654E+02  0.26739367345E+02 -0.19887363693E+02  0.58184864804E+02  0.41800000000E+01 0.  1.
         -5    1    3    3    0  502 -0.44114871037E+02  0.17326445072E+02 -0.15001721555E+03  0.15738159011E+03  0.41800000000E+01 0.  1.
        -11    1    1    2    0    0 -0.32565982334E+02 -0.19695573561E+02 -0.81194209462E+02  0.89671391611E+02  0.00000000000E+00 0. -1.
         11    1    1    2    0    0  0.29167643717E+02 -0.24370238856E+02  0.37037358432E+01  0.38188710912E+02  0.00000000000E+00 0.  1.
</event>
<event>
 7    1  0.2788485E-009  0.8182914E+02  0.7561462E-02  0.1323939E+00
         -3   -1    0    0    0  501 -0.00000000000E+00  0.00000000000E+00  0.28539341661E+02  0.28539341661E+02  0.00000000000E+00 0.  1.
          3   -1    0    0  501    0  0.00000000000E+00 -0.00000000000E+00 -0.55636819697E+03  0.55636819697E+03  0.00000000000E+00 0. -1.
         25    2    1    2    0    0  0.12404538924E+02  0.30800859021E+02 -0.44791491673E+03  0.46623789444E+03  0.12508971214E+03 0.  0.
          5    1    3    3  502    0 -0.35379754363E+02  0.19823177855E+02 -0.38101598108E+03  0.38319099107E+03  0.41800000000E+01 0. -1.
         -5    1    3    3    0  502  0.47784293287E+02  0.10977681166E+02 -0.66898935650E+02  0.83046903373E+02  0.41800000000E+01 0. -1.
        -11    1    1    2    0    0  0.16995808843E+02 -0.39516805864E+02 -0.12798021970E+02  0.44880116201E+02  0.00000000000E+00 0.  1.
         11    1    1    2    0    0 -0.29400347766E+02  0.87159468430E+01 -0.67115916612E+02  0.73789527989E+02  0.00000000000E+00 0. -1.
</event>
<event>
 7    1  0.2788485E-009  0.1804878E+03  0.7561462E-02  0.1167332E+00
         -1   -1    0    0    0  501 -0.00000000000E+00  0.00000000000E+00  0.95773842747E+03  0.95773842747E+03  0.00000000000E+00 0.  1.
          1   -1    0    0  501    0  0.00000000000E+00 -0.00000000000E+00 -0.38106160449E+02  0.38106160449E+02  0.00000000000E+00 0. -1.
         25    2    1    2    0    0  0.13882182638E+03  0.68812997124E+02  0.40132144488E+03  0.44801066877E+03  0.12509168299E+03 0.  0.
          5    1    3    3  502    0  0.44450948446E+02  0.88246361808E+02  0.24661075004E+03  0.26570216714E+03  0.41800000000E+01 0.  1.
         -5    1    3    3    0  502  0.94370877939E+02 -0.19433364684E+02  0.15471069484E+03  0.18230850163E+03  0.41800000000E+01 0.  1.
        -11    1    1    2    0    0 -0.89967792968E+01  0.10244360942E+02  0.90297637735E+01  0.16353152681E+02  0.00000000000E+00 0. -1.
         11    1    1    2    0    0 -0.12982504709E+03 -0.79057358066E+02  0.50928105836E+03  0.53148076647E+03  0.00000000000E+00 0.  1.
</event>
<event>
 7    1  0.2788485E-009  0.1162558E+03  0.7561462E-02  0.1249405E+00
         -2   -1    0    0    0  501 -0.00000000000E+00  0.00000000000E+00  0.13599012064E+03  0.13599012064E+03  0.00000000000E+00 0.  1.
          2   -1    0    0  501    0  0.00000000000E+00 -0.00000000000E+00 -0.13969750989E+03  0.13969750989E+03  0.00000000000E+00 0. -1.
         25    2    1    2    0    0  0.42398446470E+02 -0.44231025603E+02 -0.61236430445E+02  0.15215513371E+03  0.12508905793E+03 0.  0.
          5    1    3    3  502    0 -0.84201385605E+01 -0.71109043797E+02 -0.54419721169E+01  0.71933874521E+02  0.41800000000E+01 0. -1.
         -5    1    3    3    0  502  0.50818585030E+02  0.26878018194E+02 -0.55794458328E+02  0.80221259193E+02  0.41800000000E+01 0. -1.
        -11    1    1    2    0    0  0.25342293030E+02  0.99881591787E+01  0.35009993216E+02  0.44358705625E+02  0.00000000000E+00 0.  1.
         11    1    1    2    0    0 -0.67740739499E+02  0.34242866425E+02  0.22519047975E+02  0.79173791185E+02  0.00000000000E+00 0. -1.
</event>
<event>
 7    1  0.2788485E-009  0.1092934E+03  0.7561462E-02  0.1261884E+00
         -3   -1    0    0    0  501 -0.00000000000E+00  0.00000000000E+00  0.14914910391E+02  0.14914910391E+02  0.00000000000E+00 0.  1.
          3   -1    0    0  501    0  0.00000000000E+00 -0.00000000000E+00 -0.88477161296E+03  0.88477161296E+03  0.00000000000E+00 0. -1.
         25    2    1    2    0    0  0.31277109580E+02 -0.50694055459E+01 -0.53431074149E+03  0.54967212234E+03  0.12509003615E+03 0.  0.
          5    1    3    3  502    0  0.41608587533E+02  0.48723269454E+02 -0.17959637633E+03  0.19072902855E+03  0.41800000000E+01 0.  1.
         -5    1    3    3    0  502 -0.10331477953E+02 -0.53792675000E+02 -0.35471436517E+03  0.35894309378E+03  0.41800000000E+01 0.  1.
        -11    1    1    2    0    0 -0.12473856228E+02 -0.44611820861E+02 -0.14673722730E+03  0.15387535711E+03  0.00000000000E+00 0.  1.
         11    1    1    2    0    0 -0.18803253352E+02  0.49681226407E+02 -0.18880873378E+03  0.19613904391E+03  0.00000000000E+00 0. -1.
</event>
<event>
 7    1  0.2788485E-009  0.1070977E+03  0.7561462E-02  0.1266041E+00
          2   -1    0    0  501    0  0.00000000000E+00  0.00000000000E+00  0.85377647949E+02  0.85377647949E+02  0.00000000000E+00 0. -1.
         -2   -1    0    0    0  501 -0.00000000000E+00 -0.00000000000E+00 -0.22256571170E+03  0.22256571170E+03  0.00000000000E+00 0.  1.
         25    2    1    2    0    0  0.61140575743E+02  0.13686728341E+02 -0.13887892920E+03  0.19713025665E+03  0.12508990597E+03 0.  0.
          5    1    3    3  502    0 -0.46919326642E+01 -0.48408670769E+02 -0.56681501395E+02  0.74804268849E+02  0.41800000000E+01 0. -1.
         -5    1    3    3    0  502  0.65832508407E+02  0.62095399110E+02 -0.82197427804E+02  0.12232598780E+03  0.41800000000E+01 0. -1.
        -11    1    1    2    0    0 -0.31999523489E+02 -0.27817577011E+02  0.41611179368E+02  0.59407721238E+02  0.00000000000E+00 0. -1.
         11    1    1    2    0    0 -0.29141052253E+02  0.14130848670E+02 -0.39920313924E+02  0.51405381765E+02  0.00000000000E+00 0.  1.
</event>
<event>
 7    1  0.2788485E-009  0.7366029E+02  0.7561462E-02  0.1348071E+00
          2   -1    0    0  501    0  0.00000000000E+00  0.00000000000E+00  0.40121049048E+02  0.40121049048E+02  0.00000000000E+00 0. -1.
         -2   -1    0    0    0  501 -0.00000000000E+00 -0.00000000000E+00 -0.29619867026E+03  0.29619867026E+03  0.00000000000E+00 0.  1.
         25    2    1    2    0    0  0.22969238735E+02  0.83374758507E+01 -0.15606648086E+03  0.20149813316E+03  0.12509057434E+03 0.  0.
          5    1    3    3  502    0  0.10129548261E+02 -0.40459068898E+02 -0.14326964690E+03  0.14927561129E+03  0.41800000000E+01 0.  1.
         -5    1    3    3    0  502  0.12839690474E+02  0.48796544748E+02 -0.12796833957E+02  0.52222521867E+02  0.41800000000E+01 0.  1.
        -11    1    1    2    0    0 -0.27744303075E+02  0.14595064574E+02  0.76550139101E+00  0.31358384132E+02  0.00000000000E+00 0. -1.
         11    1    1    2    0    0  0.47750643396E+01 -0.22932540424E+02 -0.10077664175E+03  0.10346320202E+03  0.00000000000E+00 0.  1.
</event>
<event>
 7    1  0.2788485E-009  0.1642025E+03  0.7561462E-02  0.1184032E+00
          1   -1    0    0  501    0  0.00000000000E+00  0.00000000000E+00  0.72633322069E+03  0.72633322069E+03  0.00000000000E+00 0. -1.
         -1   -1    0    0    0  501 -0.00000000000E+00 -0.00000000000E+00 -0.39627954427E+02  0.39627954427E+02  0.00000000000E+00 0.  1.
         25    2    1    2    0    0 -0.53073099543E+02 -0.11670600271E+03  0.32237071150E+03  0.36879320361E+03  0.12509399037E+03 0.  0.
          5    1    3    3  502    0 -0.93643793949E+02 -0.69274358387E+02  0.20777805365E+03  0.23823788291E+03  0.41800000000E+01 0. -1.
         -5    1    3    3    0  502  0.40570694405E+02 -0.47431644323E+02  0.11459265785E+03  0.13055532069E+03  0.41800000000E+01 0. -1.
        -11    1    1    2    0    0  0.52941431874E+02  0.26712923927E+02  0.21296935977E+03  0.22107085677E+03  0.00000000000E+00 0. -1.
         11    1    1    2    0    0  0.13166766958E+00  0.89993078782E+02  0.15136519499E+03  0.17609711474E+03  0.00000000000E+00 0.  1.
</event>
<event>
 7    1  0.2788485E-009  0.9428824E+02  0.7561462E-02  0.1292787E+00
          2   -1    0    0  501    0  0.00000000000E+00  0.00000000000E+00  0.63298309312E+02  0.63298309312E+02  0.00000000000E+00 0. -1.
         -2   -1    0    0    0  501 -0.00000000000E+00 -0.00000000000E+00 -0.25659977366E+03  0.25659977366E+03  0.00000000000E+00 0.  1.
         25    2    1    2    0    0 -0.35628821597E+02 -0.62874310867E+02 -0.11317942761E+03  0.18352036191E+03  0.12509016150E+03 0.  0.
          5    1    3    3  502    0 -0.27610672274E+02 -0.77419308796E+02 -0.13357085010E+03  0.15689086333E+03  0.41800000000E+01 0. -1.
         -5    1    3    3    0  502 -0.80181493231E+01  0.14544997929E+02  0.20391422493E+02  0.26629498580E+02  0.41800000000E+01 0. -1.
        -11    1    1    2    0    0  0.48649000689E+02  0.56784106512E+02 -0.91412825772E+02  0.11809938499E+03  0.00000000000E+00 0.  1.
         11    1    1    2    0    0 -0.13020179092E+02  0.60902043547E+01  0.11290789032E+02  0.18278336074E+02  0.00000000000E+00 0. -1.
</event>
<event>
 7    1  0.2788485E-009  0.1029680E+03  0.7561462E-02  0.1274176E+00
          1   -1    0    0  501    0  0.00000000000E+00  0.00000000000E+00  0.54858677727E+03  0.54858677727E+03  0.00000000000E+00 0. -1.
         -1   -1    0    0    0  501 -0.00000000000E+00 -0.00000000000E+00 -0.24885571885E+02  0.24885571885E+02  0.00000000000E+00 0.  1.
         25    2    1    2    0    0  0.15501643685E+02  0.22496952150E+02  0.41025803488E+03  0.42977260482E+03  0.12508566209E+03 0.  0.
          5    1    3    3  502    0  0.64219873461E+02 -0.13557512781E+02  0.24599036935E+03  0.25463058047E+03  0.41800000000E+01 0. -1.
         -5    1    3    3    0  502 -0.48718229776E+02  0.36054464931E+02  0.16426766553E+03  0.17514202435E+03  0.41800000000E+01 0. -1.
        -11    1    1    2    0    0  0.26090776436E+02  0.86124598064E+01  0.12515975673E+02  0.30191931472E+02  0.00000000000E+00 0.  1.
         11    1    1    2    0    0 -0.41592420121E+02 -0.31109411956E+02  0.10092719483E+03  0.11350781286E+03  0.00000000000E+00 0. -1.
</event>
<event>
 7    1  0.2788485E-009  0.1310922E+03  0.7561462E-02  0.1225844E+00
         -1   -1    0    0    0  501 -0.00000000000E+00  0.00000000000E+00  0.27855859116E+02  0.27855859116E+02  0.00000000000E+00 0. -1.
          1   -1    0    0  501    0  0.00000000000E+00 -0.00000000000E+00 -0.83193076455E+03  0.83193076455E+03  0.00000000000E+00 0.  1.
         25    2    1    2    0    0  0.87942907154E+02  0.51031407053E+02 -0.52979199549E+03  0.55377358662E+03  0.12508983701E+03 0.  0.
          5    1    3    3  502    0  0.30351845917E+02  0.73953119928E+02 -0.16118334733E+03  0.17996622559E+03  0.41800000000E+01 0. -1.
         -5    1    3    3    0  502  0.57591061237E+02 -0.22921712876E+02 -0.36860864816E+03  0.37380736102E+03  0.41800000000E+01 0. -1.
        -11    1    1    2    0    0 -0.74721728322E+02 -0.81832149589E+01 -0.94647635235E+02  0.12086553084E+03  0.00000000000E+00 0. -1.
         11    1    1    2    0    0 -0.13221178832E+02 -0.42848192094E+02 -0.17963527471E+03  0.18514750621E+03  0.00000000000E+00 0.  1.
</event>
<event>
 7    1  0.2788485E-009  0.1015935E+03  0.7561462E-02  0.1276980E+00
         -1   -1    0    0    0  501 -0.00000000000E+00  0.00000000000E+00  0.31455525220E+02  0.31455525220E+02  0.00000000000E+00 0.  1.
          1   -1    0    0  501    0  0.00000000000E+00 -0.00000000000E+00 -0.43225099539E+03  0.43225099539E+03  0.00000000000E+00 0. -1.
         25    2    1    2    0    0  0.84398246560E+01 -0.19794706809E+02 -0.16279900236E+03  0.20643362984E+03  0.12509303459E+03 0.  0.
          5    1    3    3  502    0 -0.49951501021E+02 -0.56943911234E+01 -0.12634318496E+03  0.13604282903E+03  0.41800000000E+01 0. -1.
         -5    1    3    3    0  502  0.58391325677E+02 -0.14100315686E+02 -0.36455817392E+02  0.70390800809E+02  0.41800000000E+01 0. -1.
        -11    1    1    2    0    0 -0.38774799836E+02 -0.19079103607E+02 -0.15323744561E+03  0.15921435875E+03  0.00000000000E+00 0. -1.
         11    1    1    2    0    0  0.30334975180E+02  0.38873810416E+02 -0.84759022200E+02  0.98058532009E+02  0.00000000000E+00 0.  1.
</event>
<event>
 7    1  0.2788485E-009  0.1055927E+03  0.7561462E-02  0.1268956E+00
          2   -1    0    0  501    0  0.00000000000E+00  0.00000000000E+00  0.35253878938E+02  0.35253878938E+02  0.00000000000E+00 0. -1.
         -2   -1    0    0    0  501 -0.00000000000E+00 -0.00000000000E+00 -0.43324217741E+03  0.43324217741E+03  0.00000000000E+00 0.  1.
         25    2    1    2    0    0  0.33569181486E+02 -0.39276889018E+02 -0.16831390640E+03  0.21597836850E+03  0.12509005003E+03 0.  0.
          5    1    3    3  502    0  0.37193742386E+02  0.31764869166E+02 -0.23163939629E+02  0.54280953243E+02  0.41800000000E+01 0.  1.
         -5    1    3    3    0  502 -0.36245608999E+01 -0.71041758184E+02 -0.14514996677E+03  0.16169741526E+03  0.41800000000E+01 0.  1.
        -11    1    1    2    0    0  0.24078536916E+02  0.14366443953E+02 -0.14158625336E+03  0.14433585068E+03  0.00000000000E+00 0.  1.
         11    1    1    2    0    0 -0.57647718402E+02  0.24910445065E+02 -0.88088138709E+02  0.10818183716E+03  0.00000000000E+00 0. -1.
</event>
<event>
 7    1  0.2788485E-009  0.6663176E+02  0.7561462E-02  0.1371937E+00
          2   -1    0    0  501    0  0.00000000000E+00  0.00000000000E+00  0.16830953018E+03  0.16830953018E+03  0.00000000000E+00 0. -1.
         -2   -1    0    0    0  501 -0.00000000000E+00 -0.00000000000E+00 -0.10718598752E+03  0.10718598752E+03  0.00000000000E+00 0.  1.
         25    2    1    2    0    0  0.15974559492E+02 -0.48260909214E+01  0.11275663375E+03  0.16923190598E+03  0.12508757669E+03 0.  0.
          5    1    3    3  502    0 -0.13262357036E+01  0.28191837126E+02 -0.17642553909E+02  0.33545054630E+02  0.41800000000E+01 0. -1.
         -5    1    3    3    0  502  0.17300795195E+02 -0.33017928048E+02  0.13039918766E+03  0.13568685135E+03  0.41800000000E+01 0. -1.
        -11    1    1    2    0    0  0.39258525716E+01 -0.28304285617E+02 -0.60235740529E+02  0.66670003298E+02  0.00000000000E+00 0.  1.
         11    1    1    2    0    0 -0.19900412063E+02  0.33130376539E+02  0.86026494344E+01  0.39593608413E+02  0.00000000000E+00 0. -1.
</event>
<event>
 7    1  0.2788485E-009  0.1738114E+03  0.7561462E-02  0.1173931E+00
         -1   -1    0    0    0  501 -0.00000000000E+00  0.00000000000E+00  0.84804384471E+03  0.84804384471E+03  0.00000000000E+00 0.  1.
          1   -1    0    0  501    0  0.00000000000E+00 -0.00000000000E+00 -0.46617471194E+02  0.46617471194E+02  0.00000000000E+00 0. -1.
         25    2    1    2    0    0  0.15516853300E+03  0.50175411568E+02  0.49452668617E+03  0.53553590167E+03  0.12508882078E+03 0.  0.
          5    1    3    3  502    0  0.53181180445E+02  0.59187073104E+02  0.99695864323E+02  0.12762478341E+03  0.41800000000E+01 0.  1.
         -5    1    3    3    0  502  0.10198735256E+03 -0.90116615362E+01  0.39483082184E+03  0.40791111826E+03  0.41800000000E+01 0.  1.
        -11    1    1    2    0    0 -0.12712419363E+02 -0.13137224900E+02 -0.51603936196E+00  0.18288208790E+02  0.00000000000E+00 0. -1.
         11    1    1    2    0    0 -0.14245611364E+03 -0.37038186668E+02  0.30741572672E+03  0.34083720545E+03  0.00000000000E+00 0.  1.
</event>
<event>
 7    1  0.2788485E-009  0.1046444E+03  0.7561462E-02  0.1270822E+00
         -1   -1    0    0    0  501 -0.00000000000E+00  0.00000000000E+00  0.63291865075E+02  0.63291865075E+02  0.00000000000E+00 0.  1.
          1   -1    0    0  501    0  0.00000000000E+00 -0.00000000000E+00 -0.27014972789E+03  0.27014972789E+03  0.00000000000E+00 0. -1.
         25    2    1    2    0    0 -0.40871906791E+01  0.48870964597E+02 -0.18904932544E+03  0.23193072188E+03  0.12508851263E+03 0.  0.
          5    1    3    3  502    0 -0.12021985584E+02  0.78025411188E+02 -0.18497015716E+03  0.20115646738E+03  0.41800000000E+01 0.  1.
         -5    1    3    3    0  502  0.79347949044E+01 -0.29154446591E+02 -0.40791682819E+01  0.30774254500E+02  0.41800000000E+01 0.  1.
        -11    1    1    2    0    0  0.39579640675E+02 -0.50544742933E+02 -0.83240350806E+01  0.64734909857E+02  0.00000000000E+00 0.  1.
         11    1    1    2    0    0 -0.35492449996E+02  0.16737783360E+01 -0.94845022924E+01  0.36775961229E+02  0.00000000000E+00 0. -1.
</event>
<event>
 7    1  0.2788485E-009  0.8774802E+02  0.7561462E-02  0.1308399E+00
         -1   -1    0    0    0  501 -0.00000000000E+00  0.00000000000E+00  0.60050697991E+02  0.60050697991E+02  0.00000000000E+00 0.  1.
          1   -1    0    0  501    0  0.00000000000E+00 -0.00000000000E+00 -0.40303271736E+03  0.40303271736E+03  0.00000000000E+00 0. -1.
         25    2    1    2    0    0  0.51827173777E+02  0.28740196774E+02 -0.43587091645E+02  0.14511917222E+03  0.12509070603E+03 0.  0.
          5    1    3    3  502    0  0.35047862386E+02  0.35972345103E+02  0.36910785381E+02  0.62467917746E+02  0.41800000000E+01 0. -1.
         -5    1    3    3    0  502  0.16779311391E+02 -0.72321483292E+01 -0.80497877025E+02  0.82651254472E+02  0.41800000000E+01 0. -1.
        -11    1    1    2    0    0  0.24837974422E+02 -0.13213787524E+02 -0.63934537459E+02  0.69850942973E+02  0.00000000000E+00 0.  1.
         11    1    1    2    0    0 -0.76665148200E+02 -0.15526409250E+02 -0.23546039027E+03  0.24811330016E+03  0.00000000000E+00 0. -1.
</event>
<event>
 7    1  0.2788485E-009  0.1165786E+03  0.7561462E-02  0.1248850E+00
          1   -1    0    0  501    0  0.00000000000E+00  0.00000000000E+00  0.26902899521E+03  0.26902899521E+03  0.00000000000E+00 0. -1.
         -1   -1    0    0    0  501 -0.00000000000E+00 -0.00000000000E+00 -0.85314384809E+02  0.85314384809E+02  0.00000000000E+00 0.  1.
         25    2    1    2    0    0  0.36128158887E+02  0.75164004270E+02  0.17471408429E+03  0.23049410008E+03  0.12509055727E+03 0.  0.
          5    1    3    3  502    0  0.62071783965E+02  0.15949803405E+02  0.27901119861E+02  0.70023192464E+02  0.41800000000E+01 0.  1.
         -5    1    3    3    0  502 -0.25943625079E+02  0.59214200865E+02  0.14681296443E+03  0.16047090761E+03  0.41800000000E+01 0.  1.
        -11    1    1    2    0    0  0.17509808728E+02 -0.26271450631E+02 -0.28165168932E+02  0.42309091942E+02  0.00000000000E+00 0.  1.
         11    1    1    2    0    0 -0.53637967614E+02 -0.48892553639E+02  0.37165695045E+02  0.81540188001E+02  0.00000000000E+00 0. -1.
</event>
<event>
 7    1  0.2788485E-009  0.1190951E+03  0.7561462E-02  0.1244597E+00
         -2   -1    0    0    0  501 -0.00000000000E+00  0.00000000000E+00  0.96780364171E+02  0.96780364171E+02  0.00000000000E+00 0.  1.
          2   -1    0    0  501    0  0.00000000000E+00 -0.00000000000E+00 -0.23125958346E+03  0.23125958346E+03  0.00000000000E+00 0. -1.
         25    2    1    2    0    0  0.68874797665E+02  0.22338092454E+02 -0.14899727379E+03  0.20758195022E+03  0.12508936938E+03 0.  0.
          5    1    3    3  502    0  0.96791499116E+02 -0.14491122630E+02 -0.10576885571E+03  0.14416348419E+03  0.41800000000E+01 0. -1.
         -5    1    3    3    0  502 -0.27916701451E+02  0.36829215084E+02 -0.43228418081E+02  0.63418466029E+02  0.41800000000E+01 0. -1.
        -11    1    1    2    0    0 -0.19313288887E+02 -0.37345723002E+02  0.44009594456E+02  0.60865019169E+02  0.00000000000E+00 0.  1.
         11    1    1    2    0    0 -0.49561508778E+02  0.15007630548E+02 -0.29491539955E+02  0.59592978243E+02  0.00000000000E+00 0. -1.
</event>
<event>
 7    1  0.2788485E-009  0.1635009E+03  0.7561462E-02  0.1184800E+00
          3   -1    0    0  501    0  0.00000000000E+00  0.00000000000E+00  0.22294900461E+03  0.22294900461E+03  0.00000000000E+00 0. -1.
         -3   -1    0    0    0  501 -0.00000000000E+00 -0.00000000000E+00 -0.12177656644E+03  0.12177656644E+03  0.00000000000E+00 0.  1.
         25    2    1    2    0    0  0.20617523588E+02 -0.12282960880E+03  0.51272113552E+02  0.18381630947E+03  0.12508961156E+03 0.  0.
          5    1    3    3  502    0 -0.51085617989E+02 -0.40027642041E+02  0.32154235893E+02  0.72548740709E+02  0.41800000000E+01 0. -1.
         -5    1    3    3    0  502  0.71703141577E+02 -0.82801966756E+02  0.19117877659E+02  0.11126756876E+03  0.41800000000E+01 0. -1.
        -11    1    1    2    0    0 -0.55377933750E+02  0.75367103664E+02  0.23530897695E+02  0.96439716961E+02  0.00000000000E+00 0. -1.
         11    1    1    2    0    0  0.34760410162E+02  0.47462505133E+02  0.26369426918E+02  0.64469544624E+02  0.00000000000E+00 0.  1.
</event>
<event>
 7    1  0.2788485E-009  0.1004142E+03  0.7561462E-02  0.1279427E+00
         -3   -1    0    0    0  501 -0.00000000000E+00  0.00000000000E+00  0.19531334129E+03  0.19531334129E+03  0.00000000000E+00 0.  1.
          3   -1    0    0  501    0  0.00000000000E+00 -0.00000000000E+00 -0.94985690873E+02  0.94985690873E+02  0.00000000000E+00 0. -1.
         25    2    1    2    0    0  0.58472554169E+02 -0.46590910465E+02  0.19170355177E+02  0.14698421837E+03  0.12508839036E+03 0.  0.
          5    1    3    3  502    0  0.61235542305E+02 -0.57674979289E+02 -0.35189802315E+02  0.91279731947E+02  0.41800000000E+01 0.  1.
         -5    1    3    3    0  502 -0.27629881364E+01  0.11084068824E+02  0.54360157492E+02  0.55704486424E+02  0.41800000000E+01 0.  1.
        -11    1    1    2    0    0 -0.29372039879E+02  0.64078600454E+02  0.83509854836E+02  0.10928256777E+03  0.00000000000E+00 0. -1.
         11    1    1    2    0    0 -0.29100514290E+02 -0.17487689989E+02 -0.23525595934E+01  0.34032246028E+02  0.00000000000E+00 0.  1.
</event>
<event>
 7    1  0.2788485E-009  0.6364690E+02  0.7561462E-02  0.1383135E+00
         -2   -1    0    0    0  501 -0.00000000000E+00  0.00000000000E+00  0.28330633190E+02  0.28330633190E+02  0.00000000000E+00 0.  1.
          2   -1    0    0  501    0  0.00000000000E+00 -0.00000000000E+00 -0.52683202809E+03  0.52683202809E+03  0.00000000000E+00 0. -1.
         25    2    1    2    0    0  0.15144311747E+02 -0.26499442172E+02 -0.37578397023E+03  0.39723350056E+03  0.12509712658E+03 0.  0.
          5    1    3    3  502    0  0.24997783175E+02 -0.16471586737E+02 -0.38059817688E+03  0.38179660420E+03  0.41800000000E+01 0. -1.
         -5    1    3    3    0  502 -0.98534714273E+01 -0.10027855435E+02  0.48142066515E+01  0.15436896368E+02  0.41800000000E+01 0. -1.
        -11    1    1    2    0    0 -0.46542303946E+02  0.13965114096E+02 -0.25241822687E+02  0.54757283359E+02  0.00000000000E+00 0.  1.
         11    1    1    2    0    0  0.31397992199E+02  0.12534328076E+02 -0.97475601991E+02  0.10317187736E+03  0.00000000000E+00 0. -1.
</event>
<event>
 7    1  0.2788485E-009  0.1654371E+03  0.7561462E-02  0.1182691E+00
          1   -1    0    0  501    0  0.00000000000E+00  0.00000000000E+00  0.21656672307E+03  0.21656672307E+03  0.00000000000E+00 0. -1.
         -1   -1    0    0    0  501 -0.00000000000E+00 -0.00000000000E+00 -0.34427223679E+03  0.34427223679E+03  0.00000000000E+00 0.  1.
         25    2    1    2    0    0 -0.94190753252E+02 -0.11492627357E+03 -0.27246172022E+03  0.33460726839E+03  0.12508672479E+03 0.  0.
          5    1    3    3  502    0  0.10253706891E+02 -0.35557767323E+02 -0.61982579383E+01  0.37754259673E+02  0.41800000000E+01 0.  1.
         -5    1    3    3    0  502 -0.10444446014E+03 -0.79368506248E+02 -0.26626346228E+03  0.29685300872E+03  0.41800000000E+01 0.  1.
        -11    1    1    2    0    0  0.10172483352E+03  0.88260963728E+02  0.82117494847E+02  0.15773782816E+03  0.00000000000E+00 0.  1.
         11    1    1    2    0    0 -0.75340802666E+01  0.26665309843E+02  0.62638711649E+02  0.68493863313E+02  0.00000000000E+00 0. -1.
</event>
<event>
 7    1  0.2788485E-009  0.1191098E+03  0.7561462E-02  0.1244573E+00
         -1   -1    0    0    0  501 -0.00000000000E+00  0.00000000000E+00  0.36671012159E+02  0.36671012159E+02  0.00000000000E+00 0.  1.
          1   -1    0    0  501    0  0.00000000000E+00 -0.00000000000E+00 -0.45755231148E+03  0.45755231148E+03  0.00000000000E+00 0. -1.
         25    2    1    2    0    0 -0.43128215446E+02  0.43962437098E+02 -0.32399367745E+03  0.35272360181E+03  0.12509715187E+03 0.  0.
          5    1    3    3  502    0  0.39508844490E+01  0.77358124944E+02 -0.22570145688E+03  0.23865981861E+03  0.41800000000E+01 0.  1.
         -5    1    3    3    0  502 -0.47079099895E+02 -0.33395687846E+02 -0.98292220571E+02  0.11406378320E+03  0.41800000000E+01 0.  1.
        -11    1    1    2    0    0 -0.24573653170E+02 -0.17108213625E+02 -0.33661159866E+02  0.45051404940E+02  0.00000000000E+00 0. -1.
         11    1    1    2    0    0  0.67701868616E+02 -0.26854223473E+02 -0.63226462011E+02  0.96448316890E+02  0.00000000000E+00 0.  1.
</event>
<event>
 7    1  0.2788485E-009  0.9274508E+02  0.7561462E-02  0.1296337E+00
         -3   -1    0    0    0  501 -0.00000000000E+00  0.00000000000E+00  0.11041646956E+03  0.11041646956E+03  0.00000000000E+00 0.  1.
          3   -1    0    0  501    0  0.00000000000E+00 -0.00000000000E+00 -0.11619185619E+03  0.11619185619E+03  0.00000000000E+00 0. -1.
         25    2    1    2    0    0 -0.25620929475E+01 -0.20816824789E+02 -0.31850374351E+02  0.13077311127E+03  0.12508899141E+03 0.  0.
          5    1    3    3  502    0 -0.10616815627E+02 -0.57301495168E+02  0.24234190960E+02  0.63253035769E+02  0.41800000000E+01 0.  1.
         -5    1    3    3    0  502  0.80547226797E+01  0.36484670379E+02 -0.56084565311E+02  0.67520075505E+02  0.41800000000E+01 0.  1.
        -11    1    1    2    0    0  0.40318758536E+02 -0.90548196962E+01  0.23689537818E+02  0.47631777751E+02  0.00000000000E+00 0.  1.
         11    1    1    2    0    0 -0.37756665589E+02  0.29871644485E+02  0.23854499095E+01  0.48203436723E+02  0.00000000000E+00 0. -1.
</event>
<event>
 7    1  0.2788485E-009  0.8712446E+02  0.7561462E-02  0.1309969E+00
         -2   -1    0    0    0  501 -0.00000000000E+00  0.00000000000E+00  0.52776182559E+02  0.52776182559E+02  0.00000000000E+00 0.  1.
          2   -1    0    0  501    0  0.00000000000E+00 -0.00000000000E+00 -0.27033371903E+03  0.27033371903E+03  0.00000000000E+00 0. -1.
         25    2    1    2    0    0 -0.33684134830E-01 -0.16325587594E+02 -0.57585690567E+02  0.13867798060E+03  0.12509574174E+03 0.  0.
          5    1    3    3  502    0 -0.23173820361E+02 -0.54550133035E+02 -0.70288776566E+02  0.92036555104E+02  0.41800000000E+01 0. -1.
         -5    1    3    3    0  502  0.23140136226E+02  0.38224545441E+02  0.12703085999E+02  0.46641425500E+02  0.41800000000E+01 0. -1.
        -11    1    1    2    0    0 -0.17439376377E+02  0.38179995350E+02 -0.30280933569E+02  0.51756920611E+02  0.00000000000E+00 0.  1.
         11    1    1    2    0    0  0.17473060512E+02 -0.21854407756E+02 -0.12969091234E+03  0.13267500038E+03  0.00000000000E+00 0. -1.
</event>
<event>
 7    1  0.2788485E-009  0.1068510E+03  0.7561462E-02  0.1266515E+00
         -4   -1    0    0    0  501 -0.00000000000E+00  0.00000000000E+00  0.58555598021E+03  0.58555598021E+03  0.00000000000E+00 0.  1.
          4   -1    0    0  501    0  0.00000000000E+00 -0.00000000000E+00 -0.30204948504E+02  0.30204948504E+02  0.00000000000E+00 0. -1.
         25    2    1    2    0    0 -0.32034705117E+02 -0.39017575966E+02  0.17258599250E+03  0.21904722711E+03  0.12508864589E+03 0.  0.
          5    1    3    3  502    0 -0.13516112773E+02 -0.72541657492E+02  0.46767203033E+02  0.87462112115E+02  0.41800000000E+01 0.  1.
         -5    1    3    3    0  502 -0.18518592344E+02  0.33524081526E+02  0.12581878947E+03  0.13158511499E+03  0.41800000000E+01 0.  1.
        -11    1    1    2    0    0  0.62060248792E+02  0.34193859564E+02  0.30705260648E+03  0.31512219481E+03  0.00000000000E+00 0.  1.
         11    1    1    2    0    0 -0.30025543676E+02  0.48237164012E+01  0.75712432715E+02  0.81591506792E+02  0.00000000000E+00 0. -1.
</event>
<event>
 7    1  0.2788485E-009  0.1307518E+03  0.7561462E-02  0.1226344E+00
          1   -1    0    0  501    0  0.00000000000E+00  0.00000000000E+00  0.94761538621E+03  0.94761538621E+03  0.00000000000E+00 0. -1.
         -1   -1    0    0    0  501 -0.00000000000E+00 -0.00000000000E+00 -0.23346513823E+02  0.23346513823E+02  0.00000000000E+00 0.  1.
         25    2    1    2    0    0 -0.93933116251E+02  0.23087129132E+02  0.40082844687E+03  0.43088998773E+03  0.12508513837E+03 0.  0.
          5    1    3    3  502    0 -0.25407653873E+02  0.69735988028E+02  0.21086397417E+03  0.22358386548E+03  0.41800000000E+01 0. -1.
         -5    1    3    3    0  502 -0.68525462379E+02 -0.46648858896E+02  0.18996447270E+03  0.20730612224E+03  0.41800000000E+01 0. -1.
        -11    1    1    2    0    0  0.91069161176E+02 -0.10987262034E+02  0.51872578574E+03  0.52677391055E+03  0.00000000000E+00 0. -1.
         11    1    1    2    0    0  0.28639550756E+01 -0.12099867098E+02  0.47146397712E+01  0.13298001754E+02  0.00000000000E+00 0.  1.
</event>
<event>
 7    1  0.2788485E-009  0.2121561E+03  0.7561462E-02  0.1139870E+00
          1   -1    0    0  501    0  0.00000000000E+00  0.00000000000E+00  0.14278795343E+03  0.14278795343E+03  0.00000000000E+00 0. -1.
         -1   -1    0    0    0  501 -0.00000000000E+00 -0.00000000000E+00 -0.40852255896E+03  0.40852255896E+03  0.00000000000E+00 0.  1.
         25    2    1    2    0    0  0.14648141911E+03 -0.13488018004E+03 -0.43939885589E+02  0.23922323556E+03  0.12509026250E+03 0.  0.
          5    1    3    3  502    0  0.10668738087E+02 -0.70364449157E+02  0.22542446595E+02  0.74770395051E+02  0.41800000000E+01 0. -1.
         -5    1    3    3    0  502  0.13581268102E+03 -0.64515730882E+02 -0.66482332185E+02  0.16445284051E+03  0.41800000000E+01 0. -1.
        -11    1    1    2    0    0 -0.72205137955E+02  0.41480691900E+02 -0.15339753921E+03  0.17454235813E+03  0.00000000000E+00 0.  1.
         11    1    1    2    0    0 -0.74276281155E+02  0.93399488140E+02 -0.68397180735E+02  0.13754491870E+03  0.00000000000E+00 0. -1.
</event>
<event>
 7    1  0.2788485E-009  0.1468607E+03  0.7561462E-02  0.1204384E+00
          2   -1    0    0  501    0  0.00000000000E+00  0.00000000000E+00  0.12711593290E+04  0.12711593290E+04  0.00000000000E+00 0. -1.
         -2   -1    0    0    0  501 -0.00000000000E+00 -0.00000000000E+00 -0.18849103902E+02  0.18849103902E+02  0.00000000000E+00 0.  1.
         25    2    1    2    0    0  0.70888543821E+02 -0.81035011043E+02  0.57996296561E+03  0.60298994619E+03  0.12509186650E+03 0.  0.
          5    1    3    3  502    0  0.98337794102E+02 -0.76097491466E+02  0.35302428178E+03  0.37430571179E+03  0.41800000000E+01 0. -1.
         -5    1    3    3    0  502 -0.27449250281E+02 -0.49375195762E+01  0.22693868383E+03  0.22868423440E+03  0.41800000000E+01 0. -1.
        -11    1    1    2    0    0 -0.55307571851E+02  0.10137758802E+03  0.56058228021E+03  0.57235376800E+03  0.00000000000E+00 0.  1.
         11    1    1    2    0    0 -0.15580971970E+02 -0.20342576977E+02  0.11176497929E+03  0.11466471873E+03  0.00000000000E+00 0. -1.
</event>
<event>
 7    1  0.2788485E-009  0.1348598E+03  0.7561462E-02  0.1220418E+00
          1   -1    0    0  501    0  0.00000000000E+00  0.00000000000E+00  0.20063213527E+03  0.20063213527E+03  0.00000000000E+00 0. -1.
         -1   -1    0    0    0  501 -0.00000000000E+00 -0.00000000000E+00 -0.14946505727E+03  0.14946505727E+03  0.00000000000E+00 0.  1.
         25    2    1    2    0    0 -0.94877683983E+02 -0.83920960930E+02  0.74045999550E+02  0.19280589774E+03  0.12508717581E+03 0.  0.
          5    1    3    3  502    0 -0.32028096645E+02 -0.68934202437E+02  0.97714941227E+02  0.12386850035E+03  0.41800000000E+01 0. -1.
         -5    1    3    3    0  502 -0.62849587338E+02 -0.14986758492E+02 -0.23668941677E+02  0.68937397389E+02  0.41800000000E+01 0. -1.
        -11    1    1    2    0    0  0.46916732228E+02  0.25975524096E+02 -0.53801602738E+02  0.75963939288E+02  0.00000000000E+00 0.  1.
         11    1    1    2    0    0  0.47960951755E+02  0.57945436834E+02  0.30922681185E+02  0.81327355513E+02  0.00000000000E+00 0. -1.
</event>
<event>
 7    1  0.2788485E-009  0.1506771E+03  0.7561462E-02  0.1199644E+00
          1   -1    0    0  501    0  0.00000000000E+00  0.00000000000E+00  0.64164494754E+03  0.64164494754E+03  0.00000000000E+00 0. -1.
         -1   -1    0    0    0  501 -0.00000000000E+00 -0.00000000000E+00 -0.60992738177E+02  0.60992738177E+02  0.00000000000E+00 0.  1.
         25    2    1    2    0    0  0.10632350348E+03  0.20086722726E+02  0.52484361990E+03  0.55028627206E+03  0.12508393999E+03 0.  0.
          5    1    3    3  502    0  0.97410197477E+02  0.65371980724E+02  0.40913754979E+03  0.42564451069E+03  0.41800000000E+01 0. -1.
         -5    1    3    3    0  502  0.89133060074E+01 -0.45285257998E+02  0.11570607011E+03  0.12464176137E+03  0.41800000000E+01 0. -1.
        -11    1    1    2    0    0 -0.11099458461E+03  0.59670666850E+01  0.29435740976E+02  0.11498637547E+03  0.00000000000E+00 0.  1.
         11    1    1    2    0    0  0.46710811224E+01 -0.26053789411E+02  0.26372848489E+02  0.37365038190E+02  0.00000000000E+00 0. -1.
</event>
<event>
 7    1  0.2788485E-009  0.1167281E+03  0.7561462E-02  0.1248594E+00
         -2   -1    0    0    0  501 -0.00000000000E+00  0.00000000000E+00  0.21456038347E+03  0.21456038347E+03  0.00000000000E+00 0.  1.
          2   -1    0    0  501    0  0.00000000000E+00 -0.00000000000E+00 -0.81200981796E+02  0.81200981796E+02  0.00000000000E+00 0. -1.
         25    2    1    2    0    0 -0.35500396327E+02  0.35992820499E+02  0.10591548688E+02  0.13532859521E+03  0.12508351814E+03 0.  0.
          5    1    3    3  502    0  0.12008942550E+02 -0.40812967292E+02 -0.67330069263E+01  0.43274920943E+02  0.41800000000E+01 0. -1.
         -5    1    3    3    0  502 -0.47509338878E+02  0.76805787791E+02  0.17324555614E+02  0.92053674267E+02  0.41800000000E+01 0. -1.
        -11    1    1    2    0    0  0.49522444989E+02  0.11449197570E+02  0.81297401188E+02  0.95879216323E+02  0.00000000000E+00 0. -1.
         11    1    1    2    0    0 -0.14022048661E+02 -0.47442018070E+02  0.41470451795E+02  0.64553553731E+02  0.00000000000E+00 0.  1.
</event>
<event>
 7    1  0.2788485E-009  0.9051220E+02  0.7561462E-02  0.1301616E+00
          2   -1    0    0  501    0  0.00000000000E+00  0.00000000000E+00  0.33766855081E+03  0.33766855081E+03  0.00000000000E+00 0. -1.
         -2   -1    0    0    0  501 -0.00000000000E+00 -0.00000000000E+00 -0.39887527376E+02  0.39887527376E+02  0.00000000000E+00 0.  1.
         25    2    1    2    0    0  0.85541190442E+01  0.72204189156E+01  0.24100749438E+03  0.27176644741E+03  0.12508829758E+03 0.  0.
          5    1    3    3  502    0  0.21859662887E+02  0.47657407068E+02  0.21579869455E+03  0.22211623597E+03  0.41800000000E+01 0.  1.
         -5    1    3    3    0  502 -0.13305543842E+02 -0.40436988152E+02  0.25208799826E+02  0.49650211444E+02  0.41800000000E+01 0.  1.
        -11    1    1    2    0    0  0.76206586664E+01 -0.44429999299E+02  0.44638925467E+02  0.63440782964E+02  0.00000000000E+00 0. -1.
         11    1    1    2    0    0 -0.16174777711E+02  0.37209580384E+02  0.12134603584E+02  0.42348847806E+02  0.00000000000E+00 0.  1.
</event>
<event>
 7    1  0.2788485E-009  0.2494563E+03  0.7561462E-02  0.1113649E+00
          1   -1    0    0  501    0  0.00000000000E+00  0.00000000000E+00  0.12379240122E+04  0.12379240122E+04  0.00000000000E+00 0. -1.
         -1   -1    0    0    0  501 -0.00000000000E+00 -0.00000000000E+00 -0.58149036058E+02  0.58149036058E+02  0.00000000000E+00 0.  1.
         25    2    1    2    0    0 -0.13792739842E+03 -0.18674198682E+03  0.41593788691E+03  0.49249309704E+03  0.12509431639E+03 0.  0.
          5    1    3    3  502    0 -0.13614782402E+03 -0.19838311728E+03  0.34605435855E+03  0.42150110637E+03  0.41800000000E+01 0. -1.
         -5    1    3    3    0  502 -0.17795744023E+01  0.11641130453E+02  0.69883528361E+02  0.70991990671E+02  0.41800000000E+01 0. -1.
        -11    1    1    2    0    0  0.60373971078E+02  0.14638610265E+03  0.55587812024E+03  0.57799168851E+03  0.00000000000E+00 0. -1.
         11    1    1    2    0    0  0.77553427344E+02  0.40355884174E+02  0.20795896898E+03  0.22558826268E+03  0.00000000000E+00 0.  1.
</event>
<event>
 7    1  0.2788485E-009  0.9388160E+02  0.7561462E-02  0.1293715E+00
          2   -1    0    0  501    0  0.00000000000E+00  0.00000000000E+00  0.22798040801E+03  0.22798040801E+03  0.00000000000E+00 0. -1.
         -2   -1    0    0    0  501 -0.00000000000E+00 -0.00000000000E+00 -0.63218155360E+02  0.63218155360E+02  0.00000000000E+00 0.  1.
         25    2    1    2    0    0 -0.58859318012E+01  0.45162268155E+02  0.12728161298E+03  0.18418149700E+03  0.12509172704E+03 0.  0.
          5    1    3    3  502    0  0.39674938603E+02  0.29717656652E+02  0.12645235116E+03  0.13588564819E+03  0.41800000000E+01 0.  1.
         -5    1    3    3    0  502 -0.45560870404E+02  0.15444611503E+02  0.82926181623E+00  0.48295848804E+02  0.41800000000E+01 0.  1.
        -11    1    1    2    0    0 -0.31905482767E+02 -0.14417062273E+01  0.37460246785E+02  0.49227110789E+02  0.00000000000E+00 0. -1.
         11    1    1    2    0    0  0.37791414568E+02 -0.43720561928E+02  0.20392883840E-01  0.57789955582E+02  0.00000000000E+00 0.  1.
</event>
<event>
 7    1  0.2788485E-009  0.1505395E+03  0.7561462E-02  0.1199812E+00
         -1   -1    0    0    0  501 -0.00000000000E+00  0.00000000000E+00  0.51950106403E+02  0.51950106403E+02  0.00000000000E+00 0.  1.
          1   -1    0    0  501    0  0.00000000000E+00 -0.00000000000E+00 -0.53957981106E+03  0.53957981106E+03  0.00000000000E+00 0. -1.
         25    2    1    2    0    0  0.73459573883E+02 -0.79878731356E+02 -0.14008263585E+03  0.21690684012E+03  0.12509401148E+03 0.  0.
          5    1    3    3  502    0  0.84055730288E+02 -0.10701609619E+03 -0.11356542874E+03  0.17729182057E+03  0.41800000000E+01 0.  1.
         -5    1    3    3    0  502 -0.10596156405E+02  0.27137364835E+02 -0.26517207115E+02  0.39615019550E+02  0.41800000000E+01 0.  1.
        -11    1    1    2    0    0  0.11985345040E+02 -0.68088630634E+01 -0.14388864796E+02  0.19926076936E+02  0.00000000000E+00 0.  1.
         11    1    1    2    0    0 -0.85444918923E+02  0.86687594419E+02 -0.33315820401E+03  0.35469700040E+03  0.00000000000E+00 0. -1.
</event>
<event>
 7    1  0.2788485E-009  0.3303039E+03  0.7561462E-02  0.1071002E+00
         -1   -1    0    0    0  501 -0.00000000000E+00  0.00000000000E+00  0.44140650152E+03  0.44140650152E+03  0.00000000000E+00 0.  1.
          1   -1    0    0  501    0  0.00000000000E+00 -0.00000000000E+00 -0.26594603611E+03  0.26594603611E+03  0.00000000000E+00 0. -1.
         25    2    1    2    0    0 -0.71301923119E+02 -0.31634195488E+03  0.10374141662E+03  0.36272204375E+03  0.12509517512E+03 0.  0.
          5    1    3    3  502    0 -0.20935443234E+02 -0.10008208689E+03  0.96285411101E+02  0.14051003412E+03  0.41800000000E+01 0. -1.
         -5    1    3    3    0  502 -0.50366479886E+02 -0.21625986799E+03  0.74560055203E+01  0.22221200962E+03  0.41800000000E+01 0. -1.
        -11    1    1    2    0    0  0.92503755101E+02  0.26242182980E+03  0.49719079485E+02  0.28265552945E+03  0.00000000000E+00 0. -1.
         11    1    1    2    0    0 -0.21201831981E+02  0.53920125080E+02  0.21999969299E+02  0.61974964439E+02  0.00000000000E+00 0.  1.
</event>
<event>
 7    1  0.2788485E-009  0.1242549E+03  0.7561462E-02  0.1236238E+00
         -2   -1    0    0    0  501 -0.00000000000E+00  0.00000000000E+00  0.33587080942E+02  0.33587080942E+02  0.00000000000E+00 0.  1.
          2   -1    0    0  501    0  0.00000000000E+00 -0.00000000000E+00 -0.54967696230E+03  0.54967696230E+03  0.00000000000E+00 0. -1.
         25    2    1    2    0    0  0.25608736380E+02  0.66147731956E+02 -0.19195427961E+03  0.23984378129E+03  0.12508902486E+03 0.  0.
          5    1    3    3  502    0  0.67968361286E+02  0.62366705874E+02 -0.88462020559E+02  0.12787613389E+03  0.41800000000E+01 0. -1.
         -5    1    3    3    0  502 -0.42359624906E+02  0.37810260823E+01 -0.10349225906E+03  0.11196764740E+03  0.41800000000E+01 0. -1.
        -11    1    1    2    0    0 -0.58283999441E+02 -0.33402399214E+02 -0.18836208748E+03  0.19998255140E+03  0.00000000000E+00 0.  1.
         11    1    1    2    0    0  0.32675263061E+02 -0.32745332742E+02 -0.13577351426E+03  0.14343771055E+03  0.00000000000E+00 0. -1.
</event>
<event>
 7    1  0.2788485E-009  0.1890553E+03  0.7561462E-02  0.1159316E+00
         -1   -1    0    0    0  501 -0.00000000000E+00  0.00000000000E+00  0.61979138027E+02  0.61979138027E+02  0.00000000000E+00 0.  1.
          1   -1    0    0  501    0  0.00000000000E+00 -0.00000000000E+00 -0.79894011649E+03  0.79894011649E+03  0.00000000000E+00 0. -1.
         25    2    1    2    0    0 -0.15205440143E+03  0.92733418285E+02 -0.53224277454E+03  0.57502156752E+03  0.12508958471E+03 0.  0.
          5    1    3    3  502    0 -0.76790127656E+02  0.35909794810E+02 -0.41939339494E+03  0.42789546525E+03  0.41800000000E+01 0. -1.
         -5    1    3    3    0  502 -0.75264273774E+02  0.56823623475E+02 -0.11284937960E+03  0.14712610227E+03  0.41800000000E+01 0. -1.
        -11    1    1    2    0    0  0.33508783194E+02  0.16756270551E+02 -0.48630254190E+02  0.61388213661E+02  0.00000000000E+00 0.  1.
         11    1    1    2    0    0  0.11854561824E+03 -0.10948968884E+03 -0.15608794973E+03  0.22450947333E+03  0.00000000000E+00 0. -1.
</event>
<event>
 7    1  0.2788485E-009  0.9502840E+02  0.7561462E-02  0.1291112E+00
         -1   -1    0    0    0  501 -0.00000000000E+00  0.00000000000E+00  0.49243179271E+03  0.49243179271E+03  0.00000000000E+00 0.  1.
          1   -1    0    0  501    0  0.00000000000E+00 -0.00000000000E+00 -0.27688832134E+02  0.27688832134E+02  0.00000000000E+00 0. -1.
         25    2    1    2    0    0  0.26629208107E+02  0.26831615465E+02  0.21040583388E+03  0.24768506230E+03  0.12509286489E+03 0.  0.
          5    1    3    3  502    0  0.19260732640E+02 -0.33822557234E+02  0.16968031449E+03  0.17413736740E+03  0.41800000000E+01 0. -1.
         -5    1    3    3    0  502  0.73684754673E+01  0.60654172698E+02  0.40725519391E+02  0.73547694907E+02  0.41800000000E+01 0. -1.
        -11    1    1    2    0    0 -0.39530884907E+02 -0.49643682474E+02  0.22155985455E+03  0.23046898971E+03  0.00000000000E+00 0. -1.
         11    1    1    2    0    0  0.12901676800E+02  0.22812067010E+02  0.32777272154E+02  0.41966572834E+02  0.00000000000E+00 0.  1.
</event>
<event>
 7    1  0.2788485E-009  0.1138701E+03  0.7561462E-02  0.1253566E+00
         -2   -1    0    0    0  501 -0.00000000000E+00  0.00000000000E+00  0.17124187116E+02  0.17124187116E+02  0.00000000000E+00 0.  1.
          2   -1    0    0  501    0  0.00000000000E+00 -0.00000000000E+00 -0.83270433549E+03  0.83270433549E+03  0.00000000000E+00 0. -1.
         25    2    1    2    0    0  0.30462566227E+02 -0.11114513649E+02 -0.57927932798E+03  0.59351735769E+03  0.12508722435E+03 0.  0.
          5    1    3    3  502    0  0.22836285704E+02  0.56203755127E+02 -0.30078536174E+03  0.30687076152E+03  0.41800000000E+01 0. -1.
         -5    1    3    3    0  502  0.76262805228E+01 -0.67318268776E+02 -0.27849396624E+03  0.28664659617E+03  0.41800000000E+01 0. -1.
        -11    1    1    2    0    0  0.17560840630E+02 -0.30705550077E+02 -0.76159891013E+02  0.83973465621E+02  0.00000000000E+00 0.  1.
         11    1    1    2    0    0 -0.48023406857E+02  0.41820063726E+02 -0.16014092938E+03  0.17233769930E+03  0.00000000000E+00 0. -1.
</event>
<event>
 7    1  0.2788485E-009  0.2720793E+03  0.7561462E-02  0.1100095E+00
         -1   -1    0    0    0  501 -0.00000000000E+00  0.00000000000E+00  0.35979782215E+03  0.35979782215E+03  0.00000000000E+00 0.  1.
          1   -1    0    0  501    0  0.00000000000E+00 -0.00000000000E+00 -0.23487822298E+03  0.23487822298E+03  0.00000000000E+00 0. -1.
         25    2    1    2    0    0 -0.27173316516E+03  0.10307961634E+02  0.47273101869E+02  0.30302916882E+03  0.12508702521E+03 0.  0.
          5    1    3    3  502    0 -0.88384185727E+02  0.40608330301E+01 -0.43070190095E+02  0.98492478527E+02  0.41800000000E+01 0.  1.
         -5    1    3    3    0  502 -0.18334897943E+03  0.62471286037E+01  0.90343291964E+02  0.20453669029E+03  0.41800000000E+01 0.  1.
        -11    1    1    2    0    0  0.22770610517E+03 -0.11975863744E+02  0.91151592054E+02  0.24556486796E+03  0.00000000000E+00 0.  1.
         11    1    1    2    0    0  0.44027059985E+02  0.16679021105E+01 -0.13505094756E+02  0.46082008341E+02  0.00000000000E+00 0. -1.
</event>
<event>
 7    1  0.2788485E-009  0.1069646E+03  0.7561462E-02  0.1266296E+00
         -1   -1    0    0    0  501 -0.00000000000E+00  0.00000000000E+00  0.19190559807E+02  0.19190559807E+02  0.00000000000E+00 0.  1.
          1   -1    0    0  501    0  0.00000000000E+00 -0.00000000000E+00 -0.82216057059E+03  0.82216057059E+03  0.00000000000E+00 0. -1.
         25    2    1    2    0    0 -0.49797374270E+02 -0.21882009016E+02 -0.55030241084E+03  0.56695560498E+03  0.12508922354E+03 0.  0.
          5    1    3    3  502    0 -0.98394046831E+01 -0.64676764732E+02 -0.17093891109E+03  0.18307780178E+03  0.41800000000E+01 0.  1.
         -5    1    3    3    0  502 -0.39957969587E+02  0.42794755716E+02 -0.37936349975E+03  0.38387780320E+03  0.41800000000E+01 0.  1.
        -11    1    1    2    0    0  0.61109106187E+02 -0.41937611159E+01 -0.23006821174E+03  0.23808253305E+03  0.00000000000E+00 0. -1.
         11    1    1    2    0    0 -0.11311731917E+02  0.26075770132E+02 -0.22599388208E+02  0.36312992363E+02  0.00000000000E+00 0.  1.
</event>
<event>
 7    1  0.2788485E-009  0.9816646E+02  0.7561462E-02  0.1284200E+00
          1   -1    0    0  501    0  0.00000000000E+00  0.00000000000E+00  0.75208511707E+02  0.75208511707E+02  0.00000000000E+00 0. -1.
         -1   -1    0    0    0  501 -0.00000000000E+00 -0.00000000000E+00 -0.17059247418E+03  0.17059247418E+03  0.00000000000E+00 0.  1.
         25    2    1    2    0    0 -0.28671992790E+02 -0.24443315346E+01 -0.64038508303E+02  0.14345377140E+03  0.12509994427E+03 0.  0.
          5    1    3    3  502    0  0.10434632381E+02 -0.48184106743E+02  0.73174726631E+01  0.50016072434E+02  0.41800000000E+01 0. -1.
         -5    1    3    3    0  502 -0.39106625171E+02  0.45739775208E+02 -0.71355980966E+02  0.93437698965E+02  0.41800000000E+01 0. -1.
        -11    1    1    2    0    0  0.56354769893E+02  0.11280510548E+02  0.27625762511E+01  0.57539046182E+02  0.00000000000E+00 0. -1.
         11    1    1    2    0    0 -0.27682777104E+02 -0.88361790133E+01 -0.34108030419E+02  0.44808168304E+02  0.00000000000E+00 0.  1.
</event>
<event>
 7    1  0.3216983E-009  0.1748227E+03  0.7561462E-02  0.1172910E+00
         -2   -1    0    0    0  501 -0.00000000000E+00  0.00000000000E+00  0.50758107161E+02  0.50758107161E+02  0.00000000000E+00 0.  1.
          2   -1    0    0  501    0  0.00000000000E+00 -0.00000000000E+00 -0.77272928005E+03  0.77272928005E+03  0.00000000000E+00 0. -1.
         25    2    1    2    0    0 -0.15428365799E+03 -0.44761493442E+02 -0.45969958922E+03  0.50277339085E+03  0.12510128616E+03 0.  0.
          5    1    3    3  502    0 -0.33328828757E+02 -0.38775748792E+02 -0.28851982467E+03  0.29304527149E+03  0.41800000000E+01 0. -1.
         -5    1    3    3    0  502 -0.12095482924E+03 -0.59857446497E+01 -0.17117976456E+03  0.20972811935E+03  0.41800000000E+01 0. -1.
        -11    1    1    2    0    0  0.80739251030E+02  0.61800355038E+02 -0.19352890262E+03  0.21861277797E+03  0.00000000000E+00 0.  1.
         11    1    1    2    0    0  0.73544406964E+02 -0.17038861596E+02 -0.68742681042E+02  0.10210121839E+03  0.00000000000E+00 0. -1.
</event>
<event>
 7    1  0.2788485E-009  0.2177405E+03  0.7561462E-02  0.1135579E+00
         -2   -1    0    0    0  501 -0.00000000000E+00  0.00000000000E+00  0.23872544242E+03  0.23872544242E+03  0.00000000000E+00 0.  1.
          2   -1    0    0  501    0  0.00000000000E+00 -0.00000000000E+00 -0.22754999092E+03  0.22754999092E+03  0.00000000000E+00 0. -1.
         25    2    1    2    0    0 -0.17368190259E+03  0.88482624889E+02  0.72725341910E+02  0.24275807544E+03  0.12509168494E+03 0.  0.
          5    1    3    3  502    0 -0.13815952224E+03  0.11885964687E+03  0.71488226896E+02  0.19581549536E+03  0.41800000000E+01 0. -1.
         -5    1    3    3    0  502 -0.35522380348E+02 -0.30377021986E+02  0.12371150147E+01  0.46942580073E+02  0.41800000000E+01 0. -1.
        -11    1    1    2    0    0  0.90747651684E+02 -0.83261092854E+02 -0.67070885236E+02  0.14023569273E+03  0.00000000000E+00 0. -1.
         11    1    1    2    0    0  0.82934250903E+02 -0.52215320344E+01  0.55209948215E+01  0.83281665169E+02  0.00000000000E+00 0.  1.
</event>
<event>
 7    1  0.2788485E-009  0.1214381E+03  0.7561462E-02  0.1240743E+00
          1   -1    0    0  501    0  0.00000000000E+00  0.00000000000E+00  0.25605951055E+02  0.25605951055E+02  0.00000000000E+00 0. -1.
         -1   -1    0    0    0  501 -0.00000000000E+00 -0.00000000000E+00 -0.72687515430E+03  0.72687515430E+03  0.00000000000E+00 0.  1.
         25    2    1    2    0    0  0.72077796695E+02 -0.10461798206E+02 -0.27734789314E+03  0.31284750066E+03  0.12508815627E+03 0.  0.
          5    1    3    3  502    0  0.80726571523E+02 -0.48858391693E+02 -0.13270135731E+03  0.16288353024E+03  0.41800000000E+01 0.  1.
         -5    1    3    3    0  502 -0.86487748286E+01  0.38396593487E+02 -0.14464653583E+03  0.14996397042E+03  0.41800000000E+01 0.  1.
        -11    1    1    2    0    0  0.18086087945E+02  0.10557877351E+00 -0.27204977443E+02  0.32668463718E+02  0.00000000000E+00 0. -1.
         11    1    1    2    0    0 -0.90163884639E+02  0.10356219432E+02 -0.39671633266E+03  0.40696514098E+03  0.00000000000E+00 0.  1.
</event>
<event>
 7    1  0.2788485E-009  0.8394166E+02  0.7561462E-02  0.1318224E+00
         -2   -1    0    0    0  501 -0.00000000000E+00  0.00000000000E+00  0.29311844111E+02  0.29311844111E+02  0.00000000000E+00 0.  1.
          2   -1    0    0  501    0  0.00000000000E+00 -0.00000000000E+00 -0.52350857092E+03  0.52350857092E+03  0.00000000000E+00 0. -1.
         25    2    1    2    0    0 -0.29405684913E+02 -0.53275621965E+02 -0.27425542222E+03  0.30751499359E+03  0.12508576445E+03 0.  0.
          5    1    3    3  502    0  0.59380353361E+01 -0.14219704686E+02 -0.24799723870E+03  0.24851069004E+03  0.41800000000E+01 0.  1.
         -5    1    3    3    0  502 -0.35343720249E+02 -0.39055917279E+02 -0.26258183523E+02  0.59004303551E+02  0.41800000000E+01 0.  1.
        -11    1    1    2    0    0  0.96786146749E+01  0.71540909935E+02 -0.19751586824E+03  0.21029573363E+03  0.00000000000E+00 0. -1.
         11    1    1    2    0    0  0.19727070239E+02 -0.18265287970E+02 -0.22425436352E+02  0.35009687808E+02  0.00000000000E+00 0.  1.
</event>
<event>
 7    1  0.2788485E-009  0.1775356E+03  0.7561462E-02  0.1170210E+00
          2   -1    0    0  501    0  0.00000000000E+00  0.00000000000E+00  0.24288873178E+03  0.24288873178E+03  0.00000000000E+00 0. -1.
         -2   -1    0    0    0  501 -0.00000000000E+00 -0.00000000000E+00 -0.17820984534E+03  0.17820984534E+03  0.00000000000E+00 0.  1.
         25    2    1    2    0    0  0.12093362917E+03 -0.10589855454E+03 -0.41819360731E+02  0.20793519404E+03  0.12509492184E+03 0.  0.
          5    1    3    3  502    0  0.13206249494E+03 -0.60919695785E+02 -0.17592543540E+00  0.14549644412E+03  0.41800000000E+01 0. -1.
         -5    1    3    3    0  502 -0.11128865762E+02 -0.44978858754E+02 -0.41643435296E+02  0.62438749917E+02  0.41800000000E+01 0. -1.
        -11    1    1    2    0    0 -0.45864983027E+02  0.58242132460E+02  0.99347278560E+02  0.12395815592E+03  0.00000000000E+00 0. -1.
         11    1    1    2    0    0 -0.75068646146E+02  0.47656422079E+02  0.71509686123E+01  0.89205227155E+02  0.00000000000E+00 0.  1.
</event>
<event>
 7    1  0.2788485E-009  0.1073013E+03  0.7561462E-02  0.1265651E+00
          1   -1    0    0  501    0  0.00000000000E+00  0.00000000000E+00  0.94880311156E+03  0.94880311156E+03  0.00000000000E+00 0. -1.
         -1   -1    0    0    0  501 -0.00000000000E+00 -0.00000000000E+00 -0.20796158521E+02  0.20796158521E+02  0.00000000000E+00 0.  1.
         25    2    1    2    0    0  0.73792278373E+02 -0.28230084218E+02  0.35581657569E+03  0.38535116809E+03  0.12509136344E+03 0.  0.
          5    1    3    3  502    0  0.39315370923E+02  0.13932829646E+02  0.31340189239E+03  0.31619304338E+03  0.41800000000E+01 0. -1.
         -5    1    3    3    0  502  0.34476907450E+02 -0.42162913864E+02  0.42414683308E+02  0.69158124706E+02  0.41800000000E+01 0. -1.
        -11    1    1    2    0    0 -0.90794124019E+02  0.38026459233E+02  0.48164133180E+03  0.49159735257E+03  0.00000000000E+00 0.  1.
         11    1    1    2    0    0  0.17001845645E+02 -0.97963750157E+01  0.90549045548E+02  0.92650749422E+02  0.00000000000E+00 0. -1.
</event>
<event>
 7    1  0.2788485E-009  0.1435086E+03  0.7561462E-02  0.1208684E+00
          2   -1    0    0  501    0  0.00000000000E+00  0.00000000000E+00  0.37329686617E+03  0.37329686617E+03  0.00000000000E+00 0. -1.
         -2   -1    0    0    0  501 -0.00000000000E+00 -0.00000000000E+00 -0.79488160067E+02  0.79488160067E+02  0.00000000000E+00 0.  1.
         25    2    1    2    0    0 -0.60507990672E+02  0.10884796591E+03  0.22095247595E+03  0.28279869428E+03  0.12508400473E+03 0.  0.
          5    1    3    3  502    0 -0.16095324101E+02  0.85401104734E+02  0.41484008903E+02  0.96388814405E+02  0.41800000000E+01 0.  1.
         -5    1    3    3    0  502 -0.44412666571E+02  0.23446861176E+02  0.17946846705E+03  0.18640987987E+03  0.41800000000E+01 0.  1.
        -11    1    1    2    0    0  0.45778810884E+02 -0.65280586910E+01  0.54154885394E+01  0.46557948756E+02  0.00000000000E+00 0.  1.
         11    1    1    2    0    0  0.14729179788E+02 -0.10231990722E+03  0.67440741617E+02  0.12342838320E+03  0.00000000000E+00 0. -1.
</event>
<event>
 7    1  0.2788485E-009  0.1125825E+03  0.7561462E-02  0.1255861E+00
          2   -1    0    0  501    0  0.00000000000E+00  0.00000000000E+00  0.10238206209E+03  0.10238206209E+03  0.00000000000E+00 0. -1.
         -2   -1    0    0    0  501 -0.00000000000E+00 -0.00000000000E+00 -0.19481051733E+03  0.19481051733E+03  0.00000000000E+00 0.  1.
         25    2    1    2    0    0  0.26184842047E+02 -0.47338585400E+02 -0.11647134669E+03  0.17927375642E+03  0.12508763936E+03 0.  0.
          5    1    3    3  502    0 -0.36881683397E+02 -0.18065470127E+02 -0.99292684184E+02  0.10753199205E+03  0.41800000000E+01 0.  1.
         -5    1    3    3    0  502  0.63066525444E+02 -0.29273115273E+02 -0.17178662504E+02  0.71741764369E+02  0.41800000000E+01 0.  1.
        -11    1    1    2    0    0 -0.65066185280E+02  0.30449591431E+02  0.68162310708E+01  0.72161257551E+02  0.00000000000E+00 0.  1.
         11    1    1    2    0    0  0.38881343234E+02  0.16888993969E+02  0.17226660380E+02  0.45757565460E+02  0.00000000000E+00 0. -1.
</event>
<event>
 7    1  0.2788485E-009  0.8558312E+02  0.7561462E-02  0.1313915E+00
         -1   -1    0    0    0  501 -0.00000000000E+00  0.00000000000E+00  0.29767452410E+03  0.29767452410E+03  0.00000000000E+00 0.  1.
          1   -1    0    0  501    0  0.00000000000E+00 -0.00000000000E+00 -0.43756430905E+02  0.43756430905E+02  0.00000000000E+00 0. -1.
         25    2    1    2    0    0  0.10437593239E+02  0.61073427309E+01  0.19876426219E+03  0.23516375281E+03  0.12509402753E+03 0.  0.
          5    1    3    3  502    0  0.23361722609E+02  0.57930057469E+02  0.61250716730E+02  0.87583014001E+02  0.41800000000E+01 0.  1.
         -5    1    3    3    0  502 -0.12924129370E+02 -0.51822714738E+02  0.13751354546E+03  0.14758073881E+03  0.41800000000E+01 0.  1.
        -11    1    1    2    0    0 -0.31835379195E+02  0.24833267910E+01  0.71296177534E+02  0.78120440419E+02  0.00000000000E+00 0.  1.
         11    1    1    2    0    0  0.21397785955E+02 -0.85906695220E+01 -0.16142346532E+02  0.28146761771E+02  0.00000000000E+00 0. -1.
</event>
<event>
 7    1  0.2788485E-009  0.1288174E+03  0.7561462E-02  0.1229221E+00
          2   -1    0    0  501    0  0.00000000000E+00  0.00000000000E+00  0.78604796096E+03  0.78604796096E+03  0.00000000000E+00 0. -1.
         -2   -1    0    0    0  501 -0.00000000000E+00 -0.00000000000E+00 -0.28569627282E+02  0.28569627282E+02  0.00000000000E+00 0.  1.
         25    2    1    2    0    0 -0.57624173975E+02  0.64935097366E+02  0.56624752857E+03  0.58636206952E+03  0.12508837144E+03 0.  0.
          5    1    3    3  502    0 -0.83907121703E+02  0.24363122166E+01  0.29511298064E+03  0.30684765671E+03  0.41800000000E+01 0.  1.
         -5    1    3    3    0  502  0.26282947728E+02  0.62498785149E+02  0.27113454793E+03  0.27951441281E+03  0.41800000000E+01 0.  1.
        -11    1    1    2    0    0 -0.20486986759E+01 -0.41498430290E+02  0.14046044439E+03  0.14647680131E+03  0.00000000000E+00 0. -1.
         11    1    1    2    0    0  0.59672872651E+02 -0.23436667075E+02  0.50770360718E+02  0.81778717411E+02  0.00000000000E+00 0.  1.
</event>
<event>
 7    1  0.2788485E-009  0.1279977E+03  0.7561462E-02  0.1230457E+00
          3   -1    0    0  501    0  0.00000000000E+00  0.00000000000E+00  0.24002986160E+02  0.24002986160E+02  0.00000000000E+00 0. -1.
         -3   -1    0    0    0  501 -0.00000000000E+00 -0.00000000000E+00 -0.91988219457E+03  0.91988219457E+03  0.00000000000E+00 0.  1.
         25    2    1    2    0    0 -0.14356820496E+01 -0.83430813645E+02 -0.67450876529E+03  0.69106580663E+03  0.12508841991E+03 0.  0.
          5    1    3    3  502    0 -0.59101825300E+02 -0.26547258728E+02 -0.22013567909E+03  0.22951028802E+03  0.41800000000E+01 0.  1.
         -5    1    3    3    0  502  0.57666143251E+02 -0.56883554917E+02 -0.45437308620E+03  0.46155551861E+03  0.41800000000E+01 0.  1.
        -11    1    1    2    0    0 -0.25312044332E+02  0.78864782125E+02 -0.20506965402E+03  0.22116490781E+03  0.00000000000E+00 0.  1.
         11    1    1    2    0    0  0.26747726381E+02  0.45660315198E+01 -0.16300789097E+02  0.31654466282E+02  0.00000000000E+00 0. -1.
</event>
<event>
 7    1  0.2788485E-009  0.1331343E+03  0.7561462E-02  0.1222878E+00
         -1   -1    0    0    0  501 -0.00000000000E+00  0.00000000000E+00  0.73879850169E+02  0.73879850169E+02  0.00000000000E+00 0.  1.
          1   -1    0    0  501    0  0.00000000000E+00 -0.00000000000E+00 -0.34505313071E+03  0.34505313071E+03  0.00000000000E+00 0. -1.
         25    2    1    2    0    0 -0.61387945439E+02  0.83406658279E+02 -0.21774563462E+03  0.27163605578E+03  0.12509130631E+03 0.  0.
          5    1    3    3  502    0 -0.92590595464E+02  0.71334238483E+02 -0.11714479547E+03  0.16553539638E+03  0.41800000000E+01 0.  1.
         -5    1    3    3    0  502  0.31202650025E+02  0.12072419796E+02 -0.10060083915E+03  0.10610065940E+03  0.41800000000E+01 0.  1.
        -11    1    1    2    0    0  0.70639304954E+02 -0.71417806655E+02 -0.95786883791E+01  0.10090671822E+03  0.00000000000E+00 0.  1.
         11    1    1    2    0    0 -0.92513595155E+01 -0.11988851625E+02 -0.43848957543E+02  0.46390206874E+02  0.00000000000E+00 0. -1.
</event>
<event>
 7    1  0.2788485E-009  0.1961812E+03  0.7561462E-02  0.1153001E+00
         -1   -1    0    0    0  501 -0.00000000000E+00  0.00000000000E+00  0.15415097938E+02  0.15415097938E+02  0.00000000000E+00 0.  1.
          1   -1    0    0  501    0  0.00000000000E+00 -0.00000000000E+00 -0.30321791945E+04  0.30321791945E+04  0.00000000000E+00 0. -1.
         25    2    1    2    0    0  0.16345459840E+03  0.14755582461E+02 -0.21936108275E+04  0.22032954819E+04  0.12508950830E+03 0.  0.
          5    1    3    3  502    0  0.18199439940E+03  0.23846197335E+02 -0.20403013689E+04  0.20485452768E+04  0.41800000000E+01 0. -1.
         -5    1    3    3    0  502 -0.18539800992E+02 -0.90906148733E+01 -0.15330945857E+03  0.15475020512E+03  0.41800000000E+01 0. -1.
        -11    1    1    2    0    0 -0.10046933106E+03  0.36085553829E+02 -0.45616358234E+03  0.46848849242E+03  0.00000000000E+00 0. -1.
         11    1    1    2    0    0 -0.62985267348E+02 -0.50841136290E+02 -0.36698968673E+03  0.37581031812E+03  0.00000000000E+00 0.  1.
</event>
<event>
 7    1  0.2788485E-009  0.1328971E+03  0.7561462E-02  0.1223219E+00
         -1   -1    0    0    0  501 -0.00000000000E+00  0.00000000000E+00  0.63638714459E+02  0.63638714459E+02  0.00000000000E+00 0.  1.
          1   -1    0    0  501    0  0.00000000000E+00 -0.00000000000E+00 -0.36971761749E+03  0.36971761749E+03  0.00000000000E+00 0. -1.
         25    2    1    2    0    0  0.62618702110E+02 -0.77582807112E+02 -0.22474067666E+03  0.27585560513E+03  0.12509096420E+03 0.  0.
          5    1    3    3  502    0  0.64144386830E+02 -0.97930102230E+02 -0.11500137025E+03  0.16415722599E+03  0.41800000000E+01 0.  1.
         -5    1    3    3    0  502 -0.15256847200E+01  0.20347295117E+02 -0.10973930641E+03  0.11169837914E+03  0.41800000000E+01 0.  1.
        -11    1    1    2    0    0 -0.76477513721E+01 -0.16879343054E+02  0.38535403738E+01  0.18927495778E+02  0.00000000000E+00 0.  1.
         11    1    1    2    0    0 -0.54970950738E+02  0.94462150166E+02 -0.85191766740E+02  0.13857323103E+03  0.00000000000E+00 0. -1.
</event>
<event>
 7    1  0.2788485E-009  0.1276745E+03  0.7561462E-02  0.1230948E+00
          2   -1    0    0  501    0  0.00000000000E+00  0.00000000000E+00  0.10443600392E+03  0.10443600392E+03  0.00000000000E+00 0. -1.
         -2   -1    0    0    0  501 -0.00000000000E+00 -0.00000000000E+00 -0.17506785549E+03  0.17506785549E+03  0.00000000000E+00 0.  1.
         25    2    1    2    0    0 -0.56557586659E+02  0.47557214314E+02 -0.72722783832E+02  0.16246754190E+03  0.12508656859E+03 0.  0.
          5    1    3    3  502    0  0.14971631639E+02 -0.33311270489E+02 -0.12837090486E+02  0.38936535383E+02  0.41800000000E+01 0.  1.
         -5    1    3    3    0  502 -0.71529218298E+02  0.80868484803E+02 -0.59885693346E+02  0.12353100652E+03  0.41800000000E+01 0.  1.
        -11    1    1    2    0    0  0.56242847200E+02  0.63829180642E+01 -0.18119638123E+02  0.59433330631E+02  0.00000000000E+00 0. -1.
         11    1    1    2    0    0  0.31473945930E+00 -0.53940132378E+02  0.20210570384E+02  0.57602986877E+02  0.00000000000E+00 0.  1.
</event>
<event>
 7    1  0.2788485E-009  0.1106121E+03  0.7561462E-02  0.1259440E+00
         -1   -1    0    0    0  501 -0.00000000000E+00  0.00000000000E+00  0.10823717456E+03  0.10823717456E+03  0.00000000000E+00 0.  1.
          1   -1    0    0  501    0  0.00000000000E+00 -0.00000000000E+00 -0.22299125786E+03  0.22299125786E+03  0.00000000000E+00 0. -1.
         25    2    1    2    0    0  0.52139313459E+02  0.83019221456E+02 -0.11708954601E+03  0.19740739105E+03  0.12509603158E+03 0.  0.
          5    1    3    3  502    0  0.40768552684E+02  0.30370786861E+02 -0.13187496236E+03  0.14139638496E+03  0.41800000000E+01 0. -1.
         -5    1    3    3    0  502  0.11370760775E+02  0.52648434595E+02  0.14785416355E+02  0.56011006086E+02  0.41800000000E+01 0. -1.
        -11    1    1    2    0    0 -0.63327899497E+02 -0.83727820183E+02 -0.21790477944E+02  0.10721751562E+03  0.00000000000E+00 0. -1.
         11    1    1    2    0    0  0.11188586038E+02  0.70859872714E+00  0.24125940649E+02  0.26603525741E+02  0.00000000000E+00 0.  1.
</event>
<event>
 7    1  0.2788485E-009  0.7214193E+02  0.7561462E-02  0.1352957E+00
          2   -1    0    0  501    0  0.00000000000E+00  0.00000000000E+00  0.35600262710E+03  0.35600262710E+03  0.00000000000E+00 0. -1.
         -2   -1    0    0    0  501 -0.00000000000E+00 -0.00000000000E+00 -0.59926602437E+02  0.59926602437E+02  0.00000000000E+00 0.  1.
         25    2    1    2    0    0 -0.37716942210E+01 -0.36479058598E+02  0.29053237935E+03  0.31843487648E+03  0.12508700858E+03 0.  0.
          5    1    3    3  502    0  0.11311299281E+02 -0.64924543915E+01 -0.93935969461E+01  0.16607513933E+02  0.41800000000E+01 0.  1.
         -5    1    3    3    0  502 -0.15082993502E+02 -0.29986604207E+02  0.29992597630E+03  0.30182736255E+03  0.41800000000E+01 0.  1.
        -11    1    1    2    0    0  0.42731503055E+02 -0.94264909978E+00 -0.27974808419E+01  0.42833349620E+02  0.00000000000E+00 0.  1.
         11    1    1    2    0    0 -0.38959808834E+02  0.37421707698E+02  0.83411261563E+01  0.54661003439E+02  0.00000000000E+00 0. -1.
</event>
<event>
 7    1  0.2788485E-009  0.1360900E+03  0.7561462E-02  0.1218689E+00
          1   -1    0    0  501    0  0.00000000000E+00  0.00000000000E+00  0.10427428240E+04  0.10427428240E+04  0.00000000000E+00 0. -1.
         -1   -1    0    0    0  501 -0.00000000000E+00 -0.00000000000E+00 -0.21101076131E+02  0.21101076131E+02  0.00000000000E+00 0.  1.
         25    2    1    2    0    0 -0.99811184165E+02  0.21721351903E+01  0.63102525895E+03  0.65100451298E+03  0.12508800032E+03 0.  0.
          5    1    3    3  502    0  0.16455487949E+02  0.25623395015E+02  0.25108125807E+03  0.25295575109E+03  0.41800000000E+01 0. -1.
         -5    1    3    3    0  502 -0.11626667211E+03 -0.23451259825E+02  0.37994400088E+03  0.39804876188E+03  0.41800000000E+01 0. -1.
        -11    1    1    2    0    0  0.70072155820E+02  0.32363513636E+02  0.31696376125E+03  0.32622619451E+03  0.00000000000E+00 0. -1.
         11    1    1    2    0    0  0.29739028346E+02 -0.34535648826E+02  0.73652727618E+02  0.86613192600E+02  0.00000000000E+00 0.  1.
</event>
<event>
 7    1  0.2788485E-009  0.1093341E+03  0.7561462E-02  0.1261808E+00
         -1   -1    0    0    0  501 -0.00000000000E+00  0.00000000000E+00  0.31372409500E+02  0.31372409500E+02  0.00000000000E+00 0.  1.
          1   -1    0    0  501    0  0.00000000000E+00 -0.00000000000E+00 -0.78404659460E+03  0.78404659460E+03  0.00000000000E+00 0. -1.
         25    2    1    2    0    0  0.27362258639E+02  0.53779756085E+02 -0.22712833102E+03  0.26622560138E+03  0.12509131352E+03 0.  0.
          5    1    3    3  502    0  0.23862554526E+02  0.55785552467E+02 -0.27900453614E+02  0.66913056158E+02  0.41800000000E+01 0.  1.
         -5    1    3    3    0  502  0.34997041131E+01 -0.20057963823E+01 -0.19922787741E+03  0.19931254523E+03  0.41800000000E+01 0.  1.
        -11    1    1    2    0    0 -0.84216952709E+02 -0.41447690395E+02 -0.23838646859E+03  0.25620014553E+03  0.00000000000E+00 0.  1.
         11    1    1    2    0    0  0.56854694070E+02 -0.12332065690E+02 -0.28715938548E+03  0.29299325718E+03  0.00000000000E+00 0. -1.
</event>
<event>
 7    1  0.2788485E-009  0.1535831E+03  0.7561462E-02  0.1196138E+00
          1   -1    0    0  501    0  0.00000000000E+00  0.00000000000E+00  0.50588853732E+02  0.50588853732E+02  0.00000000000E+00 0. -1.
         -1   -1    0    0    0  501 -0.00000000000E+00 -0.00000000000E+00 -0.64053656105E+03  0.64053656105E+03  0.00000000000E+00 0.  1.
         25    2    1    2    0    0 -0.10294275819E+03  0.47221234546E+02 -0.14345868174E+03  0.22148253547E+03  0.12508822364E+03 0.  0.
          5    1    3    3  502    0 -0.36999370496E+01  0.64185457725E+02 -0.34552633880E+02  0.73108271937E+02  0.41800000000E+01 0. -1.
         -5    1    3    3    0  502 -0.99242821145E+02 -0.16964223179E+02 -0.10890604786E+03  0.14837426353E+03  0.41800000000E+01 0. -1.
        -11    1    1    2    0    0  0.11799000106E+03 -0.36546744139E+02 -0.34394373615E+03  0.36545122588E+03  0.00000000000E+00 0.  1.
         11    1    1    2    0    0 -0.15047242865E+02 -0.10674490407E+02 -0.10254528942E+03  0.10419165344E+03  0.00000000000E+00 0. -1.
</event>
<event>
 7    1  0.2788485E-009  0.1394194E+03  0.7561462E-02  0.1214112E+00
          1   -1    0    0  501    0  0.00000000000E+00  0.00000000000E+00  0.42479472258E+02  0.42479472258E+02  0.00000000000E+00 0. -1.
         -1   -1    0    0    0  501 -0.00000000000E+00 -0.00000000000E+00 -0.76355354727E+03  0.76355354727E+03  0.00000000000E+00 0.  1.
         25    2    1    2    0    0  0.11822017466E+03  0.71933509078E+02 -0.32265837097E+03  0.37270228560E+03  0.12509248542E+03 0.  0.
          5    1    3    3  502    0  0.33329237715E+02  0.32311663266E+02 -0.24936211000E+03  0.25368053921E+03  0.41800000000E+01 0.  1.
         -5    1    3    3    0  502  0.84890936948E+02  0.39621845813E+02 -0.73296260969E+02  0.11902174639E+03  0.41800000000E+01 0.  1.
        -11    1    1    2    0    0 -0.48977556279E+02 -0.32341094933E+02 -0.53847862239E+02  0.79651363505E+02  0.00000000000E+00 0. -1.
         11    1    1    2    0    0 -0.69242618383E+02 -0.39592414146E+02 -0.34456784180E+03  0.35367937042E+03  0.00000000000E+00 0.  1.
</event>
<event>
 7    1  0.2788485E-009  0.1143417E+03  0.7561462E-02  0.1252735E+00
         -1   -1    0    0    0  501 -0.00000000000E+00  0.00000000000E+00  0.63342498057E+03  0.63342498057E+03  0.00000000000E+00 0.  1.
          1   -1    0    0  501    0  0.00000000000E+00 -0.00000000000E+00 -0.21685700428E+02  0.21685700428E+02  0.00000000000E+00 0. -1.
         25    2    1    2    0    0 -0.33565960477E+02 -0.21998008991E+02  0.30213286432E+03  0.32945828569E+03  0.12509159927E+03 0.  0.
          5    1    3    3  502    0 -0.77505435453E+02 -0.33180493485E+02  0.21841499303E+03  0.23415938857E+03  0.41800000000E+01 0. -1.
         -5    1    3    3    0  502  0.43939474975E+02  0.11182484495E+02  0.83717871282E+02  0.95298897122E+02  0.41800000000E+01 0. -1.
        -11    1    1    2    0    0  0.31094624306E+02  0.56316670886E+02  0.23213293380E+03  0.24088200854E+03  0.00000000000E+00 0.  1.
         11    1    1    2    0    0  0.24713361713E+01 -0.34318661896E+02  0.77473482019E+02  0.84770386768E+02  0.00000000000E+00 0. -1.
</event>
<event>
 7    1  0.2788485E-009  0.1048997E+03  0.7561462E-02  0.1270317E+00
         -2   -1    0    0    0  501 -0.00000000000E+00  0.00000000000E+00  0.34593869047E+02  0.34593869047E+02  0.00000000000E+00 0.  1.
          2   -1    0    0  501    0  0.00000000000E+00 -0.00000000000E+00 -0.37531333076E+03  0.37531333076E+03  0.00000000000E+00 0. -1.
         25    2    1    2    0    0 -0.19356130602E+02 -0.36201085346E+02 -0.15777450861E+03  0.20549573579E+03  0.12510205230E+03 0.  0.
          5    1    3    3  502    0 -0.66248965250E+02 -0.49001423165E+02 -0.91599015124E+02  0.12327983144E+03  0.41800000000E+01 0. -1.
         -5    1    3    3    0  502  0.46892834648E+02  0.12800337819E+02 -0.66175493490E+02  0.82215904351E+02  0.41800000000E+01 0. -1.
        -11    1    1    2    0    0  0.42039953441E+02  0.88345670062E+01 -0.46046928734E+02  0.62974017701E+02  0.00000000000E+00 0.  1.
         11    1    1    2    0    0 -0.22683822839E+02  0.27366518340E+02 -0.13689802436E+03  0.14143744631E+03  0.00000000000E+00 0. -1.
</event>
<event>
 7    1  0.2788485E-009  0.9903096E+02  0.7561462E-02  0.1282347E+00
          2   -1    0    0  501    0  0.00000000000E+00  0.00000000000E+00  0.46667722594E+03  0.46667722594E+03  0.00000000000E+00 0. -1.
         -2   -1    0    0    0  501 -0.00000000000E+00 -0.00000000000E+00 -0.30606381121E+02  0.30606381121E+02  0.00000000000E+00 0.  1.
         25    2    1    2    0    0 -0.21580765138E+02  0.10232816729E+01  0.25226865089E+03  0.28241108398E+03  0.12509904718E+03 0.  0.
          5    1    3    3  502    0  0.48695794678E+02  0.10212818551E+01  0.15367049694E+03  0.16125885237E+03  0.41800000000E+01 0.  1.
         -5    1    3    3    0  502 -0.70276559816E+02  0.19998178488E-02  0.98598153945E+02  0.12115223161E+03  0.41800000000E+01 0.  1.
        -11    1    1    2    0    0  0.14902331076E+02 -0.38199950084E+02  0.17927559269E+02  0.44751681971E+02  0.00000000000E+00 0.  1.
         11    1    1    2    0    0  0.66784340617E+01  0.37176668411E+02  0.16587463467E+03  0.17012084111E+03  0.00000000000E+00 0. -1.
</event>
<event>
 7    1  0.2788485E-009  0.1020991E+03  0.7561462E-02  0.1275943E+00
          1   -1    0    0  501    0  0.00000000000E+00  0.00000000000E+00  0.16026298619E+02  0.16026298619E+02  0.00000000000E+00 0. -1.
         -1   -1    0    0    0  501 -0.00000000000E+00 -0.00000000000E+00 -0.86102584522E+03  0.86102584522E+03  0.00000000000E+00 0.  1.
         25    2    1    2    0    0  0.18073557782E+02  0.32433332433E+02 -0.56728985516E+03  0.58210428242E+03  0.12509612821E+03 0.  0.
          5    1    3    3  502    0 -0.31345628311E+02 -0.23709131730E+02 -0.35081187358E+03  0.35303132211E+03  0.41800000000E+01 0. -1.
         -5    1    3    3    0  502  0.49419186093E+02  0.56142464163E+02 -0.21647798158E+03  0.22907296031E+03  0.41800000000E+01 0. -1.
        -11    1    1    2    0    0  0.19382500393E+02 -0.46007014332E+02 -0.88691581624E+02  0.10177683106E+03  0.00000000000E+00 0. -1.
         11    1    1    2    0    0 -0.37456058175E+02  0.13573681899E+02 -0.18901810981E+03  0.19317103036E+03  0.00000000000E+00 0.  1.
</event>
<event>
 7    1  0.2788485E-009  0.1396143E+03  0.7561462E-02  0.1213849E+00
         -2   -1    0    0    0  501 -0.00000000000E+00  0.00000000000E+00  0.13969759500E+03  0.13969759500E+03  0.00000000000E+00 0.  1.
          2   -1    0    0  501    0  0.00000000000E+00 -0.00000000000E+00 -0.27571901968E+03  0.27571901968E+03  0.00000000000E+00 0. -1.
         25    2    1    2    0    0 -0.89633629186E+02 -0.14256457471E+02 -0.21499121711E+03  0.26477399577E+03  0.12508641548E+03 0.  0.
          5    1    3    3  502    0  0.29088142355E+02  0.11321346947E+02 -0.30372297056E+02  0.43752048533E+02  0.41800000000E+01 0.  1.
         -5    1    3    3    0  502 -0.11872177154E+03 -0.25577804418E+02 -0.18461892006E+03  0.22102194724E+03  0.41800000000E+01 0.  1.
        -11    1    1    2    0    0  0.49941112730E+02 -0.36447135517E+02  0.52169031100E+02  0.80895712087E+02  0.00000000000E+00 0.  1.
         11    1    1    2    0    0  0.39692516456E+02  0.50703592988E+02  0.26800761334E+02  0.69746906832E+02  0.00000000000E+00 0. -1.
</event>
<event>
 7    1  0.2788485E-009  0.3324751E+03  0.7561462E-02  0.1070047E+00
          1   -1    0    0  501    0  0.00000000000E+00  0.00000000000E+00  0.37590296331E+03  0.37590296331E+03  0.00000000000E+00 0. -1.
         -1   -1    0    0    0  501 -0.00000000000E+00 -0.00000000000E+00 -0.38221179192E+03  0.38221179192E+03  0.00000000000E+00 0.  1.
         25    2    1    2    0    0  0.32052676387E+03 -0.63336736665E+02 -0.16368865454E+03  0.38625177261E+03  0.12508999820E+03 0.  0.
          5    1    3    3  502    0  0.14368891092E+03 -0.65354680266E+02 -0.13353519803E+03  0.20680149629E+03  0.41800000000E+01 0.  1.
         -5    1    3    3    0  502  0.17683785295E+03  0.20179436009E+01 -0.30153456510E+02  0.17945027632E+03  0.41800000000E+01 0.  1.
        -11    1    1    2    0    0 -0.16037695028E+03  0.55830702398E+02  0.11794735292E+03  0.20675930831E+03  0.00000000000E+00 0. -1.
         11    1    1    2    0    0 -0.16014981359E+03  0.75060342668E+01  0.39432473005E+02  0.16510367431E+03  0.00000000000E+00 0.  1.
</event>
<event>
 7    1  0.2788485E-009  0.1017344E+03  0.7561462E-02  0.1276691E+00
          4   -1    0    0  501    0  0.00000000000E+00  0.00000000000E+00  0.24888846934E+03  0.24888846934E+03  0.00000000000E+00 0.  1.
         -4   -1    0    0    0  501 -0.00000000000E+00 -0.00000000000E+00 -0.98284875712E+02  0.98284875712E+02  0.00000000000E+00 0. -1.
         25    2    1    2    0    0 -0.95278693019E+01 -0.83572789279E+02 -0.31195800671E+01  0.15076889967E+03  0.12508532258E+03 0.  0.
          5    1    3    3  502    0  0.17335042499E+02 -0.45943765724E+02 -0.59808644130E+02  0.77497610415E+02  0.41800000000E+01 0.  1.
         -5    1    3    3    0  502 -0.26862911800E+02 -0.37629023555E+02  0.56689064063E+02  0.73271289251E+02  0.41800000000E+01 0.  1.
        -11    1    1    2    0    0  0.35009992600E+02  0.22575726054E+02  0.10873717070E+03  0.11644370004E+03  0.00000000000E+00 0.  1.
         11    1    1    2    0    0 -0.25482123298E+02  0.60997063225E+02  0.44986002997E+02  0.79960745341E+02  0.00000000000E+00 0. -1.
</event>
<event>
 7    1  0.2788485E-009  0.1835457E+03  0.7561462E-02  0.1164415E+00
          1   -1    0    0  501    0  0.00000000000E+00  0.00000000000E+00  0.29550557715E+03  0.29550557715E+03  0.00000000000E+00 0. -1.
         -1   -1    0    0    0  501 -0.00000000000E+00 -0.00000000000E+00 -0.14090208045E+03  0.14090208045E+03  0.00000000000E+00 0.  1.
         25    2    1    2    0    0  0.81374352116E+02 -0.13606076572E+03  0.15297927980E+03  0.25334673833E+03  0.12509033785E+03 0.  0.
          5    1    3    3  502    0 -0.14948069458E+02  0.21721135110E+01 -0.10248025546E+02  0.18725845380E+02  0.41800000000E+01 0. -1.
         -5    1    3    3    0  502  0.96322421574E+02 -0.13823287923E+03  0.16322730534E+03  0.23462089295E+03  0.41800000000E+01 0. -1.
        -11    1    1    2    0    0 -0.56553776669E+02  0.13912548645E+02  0.41854159336E+01  0.58390122211E+02  0.00000000000E+00 0.  1.
         11    1    1    2    0    0 -0.24820575447E+02  0.12214821707E+03 -0.25611990298E+01  0.12467079706E+03  0.00000000000E+00 0. -1.
</event>
<event>
 7    1  0.2788485E-009  0.1030620E+03  0.7561462E-02  0.1273986E+00
         -3   -1    0    0    0  501 -0.00000000000E+00  0.00000000000E+00  0.59455549564E+02  0.59455549564E+02  0.00000000000E+00 0.  1.
          3   -1    0    0  501    0  0.00000000000E+00 -0.00000000000E+00 -0.25423235422E+03  0.25423235422E+03  0.00000000000E+00 0. -1.
         25    2    1    2    0    0 -0.43938885090E+02  0.30747634041E+02 -0.81427033882E+02  0.15859118942E+03  0.12507901859E+03 0.  0.
          5    1    3    3  502    0 -0.82249481900E+02  0.33668693886E+02 -0.80418022872E+02  0.11992951690E+03  0.41800000000E+01 0.  1.
         -5    1    3    3    0  502  0.38310596810E+02 -0.29210598448E+01 -0.10090110102E+01  0.38661672517E+02  0.41800000000E+01 0.  1.
        -11    1    1    2    0    0 -0.11259078956E+02 -0.18975102443E+02  0.61790758632E+01  0.22912929760E+02  0.00000000000E+00 0.  1.
         11    1    1    2    0    0  0.55197964046E+02 -0.11772531598E+02 -0.11952884663E+03  0.13218378461E+03  0.00000000000E+00 0. -1.
</event>
<event>
 7    1  0.2788485E-009  0.1416993E+03  0.7561462E-02  0.1211061E+00
          1   -1    0    0  501    0  0.00000000000E+00  0.00000000000E+00  0.44958790860E+03  0.44958790860E+03  0.00000000000E+00 0. -1.
         -1   -1    0    0    0  501 -0.00000000000E+00 -0.00000000000E+00 -0.87289466979E+02  0.87289466979E+02  0.00000000000E+00 0.  1.
         25    2    1    2    0    0 -0.59063837399E+02  0.56564748239E+02  0.34544028894E+03  0.37638326988E+03  0.12508902826E+03 0.  0.
          5    1    3    3  502    0  0.11630419293E+02 -0.23202189971E+02  0.17624035540E+02  0.31649443930E+02  0.41800000000E+01 0.  1.
         -5    1    3    3    0  502 -0.70694256691E+02  0.79766938210E+02  0.32781625340E+03  0.34473382595E+03  0.41800000000E+01 0.  1.
        -11    1    1    2    0    0 -0.16414948298E+02  0.30853401901E+02 -0.18716927749E+02  0.39644751492E+02  0.00000000000E+00 0.  1.
         11    1    1    2    0    0  0.75478785697E+02 -0.87418150140E+02  0.35575080425E+02  0.12084935420E+03  0.00000000000E+00 0. -1.
</event>
<event>
 7    1  0.2788485E-009  0.1109541E+03  0.7561462E-02  0.1258813E+00
          2   -1    0    0  501    0  0.00000000000E+00  0.00000000000E+00  0.11556395122E+03  0.11556395122E+03  0.00000000000E+00 0. -1.
         -2   -1    0    0    0  501 -0.00000000000E+00 -0.00000000000E+00 -0.13646740304E+03  0.13646740304E+03  0.00000000000E+00 0.  1.
         25    2    1    2    0    0  0.39445218432E+02  0.39568015219E+02 -0.61076867361E+02  0.15000061796E+03  0.12509295974E+03 0.  0.
          5    1    3    3  502    0  0.76165560039E+02  0.48690552652E+02 -0.65450439601E+02  0.11168345848E+03  0.41800000000E+01 0. -1.
         -5    1    3    3    0  502 -0.36720341607E+02 -0.91225374331E+01  0.43735722396E+01  0.38317159486E+02  0.41800000000E+01 0. -1.
        -11    1    1    2    0    0  0.22200254639E+02 -0.53313943520E+01  0.14186863604E+02  0.26880144544E+02  0.00000000000E+00 0.  1.
         11    1    1    2    0    0 -0.61645473071E+02 -0.34236620867E+02  0.25986551944E+02  0.75150591751E+02  0.00000000000E+00 0. -1.
</event>
<event>
 7    1  0.2788485E-009  0.6437754E+02  0.7561462E-02  0.1380328E+00
          2   -1    0    0  501    0  0.00000000000E+00  0.00000000000E+00  0.40652459380E+02  0.40652459380E+02  0.00000000000E+00 0. -1.
         -2   -1    0    0    0  501 -0.00000000000E+00 -0.00000000000E+00 -0.31651259584E+03  0.31651259584E+03  0.00000000000E+00 0.  1.
         25    2    1    2    0    0 -0.32975190285E+02 -0.69033879203E+01 -0.16552168890E+03  0.21019710271E+03  0.12510144904E+03 0.  0.
          5    1    3    3  502    0 -0.28554731136E+01  0.14772450829E+01 -0.17666559355E+03  0.17674427947E+03  0.41800000000E+01 0. -1.
         -5    1    3    3    0  502 -0.30119717171E+02 -0.83806330032E+01  0.11143904651E+02  0.33452823242E+02  0.41800000000E+01 0. -1.
        -11    1    1    2    0    0  0.42152679677E+02 -0.31393416732E+02 -0.38879336592E+02  0.65375819933E+02  0.00000000000E+00 0.  1.
         11    1    1    2    0    0 -0.91774893924E+01  0.38296804652E+02 -0.71459110967E+02  0.81592132576E+02  0.00000000000E+00 0. -1.
</event>
<event>
 7    1  0.2788485E-009  0.6549404E+02  0.7561462E-02  0.1376123E+00
         -1   -1    0    0    0  501 -0.00000000000E+00  0.00000000000E+00  0.47534445501E+03  0.47534445501E+03  0.00000000000E+00 0.  1.
          1   -1    0    0  501    0  0.00000000000E+00 -0.00000000000E+00 -0.27490547240E+02  0.27490547240E+02  0.00000000000E+00 0. -1.
         25    2    1    2    0    0 -0.23668365875E+02  0.51371319244E-01  0.21642181382E+03  0.25109058823E+03  0.12509151778E+03 0.  0.
          5    1    3    3  502    0 -0.26963288688E+02  0.52807946508E+01 -0.60921277575E+01  0.28451575521E+02  0.41800000000E+01 0.  1.
         -5    1    3    3    0  502  0.32949228133E+01 -0.52294233315E+01  0.22251394158E+03  0.22263901271E+03  0.41800000000E+01 0.  1.
        -11    1    1    2    0    0  0.32724310395E+02 -0.41759909354E+02  0.15962331342E+03  0.16820931219E+03  0.00000000000E+00 0.  1.
         11    1    1    2    0    0 -0.90559445201E+01  0.41708538035E+02  0.71808780527E+02  0.83535101825E+02  0.00000000000E+00 0. -1.
</event>
<event>
 7    1  0.3729637E-009  0.9641701E+02  0.7561462E-02  0.1288016E+00
         -1   -1    0    0    0  501 -0.00000000000E+00  0.00000000000E+00  0.29669176040E+02  0.29669176040E+02  0.00000000000E+00 0. -1.
          1   -1    0    0  501    0  0.00000000000E+00 -0.00000000000E+00 -0.46490317262E+03  0.46490317262E+03  0.00000000000E+00 0.  1.
         25    2    1    2    0    0 -0.30456360808E+02 -0.31708774621E+02 -0.23058017932E+03  0.26598748069E+03  0.12509630087E+03 0.  0.
          5    1    3    3  502    0  0.16073865550E+02  0.42089958673E+02 -0.79929492868E+02  0.91848407743E+02  0.41800000000E+01 0.  1.
         -5    1    3    3    0  502 -0.46530226359E+02 -0.73798733295E+02 -0.15065068645E+03  0.17413907295E+03  0.41800000000E+01 0.  1.
        -11    1    1    2    0    0  0.65144215936E+01  0.35420754990E+02 -0.20085807761E+03  0.20406135086E+03  0.00000000000E+00 0.  1.
         11    1    1    2    0    0  0.23941939215E+02 -0.37119803686E+01 -0.37957396489E+01  0.24523517103E+02  0.00000000000E+00 0. -1.
</event>
<event>
 7    1  0.4465084E-009  0.1165308E+03  0.7561462E-02  0.1248932E+00
          1   -1    0    0  501    0  0.00000000000E+00  0.00000000000E+00  0.38728320949E+03  0.38728320949E+03  0.00000000000E+00 0. -1.
         -1   -1    0    0    0  501 -0.00000000000E+00 -0.00000000000E+00 -0.51451106832E+02  0.51451106832E+02  0.00000000000E+00 0.  1.
         25    2    1    2    0    0 -0.61588759878E+02 -0.66100495027E+02  0.17241882386E+03  0.23138294806E+03  0.12508943619E+03 0.  0.
          5    1    3    3  502    0  0.22204024025E+02 -0.40106295340E+02  0.12134069614E+03  0.12977892952E+03  0.41800000000E+01 0. -1.
         -5    1    3    3    0  502 -0.83792783903E+02 -0.25994199687E+02  0.51078127721E+02  0.10160401854E+03  0.41800000000E+01 0. -1.
        -11    1    1    2    0    0  0.19412936753E+02  0.50713882553E+02  0.21325781162E+02  0.58339942913E+02  0.00000000000E+00 0.  1.
         11    1    1    2    0    0  0.42175823125E+02  0.15386612475E+02  0.14208749764E+03  0.14901142535E+03  0.00000000000E+00 0. -1.
</event>
<event>
 7    1  0.2788485E-009  0.7586317E+02  0.7561462E-02  0.1341219E+00
          2   -1    0    0  501    0  0.00000000000E+00  0.00000000000E+00  0.26299817358E+03  0.26299817358E+03  0.00000000000E+00 0. -1.
         -2   -1    0    0    0  501 -0.00000000000E+00 -0.00000000000E+00 -0.60308518627E+02  0.60308518627E+02  0.00000000000E+00 0.  1.
         25    2    1    2    0    0  0.16173643275E+02  0.22736184488E+01  0.33265074506E+02  0.13046307387E+03  0.12508913775E+03 0.  0.
          5    1    3    3  502    0 -0.16695615463E+02  0.17140895106E+02  0.72820304297E+02  0.76764724833E+02  0.41800000000E+01 0.  1.
         -5    1    3    3    0  502  0.32869258738E+02 -0.14867276658E+02 -0.39555229791E+02  0.53698349034E+02  0.41800000000E+01 0.  1.
        -11    1    1    2    0    0 -0.50948062745E+02 -0.16491334834E+02  0.11313266824E+03  0.12516656840E+03  0.00000000000E+00 0. -1.
         11    1    1    2    0    0  0.34774419470E+02  0.14217716386E+02  0.56291912206E+02  0.67677049939E+02  0.00000000000E+00 0.  1.
</event>
<event>
 7    1  0.2788485E-009  0.1455323E+03  0.7561462E-02  0.1206073E+00
         -3   -1    0    0    0  501 -0.00000000000E+00  0.00000000000E+00  0.21722202920E+03  0.21722202920E+03  0.00000000000E+00 0.  1.
          3   -1    0    0  501    0  0.00000000000E+00 -0.00000000000E+00 -0.16676856991E+03  0.16676856991E+03  0.00000000000E+00 0. -1.
         25    2    1    2    0    0 -0.42226028366E+02 -0.12011464587E+03  0.11710524492E+03  0.21347621468E+03  0.12509152739E+03 0.  0.
          5    1    3    3  502    0 -0.63304693822E+02 -0.38387018359E+02  0.67171218803E+01  0.74455621445E+02  0.41800000000E+01 0. -1.
         -5    1    3    3    0  502  0.21078665456E+02 -0.81727627511E+02  0.11038812304E+03  0.13902059324E+03  0.41800000000E+01 0. -1.
        -11    1    1    2    0    0  0.18892875727E+01  0.59904045366E+02 -0.76709202553E+02  0.97346627137E+02  0.00000000000E+00 0. -1.
         11    1    1    2    0    0  0.40336740793E+02  0.60210600505E+02  0.10057416923E+02  0.73167757285E+02  0.00000000000E+00 0.  1.
</event>
<event>
 7    1  0.2788485E-009  0.4018982E+03  0.7561462E-02  0.1043124E+00
          2   -1    0    0  501    0  0.00000000000E+00  0.00000000000E+00  0.15690934427E+04  0.15690934427E+04  0.00000000000E+00 0. -1.
         -2   -1    0    0    0  501 -0.00000000000E+00 -0.00000000000E+00 -0.11314772978E+03  0.11314772978E+03  0.00000000000E+00 0.  1.
         25    2    1    2    0    0 -0.30545104643E+03  0.25137590111E+03  0.54567505188E+03  0.68549193265E+03  0.12509093517E+03 0.  0.
          5    1    3    3  502    0 -0.13883895572E+03  0.16163238331E+03  0.37135394726E+03  0.42816177959E+03  0.41800000000E+01 0. -1.
         -5    1    3    3    0  502 -0.16661209070E+03  0.89743517799E+02  0.17432110462E+03  0.25733015306E+03  0.41800000000E+01 0. -1.
        -11    1    1    2    0    0  0.10776377545E+03 -0.13219979729E+03  0.31352069873E+03  0.35691041766E+03  0.00000000000E+00 0.  1.
         11    1    1    2    0    0  0.19768727098E+03 -0.11917610382E+03  0.59674996229E+03  0.63983882214E+03  0.00000000000E+00 0. -1.
</event>
<event>
 7    1  0.2788485E-009  0.1593707E+03  0.7561462E-02  0.1189409E+00
          1   -1    0    0  501    0  0.00000000000E+00  0.00000000000E+00  0.68490602693E+03  0.68490602693E+03  0.00000000000E+00 0. -1.
         -1   -1    0    0    0  501 -0.00000000000E+00 -0.00000000000E+00 -0.53867850798E+02  0.53867850798E+02  0.00000000000E+00 0.  1.
         25    2    1    2    0    0 -0.51397758665E+02 -0.14935180075E+03  0.31434527648E+03  0.37337444328E+03  0.12509129493E+03 0.  0.
          5    1    3    3  502    0 -0.72819308516E+01 -0.33610268905E+02  0.20558933782E+03  0.20848770928E+03  0.41800000000E+01 0.  1.
         -5    1    3    3    0  502 -0.44115827814E+02 -0.11574153184E+03  0.10875593865E+03  0.16488673400E+03  0.41800000000E+01 0.  1.
        -11    1    1    2    0    0  0.34135285227E+02  0.12917909369E+03  0.31065636658E+03  0.33817130872E+03  0.00000000000E+00 0. -1.
         11    1    1    2    0    0  0.17262473438E+02  0.20172707059E+02  0.60365330770E+01  0.27228125732E+02  0.00000000000E+00 0.  1.
</event>
<event>
 7    1  0.2788485E-009  0.1572862E+03  0.7561462E-02  0.1191795E+00
          2   -1    0    0  501    0  0.00000000000E+00  0.00000000000E+00  0.68335740020E+03  0.68335740020E+03  0.00000000000E+00 0. -1.
         -2   -1    0    0    0  501 -0.00000000000E+00 -0.00000000000E+00 -0.40713114259E+02  0.40713114259E+02  0.00000000000E+00 0.  1.
         25    2    1    2    0    0  0.12421191389E+03  0.22162553648E+02  0.26537686504E+03  0.31936130750E+03  0.12508791266E+03 0.  0.
          5    1    3    3  502    0  0.14960161742E+03  0.24286114352E+02  0.22073265587E+03  0.26778879187E+03  0.41800000000E+01 0.  1.
         -5    1    3    3    0  502 -0.25389703534E+02 -0.21235607045E+01  0.44644209165E+02  0.51572515622E+02  0.41800000000E+01 0.  1.
        -11    1    1    2    0    0 -0.40340641226E+02 -0.33583896723E+02  0.80460997846E+02  0.96068817147E+02  0.00000000000E+00 0.  1.
         11    1    1    2    0    0 -0.83871272663E+02  0.11421343075E+02  0.29680642306E+03  0.30864038982E+03  0.00000000000E+00 0. -1.
</event>
<event>
 7    1  0.2788485E-009  0.1011198E+03  0.7561462E-02  0.1277959E+00
         -2   -1    0    0    0  501 -0.00000000000E+00  0.00000000000E+00  0.56414408314E+02  0.56414408314E+02  0.00000000000E+00 0.  1.
          2   -1    0    0  501    0  0.00000000000E+00 -0.00000000000E+00 -0.24110558786E+03  0.24110558786E+03  0.00000000000E+00 0. -1.
         25    2    1    2    0    0 -0.29647776018E+02  0.24612770802E+02 -0.11297339780E+03  0.17290058249E+03  0.12508734430E+03 0.  0.
          5    1    3    3  502    0 -0.77242768611E+02  0.13201830795E+01 -0.60547515957E+02  0.98242873912E+02  0.41800000000E+01 0. -1.
         -5    1    3    3    0  502  0.47594992593E+02  0.23292587723E+02 -0.52425881847E+02  0.74657708578E+02  0.41800000000E+01 0. -1.
        -11    1    1    2    0    0 -0.48543261343E+01  0.16990676620E+02 -0.68205003348E+02  0.70456866635E+02  0.00000000000E+00 0. -1.
         11    1    1    2    0    0  0.34502102152E+02 -0.41603447422E+02 -0.35127783889E+01  0.54162547044E+02  0.00000000000E+00 0.  1.
</event>
<event>
 7    1  0.2788485E-009  0.1028154E+03  0.7561462E-02  0.1274484E+00
         -2   -1    0    0    0  501 -0.00000000000E+00  0.00000000000E+00  0.75893483392E+02  0.75893483392E+02  0.00000000000E+00 0.  1.
          2   -1    0    0  501    0  0.00000000000E+00 -0.00000000000E+00 -0.19290763876E+03  0.19290763876E+03  0.00000000000E+00 0. -1.
         25    2    1    2    0    0  0.37689247147E+02  0.19032614318E+02 -0.28642389331E+02  0.13509651402E+03  0.12509181378E+03 0.  0.
          5    1    3    3  502    0  0.16928302381E+02  0.71619572793E+02 -0.26614387615E+02  0.78369181804E+02  0.41800000000E+01 0. -1.
         -5    1    3    3    0  502  0.20760944766E+02 -0.52586958475E+02 -0.20280017162E+01  0.56727332215E+02  0.41800000000E+01 0. -1.
        -11    1    1    2    0    0 -0.54743727055E+02 -0.19647198588E+02 -0.17399444385E+02  0.60709379252E+02  0.00000000000E+00 0.  1.
         11    1    1    2    0    0  0.17054479909E+02  0.61458427011E+00 -0.70972321651E+02  0.72995228881E+02  0.00000000000E+00 0. -1.
</event>
<event>
 7    1  0.2788485E-009  0.1597092E+03  0.7561462E-02  0.1189025E+00
          1   -1    0    0  501    0  0.00000000000E+00  0.00000000000E+00  0.55780123373E+03  0.55780123373E+03  0.00000000000E+00 0. -1.
         -1   -1    0    0    0  501 -0.00000000000E+00 -0.00000000000E+00 -0.56926890208E+02  0.56926890208E+02  0.00000000000E+00 0.  1.
         25    2    1    2    0    0 -0.13794677873E+03 -0.17227396898E+02  0.29371315036E+03  0.34819253534E+03  0.12507809562E+03 0.  0.
          5    1    3    3  502    0 -0.61993566280E+00 -0.38328253026E+02  0.11803671973E+03  0.12417559706E+03  0.41800000000E+01 0.  1.
         -5    1    3    3    0  502 -0.13732684307E+03  0.21100856128E+02  0.17567643063E+03  0.22401693828E+03  0.41800000000E+01 0.  1.
        -11    1    1    2    0    0  0.86382644114E+02  0.24481029296E+02  0.54018184556E+02  0.10478189854E+03  0.00000000000E+00 0.  1.
         11    1    1    2    0    0  0.51564134619E+02 -0.72536323978E+01  0.15314300861E+03  0.16175369006E+03  0.00000000000E+00 0. -1.
</event>
<event>
 7    1  0.2788485E-009  0.1391995E+03  0.7561462E-02  0.1214410E+00
         -2   -1    0    0    0  501 -0.00000000000E+00  0.00000000000E+00  0.20228863158E+03  0.20228863158E+03  0.00000000000E+00 0.  1.
          2   -1    0    0  501    0  0.00000000000E+00 -0.00000000000E+00 -0.14062384441E+03  0.14062384441E+03  0.00000000000E+00 0. -1.
         25    2    1    2    0    0 -0.92633813108E+02  0.66568329082E+02  0.92988815496E+02  0.19314996394E+03  0.12509045924E+03 0.  0.
          5    1    3    3  502    0 -0.28598787024E+02  0.91052760059E+02  0.76827575569E+02  0.12259055633E+03  0.41800000000E+01 0. -1.
         -5    1    3    3    0  502 -0.64035026084E+02 -0.24484430977E+02  0.16161239927E+02  0.70559407606E+02  0.41800000000E+01 0. -1.
        -11    1    1    2    0    0  0.81636082707E+01 -0.77316855692E+01 -0.44575332038E+02  0.45971553031E+02  0.00000000000E+00 0. -1.
         11    1    1    2    0    0  0.84470204837E+02 -0.58836643513E+02  0.13251303714E+02  0.10379095902E+03  0.00000000000E+00 0.  1.
</event>
<event>
 7    1  0.2788485E-009  0.1270666E+03  0.7561462E-02  0.1231874E+00
          1   -1    0    0  501    0  0.00000000000E+00  0.00000000000E+00  0.10042529407E+04  0.10042529407E+04  0.00000000000E+00 0. -1.
         -1   -1    0    0    0  501 -0.00000000000E+00 -0.00000000000E+00 -0.25316221080E+02  0.25316221080E+02  0.00000000000E+00 0.  1.
         25    2    1    2    0    0  0.39816822940E+02 -0.81271408250E+02  0.28924638334E+03  0.32787460574E+03  0.12509142907E+03 0.  0.
          5    1    3    3  502    0  0.12436968358E+01 -0.85976688225E+02  0.27173903446E+03  0.28504931669E+03  0.41800000000E+01 0.  1.
         -5    1    3    3    0  502  0.38573126104E+02  0.47052799753E+01  0.17507348879E+02  0.42825289046E+02  0.41800000000E+01 0.  1.
        -11    1    1    2    0    0 -0.47691711414E+02  0.38429218046E+00  0.23334224044E+03  0.23816642961E+03  0.00000000000E+00 0.  1.
         11    1    1    2    0    0  0.78748884747E+01  0.80887116069E+02  0.45634809583E+03  0.46352812642E+03  0.00000000000E+00 0. -1.
</event>
<event>
 7    1  0.2788485E-009  0.1092840E+03  0.7561462E-02  0.1261902E+00
         -1   -1    0    0    0  501 -0.00000000000E+00  0.00000000000E+00  0.18269835042E+02  0.18269835042E+02  0.00000000000E+00 0.  1.
          1   -1    0    0  501    0  0.00000000000E+00 -0.00000000000E+00 -0.12482719164E+04  0.12482719164E+04  0.00000000000E+00 0. -1.
         25    2    1    2    0    0  0.65995595289E+02 -0.20522625228E+02 -0.97542144277E+03  0.98583550052E+03  0.12509215133E+03 0.  0.
          5    1    3    3  502    0 -0.25556948978E+02  0.19127252497E+02 -0.10831990442E+03  0.11300302440E+03  0.41800000000E+01 0. -1.
         -5    1    3    3    0  502  0.91552544267E+02 -0.39649877724E+02 -0.86710153835E+03  0.87283247613E+03  0.41800000000E+01 0. -1.
        -11    1    1    2    0    0  0.71599679913E+01  0.10454482305E+02  0.27699515618E+01  0.12970503982E+02  0.00000000000E+00 0.  1.
         11    1    1    2    0    0 -0.73155563280E+02  0.10068142923E+02 -0.25735059018E+03  0.26773574697E+03  0.00000000000E+00 0. -1.
</event>
<event>
 7    1  0.2788485E-009  0.1036685E+03  0.7561462E-02  0.1272765E+00
         -2   -1    0    0    0  501 -0.00000000000E+00  0.00000000000E+00  0.26720130805E+02  0.26720130805E+02  0.00000000000E+00 0.  1.
          2   -1    0    0  501    0  0.00000000000E+00 -0.00000000000E+00 -0.53571738247E+03  0.53571738247E+03  0.00000000000E+00 0. -1.
         25    2    1    2    0    0 -0.25018599735E+02 -0.25876684212E+02 -0.35756818312E+03  0.38052337015E+03  0.12508995375E+03 0.  0.
          5    1    3    3  502    0 -0.10433259595E+02  0.38979605926E+02 -0.43545064502E+02  0.59513928003E+02  0.41800000000E+01 0.  1.
         -5    1    3    3    0  502 -0.14585340139E+02 -0.64856290138E+02 -0.31402311862E+03  0.32100944215E+03  0.41800000000E+01 0.  1.
        -11    1    1    2    0    0  0.57988264244E+02 -0.41950049863E+00 -0.97663017151E+02  0.11358203947E+03  0.00000000000E+00 0. -1.
         11    1    1    2    0    0 -0.32969664509E+02  0.26296184711E+02 -0.53766051384E+02  0.68332103653E+02  0.00000000000E+00 0.  1.
</event>
<event>
 7    1  0.2788485E-009  0.1137035E+03  0.7561462E-02  0.1253861E+00
          1   -1    0    0  501    0  0.00000000000E+00  0.00000000000E+00  0.31990000687E+03  0.31990000687E+03  0.00000000000E+00 0. -1.
         -1   -1    0    0    0  501 -0.00000000000E+00 -0.00000000000E+00 -0.43245612024E+02  0.43245612024E+02  0.00000000000E+00 0.  1.
         25    2    1    2    0    0  0.19153315566E+02  0.26863189191E+02  0.20202413238E+03  0.23989038303E+03  0.12508063550E+03 0.  0.
          5    1    3    3  502    0  0.72422374191E+02  0.94942648275E+01  0.11589508829E+03  0.13705577418E+03  0.41800000000E+01 0. -1.
         -5    1    3    3    0  502 -0.53269058625E+02  0.17368924364E+02  0.86129044093E+02  0.10283460885E+03  0.41800000000E+01 0. -1.
        -11    1    1    2    0    0  0.34737725628E+02  0.55419493348E+01  0.28292401733E+02  0.45142915059E+02  0.00000000000E+00 0.  1.
         11    1    1    2    0    0 -0.53891041194E+02 -0.32405138526E+02  0.46337860731E+02  0.78112320802E+02  0.00000000000E+00 0. -1.
</event>
<event>
 7    1  0.2788485E-009  0.1436282E+03  0.7561462E-02  0.1208529E+00
          1   -1    0    0  501    0  0.00000000000E+00  0.00000000000E+00  0.53523295601E+03  0.53523295601E+03  0.00000000000E+00 0. -1.
         -1   -1    0    0    0  501 -0.00000000000E+00 -0.00000000000E+00 -0.56881418284E+02  0.56881418284E+02  0.00000000000E+00 0.  1.
         25    2    1    2    0    0 -0.72953762722E+02 -0.10337965767E+03  0.33649124624E+03  0.38063545535E+03  0.12508951178E+03 0.  0.
          5    1    3    3  502    0  0.22711031078E+02 -0.30971034594E+02  0.23040530538E+02  0.44981489125E+02  0.41800000000E+01 0.  1.
         -5    1    3    3    0  502 -0.95664793800E+02 -0.72408623076E+02  0.31345071570E+03  0.33565396623E+03  0.41800000000E+01 0.  1.
        -11    1    1    2    0    0  0.54593124462E+02  0.58162403498E+02  0.23046366672E+02  0.83032580570E+02  0.00000000000E+00 0.  1.
         11    1    1    2    0    0  0.18360638260E+02  0.45217254172E+02  0.11881392481E+03  0.12844633837E+03  0.00000000000E+00 0. -1.
</event>
<event>
 7    1  0.2788485E-009  0.1328770E+03  0.7561462E-02  0.1223248E+00
          3   -1    0    0  501    0  0.00000000000E+00  0.00000000000E+00  0.44323352805E+03  0.44323352805E+03  0.00000000000E+00 0. -1.
         -3   -1    0    0    0  501 -0.00000000000E+00 -0.00000000000E+00 -0.63003629219E+02  0.63003629219E+02  0.00000000000E+00 0.  1.
         25    2    1    2    0    0  0.65478846016E+02 -0.75536428447E+02  0.83639414439E+02  0.18065448612E+03  0.12508900994E+03 0.  0.
          5    1    3    3  502    0  0.61781279748E+02 -0.10944362494E+03  0.64631613072E+02  0.14138440994E+03  0.41800000000E+01 0.  1.
         -5    1    3    3    0  502  0.36975662689E+01  0.33907196490E+02  0.19007801366E+02  0.39270076176E+02  0.41800000000E+01 0.  1.
        -11    1    1    2    0    0 -0.18584547009E+02  0.47502933549E+02  0.24562965022E+03  0.25087016393E+03  0.00000000000E+00 0. -1.
         11    1    1    2    0    0 -0.46894299007E+02  0.28033494898E+02  0.50960834174E+02  0.74712507221E+02  0.00000000000E+00 0.  1.
</event>
<event>
 7    1  0.2788485E-009  0.1205125E+03  0.7561462E-02  0.1242254E+00
          2   -1    0    0  501    0  0.00000000000E+00  0.00000000000E+00  0.67743093692E+02  0.67743093692E+02  0.00000000000E+00 0. -1.
         -2   -1    0    0    0  501 -0.00000000000E+00 -0.00000000000E+00 -0.38160869779E+03  0.38160869779E+03  0.00000000000E+00 0.  1.
         25    2    1    2    0    0 -0.26652712621E+02 -0.76117646851E+02 -0.46175223846E+02  0.15583326836E+03  0.12509033926E+03 0.  0.
          5    1    3    3  502    0  0.47506056132E+02 -0.19271073322E+02  0.19463994392E+00  0.51436464895E+02  0.41800000000E+01 0.  1.
         -5    1    3    3    0  502 -0.74158768753E+02 -0.56846573529E+02 -0.46369863789E+02  0.10439680346E+03  0.41800000000E+01 0.  1.
        -11    1    1    2    0    0  0.41101044618E+02  0.40875149102E+02 -0.23873893280E+03  0.24567529733E+03  0.00000000000E+00 0.  1.
         11    1    1    2    0    0 -0.14448331997E+02  0.35242497749E+02 -0.28951447451E+02  0.47843225797E+02  0.00000000000E+00 0. -1.
</event>
<event>
 7    1  0.2788485E-009  0.1028813E+03  0.7561462E-02  0.1274351E+00
         -1   -1    0    0    0  501 -0.00000000000E+00  0.00000000000E+00  0.11435208448E+03  0.11435208448E+03  0.00000000000E+00 0.  1.
          1   -1    0    0  501    0  0.00000000000E+00 -0.00000000000E+00 -0.10915987809E+03  0.10915987809E+03  0.00000000000E+00 0. -1.
         25    2    1    2    0    0 -0.24077178241E+02  0.25491487588E+02  0.56834729131E+01  0.13004020165E+03  0.12509446722E+03 0.  0.
          5    1    3    3  502    0 -0.65914658131E+02 -0.14001142935E+02  0.20359801019E+02  0.70517856303E+02  0.41800000000E+01 0. -1.
         -5    1    3    3    0  502  0.41837479890E+02  0.39492630523E+02 -0.14676328106E+02  0.59522345349E+02  0.41800000000E+01 0. -1.
        -11    1    1    2    0    0  0.50522433503E+01 -0.49597519359E+02 -0.23484402159E+02  0.55108585848E+02  0.00000000000E+00 0. -1.
         11    1    1    2    0    0  0.19024934891E+02  0.24106031771E+02  0.22993135636E+02  0.38363175073E+02  0.00000000000E+00 0.  1.
</event>
<event>
 7    1  0.2788485E-009  0.1213863E+03  0.7561462E-02  0.1240827E+00
          2   -1    0    0  501    0  0.00000000000E+00  0.00000000000E+00  0.54619467519E+02  0.54619467519E+02  0.00000000000E+00 0. -1.
         -2   -1    0    0    0  501 -0.00000000000E+00 -0.00000000000E+00 -0.39458263513E+03  0.39458263513E+03  0.00000000000E+00 0.  1.
         25    2    1    2    0    0 -0.81595090503E+02  0.41114638061E+02 -0.12776752823E+03  0.20079900542E+03  0.12509007574E+03 0.  0.
          5    1    3    3  502    0 -0.45791789213E+02  0.66994430405E+02 -0.13326624506E+03  0.15608493244E+03  0.41800000000E+01 0. -1.
         -5    1    3    3    0  502 -0.35803301289E+02 -0.25879792344E+02  0.54987168258E+01  0.44714072972E+02  0.41800000000E+01 0. -1.
        -11    1    1    2    0    0 -0.12577628467E+02 -0.14675288665E+02 -0.89124164199E+02  0.91195819418E+02  0.00000000000E+00 0.  1.
         11    1    1    2    0    0  0.94172718970E+02 -0.26439349396E+02 -0.12307147518E+03  0.15720727781E+03  0.00000000000E+00 0. -1.
</event>
<event>
 7    1  0.2788485E-009  0.1149291E+03  0.7561462E-02  0.1251705E+00
          2   -1    0    0  501    0  0.00000000000E+00  0.00000000000E+00  0.12687038193E+03  0.12687038193E+03  0.00000000000E+00 0. -1.
         -2   -1    0    0    0  501 -0.00000000000E+00 -0.00000000000E+00 -0.11468451442E+03  0.11468451442E+03  0.00000000000E+00 0.  1.
         25    2    1    2    0    0 -0.41805260072E+02  0.29698224506E+02  0.26979734496E+02  0.13786037866E+03  0.12509162091E+03 0.  0.
          5    1    3    3  502    0  0.44047759297E+02  0.14343714628E+02  0.18780046898E+02  0.50160839406E+02  0.41800000000E+01 0.  1.
         -5    1    3    3    0  502 -0.85853019370E+02  0.15354509878E+02  0.81996875985E+01  0.87699539253E+02  0.41800000000E+01 0.  1.
        -11    1    1    2    0    0  0.49093369101E+02  0.14535606687E+02 -0.26088359240E+02  0.57463425231E+02  0.00000000000E+00 0.  1.
         11    1    1    2    0    0 -0.72881090285E+01 -0.44233831193E+02  0.11294492252E+02  0.46231092464E+02  0.00000000000E+00 0. -1.
</event>
<event>
 7    1  0.2788485E-009  0.1272862E+03  0.7561462E-02  0.1231539E+00
         -2   -1    0    0    0  501 -0.00000000000E+00  0.00000000000E+00  0.21570137305E+02  0.21570137305E+02  0.00000000000E+00 0.  1.
          2   -1    0    0  501    0  0.00000000000E+00 -0.00000000000E+00 -0.10179318312E+04  0.10179318312E+04  0.00000000000E+00 0. -1.
         25    2    1    2    0    0 -0.90434026126E+02  0.37789110507E+01 -0.71767688289E+03  0.73409889958E+03  0.12509393624E+03 0.  0.
          5    1    3    3  502    0 -0.37614570234E+02 -0.49778522969E+02 -0.49695782028E+03  0.50087653646E+03  0.41800000000E+01 0. -1.
         -5    1    3    3    0  502 -0.52819455893E+02  0.53557434020E+02 -0.22071906261E+03  0.23322236312E+03  0.41800000000E+01 0. -1.
        -11    1    1    2    0    0  0.94777838391E+02  0.16291402301E+02 -0.17479518116E+03  0.19950339294E+03  0.00000000000E+00 0.  1.
         11    1    1    2    0    0 -0.43438122644E+01 -0.20070313352E+02 -0.10388962984E+03  0.10589967598E+03  0.00000000000E+00 0. -1.
</event>
<event>
 7    1  0.2788485E-009  0.1503974E+03  0.7561462E-02  0.1199985E+00
         -1   -1    0    0    0  501 -0.00000000000E+00  0.00000000000E+00  0.14585905911E+03  0.14585905911E+03  0.00000000000E+00 0. -1.
          1   -1    0    0  501    0  0.00000000000E+00 -0.00000000000E+00 -0.38555916440E+03  0.38555916440E+03  0.00000000000E+00 0.  1.
         25    2    1    2    0    0  0.11160519268E+03 -0.51376734946E+02  0.67629461740E+02  0.18792804822E+03  0.12509164355E+03 0.  0.
          5    1    3    3  502    0  0.96509814373E+02 -0.31183253374E+01  0.90379207061E+02  0.13232438057E+03  0.41800000000E+01 0.  1.
         -5    1    3    3    0  502  0.15095378309E+02 -0.48258409609E+02 -0.22749745321E+02  0.55603667653E+02  0.41800000000E+01 0.  1.
        -11    1    1    2    0    0 -0.93347476642E+02 -0.56609416049E+01 -0.18690796260E+03  0.20899852664E+03  0.00000000000E+00 0. -1.
         11    1    1    2    0    0 -0.18257716041E+02  0.57037676551E+02 -0.12042160443E+03  0.13449164865E+03  0.00000000000E+00 0.  1.
</event>
<event>
 7    1  0.2788485E-009  0.1250055E+03  0.7561462E-02  0.1235061E+00
         -1   -1    0    0    0  501 -0.00000000000E+00  0.00000000000E+00  0.61152931528E+02  0.61152931528E+02  0.00000000000E+00 0.  1.
          1   -1    0    0  501    0  0.00000000000E+00 -0.00000000000E+00 -0.44278287382E+03  0.44278287382E+03  0.00000000000E+00 0. -1.
         25    2    1    2    0    0 -0.16265179658E+02 -0.89015642468E+02 -0.77494227372E+02  0.17274519981E+03  0.12508880090E+03 0.  0.
          5    1    3    3  502    0  0.23030803045E+02 -0.21429715554E+01 -0.73561731333E+02  0.77225714193E+02  0.41800000000E+01 0.  1.
         -5    1    3    3    0  502 -0.39295982703E+02 -0.86872670912E+02 -0.39324960386E+01  0.95519485620E+02  0.41800000000E+01 0.  1.
        -11    1    1    2    0    0  0.56181367940E+02  0.49008667764E+02 -0.16903278322E+03  0.18474381565E+03  0.00000000000E+00 0.  1.
         11    1    1    2    0    0 -0.39916188282E+02  0.40006974703E+02 -0.13510293170E+03  0.14644678988E+03  0.00000000000E+00 0. -1.
</event>
<event>
 7    1  0.2788485E-009  0.1673530E+03  0.7561462E-02  0.1180637E+00
         -1   -1    0    0    0  501 -0.00000000000E+00  0.00000000000E+00  0.26530652553E+03  0.26530652553E+03  0.00000000000E+00 0.  1.
          1   -1    0    0  501    0  0.00000000000E+00 -0.00000000000E+00 -0.12983602168E+03  0.12983602168E+03  0.00000000000E+00 0. -1.
         25    2    1    2    0    0 -0.20131304034E+02  0.12827595283E+03  0.15229782058E+03  0.23601261755E+03  0.12508932814E+03 0.  0.
          5    1    3    3  502    0  0.48971993590E+02  0.78638975069E+02  0.60212754096E+02  0.11056849783E+03  0.41800000000E+01 0.  1.
         -5    1    3    3    0  502 -0.69103297624E+02  0.49636977756E+02  0.92085066483E+02  0.12544411972E+03  0.41800000000E+01 0.  1.
        -11    1    1    2    0    0 -0.17294715059E+02 -0.11616972091E+03 -0.21882353309E+02  0.11947112041E+03  0.00000000000E+00 0.  1.
         11    1    1    2    0    0  0.37426019093E+02 -0.12106231915E+02  0.50550365847E+01  0.39658809251E+02  0.00000000000E+00 0. -1.
</event>
<event>
 7    1  0.2788485E-009  0.8824215E+02  0.7561462E-02  0.1307165E+00
          2   -1    0    0  501    0  0.00000000000E+00  0.00000000000E+00  0.65901749244E+03  0.65901749244E+03  0.00000000000E+00 0. -1.
         -2   -1    0    0    0  501 -0.00000000000E+00 -0.00000000000E+00 -0.28321055905E+02  0.28321055905E+02  0.00000000000E+00 0.  1.
         25    2    1    2    0    0 -0.14191510298E+02 -0.35172042827E+02  0.49279422646E+03  0.50983597179E+03  0.12509235367E+03 0.  0.
          5    1    3    3  502    0 -0.38532855657E+02 -0.37686367829E+02  0.81538888270E+02  0.97832029446E+02  0.41800000000E+01 0. -1.
         -5    1    3    3    0  502  0.24341345359E+02  0.25143250026E+01  0.41125533819E+03  0.41200394235E+03  0.41800000000E+01 0. -1.
        -11    1    1    2    0    0  0.31443257443E+02  0.59780504032E+02  0.48418045530E+02  0.83106523414E+02  0.00000000000E+00 0.  1.
         11    1    1    2    0    0 -0.17251747145E+02 -0.24608461206E+02  0.89484164545E+02  0.94396053131E+02  0.00000000000E+00 0. -1.
</event>
<event>
 7    1  0.2788485E-009  0.1084318E+03  0.7561462E-02  0.1263502E+00
          2   -1    0    0  501    0  0.00000000000E+00  0.00000000000E+00  0.17522720610E+03  0.17522720610E+03  0.00000000000E+00 0. -1.
         -2   -1    0    0    0  501 -0.00000000000E+00 -0.00000000000E+00 -0.87054067304E+02  0.87054067304E+02  0.00000000000E+00 0.  1.
         25    2    1    2    0    0 -0.44518364608E+02  0.36169968512E+02  0.39769356175E+02  0.14325147143E+03  0.12509688631E+03 0.  0.
          5    1    3    3  502    0  0.94936302969E+01 -0.29034841439E+02  0.49088293953E+02  0.57967956983E+02  0.41800000000E+01 0.  1.
         -5    1    3    3    0  502 -0.54011994905E+02  0.65204809950E+02 -0.93189377785E+01  0.85283514442E+02  0.41800000000E+01 0.  1.
        -11    1    1    2    0    0  0.46894180088E+02 -0.60649312619E+02  0.54042120193E+02  0.93797409358E+02  0.00000000000E+00 0.  1.
         11    1    1    2    0    0 -0.23758154800E+01  0.24479344107E+02 -0.56383375676E+01  0.25232392626E+02  0.00000000000E+00 0. -1.
</event>
<event>
 7    1  0.2788485E-009  0.1117664E+03  0.7561462E-02  0.1257333E+00
         -1   -1    0    0    0  501 -0.00000000000E+00  0.00000000000E+00  0.38344078847E+02  0.38344078847E+02  0.00000000000E+00 0.  1.
          1   -1    0    0  501    0  0.00000000000E+00 -0.00000000000E+00 -0.37154436842E+03  0.37154436842E+03  0.00000000000E+00 0. -1.
         25    2    1    2    0    0  0.10059291666E+02  0.42112722856E+02 -0.23100623144E+03  0.26624728211E+03  0.12509622493E+03 0.  0.
          5    1    3    3  502    0  0.12464009258E+01 -0.44739755225E+02 -0.81016606614E+02  0.92651833010E+02  0.41800000000E+01 0. -1.
         -5    1    3    3    0  502  0.88128907405E+01  0.86852478081E+02 -0.14998962483E+03  0.17359544910E+03  0.41800000000E+01 0. -1.
        -11    1    1    2    0    0 -0.25213577614E+02 -0.61562620555E+02 -0.42209080030E+02  0.78786338808E+02  0.00000000000E+00 0.  1.
         11    1    1    2    0    0  0.15154285948E+02  0.19449897699E+02 -0.59984978103E+02  0.64854826352E+02  0.00000000000E+00 0. -1.
</event>
<event>
 7    1  0.2788485E-009  0.1135707E+03  0.7561462E-02  0.1254097E+00
         -2   -1    0    0    0  501 -0.00000000000E+00  0.00000000000E+00  0.15724738308E+02  0.15724738308E+02  0.00000000000E+00 0. -1.
          2   -1    0    0  501    0  0.00000000000E+00 -0.00000000000E+00 -0.10211523888E+04  0.10211523888E+04  0.00000000000E+00 0.  1.
         25    2    1    2    0    0 -0.64693870771E+02 -0.63501026517E+01 -0.55372687219E+03  0.57138617272E+03  0.12507233373E+03 0.  0.
          5    1    3    3  502    0 -0.41853383793E+02 -0.57633667508E+02 -0.18314150398E+03  0.19654930233E+03  0.41800000000E+01 0.  1.
         -5    1    3    3    0  502 -0.22840486978E+02  0.51283564856E+02 -0.37058536821E+03  0.37483687039E+03  0.41800000000E+01 0.  1.
        -11    1    1    2    0    0  0.61527715542E+02  0.34923168209E+02 -0.40112042889E+03  0.40731177976E+03  0.00000000000E+00 0.  1.
         11    1    1    2    0    0  0.31661552294E+01 -0.28573065557E+02 -0.50580349395E+02  0.58179174618E+02  0.00000000000E+00 0. -1.
</event>
<event>
 7    1  0.2788485E-009  0.8575599E+02  0.7561462E-02  0.1313467E+00
          1   -1    0    0  501    0  0.00000000000E+00  0.00000000000E+00  0.36971580701E+03  0.36971580701E+03  0.00000000000E+00 0. -1.
         -1   -1    0    0    0  501 -0.00000000000E+00 -0.00000000000E+00 -0.41520010934E+02  0.41520010934E+02  0.00000000000E+00 0.  1.
         25    2    1    2    0    0  0.20744400785E+02 -0.44554055922E+01  0.27701492468E+03  0.30468754309E+03  0.12508816736E+03 0.  0.
          5    1    3    3  502    0  0.40737651352E+02 -0.30881884009E+02  0.39242985417E+02  0.64581199293E+02  0.41800000000E+01 0. -1.
         -5    1    3    3    0  502 -0.19993250567E+02  0.26426478417E+02  0.23777193927E+03  0.24010634380E+03  0.41800000000E+01 0. -1.
        -11    1    1    2    0    0 -0.17693741723E+01 -0.39189876580E+02  0.38345011335E+01  0.39416754182E+02  0.00000000000E+00 0.  1.
         11    1    1    2    0    0 -0.18975026613E+02  0.43645282172E+02  0.47346370258E+02  0.67131520669E+02  0.00000000000E+00 0. -1.
</event>
<event>
 7    1  0.2788485E-009  0.9701992E+02  0.7561462E-02  0.1286690E+00
          1   -1    0    0  501    0  0.00000000000E+00  0.00000000000E+00  0.16472617904E+03  0.16472617904E+03  0.00000000000E+00 0. -1.
         -1   -1    0    0    0  501 -0.00000000000E+00 -0.00000000000E+00 -0.86647756837E+02  0.86647756837E+02  0.00000000000E+00 0.  1.
         25    2    1    2    0    0  0.41179149595E+02  0.26796209053E+02  0.31844743605E+02  0.13811218412E+03  0.12508848279E+03 0.  0.
          5    1    3    3  502    0  0.37797440100E+01  0.61933014772E+02  0.53713789107E+02  0.82174377538E+02  0.41800000000E+01 0.  1.
         -5    1    3    3    0  502  0.37399405585E+02 -0.35136805719E+02 -0.21869045502E+02  0.55937806584E+02  0.41800000000E+01 0.  1.
        -11    1    1    2    0    0 -0.48156676284E+02  0.44383427499E+01  0.61141627660E+02  0.77955519304E+02  0.00000000000E+00 0. -1.
         11    1    1    2    0    0  0.69775266889E+01 -0.31234551803E+02 -0.14907949059E+02  0.35306232455E+02  0.00000000000E+00 0.  1.
</event>
<event>
 7    1  0.2788485E-009  0.1237213E+03  0.7561462E-02  0.1237081E+00
          1   -1    0    0  501    0  0.00000000000E+00  0.00000000000E+00  0.17708045123E+03  0.17708045123E+03  0.00000000000E+00 0. -1.
         -1   -1    0    0    0  501 -0.00000000000E+00 -0.00000000000E+00 -0.14307515994E+03  0.14307515994E+03  0.00000000000E+00 0.  1.
         25    2    1    2    0    0  0.11024780748E+03 -0.32601411306E+02  0.63216155578E+01  0.17001217905E+03  0.12508695828E+03 0.  0.
          5    1    3    3  502    0  0.66753700410E+02  0.66171130596E+01 -0.53714502701E+02  0.86038147958E+02  0.41800000000E+01 0.  1.
         -5    1    3    3    0  502  0.43494107067E+02 -0.39218524366E+02  0.60036118259E+02  0.83974031096E+02  0.41800000000E+01 0.  1.
        -11    1    1    2    0    0 -0.68272079240E+02  0.39655895122E+02 -0.24625453434E+02  0.82704774823E+02  0.00000000000E+00 0.  1.
         11    1    1    2    0    0 -0.41975728238E+02 -0.70544838162E+01  0.52309129166E+02  0.67438657290E+02  0.00000000000E+00 0. -1.
</event>
<event>
 7    1  0.2788485E-009  0.1366767E+03  0.7561462E-02  0.1217872E+00
          1   -1    0    0  501    0  0.00000000000E+00  0.00000000000E+00  0.18606395209E+03  0.18606395209E+03  0.00000000000E+00 0. -1.
         -1   -1    0    0    0  501 -0.00000000000E+00 -0.00000000000E+00 -0.11461481042E+03  0.11461481042E+03  0.00000000000E+00 0.  1.
         25    2    1    2    0    0 -0.78751652402E+02  0.37294611505E+02  0.83582527370E+02  0.17385341087E+03  0.12508500624E+03 0.  0.
          5    1    3    3  502    0  0.21079672922E+02 -0.23605221038E+02  0.34379082582E+02  0.46914313273E+02  0.41800000000E+01 0. -1.
         -5    1    3    3    0  502 -0.99831325325E+02  0.60899832543E+02  0.49203444789E+02  0.12693909760E+03  0.41800000000E+01 0. -1.
        -11    1    1    2    0    0 -0.70577446344E+01  0.20018791551E+02  0.59920569747E+01  0.22056031404E+02  0.00000000000E+00 0. -1.
         11    1    1    2    0    0  0.85809397036E+02 -0.57313403056E+02 -0.18125442673E+02  0.10476932023E+03  0.00000000000E+00 0.  1.
</event>
<event>
 7    1  0.2788485E-009  0.1077813E+03  0.7561462E-02  0.1264735E+00
          1   -1    0    0  501    0  0.00000000000E+00  0.00000000000E+00  0.20822680498E+02  0.20822680498E+02  0.00000000000E+00 0. -1.
         -1   -1    0    0    0  501 -0.00000000000E+00 -0.00000000000E+00 -0.60375236581E+03  0.60375236581E+03  0.00000000000E+00 0.  1.
         25    2    1    2    0    0 -0.20621803176E+02  0.17709932992E+02 -0.37313604511E+03  0.39448352420E+03  0.12509133546E+03 0.  0.
          5    1    3    3  502    0  0.42598571217E+02  0.35386120754E+02 -0.23517940436E+03  0.24164776110E+03  0.41800000000E+01 0. -1.
         -5    1    3    3    0  502 -0.63220374393E+02 -0.17676187762E+02 -0.13795664075E+03  0.15283576309E+03  0.41800000000E+01 0. -1.
        -11    1    1    2    0    0 -0.20901464593E+02 -0.41447050063E+02 -0.95078548731E+02  0.10580481846E+03  0.00000000000E+00 0.  1.
         11    1    1    2    0    0  0.41523267769E+02  0.23737117071E+02 -0.11471509146E+03  0.12428670364E+03  0.00000000000E+00 0. -1.
</event>
<event>
 7    1  0.2788485E-009  0.3638836E+03  0.7561462E-02  0.1057057E+00
          2   -1    0    0  501    0  0.00000000000E+00  0.00000000000E+00  0.33635133243E+03  0.33635133243E+03  0.00000000000E+00 0.  1.
         -2   -1    0    0    0  501 -0.00000000000E+00 -0.00000000000E+00 -0.40898353759E+03  0.40898353759E+03  0.00000000000E+00 0. -1.
         25    2    1    2    0    0  0.18474373487E+03 -0.30239437595E+03 -0.44029744307E+02  0.37836224569E+03  0.12508702731E+03 0.  0.
          5    1    3    3  502    0  0.10542384379E+03 -0.25538304508E+03 -0.64664137267E+02  0.28378444215E+03  0.41800000000E+01 0.  1.
         -5    1    3    3    0  502  0.79319891079E+02 -0.47011330870E+02  0.20634392960E+02  0.94577803547E+02  0.41800000000E+01 0.  1.
        -11    1    1    2    0    0 -0.51061232027E+02  0.13871954846E+03 -0.46306635125E+02  0.15490212070E+03  0.00000000000E+00 0. -1.
         11    1    1    2    0    0 -0.13368250284E+03  0.16367482749E+03  0.17704174279E+02  0.21207050362E+03  0.00000000000E+00 0.  1.
</event>
<event>
 7    1  0.2788485E-009  0.1062914E+03  0.7561462E-02  0.1267596E+00
         -2   -1    0    0    0  501 -0.00000000000E+00  0.00000000000E+00  0.46158603215E+02  0.46158603215E+02  0.00000000000E+00 0.  1.
          2   -1    0    0  501    0  0.00000000000E+00 -0.00000000000E+00 -0.44828660335E+03  0.44828660335E+03  0.00000000000E+00 0. -1.
         25    2    1    2    0    0  0.41840751558E+02 -0.23558525909E+02 -0.79022746036E+02  0.15555851457E+03  0.12509278328E+03 0.  0.
          5    1    3    3  502    0  0.14718711601E+00 -0.58859506869E+02  0.47356694754E+00  0.59009828661E+02  0.41800000000E+01 0.  1.
         -5    1    3    3    0  502  0.41693564442E+02  0.35300980960E+02 -0.79496312984E+02  0.96548685908E+02  0.41800000000E+01 0.  1.
        -11    1    1    2    0    0 -0.25478444869E+02  0.56513363484E+02 -0.15787891374E+03  0.16961327427E+03  0.00000000000E+00 0.  1.
         11    1    1    2    0    0 -0.16362306689E+02 -0.32954837575E+02 -0.16522634036E+03  0.16927341773E+03  0.00000000000E+00 0. -1.
</event>
<event>
 7    1  0.2788485E-009  0.7116137E+02  0.7561462E-02  0.1356188E+00
          4   -1    0    0  501    0  0.00000000000E+00  0.00000000000E+00  0.19149650443E+02  0.19149650443E+02  0.00000000000E+00 0. -1.
         -4   -1    0    0    0  501 -0.00000000000E+00 -0.00000000000E+00 -0.62357394376E+03  0.62357394376E+03  0.00000000000E+00 0.  1.
         25    2    1    2    0    0  0.27152239938E+01 -0.11946049065E+02 -0.33012355660E+03  0.35324145470E+03  0.12509149517E+03 0.  0.
          5    1    3    3  502    0  0.88258282000E+01  0.17305297115E+02 -0.32114650955E+03  0.32176065879E+03  0.41800000000E+01 0.  1.
         -5    1    3    3    0  502 -0.61106042062E+01 -0.29251346179E+02 -0.89770470546E+01  0.31480795906E+02  0.41800000000E+01 0.  1.
        -11    1    1    2    0    0 -0.42877897367E+02  0.25503380034E+02 -0.15855007292E+03  0.16621390465E+03  0.00000000000E+00 0. -1.
         11    1    1    2    0    0  0.40162673373E+02 -0.13557330969E+02 -0.11575066379E+03  0.12326823486E+03  0.00000000000E+00 0.  1.
</event>
<event>
 7    1  0.2788485E-009  0.1483112E+03  0.7561462E-02  0.1202564E+00
          2   -1    0    0  501    0  0.00000000000E+00  0.00000000000E+00  0.20958511499E+03  0.20958511499E+03  0.00000000000E+00 0. -1.
         -2   -1    0    0    0  501 -0.00000000000E+00 -0.00000000000E+00 -0.15411918600E+03  0.15411918600E+03  0.00000000000E+00 0.  1.
         25    2    1    2    0    0 -0.10419507484E+03 -0.92945178492E+02 -0.28036393489E+01  0.18748592804E+03  0.12509073903E+03 0.  0.
          5    1    3    3  502    0 -0.44719697075E+01 -0.40799036477E+02 -0.50483092635E+02  0.65196433434E+02  0.41800000000E+01 0. -1.
         -5    1    3    3    0  502 -0.99723105135E+02 -0.52146142015E+02  0.47679453286E+02  0.12228949460E+03  0.41800000000E+01 0. -1.
        -11    1    1    2    0    0  0.66495700774E+01  0.19641159179E+02 -0.21946696893E+02  0.30193532761E+02  0.00000000000E+00 0.  1.
         11    1    1    2    0    0  0.97545504765E+02  0.73304019313E+02  0.80216265226E+02  0.14602484020E+03  0.00000000000E+00 0. -1.
</event>
<event>
 7    1  0.2788485E-009  0.1103565E+03  0.7561462E-02  0.1259911E+00
          1   -1    0    0  501    0  0.00000000000E+00  0.00000000000E+00  0.56002061416E+03  0.56002061416E+03  0.00000000000E+00 0. -1.
         -1   -1    0    0    0  501 -0.00000000000E+00 -0.00000000000E+00 -0.32526739542E+02  0.32526739542E+02  0.00000000000E+00 0.  1.
         25    2    1    2    0    0 -0.72968529043E+02  0.30507489132E+02  0.32295239766E+03  0.35525160508E+03  0.12510131349E+03 0.  0.
          5    1    3    3  502    0 -0.25997287773E+02 -0.20349455584E+02  0.10061055161E+02  0.34765738092E+02  0.41800000000E+01 0. -1.
         -5    1    3    3    0  502 -0.46971241269E+02  0.50856944716E+02  0.31289134249E+03  0.32048586699E+03  0.41800000000E+01 0. -1.
        -11    1    1    2    0    0  0.93344281723E+02 -0.28534069412E+02  0.18404980388E+03  0.20833069471E+03  0.00000000000E+00 0. -1.
         11    1    1    2    0    0 -0.20375752680E+02 -0.19734197202E+01  0.20491673082E+02  0.28965053916E+02  0.00000000000E+00 0.  1.
</event>
<event>
 7    1  0.2788485E-009  0.9484961E+02  0.7561462E-02  0.1291515E+00
         -1   -1    0    0    0  501 -0.00000000000E+00  0.00000000000E+00  0.90765453075E+02  0.90765453075E+02  0.00000000000E+00 0.  1.
          1   -1    0    0  501    0  0.00000000000E+00 -0.00000000000E+00 -0.18230884041E+03  0.18230884041E+03  0.00000000000E+00 0. -1.
         25    2    1    2    0    0 -0.16086477721E+02 -0.64455288546E+02 -0.29584306429E+02  0.14469134877E+03  0.12508835372E+03 0.  0.
          5    1    3    3  502    0  0.27496825132E+02 -0.27864820766E+02 -0.66107924524E+02  0.76943184972E+02  0.41800000000E+01 0.  1.
         -5    1    3    3    0  502 -0.43583302854E+02 -0.36590467779E+02  0.36523618095E+02  0.67748163803E+02  0.41800000000E+01 0.  1.
        -11    1    1    2    0    0 -0.17857205587E+02 -0.26642499569E+01  0.12958125365E+02  0.22223659289E+02  0.00000000000E+00 0.  1.
         11    1    1    2    0    0  0.33943683309E+02  0.67119538503E+02 -0.74917206272E+02  0.10615928542E+03  0.00000000000E+00 0. -1.
</event>
<event>
 7    1  0.2788485E-009  0.1878590E+03  0.7561462E-02  0.1160407E+00
         -1   -1    0    0    0  501 -0.00000000000E+00  0.00000000000E+00  0.31308944831E+03  0.31308944831E+03  0.00000000000E+00 0.  1.
          1   -1    0    0  501    0  0.00000000000E+00 -0.00000000000E+00 -0.12492796937E+03  0.12492796937E+03  0.00000000000E+00 0. -1.
         25    2    1    2    0    0  0.15944529505E+03 -0.40802140917E+02  0.78300419442E+02  0.22105438076E+03  0.12508583753E+03 0.  0.
          5    1    3    3  502    0  0.76733663240E+02  0.43637647883E+02  0.36439397641E+02  0.95590802316E+02  0.41800000000E+01 0.  1.
         -5    1    3    3    0  502  0.82711631809E+02 -0.84439788800E+02  0.41861021801E+02  0.12546357844E+03  0.41800000000E+01 0.  1.
        -11    1    1    2    0    0 -0.64489611524E+02 -0.28707987017E+01  0.89708458164E+02  0.11052040059E+03  0.00000000000E+00 0.  1.
         11    1    1    2    0    0 -0.94955683526E+02  0.43672939619E+02  0.20152601333E+02  0.10644263633E+03  0.00000000000E+00 0. -1.
</event>
<event>
 7    1  0.2788485E-009  0.6596396E+02  0.7561462E-02  0.1374382E+00
          2   -1    0    0  501    0  0.00000000000E+00  0.00000000000E+00  0.54875124867E+03  0.54875124867E+03  0.00000000000E+00 0. -1.
         -2   -1    0    0    0  501 -0.00000000000E+00 -0.00000000000E+00 -0.33449668604E+02  0.33449668604E+02  0.00000000000E+00 0.  1.
         25    2    1    2    0    0 -0.19036774401E+01 -0.38968934692E+02  0.39272927600E+03  0.41400984036E+03  0.12508261999E+03 0.  0.
          5    1    3    3  502    0  0.21519991149E+02 -0.33044906575E+02  0.38674146781E+03  0.38876922614E+03  0.41800000000E+01 0. -1.
         -5    1    3    3    0  502 -0.23423668590E+02 -0.59240281168E+01  0.59878081983E+01  0.25240614223E+02  0.41800000000E+01 0. -1.
        -11    1    1    2    0    0 -0.14962653201E+02 -0.86165445340E+01 -0.14227276298E+02  0.22372778580E+02  0.00000000000E+00 0.  1.
         11    1    1    2    0    0  0.16866330641E+02  0.47585479226E+02  0.13679958036E+03  0.14581829833E+03  0.00000000000E+00 0. -1.
</event>
<event>
 7    1  0.2788485E-009  0.1603726E+03  0.7561462E-02  0.1188277E+00
         -2   -1    0    0    0  501 -0.00000000000E+00  0.00000000000E+00  0.13136967223E+03  0.13136967223E+03  0.00000000000E+00 0.  1.
          2   -1    0    0  501    0  0.00000000000E+00 -0.00000000000E+00 -0.22168970816E+03  0.22168970816E+03  0.00000000000E+00 0. -1.
         25    2    1    2    0    0 -0.12883251582E+03  0.11151291656E+01 -0.23058468770E+02  0.18104631401E+03  0.12508802576E+03 0.  0.
          5    1    3    3  502    0 -0.12390724665E+03  0.37615872546E+02 -0.45966116814E+02  0.13747114582E+03  0.41800000000E+01 0.  1.
         -5    1    3    3    0  502 -0.49252691769E+01 -0.36500743381E+02  0.22907648043E+02  0.43575168189E+02  0.41800000000E+01 0.  1.
        -11    1    1    2    0    0  0.13524637891E+03 -0.17640802209E+02 -0.45145220955E+02  0.14366931435E+03  0.00000000000E+00 0.  1.
         11    1    1    2    0    0 -0.64138630846E+01  0.16525673044E+02 -0.22116346214E+02  0.28343752029E+02  0.00000000000E+00 0. -1.
</event>
<event>
 7    1  0.2788485E-009  0.9564948E+02  0.7561462E-02  0.1289720E+00
          1   -1    0    0  501    0  0.00000000000E+00  0.00000000000E+00  0.26018807457E+03  0.26018807457E+03  0.00000000000E+00 0. -1.
         -1   -1    0    0    0  501 -0.00000000000E+00 -0.00000000000E+00 -0.48027815149E+02  0.48027815149E+02  0.00000000000E+00 0.  1.
         25    2    1    2    0    0 -0.12224285436E+02  0.20536705537E+02  0.14325898366E+03  0.19168243229E+03  0.12509128275E+03 0.  0.
          5    1    3    3  502    0 -0.22108187536E+02 -0.34590223236E+02  0.12652023800E+03  0.13307929412E+03  0.41800000000E+01 0.  1.
         -5    1    3    3    0  502  0.98839021009E+01  0.55126928773E+02  0.16738745660E+02  0.58603138167E+02  0.41800000000E+01 0.  1.
        -11    1    1    2    0    0  0.42598099965E+02 -0.39476981428E+02  0.45336521897E+02  0.73677882712E+02  0.00000000000E+00 0.  1.
         11    1    1    2    0    0 -0.30373814530E+02  0.18940275890E+02  0.23564753862E+02  0.42855574719E+02  0.00000000000E+00 0. -1.
</event>
<event>
 7    1  0.2788485E-009  0.1111978E+03  0.7561462E-02  0.1258368E+00
         -2   -1    0    0    0  501 -0.00000000000E+00  0.00000000000E+00  0.12835357228E+03  0.12835357228E+03  0.00000000000E+00 0.  1.
          2   -1    0    0  501    0  0.00000000000E+00 -0.00000000000E+00 -0.12539630047E+03  0.12539630047E+03  0.00000000000E+00 0. -1.
         25    2    1    2    0    0  0.56098267737E+02  0.27271584961E+02 -0.86786495546E+01  0.14004544342E+03  0.12508657912E+03 0.  0.
          5    1    3    3  502    0  0.39249836791E+02  0.72068619672E+02 -0.30011632958E+02  0.87479175479E+02  0.41800000000E+01 0.  1.
         -5    1    3    3    0  502  0.16848430946E+02 -0.44797034711E+02  0.21332983404E+02  0.52566267940E+02  0.41800000000E+01 0.  1.
        -11    1    1    2    0    0 -0.66221916926E+02 -0.34644125575E+01 -0.23252348564E+02  0.70271019272E+02  0.00000000000E+00 0. -1.
         11    1    1    2    0    0  0.10123649190E+02 -0.23807172404E+02  0.34888269929E+02  0.43433410060E+02  0.00000000000E+00 0.  1.
</event>
<event>
 7    1  0.2788485E-009  0.9888733E+02  0.7561462E-02  0.1282653E+00
         -1   -1    0    0    0  501 -0.00000000000E+00  0.00000000000E+00  0.12440872663E+03  0.12440872663E+03  0.00000000000E+00 0.  1.
          1   -1    0    0  501    0  0.00000000000E+00 -0.00000000000E+00 -0.37888529757E+03  0.37888529757E+03  0.00000000000E+00 0. -1.
         25    2    1    2    0    0  0.53842714978E+02  0.35551885319E+02 -0.33758011748E+03  0.36574681884E+03  0.12508966892E+03 0.  0.
          5    1    3    3  502    0 -0.12221066806E+02  0.27031369370E+02 -0.26674489742E+03  0.26842198513E+03  0.41800000000E+01 0.  1.
         -5    1    3    3    0  502  0.66063781784E+02  0.85205159491E+01 -0.70835220062E+02  0.97324833711E+02  0.41800000000E+01 0.  1.
        -11    1    1    2    0    0  0.20384874938E+02 -0.73504399021E+01  0.43977752540E+02  0.49026674489E+02  0.00000000000E+00 0.  1.
         11    1    1    2    0    0 -0.74227589916E+02 -0.28201445417E+02  0.39125793998E+02  0.88520530864E+02  0.00000000000E+00 0. -1.
</event>
<event>
 7    1  0.2788485E-009  0.1129706E+03  0.7561462E-02  0.1255166E+00
          1   -1    0    0  501    0  0.00000000000E+00  0.00000000000E+00  0.11845581847E+04  0.11845581847E+04  0.00000000000E+00 0. -1.
         -1   -1    0    0    0  501 -0.00000000000E+00 -0.00000000000E+00 -0.11674176652E+02  0.11674176652E+02  0.00000000000E+00 0.  1.
         25    2    1    2    0    0  0.35295858873E+02 -0.12577889062E+02  0.79690987200E+03  0.80753715048E+03  0.12508758675E+03 0.  0.
          5    1    3    3  502    0  0.64868012209E+02  0.35429281240E+02  0.45656188937E+03  0.46252494441E+03  0.41800000000E+01 0.  1.
         -5    1    3    3    0  502 -0.29572153336E+02 -0.48007170302E+02  0.34034798263E+03  0.34501220606E+03  0.41800000000E+01 0.  1.
        -11    1    1    2    0    0  0.26340033651E+02 -0.12090198248E+02  0.16487042230E+03  0.16739840625E+03  0.00000000000E+00 0.  1.
         11    1    1    2    0    0 -0.61635892525E+02  0.24668087311E+02  0.21110371377E+03  0.22129680464E+03  0.00000000000E+00 0. -1.
</event>
<event>
 7    1  0.3417755E-009  0.1103247E+03  0.7561462E-02  0.1259970E+00
         -2   -1    0    0    0  501 -0.00000000000E+00  0.00000000000E+00  0.61253586976E+02  0.61253586976E+02  0.00000000000E+00 0.  1.
          2   -1    0    0  501    0  0.00000000000E+00 -0.00000000000E+00 -0.28645529218E+03  0.28645529218E+03  0.00000000000E+00 0. -1.
         25    2    1    2    0    0  0.60096057537E+02  0.42031503742E+02 -0.98459889142E+02  0.17526995415E+03  0.12508806346E+03 0.  0.
          5    1    3    3  502    0  0.73019999849E+02 -0.20915762471E+02 -0.31399154055E+02  0.82296833311E+02  0.41800000000E+01 0.  1.
         -5    1    3    3    0  502 -0.12923942312E+02  0.62947266213E+02 -0.67060735087E+02  0.92973120842E+02  0.41800000000E+01 0.  1.
        -11    1    1    2    0    0 -0.41754094359E+02 -0.45237602681E+02 -0.20961834655E+02  0.65032634917E+02  0.00000000000E+00 0.  1.
         11    1    1    2    0    0 -0.18341963178E+02  0.32060989390E+01 -0.10577998141E+03  0.10740629009E+03  0.00000000000E+00 0. -1.
</event>
<event>
 7    1  0.2788485E-009  0.9201702E+02  0.7561462E-02  0.1298039E+00
         -3   -1    0    0    0  501 -0.00000000000E+00  0.00000000000E+00  0.44592846551E+02  0.44592846551E+02  0.00000000000E+00 0.  1.
          3   -1    0    0  501    0  0.00000000000E+00 -0.00000000000E+00 -0.28488396651E+03  0.28488396651E+03  0.00000000000E+00 0. -1.
         25    2    1    2    0    0 -0.15813503206E+02  0.26739656066E+02 -0.15125471827E+03  0.19872714178E+03  0.12509760585E+03 0.  0.
          5    1    3    3  502    0 -0.57290877287E+02 -0.38870239881E+01 -0.13114629246E+03  0.14322770682E+03  0.41800000000E+01 0. -1.
         -5    1    3    3    0  502  0.41477374081E+02  0.30626680054E+02 -0.20108425814E+02  0.55499434957E+02  0.41800000000E+01 0. -1.
        -11    1    1    2    0    0  0.38254164863E+01 -0.49159080350E+02 -0.13606553163E+02  0.51150633243E+02  0.00000000000E+00 0.  1.
         11    1    1    2    0    0  0.11988086720E+02  0.22419424284E+02 -0.75429848525E+02  0.79599038040E+02  0.00000000000E+00 0. -1.
</event>
<event>
 7    1  0.2788485E-009  0.9546360E+02  0.7561462E-02  0.1290135E+00
         -1   -1    0    0    0  501 -0.00000000000E+00  0.00000000000E+00  0.21393297250E+03  0.21393297250E+03  0.00000000000E+00 0.  1.
          1   -1    0    0  501    0  0.00000000000E+00 -0.00000000000E+00 -0.80944553773E+02  0.80944553773E+02  0.00000000000E+00 0. -1.
         25    2    1    2    0    0  0.34039033387E+01  0.19315272197E+02 -0.67971131199E+01  0.12679364589E+03  0.12508301880E+03 0.  0.
          5    1    3    3  502    0 -0.56907206164E+02 -0.82122941733E+01  0.94245185144E+01  0.58413746997E+02  0.41800000000E+01 0. -1.
         -5    1    3    3    0  502  0.60311109503E+02  0.27527566370E+02 -0.16221631634E+02  0.68379898893E+02  0.41800000000E+01 0. -1.
        -11    1    1    2    0    0  0.30296522623E+02 -0.94495341117E+01  0.12669346769E+03  0.13060783948E+03  0.00000000000E+00 0.  1.
         11    1    1    2    0    0 -0.33700425962E+02 -0.98657380855E+01  0.13092064156E+02  0.37476040904E+02  0.00000000000E+00 0. -1.
</event>
<event>
 7    1  0.2788485E-009  0.1169005E+03  0.7561462E-02  0.1248300E+00
         -2   -1    0    0    0  501 -0.00000000000E+00  0.00000000000E+00  0.19567954614E+02  0.19567954614E+02  0.00000000000E+00 0.  1.
          2   -1    0    0  501    0  0.00000000000E+00 -0.00000000000E+00 -0.11423343178E+04  0.11423343178E+04  0.00000000000E+00 0. -1.
         25    2    1    2    0    0  0.58024624985E+02  0.52770382204E+02 -0.88410185576E+03  0.89634485840E+03  0.12508574452E+03 0.  0.
          5    1    3    3  502    0 -0.16028201370E+02  0.55939894026E+02 -0.59537329893E+03  0.59822488452E+03  0.41800000000E+01 0. -1.
         -5    1    3    3    0  502  0.74052826355E+02 -0.31695118223E+01 -0.28872855683E+03  0.29811997388E+03  0.41800000000E+01 0. -1.
        -11    1    1    2    0    0  0.78813810080E+01 -0.30735283917E+02 -0.14778917702E+03  0.15115692074E+03  0.00000000000E+00 0. -1.
         11    1    1    2    0    0 -0.65906005993E+02 -0.22035098287E+02 -0.90875330372E+02  0.11440049324E+03  0.00000000000E+00 0.  1.
</event>
<event>
 7    1  0.2788485E-009  0.7829895E+02  0.7561462E-02  0.1333949E+00
          1   -1    0    0  501    0  0.00000000000E+00  0.00000000000E+00  0.85311605353E+02  0.85311605353E+02  0.00000000000E+00 0. -1.
         -1   -1    0    0    0  501 -0.00000000000E+00 -0.00000000000E+00 -0.14899949107E+03  0.14899949107E+03  0.00000000000E+00 0.  1.
         25    2    1    2    0    0 -0.50177356910E+01  0.13614008637E+02 -0.90473685373E+01  0.12625377011E+03  0.12509052997E+03 0.  0.
          5    1    3    3  502    0 -0.46097860929E+02 -0.11155434032E+02 -0.45502363322E+02  0.65858894301E+02  0.41800000000E+01 0. -1.
         -5    1    3    3    0  502  0.41080125238E+02  0.24769442669E+02  0.36454994785E+02  0.60394875813E+02  0.41800000000E+01 0. -1.
        -11    1    1    2    0    0  0.31878306179E+02 -0.32506790391E+01  0.12972450470E+02  0.34569897169E+02  0.00000000000E+00 0. -1.
         11    1    1    2    0    0 -0.26860570488E+02 -0.10363329598E+02 -0.67612967650E+02  0.73487429141E+02  0.00000000000E+00 0.  1.
</event>
<event>
 7    1  0.2788485E-009  0.1193318E+03  0.7561462E-02  0.1244203E+00
          1   -1    0    0  501    0  0.00000000000E+00  0.00000000000E+00  0.12449342889E+03  0.12449342889E+03  0.00000000000E+00 0. -1.
         -1   -1    0    0    0  501 -0.00000000000E+00 -0.00000000000E+00 -0.19776079592E+03  0.19776079592E+03  0.00000000000E+00 0.  1.
         25    2    1    2    0    0 -0.49469209443E+02 -0.67208091721E+02 -0.11274472783E+03  0.18794720362E+03  0.12509455391E+03 0.  0.
          5    1    3    3  502    0 -0.59908803018E+01 -0.96161784014E+02 -0.85508744992E+02  0.12888831298E+03  0.41800000000E+01 0.  1.
         -5    1    3    3    0  502 -0.43478329142E+02  0.28953692293E+02 -0.27235982840E+02  0.59058890640E+02  0.41800000000E+01 0.  1.
        -11    1    1    2    0    0  0.23334251101E+01  0.29137979223E+02 -0.30159652913E+02  0.42000849632E+02  0.00000000000E+00 0.  1.
         11    1    1    2    0    0  0.47135784333E+02  0.38070112498E+02  0.69637013710E+02  0.92306171564E+02  0.00000000000E+00 0. -1.
</event>
<event>
 7    1  0.2788485E-009  0.8539012E+02  0.7561462E-02  0.1314415E+00
          2   -1    0    0  501    0  0.00000000000E+00  0.00000000000E+00  0.69752476545E+02  0.69752476545E+02  0.00000000000E+00 0. -1.
         -2   -1    0    0    0  501 -0.00000000000E+00 -0.00000000000E+00 -0.29029110656E+03  0.29029110656E+03  0.00000000000E+00 0.  1.
         25    2    1    2    0    0 -0.79441976598E+02 -0.15826444019E+02 -0.63908858580E+02  0.16214845578E+03  0.12508507317E+03 0.  0.
          5    1    3    3  502    0 -0.13800214607E+02 -0.60622895776E+01 -0.89531161700E+02  0.90887285103E+02  0.41800000000E+01 0. -1.
         -5    1    3    3    0  502 -0.65641761991E+02 -0.97641544413E+01  0.25622303120E+02  0.71261170678E+02  0.41800000000E+01 0. -1.
        -11    1    1    2    0    0  0.31653354972E+02  0.24558284344E+02 -0.14142713805E+03  0.14699210723E+03  0.00000000000E+00 0.  1.
         11    1    1    2    0    0  0.47788621626E+02 -0.87318403249E+01 -0.15202633378E+02  0.50903020087E+02  0.00000000000E+00 0. -1.
</event>
<event>
 7    1  0.2788485E-009  0.1602255E+03  0.7561462E-02  0.1188442E+00
          1   -1    0    0  501    0  0.00000000000E+00  0.00000000000E+00  0.29616195071E+03  0.29616195071E+03  0.00000000000E+00 0.  1.
         -1   -1    0    0    0  501 -0.00000000000E+00 -0.00000000000E+00 -0.10617744799E+03  0.10617744799E+03  0.00000000000E+00 0. -1.
         25    2    1    2    0    0  0.13164793639E+03 -0.44853613047E+02  0.84196240585E+02  0.20513518705E+03  0.12509361405E+03 0.  0.
          5    1    3    3  502    0  0.31208790858E+02  0.39119107298E+02  0.47462431267E+02  0.69097380301E+02  0.41800000000E+01 0.  1.
         -5    1    3    3    0  502  0.10043914553E+03 -0.83972720345E+02  0.36733809318E+02  0.13603780675E+03  0.41800000000E+01 0.  1.
        -11    1    1    2    0    0 -0.82688279153E+02  0.24642803449E+02  0.88446383121E+01  0.86734346703E+02  0.00000000000E+00 0. -1.
         11    1    1    2    0    0 -0.48959657240E+02  0.20210809598E+02  0.96943623825E+02  0.11046986495E+03  0.00000000000E+00 0.  1.
</event>
<event>
 7    1  0.2788485E-009  0.8487873E+02  0.7561462E-02  0.1315750E+00
          2   -1    0    0  501    0  0.00000000000E+00  0.00000000000E+00  0.69201643717E+02  0.69201643717E+02  0.00000000000E+00 0. -1.
         -2   -1    0    0    0  501 -0.00000000000E+00 -0.00000000000E+00 -0.22008973191E+03  0.22008973191E+03  0.00000000000E+00 0.  1.
         25    2    1    2    0    0 -0.50008603178E+02 -0.15904003560E+02 -0.13396528718E+03  0.19065161490E+03  0.12509013699E+03 0.  0.
          5    1    3    3  502    0 -0.38159968299E+02 -0.39466815596E+02 -0.14980620724E+03  0.15960321062E+03  0.41800000000E+01 0.  1.
         -5    1    3    3    0  502 -0.11848634879E+02  0.23562812036E+02  0.15840920059E+02  0.31048404273E+02  0.41800000000E+01 0.  1.
        -11    1    1    2    0    0  0.19755182910E+02 -0.28250358412E+02 -0.27478586721E+02  0.44084268514E+02  0.00000000000E+00 0.  1.
         11    1    1    2    0    0  0.30253420268E+02  0.44154361972E+02  0.10555785708E+02  0.54555492217E+02  0.00000000000E+00 0. -1.
</event>
<event>
 7    1  0.2788485E-009  0.1062112E+03  0.7561462E-02  0.1267751E+00
         -2   -1    0    0    0  501 -0.00000000000E+00  0.00000000000E+00  0.12874819629E+02  0.12874819629E+02  0.00000000000E+00 0.  1.
          2   -1    0    0  501    0  0.00000000000E+00 -0.00000000000E+00 -0.14917953775E+04  0.14917953775E+04  0.00000000000E+00 0. -1.
         25    2    1    2    0    0 -0.11801130725E+02 -0.15329690613E+01 -0.12838657773E+04  0.12900003527E+04  0.12509180294E+03 0.  0.
          5    1    3    3  502    0 -0.66253072131E+02  0.12046385776E+02 -0.80990847693E+03  0.81271384778E+03  0.41800000000E+01 0.  1.
         -5    1    3    3    0  502  0.54451941406E+02 -0.13579354838E+02 -0.47395730039E+03  0.47728650494E+03  0.41800000000E+01 0.  1.
        -11    1    1    2    0    0 -0.11369312810E+01  0.44137810958E+02 -0.81381962394E+02  0.92587595131E+02  0.00000000000E+00 0. -1.
         11    1    1    2    0    0  0.12938062006E+02 -0.42604841897E+02 -0.11367281819E+03  0.12208224931E+03  0.00000000000E+00 0.  1.
</event>
<event>
 7    1  0.2788485E-009  0.8037247E+02  0.7561462E-02  0.1327998E+00
         -2   -1    0    0    0  501 -0.00000000000E+00  0.00000000000E+00  0.29923301077E+02  0.29923301077E+02  0.00000000000E+00 0.  1.
          2   -1    0    0  501    0  0.00000000000E+00 -0.00000000000E+00 -0.10289689292E+04  0.10289689292E+04  0.00000000000E+00 0. -1.
         25    2    1    2    0    0  0.48680730189E+02  0.38555914058E+01 -0.91819516633E+03  0.92796247726E+03  0.12508923474E+03 0.  0.
          5    1    3    3  502    0 -0.40845458193E+01  0.32602054056E+02 -0.72130513648E+03  0.72206519772E+03  0.41800000000E+01 0.  1.
         -5    1    3    3    0  502  0.52765276009E+02 -0.28746462651E+02 -0.19689002985E+03  0.20589727954E+03  0.41800000000E+01 0.  1.
        -11    1    1    2    0    0 -0.46314666215E+02  0.14771721210E+02 -0.70950742489E+00  0.48618468249E+02  0.00000000000E+00 0.  1.
         11    1    1    2    0    0 -0.23660639747E+01 -0.18627312615E+02 -0.80140954405E+02  0.82311284809E+02  0.00000000000E+00 0. -1.
</event>
<event>
 7    1  0.2788485E-009  0.1405781E+03  0.7561462E-02  0.1212553E+00
          3   -1    0    0  501    0  0.00000000000E+00  0.00000000000E+00  0.36386873340E+03  0.36386873340E+03  0.00000000000E+00 0. -1.
         -3   -1    0    0    0  501 -0.00000000000E+00 -0.00000000000E+00 -0.85118037570E+02  0.85118037570E+02  0.00000000000E+00 0.  1.
         25    2    1    2    0    0  0.99596355654E+02 -0.31259494518E+02  0.26419586062E+03  0.31039294185E+03  0.12509090905E+03 0.  0.
          5    1    3    3  502    0  0.40129592653E+02 -0.65343176561E+02  0.20779083261E+03  0.22152791573E+03  0.41800000000E+01 0. -1.
         -5    1    3    3    0  502  0.59466763002E+02  0.34083682043E+02  0.56405028009E+02  0.88865026125E+02  0.41800000000E+01 0. -1.
        -11    1    1    2    0    0  0.54233510427E+01 -0.18644709783E+02 -0.64040791944E+01  0.20446275205E+02  0.00000000000E+00 0. -1.
         11    1    1    2    0    0 -0.10501970670E+03  0.49904204301E+02  0.20958914401E+02  0.11814755391E+03  0.00000000000E+00 0.  1.
</event>
<event>
 7    1  0.2788485E-009  0.3308416E+03  0.7561462E-02  0.1070765E+00
         -2   -1    0    0    0  501 -0.00000000000E+00  0.00000000000E+00  0.63047773079E+03  0.63047773079E+03  0.00000000000E+00 0.  1.
          2   -1    0    0  501    0  0.00000000000E+00 -0.00000000000E+00 -0.29483320497E+03  0.29483320497E+03  0.00000000000E+00 0. -1.
         25    2    1    2    0    0 -0.24772772776E+03  0.21691163731E+03 -0.10480081716E+03  0.36749211022E+03  0.12509018466E+03 0.  0.
          5    1    3    3  502    0 -0.18917939097E+03  0.18535305477E+03 -0.28849105758E+02  0.26644763122E+03  0.41800000000E+01 0.  1.
         -5    1    3    3    0  502 -0.58548336791E+02  0.31558582540E+02 -0.75951711397E+02  0.10104447900E+03  0.41800000000E+01 0.  1.
        -11    1    1    2    0    0  0.18830883079E+03 -0.17807513901E+03  0.39850203516E+03  0.47536811306E+03  0.00000000000E+00 0.  1.
         11    1    1    2    0    0  0.59418896968E+02 -0.38836498299E+02  0.41943307814E+02  0.82450712474E+02  0.00000000000E+00 0. -1.
</event>
<event>
 7    1  0.2788485E-009  0.1377216E+03  0.7561462E-02  0.1216428E+00
         -2   -1    0    0    0  501 -0.00000000000E+00  0.00000000000E+00  0.31041141707E+02  0.31041141707E+02  0.00000000000E+00 0.  1.
          2   -1    0    0  501    0  0.00000000000E+00 -0.00000000000E+00 -0.64585659156E+03  0.64585659156E+03  0.00000000000E+00 0. -1.
         25    2    1    2    0    0 -0.52554308090E+02  0.76580587192E+02 -0.31042478528E+03  0.34732942523E+03  0.12509052995E+03 0.  0.
          5    1    3    3  502    0 -0.93944960452E+02  0.53340478906E+02 -0.21890034467E+03  0.24414277704E+03  0.41800000000E+01 0.  1.
         -5    1    3    3    0  502  0.41390652363E+02  0.23240108286E+02 -0.91524440602E+02  0.10318664818E+03  0.41800000000E+01 0.  1.
        -11    1    1    2    0    0  0.75386824266E+01 -0.74218689734E+02 -0.23722328621E+03  0.24867676442E+03  0.00000000000E+00 0. -1.
         11    1    1    2    0    0  0.45015625663E+02 -0.23618974577E+01 -0.67167378364E+02  0.80891543623E+02  0.00000000000E+00 0.  1.
</event>
<event>
 7    1  0.2788485E-009  0.1854910E+03  0.7561462E-02  0.1162592E+00
          1   -1    0    0  501    0  0.00000000000E+00  0.00000000000E+00  0.10843855845E+03  0.10843855845E+03  0.00000000000E+00 0. -1.
         -1   -1    0    0    0  501 -0.00000000000E+00 -0.00000000000E+00 -0.38331426401E+03  0.38331426401E+03  0.00000000000E+00 0.  1.
         25    2    1    2    0    0 -0.23902641775E+02 -0.16930245050E+03 -0.16931196278E+03  0.27119829318E+03  0.12508923795E+03 0.  0.
          5    1    3    3  502    0  0.15106019984E+02  0.84565058797E+01 -0.51179952919E+02  0.54190075773E+02  0.41800000000E+01 0. -1.
         -5    1    3    3    0  502 -0.39008661760E+02 -0.17775895638E+03 -0.11813200986E+03  0.21700821740E+03  0.41800000000E+01 0. -1.
        -11    1    1    2    0    0  0.14727758322E+02  0.12692191957E+03 -0.26666727071E+02  0.13052660597E+03  0.00000000000E+00 0. -1.
         11    1    1    2    0    0  0.91748834529E+01  0.42380530934E+02 -0.78897015704E+02  0.90027923311E+02  0.00000000000E+00 0.  1.
</event>
<event>
 7    1  0.2788485E-009  0.9566566E+02  0.7561462E-02  0.1289684E+00
          2   -1    0    0  501    0  0.00000000000E+00  0.00000000000E+00  0.28048478299E+02  0.28048478299E+02  0.00000000000E+00 0. -1.
         -2   -1    0    0    0  501 -0.00000000000E+00 -0.00000000000E+00 -0.85014294779E+03  0.85014294779E+03  0.00000000000E+00 0.  1.
         25    2    1    2    0    0 -0.65340107491E+02  0.13821316018E+02 -0.69596780748E+03  0.71026715603E+03  0.12509150832E+03 0.  0.
          5    1    3    3  502    0 -0.21346177615E+02  0.28536740829E+02 -0.62081421753E+03  0.62185027938E+03  0.41800000000E+01 0. -1.
         -5    1    3    3    0  502 -0.43993929876E+02 -0.14715424811E+02 -0.75153589957E+02  0.88416876651E+02  0.41800000000E+01 0. -1.
        -11    1    1    2    0    0 -0.13200841783E+02 -0.26222888895E+02 -0.20918272371E+02  0.36048248845E+02  0.00000000000E+00 0.  1.
         11    1    1    2    0    0  0.78540949273E+02  0.12401572877E+02 -0.10520838963E+03  0.13187602122E+03  0.00000000000E+00 0. -1.
</event>
<event>
 7    1  0.2788485E-009  0.1469721E+03  0.7561462E-02  0.1204244E+00
         -1   -1    0    0    0  501 -0.00000000000E+00  0.00000000000E+00  0.83504697964E+03  0.83504697964E+03  0.00000000000E+00 0.  1.
          1   -1    0    0  501    0  0.00000000000E+00 -0.00000000000E+00 -0.40670408814E+02  0.40670408814E+02  0.00000000000E+00 0. -1.
         25    2    1    2    0    0  0.82750538454E+02 -0.53800183918E+02  0.68119360680E+03  0.69958178120E+03  0.12509127561E+03 0.  0.
          5    1    3    3  502    0  0.11526166830E+03 -0.31675033693E+02  0.52618804411E+03  0.53961086915E+03  0.41800000000E+01 0.  1.
         -5    1    3    3    0  502 -0.32511129849E+02 -0.22125150225E+02  0.15500556269E+03  0.15997091205E+03  0.41800000000E+01 0.  1.
        -11    1    1    2    0    0 -0.59213345448E+02  0.80025612286E+02  0.87382606396E+02  0.13246146157E+03  0.00000000000E+00 0. -1.
         11    1    1    2    0    0 -0.23537193006E+02 -0.26225428368E+02  0.25800357629E+02  0.43674145687E+02  0.00000000000E+00 0.  1.
</event>
<event>
 7    1  0.2788485E-009  0.5234550E+02  0.7561462E-02  0.1433086E+00
          1   -1    0    0  501    0  0.00000000000E+00  0.00000000000E+00  0.51685523275E+03  0.51685523275E+03  0.00000000000E+00 0. -1.
         -1   -1    0    0    0  501 -0.00000000000E+00 -0.00000000000E+00 -0.26571509628E+02  0.26571509628E+02  0.00000000000E+00 0.  1.
         25    2    1    2    0    0  0.52060694333E+01  0.56103080518E+01  0.39077867839E+03  0.41038314268E+03  0.12509104521E+03 0.  0.
          5    1    3    3  502    0  0.11467379263E+02 -0.79304393135E+01 -0.41618187294E+01  0.15138883381E+02  0.41800000000E+01 0.  1.
         -5    1    3    3    0  502 -0.62613098301E+01  0.13540747365E+02  0.39494049712E+03  0.39524425930E+03  0.41800000000E+01 0.  1.
        -11    1    1    2    0    0 -0.28151863700E+02 -0.30010578005E+02  0.17977519458E+02  0.44903824201E+02  0.00000000000E+00 0.  1.
         11    1    1    2    0    0  0.22945794267E+02  0.24400269953E+02  0.81527525277E+02  0.88139775506E+02  0.00000000000E+00 0. -1.
</event>
<event>
 7    1  0.2788485E-009  0.1047430E+03  0.7561462E-02  0.1270627E+00
         -4   -1    0    0    0  501 -0.00000000000E+00  0.00000000000E+00  0.18292355601E+03  0.18292355601E+03  0.00000000000E+00 0.  1.
          4   -1    0    0  501    0  0.00000000000E+00 -0.00000000000E+00 -0.13188090272E+03  0.13188090272E+03  0.00000000000E+00 0. -1.
         25    2    1    2    0    0  0.69726579258E+01  0.60196571723E+02 -0.66446175862E+02  0.15406398401E+03  0.12509345177E+03 0.  0.
          5    1    3    3  502    0  0.39312813089E+02 -0.63972608753E+01 -0.69100626783E+02  0.79867335259E+02  0.41800000000E+01 0.  1.
         -5    1    3    3    0  502 -0.32340155163E+02  0.66593832598E+02  0.26544509211E+01  0.74196648750E+02  0.41800000000E+01 0.  1.
        -11    1    1    2    0    0 -0.39938930025E+02 -0.40528907115E+02  0.28107475195E+02  0.63464483023E+02  0.00000000000E+00 0. -1.
         11    1    1    2    0    0  0.32966272099E+02 -0.19667664608E+02  0.89381353957E+02  0.97275991706E+02  0.00000000000E+00 0.  1.
</event>
<event>
 7    1  0.2788485E-009  0.1000113E+03  0.7561462E-02  0.1280272E+00
          1   -1    0    0  501    0  0.00000000000E+00  0.00000000000E+00  0.54208080371E+03  0.54208080371E+03  0.00000000000E+00 0. -1.
         -1   -1    0    0    0  501 -0.00000000000E+00 -0.00000000000E+00 -0.48604360356E+02  0.48604360356E+02  0.00000000000E+00 0.  1.
         25    2    1    2    0    0 -0.69425759424E+02 -0.11641485200E+02  0.43848984553E+03  0.46138517527E+03  0.12508986798E+03 0.  0.
          5    1    3    3  502    0 -0.66156461060E+02  0.11506930899E+02  0.91444630694E+02  0.11352832105E+03  0.41800000000E+01 0. -1.
         -5    1    3    3    0  502 -0.32692983636E+01 -0.23148416099E+02  0.34704521484E+03  0.34785685421E+03  0.41800000000E+01 0. -1.
        -11    1    1    2    0    0  0.67265695232E+02 -0.25391133818E+02  0.12636079644E+02  0.73000369454E+02  0.00000000000E+00 0.  1.
         11    1    1    2    0    0  0.21600641916E+01  0.37032619018E+02  0.42350518182E+02  0.56299619350E+02  0.00000000000E+00 0. -1.
</event>
<event>
 7    1  0.2788485E-009  0.8586576E+02  0.7561462E-02  0.1313184E+00
          2   -1    0    0  501    0  0.00000000000E+00  0.00000000000E+00  0.51357343148E+03  0.51357343148E+03  0.00000000000E+00 0. -1.
         -2   -1    0    0    0  501 -0.00000000000E+00 -0.00000000000E+00 -0.24566867356E+02  0.24566867356E+02  0.00000000000E+00 0.  1.
         25    2    1    2    0    0  0.11568647834E+02 -0.27497230277E+02  0.28022651055E+03  0.30832575628E+03  0.12509174029E+03 0.  0.
          5    1    3    3  502    0  0.28407401222E+02 -0.55996518189E+02  0.64788799319E+02  0.90319717729E+02  0.41800000000E+01 0. -1.
         -5    1    3    3    0  502 -0.16838753388E+02  0.28499287911E+02  0.21543771123E+03  0.21800603855E+03  0.41800000000E+01 0. -1.
        -11    1    1    2    0    0  0.30089545476E+01  0.49200759542E+02  0.55118668787E+02  0.73944818587E+02  0.00000000000E+00 0.  1.
         11    1    1    2    0    0 -0.14577602382E+02 -0.21703529265E+02  0.15366138479E+03  0.15586972397E+03  0.00000000000E+00 0. -1.
</event>
<event>
 7    1  0.2788485E-009  0.1209260E+03  0.7561462E-02  0.1241577E+00
         -1   -1    0    0    0  501 -0.00000000000E+00  0.00000000000E+00  0.12909151693E+03  0.12909151693E+03  0.00000000000E+00 0.  1.
          1   -1    0    0  501    0  0.00000000000E+00 -0.00000000000E+00 -0.12780215562E+03  0.12780215562E+03  0.00000000000E+00 0. -1.
         25    2    1    2    0    0 -0.61362964431E+02  0.76533228204E+01 -0.36747648596E+02  0.14429621886E+03  0.12508805837E+03 0.  0.
          5    1    3    3  502    0  0.71412334973E+01 -0.47550338636E+02  0.14624424484E+01  0.48287089974E+02  0.41800000000E+01 0. -1.
         -5    1    3    3    0  502 -0.68504197928E+02  0.55203661457E+02 -0.38210091044E+02  0.96009128887E+02  0.41800000000E+01 0. -1.
        -11    1    1    2    0    0  0.75411147729E+01  0.35644263438E+02  0.18220327342E+02  0.40735270424E+02  0.00000000000E+00 0. -1.
         11    1    1    2    0    0  0.53821849658E+02 -0.43297586258E+02  0.19816682560E+02  0.71862183268E+02  0.00000000000E+00 0.  1.
</event>
<event>
 7    1  0.2788485E-009  0.7607142E+02  0.7561462E-02  0.1340585E+00
          1   -1    0    0  501    0  0.00000000000E+00  0.00000000000E+00  0.39469220556E+02  0.39469220556E+02  0.00000000000E+00 0. -1.
         -1   -1    0    0    0  501 -0.00000000000E+00 -0.00000000000E+00 -0.47288540656E+03  0.47288540656E+03  0.00000000000E+00 0.  1.
         25    2    1    2    0    0 -0.61950862958E+02 -0.21025360448E+02 -0.14516069378E+03  0.20248367493E+03  0.12509211162E+03 0.  0.
          5    1    3    3  502    0 -0.31626169802E+02 -0.17178780975E+02  0.15119874995E+02  0.39260771159E+02  0.41800000000E+01 0. -1.
         -5    1    3    3    0  502 -0.30324693156E+02 -0.38465794728E+01 -0.16028056877E+03  0.16322290377E+03  0.41800000000E+01 0. -1.
        -11    1    1    2    0    0  0.42680772907E+02 -0.14137444242E+02 -0.25146588235E+03  0.25545372514E+03  0.00000000000E+00 0.  1.
         11    1    1    2    0    0  0.19270090051E+02  0.35162804690E+02 -0.36789609881E+02  0.54417227046E+02  0.00000000000E+00 0. -1.
</event>
<event>
 7    1  0.2788485E-009  0.1500913E+03  0.7561462E-02  0.1200361E+00
          1   -1    0    0  501    0  0.00000000000E+00  0.00000000000E+00  0.14359920539E+03  0.14359920539E+03  0.00000000000E+00 0. -1.
         -1   -1    0    0    0  501 -0.00000000000E+00 -0.00000000000E+00 -0.23696910062E+03  0.23696910062E+03  0.00000000000E+00 0.  1.
         25    2    1    2    0    0  0.78363997455E+02 -0.11739071611E+03 -0.16465942586E+01  0.18860315219E+03  0.12508773488E+03 0.  0.
          5    1    3    3  502    0  0.73353113216E+02 -0.12278849024E+03  0.38008880394E+02  0.14805350365E+03  0.41800000000E+01 0. -1.
         -5    1    3    3    0  502  0.50108842390E+01  0.53977741393E+01 -0.39655474653E+02  0.40549648537E+02  0.41800000000E+01 0. -1.
        -11    1    1    2    0    0 -0.80880509335E+02  0.89550329787E+02 -0.10596622589E+03  0.16059190323E+03  0.00000000000E+00 0. -1.
         11    1    1    2    0    0  0.25165118799E+01  0.27840386318E+02  0.14242924915E+02  0.31373250589E+02  0.00000000000E+00 0.  1.
</event>
<event>
 7    1  0.2788485E-009  0.9564227E+02  0.7561462E-02  0.1289736E+00
          2   -1    0    0  501    0  0.00000000000E+00  0.00000000000E+00  0.72879954560E+02  0.72879954560E+02  0.00000000000E+00 0. -1.
         -2   -1    0    0    0  501 -0.00000000000E+00 -0.00000000000E+00 -0.17191858148E+03  0.17191858148E+03  0.00000000000E+00 0.  1.
         25    2    1    2    0    0  0.11348378397E+02 -0.16313272031E+02 -0.69014314154E+02  0.14424134797E+03  0.12509069657E+03 0.  0.
          5    1    3    3  502    0 -0.44825868927E+02 -0.39546505951E+02 -0.55825094042E+02  0.81897485815E+02  0.41800000000E+01 0.  1.
         -5    1    3    3    0  502  0.56174247324E+02  0.23233233919E+02 -0.13189220112E+02  0.62343862151E+02  0.41800000000E+01 0.  1.
        -11    1    1    2    0    0 -0.90089082528E+01 -0.26274910543E+02 -0.47045901090E+02  0.54633763931E+02  0.00000000000E+00 0.  1.
         11    1    1    2    0    0 -0.23394701441E+01  0.42588182574E+02  0.17021588327E+02  0.45923424140E+02  0.00000000000E+00 0. -1.
</event>
<event>
 7    1  0.4356907E-009  0.1022677E+03  0.7561462E-02  0.1275598E+00
          2   -1    0    0  501    0  0.00000000000E+00  0.00000000000E+00  0.52991737759E+03  0.52991737759E+03  0.00000000000E+00 0. -1.
         -2   -1    0    0    0  501 -0.00000000000E+00 -0.00000000000E+00 -0.28830163746E+02  0.28830163746E+02  0.00000000000E+00 0.  1.
         25    2    1    2    0    0  0.56280890619E+02  0.11048152016E+02  0.31406190095E+03  0.34288843601E+03  0.12509197260E+03 0.  0.
          5    1    3    3  502    0 -0.37947830939E+02  0.19248952785E+02  0.89715320203E+02  0.99382448830E+02  0.41800000000E+01 0.  1.
         -5    1    3    3    0  502  0.94228721558E+02 -0.82008007695E+01  0.22434658075E+03  0.24350598718E+03  0.41800000000E+01 0.  1.
        -11    1    1    2    0    0 -0.23760639995E+02  0.12598438169E+02  0.25069583958E+01  0.27010618240E+02  0.00000000000E+00 0.  1.
         11    1    1    2    0    0 -0.32520250624E+02 -0.23646590185E+02  0.18451835449E+03  0.18884848708E+03  0.00000000000E+00 0. -1.
</event>
<event>
 7    1  0.2788485E-009  0.1003686E+03  0.7561462E-02  0.1279523E+00
          2   -1    0    0  501    0  0.00000000000E+00  0.00000000000E+00  0.29748261478E+03  0.29748261478E+03  0.00000000000E+00 0. -1.
         -2   -1    0    0    0  501 -0.00000000000E+00 -0.00000000000E+00 -0.43290207047E+02  0.43290207047E+02  0.00000000000E+00 0.  1.
         25    2    1    2    0    0 -0.56690234983E+01  0.32255685370E+02  0.16111646138E+03  0.20658901502E+03  0.12509172608E+03 0.  0.
          5    1    3    3  502    0 -0.44226673687E+02 -0.21303662002E+02  0.11739777658E+03  0.12731675077E+03  0.41800000000E+01 0. -1.
         -5    1    3    3    0  502  0.38557650188E+02  0.53559347373E+02  0.43718684796E+02  0.79272264250E+02  0.41800000000E+01 0. -1.
        -11    1    1    2    0    0  0.38425682025E+02 -0.35642581574E+02  0.23969674679E+02  0.57632212907E+02  0.00000000000E+00 0.  1.
         11    1    1    2    0    0 -0.32756658526E+02  0.33868962041E+01  0.69106271674E+02  0.76551593899E+02  0.00000000000E+00 0. -1.
</event>
<event>
 7    1  0.2788485E-009  0.2213018E+03  0.7561462E-02  0.1132916E+00
          2   -1    0    0  501    0  0.00000000000E+00  0.00000000000E+00  0.45143362024E+03  0.45143362024E+03  0.00000000000E+00 0. -1.
         -2   -1    0    0    0  501 -0.00000000000E+00 -0.00000000000E+00 -0.14448390190E+03  0.14448390190E+03  0.00000000000E+00 0.  1.
         25    2    1    2    0    0 -0.20618007352E+01 -0.20047035650E+03  0.29557141839E+03  0.37842284327E+03  0.12509504418E+03 0.  0.
          5    1    3    3  502    0 -0.33059253556E+02 -0.19937478604E+03  0.23301947280E+03  0.30847814616E+03  0.41800000000E+01 0.  1.
         -5    1    3    3    0  502  0.30997452821E+02 -0.10955704591E+01  0.62551945591E+02  0.69944697106E+02  0.41800000000E+01 0.  1.
        -11    1    1    2    0    0  0.12114726085E+02  0.44775732486E+01 -0.14644666476E+02  0.19526430972E+02  0.00000000000E+00 0.  1.
         11    1    1    2    0    0 -0.10052925349E+02  0.19599278325E+03  0.26022966425E+02  0.19796824790E+03  0.00000000000E+00 0. -1.
</event>
<event>
 7    1  0.2788485E-009  0.1177133E+03  0.7561462E-02  0.1246918E+00
          2   -1    0    0  501    0  0.00000000000E+00  0.00000000000E+00  0.92645564703E+03  0.92645564703E+03  0.00000000000E+00 0. -1.
         -2   -1    0    0    0  501 -0.00000000000E+00 -0.00000000000E+00 -0.19512682418E+02  0.19512682418E+02  0.00000000000E+00 0.  1.
         25    2    1    2    0    0  0.11502856894E+02 -0.77008915836E+02  0.53405761485E+03  0.55401011988E+03  0.12508792152E+03 0.  0.
          5    1    3    3  502    0  0.13852275257E+02  0.29511082294E+02  0.63259999671E+02  0.71288775178E+02  0.41800000000E+01 0. -1.
         -5    1    3    3    0  502 -0.23494183629E+01 -0.10651999813E+03  0.47079761518E+03  0.48272134470E+03  0.41800000000E+01 0. -1.
        -11    1    1    2    0    0 -0.34342103227E+02  0.47607937975E+02  0.32994308265E+03  0.33512435543E+03  0.00000000000E+00 0.  1.
         11    1    1    2    0    0  0.22839246333E+02  0.29400977861E+02  0.42942267108E+02  0.56833854141E+02  0.00000000000E+00 0. -1.
</event>
<event>
 7    1  0.2788485E-009  0.8530384E+02  0.7561462E-02  0.1314640E+00
         -3   -1    0    0    0  501 -0.00000000000E+00  0.00000000000E+00  0.57457323649E+02  0.57457323649E+02  0.00000000000E+00 0.  1.
          3   -1    0    0  501    0  0.00000000000E+00 -0.00000000000E+00 -0.23853458607E+03  0.23853458607E+03  0.00000000000E+00 0. -1.
         25    2    1    2    0    0 -0.20409317906E+02  0.18977287899E+02 -0.14584759406E+03  0.19415364369E+03  0.12508972361E+03 0.  0.
          5    1    3    3  502    0 -0.37612231186E+00  0.59637431611E+02 -0.24609606339E+02  0.64651912897E+02  0.41800000000E+01 0.  1.
         -5    1    3    3    0  502 -0.20033195595E+02 -0.40660143712E+02 -0.12123798772E+03  0.12950173079E+03  0.41800000000E+01 0.  1.
        -11    1    1    2    0    0 -0.59383472032E+01  0.18534569815E+02  0.21435432442E+02  0.28952927481E+02  0.00000000000E+00 0.  1.
         11    1    1    2    0    0  0.26347665110E+02 -0.37511857715E+02 -0.56665100808E+02  0.72885338550E+02  0.00000000000E+00 0. -1.
</event>
<event>
 7    1  0.2788485E-009  0.1130387E+03  0.7561462E-02  0.1255044E+00
          1   -1    0    0  501    0  0.00000000000E+00  0.00000000000E+00  0.45638682799E+02  0.45638682799E+02  0.00000000000E+00 0. -1.
         -1   -1    0    0    0  501 -0.00000000000E+00 -0.00000000000E+00 -0.45836318414E+03  0.45836318414E+03  0.00000000000E+00 0.  1.
         25    2    1    2    0    0 -0.31261561256E+02 -0.74407878955E+02 -0.19427901204E+03  0.24475301081E+03  0.12508350858E+03 0.  0.
          5    1    3    3  502    0 -0.16699129048E+02 -0.98599281756E+02 -0.19149292365E+03  0.21607334746E+03  0.41800000000E+01 0.  1.
         -5    1    3    3    0  502 -0.14562432208E+02  0.24191402801E+02 -0.27860883861E+01  0.28679663349E+02  0.41800000000E+01 0.  1.
        -11    1    1    2    0    0 -0.11053914394E+02  0.43915562228E+02 -0.12753280213E+02  0.47046910477E+02  0.00000000000E+00 0. -1.
         11    1    1    2    0    0  0.42315475650E+02  0.30492316727E+02 -0.20569220909E+03  0.21220194566E+03  0.00000000000E+00 0.  1.
</event>
<event>
 7    1  0.2788485E-009  0.2060025E+03  0.7561462E-02  0.1144771E+00
         -2   -1    0    0    0  501 -0.00000000000E+00  0.00000000000E+00  0.16666749890E+03  0.16666749890E+03  0.00000000000E+00 0.  1.
          2   -1    0    0  501    0  0.00000000000E+00 -0.00000000000E+00 -0.31768649497E+03  0.31768649497E+03  0.00000000000E+00 0. -1.
         25    2    1    2    0    0 -0.56802305782E+02 -0.17163231721E+03  0.17872801107E+02  0.22056644088E+03  0.12508382618E+03 0.  0.
          5    1    3    3  502    0 -0.37509556873E+02  0.22337468088E+01 -0.18110926997E+02  0.41921767118E+02  0.41800000000E+01 0.  1.
         -5    1    3    3    0  502 -0.19292748910E+02 -0.17386606401E+03  0.35983728104E+02  0.17864467377E+03  0.41800000000E+01 0.  1.
        -11    1    1    2    0    0 -0.81311922495E+01  0.10797969256E+03 -0.11558905128E+03  0.15838737029E+03  0.00000000000E+00 0.  1.
         11    1    1    2    0    0  0.64933498032E+02  0.63652624646E+02 -0.53302745906E+02  0.10540018270E+03  0.00000000000E+00 0. -1.
</event>
<event>
 7    1  0.2788485E-009  0.1478336E+03  0.7561462E-02  0.1203161E+00
          2   -1    0    0  501    0  0.00000000000E+00  0.00000000000E+00  0.79045184739E+02  0.79045184739E+02  0.00000000000E+00 0. -1.
         -2   -1    0    0    0  501 -0.00000000000E+00 -0.00000000000E+00 -0.33677648684E+03  0.33677648684E+03  0.00000000000E+00 0.  1.
         25    2    1    2    0    0  0.84664914379E+02  0.86840282899E+02 -0.13294273986E+03  0.21915943110E+03  0.12509077383E+03 0.  0.
          5    1    3    3  502    0 -0.78217622744E+01  0.80305187444E+02 -0.71176042640E+02  0.10767360188E+03  0.41800000000E+01 0. -1.
         -5    1    3    3    0  502  0.92486676653E+02  0.65350954550E+01 -0.61766697221E+02  0.11148582922E+03  0.41800000000E+01 0. -1.
        -11    1    1    2    0    0 -0.68241906406E+02 -0.61497481603E+02 -0.13628016867E+03  0.16435079070E+03  0.00000000000E+00 0.  1.
         11    1    1    2    0    0 -0.16423007973E+02 -0.25342801296E+02  0.11491606427E+02  0.32311449777E+02  0.00000000000E+00 0. -1.
</event>
<event>
 7    1  0.2788485E-009  0.7200298E+02  0.7561462E-02  0.1353411E+00
          1   -1    0    0  501    0  0.00000000000E+00  0.00000000000E+00  0.29060214865E+02  0.29060214865E+02  0.00000000000E+00 0. -1.
         -1   -1    0    0    0  501 -0.00000000000E+00 -0.00000000000E+00 -0.60012516578E+03  0.60012516578E+03  0.00000000000E+00 0.  1.
         25    2    1    2    0    0 -0.64260918297E+02  0.30164082658E+01 -0.41391125708E+03  0.43715962545E+03  0.12508974797E+03 0.  0.
          5    1    3    3  502    0 -0.26078380887E+02 -0.15592043876E+02 -0.11914107939E+02  0.32903072044E+02  0.41800000000E+01 0. -1.
         -5    1    3    3    0  502 -0.38182537410E+02  0.18608452142E+02 -0.40199714914E+03  0.40425655340E+03  0.41800000000E+01 0. -1.
        -11    1    1    2    0    0  0.48768646870E+02 -0.15050014655E+02 -0.16360049806E+03  0.17137679780E+03  0.00000000000E+00 0.  1.
         11    1    1    2    0    0  0.15492271427E+02  0.12033606389E+02  0.64468042266E+01  0.20648957393E+02  0.00000000000E+00 0. -1.
</event>
<event>
 7    1  0.2788485E-009  0.8606634E+02  0.7561462E-02  0.1312667E+00
          2   -1    0    0  501    0  0.00000000000E+00  0.00000000000E+00  0.57221123264E+03  0.57221123264E+03  0.00000000000E+00 0. -1.
         -2   -1    0    0    0  501 -0.00000000000E+00 -0.00000000000E+00 -0.28657640990E+02  0.28657640990E+02  0.00000000000E+00 0.  1.
         25    2    1    2    0    0 -0.62769552740E+01  0.40145483933E+02  0.42416528768E+03  0.44409098347E+03  0.12509816257E+03 0.  0.
          5    1    3    3  502    0 -0.88067529926E+01 -0.40189730884E+02  0.23351354325E+03  0.23714725519E+03  0.41800000000E+01 0. -1.
         -5    1    3    3    0  502  0.25297977185E+01  0.80335214817E+02  0.19065174444E+03  0.20694372828E+03  0.41800000000E+01 0. -1.
        -11    1    1    2    0    0  0.15844668385E+02 -0.10168018038E+02 -0.11566264377E+02  0.22095714034E+02  0.00000000000E+00 0.  1.
         11    1    1    2    0    0 -0.95677131112E+01 -0.29977465895E+02  0.13095456835E+03  0.13468217613E+03  0.00000000000E+00 0. -1.
</event>
<event>
 7    1  0.2788485E-009  0.1768503E+03  0.7561462E-02  0.1170887E+00
          2   -1    0    0  501    0  0.00000000000E+00  0.00000000000E+00  0.40234211148E+03  0.40234211148E+03  0.00000000000E+00 0. -1.
         -2   -1    0    0    0  501 -0.00000000000E+00 -0.00000000000E+00 -0.91889018967E+02  0.91889018967E+02  0.00000000000E+00 0.  1.
         25    2    1    2    0    0 -0.31646378075E+02  0.15386028673E+03  0.14549544008E+03  0.24796894551E+03  0.12508074902E+03 0.  0.
          5    1    3    3  502    0  0.17983573206E+02  0.93055395313E+02  0.15598383775E+02  0.96143109366E+02  0.41800000000E+01 0.  1.
         -5    1    3    3    0  502 -0.49629951280E+02  0.60804891420E+02  0.12989705631E+03  0.15182583615E+03  0.41800000000E+01 0.  1.
        -11    1    1    2    0    0 -0.19427655650E+02 -0.11345922042E+03  0.84734863950E+02  0.14293504004E+03  0.00000000000E+00 0.  1.
         11    1    1    2    0    0  0.51074033725E+02 -0.40401066310E+02  0.80222788484E+02  0.10332714489E+03  0.00000000000E+00 0. -1.
</event>
<event>
 7    1  0.2788485E-009  0.1852030E+03  0.7561462E-02  0.1162860E+00
          2   -1    0    0  501    0  0.00000000000E+00  0.00000000000E+00  0.43152471872E+02  0.43152471872E+02  0.00000000000E+00 0. -1.
         -2   -1    0    0    0  501 -0.00000000000E+00 -0.00000000000E+00 -0.87278342453E+03  0.87278342453E+03  0.00000000000E+00 0.  1.
         25    2    1    2    0    0  0.13930936185E+03 -0.65165367816E+02 -0.32505668625E+03  0.38074114685E+03  0.12509335781E+03 0.  0.
          5    1    3    3  502    0  0.11309113532E+03  0.10916381380E+02 -0.15174426209E+03  0.18961161817E+03  0.41800000000E+01 0.  1.
         -5    1    3    3    0  502  0.26218226528E+02 -0.76081749196E+02 -0.17331242416E+03  0.19112952868E+03  0.41800000000E+01 0.  1.
        -11    1    1    2    0    0 -0.66452504360E+02 -0.14666222856E+02 -0.23816948913E+03  0.24770090630E+03  0.00000000000E+00 0.  1.
         11    1    1    2    0    0 -0.72856857487E+02  0.79831590672E+02 -0.26640477727E+03  0.28749384325E+03  0.00000000000E+00 0. -1.
</event>
<event>
 7    1  0.2788485E-009  0.1375949E+03  0.7561462E-02  0.1216602E+00
          2   -1    0    0  501    0  0.00000000000E+00  0.00000000000E+00  0.61725457953E+03  0.61725457953E+03  0.00000000000E+00 0. -1.
         -2   -1    0    0    0  501 -0.00000000000E+00 -0.00000000000E+00 -0.42039317732E+02  0.42039317732E+02  0.00000000000E+00 0.  1.
         25    2    1    2    0    0  0.59940182083E+02  0.72136933583E+02  0.16679368232E+03  0.22861448079E+03  0.12509150951E+03 0.  0.
          5    1    3    3  502    0 -0.30297480895E+02  0.10499247752E+02  0.41189523491E+01  0.32597695016E+02  0.41800000000E+01 0.  1.
         -5    1    3    3    0  502  0.90237662977E+02  0.61637685831E+02  0.16267472997E+03  0.19601678577E+03  0.41800000000E+01 0.  1.
        -11    1    1    2    0    0  0.17907534079E+02 -0.49169321648E+02  0.11705850704E+03  0.12822244748E+03  0.00000000000E+00 0.  1.
         11    1    1    2    0    0 -0.77847716162E+02 -0.22967611935E+02  0.29136307244E+03  0.30245696899E+03  0.00000000000E+00 0. -1.
</event>
<event>
 7    1  0.3886332E-009  0.1534122E+03  0.7561462E-02  0.1196342E+00
          1   -1    0    0  501    0  0.00000000000E+00  0.00000000000E+00  0.50820641353E+03  0.50820641353E+03  0.00000000000E+00 0. -1.
         -1   -1    0    0    0  501 -0.00000000000E+00 -0.00000000000E+00 -0.59034968143E+02  0.59034968143E+02  0.00000000000E+00 0.  1.
         25    2    1    2    0    0  0.76709353924E+02 -0.10817990132E+03  0.27797235554E+03  0.33241989780E+03  0.12508853657E+03 0.  0.
          5    1    3    3  502    0  0.63488687242E+02 -0.13206301740E+03  0.18855168111E+03  0.23883187145E+03  0.41800000000E+01 0. -1.
         -5    1    3    3    0  502  0.13220666681E+02  0.23883116076E+02  0.89420674426E+02  0.93588026349E+02  0.41800000000E+01 0. -1.
        -11    1    1    2    0    0 -0.25575778073E+02  0.35880909282E+02  0.23088870868E+01  0.44123588188E+02  0.00000000000E+00 0.  1.
         11    1    1    2    0    0 -0.51133575850E+02  0.72298992038E+02  0.16889020277E+03  0.19069789569E+03  0.00000000000E+00 0. -1.
</event>
<event>
 7    1  0.2788485E-009  0.2178077E+03  0.7561462E-02  0.1135528E+00
          1   -1    0    0  501    0  0.00000000000E+00  0.00000000000E+00  0.12534574292E+04  0.12534574292E+04  0.00000000000E+00 0. -1.
         -1   -1    0    0    0  501 -0.00000000000E+00 -0.00000000000E+00 -0.38251822157E+02  0.38251822157E+02  0.00000000000E+00 0.  1.
         25    2    1    2    0    0  0.44580303558E+02 -0.18404299062E+03  0.68522644597E+03  0.72183276393E+03  0.12509208996E+03 0.  0.
          5    1    3    3  502    0  0.78932292396E+02 -0.17334139133E+03  0.58689027217E+03  0.61703744514E+03  0.41800000000E+01 0. -1.
         -5    1    3    3    0  502 -0.34351988838E+02 -0.10701599292E+02  0.98336173796E+02  0.10479531880E+03  0.41800000000E+01 0. -1.
        -11    1    1    2    0    0  0.26245469060E+02  0.33912533027E+02  0.12710098682E+03  0.13414002160E+03  0.00000000000E+00 0. -1.
         11    1    1    2    0    0 -0.70825772617E+02  0.15013045759E+03  0.40287817422E+03  0.43573646580E+03  0.00000000000E+00 0.  1.
</event>
<event>
 7    1  0.2788485E-009  0.1105434E+03  0.7561462E-02  0.1259567E+00
          2   -1    0    0  501    0  0.00000000000E+00  0.00000000000E+00  0.38112479731E+03  0.38112479731E+03  0.00000000000E+00 0. -1.
         -2   -1    0    0    0  501 -0.00000000000E+00 -0.00000000000E+00 -0.37813571740E+02  0.37813571740E+02  0.00000000000E+00 0.  1.
         25    2    1    2    0    0 -0.94233977125E+01  0.44618068770E+02  0.23659563442E+03  0.27148535694E+03  0.12508889766E+03 0.  0.
          5    1    3    3  502    0 -0.60762278905E+02  0.15903651069E+02  0.67011165406E+02  0.91939922472E+02  0.41800000000E+01 0. -1.
         -5    1    3    3    0  502  0.51338881193E+02  0.28714417701E+02  0.16958446902E+03  0.17954543447E+03  0.41800000000E+01 0. -1.
        -11    1    1    2    0    0  0.43161944764E+02  0.84031670994E-01  0.63185589279E+02  0.76520449748E+02  0.00000000000E+00 0. -1.
         11    1    1    2    0    0 -0.33738547051E+02 -0.44702100441E+02  0.43530001872E+02  0.70932562367E+02  0.00000000000E+00 0.  1.
</event>
<event>
 7    1  0.2788485E-009  0.1559897E+03  0.7561462E-02  0.1193300E+00
         -1   -1    0    0    0  501 -0.00000000000E+00  0.00000000000E+00  0.13714506327E+02  0.13714506327E+02  0.00000000000E+00 0.  1.
          1   -1    0    0  501    0  0.00000000000E+00 -0.00000000000E+00 -0.21300558300E+04  0.21300558300E+04  0.00000000000E+00 0. -1.
         25    2    1    2    0    0  0.97292794308E+02  0.63556180940E+02 -0.15193136842E+04  0.15288776155E+04  0.12508963310E+03 0.  0.
          5    1    3    3  502    0  0.10532274113E+03  0.10553471379E+01 -0.10631846074E+04  0.10683973865E+04  0.41800000000E+01 0. -1.
         -5    1    3    3    0  502 -0.80299468263E+01  0.62500833802E+02 -0.45612907675E+03  0.46048022903E+03  0.41800000000E+01 0. -1.
        -11    1    1    2    0    0 -0.22329839634E+02 -0.64698632253E+02 -0.35430257106E+03  0.36085294320E+03  0.00000000000E+00 0.  1.
         11    1    1    2    0    0 -0.74962954673E+02  0.11424513130E+01 -0.24272506845E+03  0.25403977763E+03  0.00000000000E+00 0. -1.
</event>
<event>
 7    1  0.2788485E-009  0.6463070E+02  0.7561462E-02  0.1379366E+00
          1   -1    0    0  501    0  0.00000000000E+00  0.00000000000E+00  0.34238955804E+02  0.34238955804E+02  0.00000000000E+00 0. -1.
         -1   -1    0    0    0  501 -0.00000000000E+00 -0.00000000000E+00 -0.43161982496E+03  0.43161982496E+03  0.00000000000E+00 0.  1.
         25    2    1    2    0    0 -0.12871481396E+02 -0.67925556680E+01 -0.31913881558E+03  0.34308708509E+03  0.12508937005E+03 0.  0.
          5    1    3    3  502    0 -0.20612540980E+02 -0.12948333031E+02 -0.94943840087E+00  0.24716593762E+02  0.41800000000E+01 0.  1.
         -5    1    3    3    0  502  0.77410595839E+01  0.61557773626E+01 -0.31818937718E+03  0.31837049133E+03  0.41800000000E+01 0.  1.
        -11    1    1    2    0    0  0.51202719874E+02  0.17358140024E+02 -0.52784225974E+02  0.75559235433E+02  0.00000000000E+00 0.  1.
         11    1    1    2    0    0 -0.38331238477E+02 -0.10565584356E+02 -0.25457827609E+02  0.47212460247E+02  0.00000000000E+00 0. -1.
</event>
<event>
 7    1  0.2788485E-009  0.6983466E+02  0.7561462E-02  0.1360656E+00
         -1   -1    0    0    0  501 -0.00000000000E+00  0.00000000000E+00  0.42211124772E+02  0.42211124772E+02  0.00000000000E+00 0.  1.
          1   -1    0    0  501    0  0.00000000000E+00 -0.00000000000E+00 -0.31662262881E+03  0.31662262881E+03  0.00000000000E+00 0. -1.
         25    2    1    2    0    0 -0.27645529486E+02  0.22429428070E+02 -0.13250389058E+03  0.18566991928E+03  0.12509469758E+03 0.  0.
          5    1    3    3  502    0 -0.48290123223E+02  0.36039054920E+02 -0.14541747200E+03  0.15746257664E+03  0.41800000000E+01 0.  1.
         -5    1    3    3    0  502  0.20644593736E+02 -0.13609626850E+02  0.12913581420E+02  0.28207342637E+02  0.41800000000E+01 0.  1.
        -11    1    1    2    0    0 -0.10337127320E+02 -0.53738941645E+00  0.10399442280E+02  0.14672879347E+02  0.00000000000E+00 0.  1.
         11    1    1    2    0    0  0.37982656806E+02 -0.21892038653E+02 -0.15230705574E+03  0.15849095495E+03  0.00000000000E+00 0. -1.
</event>
<event>
 7    1  0.2788485E-009  0.1039065E+03  0.7561462E-02  0.1272289E+00
         -1   -1    0    0    0  501 -0.00000000000E+00  0.00000000000E+00  0.19424649475E+02  0.19424649475E+02  0.00000000000E+00 0.  1.
          1   -1    0    0  501    0  0.00000000000E+00 -0.00000000000E+00 -0.74547003505E+03  0.74547003505E+03  0.00000000000E+00 0. -1.
         25    2    1    2    0    0  0.13417798629E+02  0.49868206943E+02 -0.44885596579E+03  0.46881336738E+03  0.12508964797E+03 0.  0.
          5    1    3    3  502    0  0.45250707179E+02 -0.21885906914E+02 -0.24892086876E+03  0.25397970535E+03  0.41800000000E+01 0.  1.
         -5    1    3    3    0  502 -0.31832908551E+02  0.71754113857E+02 -0.19993509702E+03  0.21483366204E+03  0.41800000000E+01 0.  1.
        -11    1    1    2    0    0 -0.33964437968E+02 -0.47045728453E+02 -0.26651028731E+03  0.27275376598E+03  0.00000000000E+00 0. -1.
         11    1    1    2    0    0  0.20546639339E+02 -0.28224784902E+01 -0.10679132477E+02  0.23327551166E+02  0.00000000000E+00 0.  1.
</event>
<event>
 7    1  0.2788485E-009  0.2637564E+03  0.7561462E-02  0.1104907E+00
          2   -1    0    0  501    0  0.00000000000E+00  0.00000000000E+00  0.15898060912E+04  0.15898060912E+04  0.00000000000E+00 0. -1.
         -2   -1    0    0    0  501 -0.00000000000E+00 -0.00000000000E+00 -0.49294121334E+02  0.49294121334E+02  0.00000000000E+00 0.  1.
         25    2    1    2    0    0  0.16655791131E+03  0.19650914559E+03  0.67729388016E+03  0.73534435687E+03  0.12508773300E+03 0.  0.
          5    1    3    3  502    0  0.14762912258E+03  0.11848615357E+03  0.57417806704E+03  0.60459180568E+03  0.41800000000E+01 0. -1.
         -5    1    3    3    0  502  0.18928788730E+02  0.78022992017E+02  0.10311581312E+03  0.13075255119E+03  0.41800000000E+01 0. -1.
        -11    1    1    2    0    0 -0.27748743661E+02 -0.38432488930E+02  0.82073216412E+02  0.94779015781E+02  0.00000000000E+00 0.  1.
         11    1    1    2    0    0 -0.13880916765E+03 -0.15807665666E+03  0.78114487327E+03  0.80897683986E+03  0.00000000000E+00 0. -1.
</event>
<event>
 7    1  0.2788485E-009  0.1452096E+03  0.7561462E-02  0.1206486E+00
         -1   -1    0    0    0  501 -0.00000000000E+00  0.00000000000E+00  0.50314826926E+02  0.50314826926E+02  0.00000000000E+00 0.  1.
          1   -1    0    0  501    0  0.00000000000E+00 -0.00000000000E+00 -0.51803524883E+03  0.51803524883E+03  0.00000000000E+00 0. -1.
         25    2    1    2    0    0  0.21319221599E+02  0.91377074892E+02 -0.36195967965E+03  0.39429445286E+03  0.12509607041E+03 0.  0.
          5    1    3    3  502    0 -0.45137959021E+01  0.11832578152E+03 -0.28532563657E+03  0.30894911589E+03  0.41800000000E+01 0.  1.
         -5    1    3    3    0  502  0.25833017501E+02 -0.26948706628E+02 -0.76634043085E+02  0.85345336965E+02  0.41800000000E+01 0.  1.
        -11    1    1    2    0    0  0.38551379761E+02 -0.38676833338E+02 -0.23422937266E+02  0.59420032891E+02  0.00000000000E+00 0.  1.
         11    1    1    2    0    0 -0.59870601361E+02 -0.52700241555E+02 -0.82337804979E+02  0.11463559001E+03  0.00000000000E+00 0. -1.
</event>
<event>
 7    1  0.2788485E-009  0.1052153E+03  0.7561462E-02  0.1269696E+00
          1   -1    0    0  501    0  0.00000000000E+00  0.00000000000E+00  0.26435167587E+02  0.26435167587E+02  0.00000000000E+00 0. -1.
         -1   -1    0    0    0  501 -0.00000000000E+00 -0.00000000000E+00 -0.59292492272E+03  0.59292492272E+03  0.00000000000E+00 0.  1.
         25    2    1    2    0    0  0.10335547985E+01  0.31184653780E+02 -0.24437823020E+03  0.27630111302E+03  0.12509210524E+03 0.  0.
          5    1    3    3  502    0 -0.31201701667E+01  0.65720111712E+02 -0.61705181142E+02  0.90298783630E+02  0.41800000000E+01 0.  1.
         -5    1    3    3    0  502  0.41537249652E+01 -0.34535457932E+02 -0.18267304906E+03  0.18600232939E+03  0.41800000000E+01 0.  1.
        -11    1    1    2    0    0  0.51656746153E+02 -0.21217248366E+02 -0.99704512282E+02  0.11427852301E+03  0.00000000000E+00 0. -1.
         11    1    1    2    0    0 -0.52690300951E+02 -0.99674054143E+01 -0.22240701265E+03  0.22878045428E+03  0.00000000000E+00 0.  1.
</event>
<event>
 7    1  0.2788485E-009  0.1384490E+03  0.7561462E-02  0.1215431E+00
          2   -1    0    0  501    0  0.00000000000E+00  0.00000000000E+00  0.44057820629E+03  0.44057820629E+03  0.00000000000E+00 0. -1.
         -2   -1    0    0    0  501 -0.00000000000E+00 -0.00000000000E+00 -0.60656920642E+02  0.60656920642E+02  0.00000000000E+00 0.  1.
         25    2    1    2    0    0 -0.99401881727E+02 -0.33229508414E+02  0.10721052273E+03  0.19526211872E+03  0.12509302341E+03 0.  0.
          5    1    3    3  502    0 -0.88206263578E+02  0.14282936954E+02  0.14801472066E+02  0.90669196521E+02  0.41800000000E+01 0. -1.
         -5    1    3    3    0  502 -0.11195618149E+02 -0.47512445368E+02  0.92409050662E+02  0.10459292220E+03  0.41800000000E+01 0. -1.
        -11    1    1    2    0    0  0.19392220292E+02  0.52660365399E+02  0.12027401922E+03  0.13272155812E+03  0.00000000000E+00 0.  1.
         11    1    1    2    0    0  0.80009661435E+02 -0.19430856986E+02  0.15243674370E+03  0.17325145009E+03  0.00000000000E+00 0. -1.
</event>
<event>
 7    1  0.2788485E-009  0.8926925E+02  0.7561462E-02  0.1304631E+00
          1   -1    0    0  501    0  0.00000000000E+00  0.00000000000E+00  0.12789380596E+03  0.12789380596E+03  0.00000000000E+00 0. -1.
         -1   -1    0    0    0  501 -0.00000000000E+00 -0.00000000000E+00 -0.12832997347E+03  0.12832997347E+03  0.00000000000E+00 0.  1.
         25    2    1    2    0    0 -0.15397887676E+02 -0.65173569539E+02  0.88826867329E+01  0.14216430356E+03  0.12508836066E+03 0.  0.
          5    1    3    3  502    0 -0.16921596336E+02  0.12847749542E+02  0.49545124898E+02  0.54070295838E+02  0.41800000000E+01 0. -1.
         -5    1    3    3    0  502  0.15237086601E+01 -0.78021319081E+02 -0.40662438165E+02  0.88094007724E+02  0.41800000000E+01 0. -1.
        -11    1    1    2    0    0  0.26154308140E+02  0.21796674916E+02 -0.45311682832E+02  0.56677080666E+02  0.00000000000E+00 0.  1.
         11    1    1    2    0    0 -0.10756420464E+02  0.43376894623E+02  0.35992828591E+02  0.57382395195E+02  0.00000000000E+00 0. -1.
</event>
<event>
 7    1  0.2788485E-009  0.1479980E+03  0.7561462E-02  0.1202955E+00
          1   -1    0    0  501    0  0.00000000000E+00  0.00000000000E+00  0.12733548288E+04  0.12733548288E+04  0.00000000000E+00 0. -1.
         -1   -1    0    0    0  501 -0.00000000000E+00 -0.00000000000E+00 -0.27780856108E+02  0.27780856108E+02  0.00000000000E+00 0.  1.
         25    2    1    2    0    0 -0.87166379743E+00 -0.13668125287E+03  0.89615412482E+03  0.91510686521E+03  0.12508331074E+03 0.  0.
          5    1    3    3  502    0  0.31308345351E+01 -0.19002527772E+01 -0.27047773959E+01  0.61807205296E+01  0.41800000000E+01 0. -1.
         -5    1    3    3    0  502 -0.40024983325E+01 -0.13478100010E+03  0.89885890222E+03  0.90892614468E+03  0.41800000000E+01 0. -1.
        -11    1    1    2    0    0  0.37169017016E+02  0.80199154613E+02  0.25714233655E+03  0.27191105434E+03  0.00000000000E+00 0.  1.
         11    1    1    2    0    0 -0.36297353218E+02  0.56482098261E+02  0.92277511302E+02  0.11411776534E+03  0.00000000000E+00 0. -1.
</event>
<event>
 7    1  0.2788485E-009  0.9068398E+02  0.7561462E-02  0.1301204E+00
          4   -1    0    0  501    0  0.00000000000E+00  0.00000000000E+00  0.50110983709E+02  0.50110983709E+02  0.00000000000E+00 0. -1.
         -4   -1    0    0    0  501 -0.00000000000E+00 -0.00000000000E+00 -0.29199301245E+03  0.29199301245E+03  0.00000000000E+00 0.  1.
         25    2    1    2    0    0  0.54629803040E+02 -0.56677040879E+00 -0.13583057558E+03  0.19256737299E+03  0.12509001267E+03 0.  0.
          5    1    3    3  502    0  0.28577387784E+02  0.45268204698E+02 -0.12838085384E+03  0.13915815995E+03  0.41800000000E+01 0.  1.
         -5    1    3    3    0  502  0.26052415256E+02 -0.45834975107E+02 -0.74497217444E+01  0.53409213042E+02  0.41800000000E+01 0.  1.
        -11    1    1    2    0    0 -0.31385693164E+02 -0.25076898669E+02 -0.10763716116E+03  0.11488982133E+03  0.00000000000E+00 0.  1.
         11    1    1    2    0    0 -0.23244109876E+02  0.25643669078E+02  0.15857080001E+01  0.34646801837E+02  0.00000000000E+00 0. -1.
</event>
<event>
 7    1  0.2788485E-009  0.8974364E+02  0.7561462E-02  0.1303474E+00
          2   -1    0    0  501    0  0.00000000000E+00  0.00000000000E+00  0.41923293184E+03  0.41923293184E+03  0.00000000000E+00 0.  1.
         -2   -1    0    0    0  501 -0.00000000000E+00 -0.00000000000E+00 -0.37555873217E+02  0.37555873217E+02  0.00000000000E+00 0. -1.
         25    2    1    2    0    0  0.17427576558E+02 -0.37690332354E+02  0.12625244104E+03  0.18251342073E+03  0.12508872172E+03 0.  0.
          5    1    3    3  502    0 -0.29524211569E+02 -0.13211923609E+02  0.12521089347E+03  0.12938884897E+03  0.41800000000E+01 0. -1.
         -5    1    3    3    0  502  0.46951788127E+02 -0.24478408745E+02  0.10415475636E+01  0.53124571757E+02  0.41800000000E+01 0. -1.
        -11    1    1    2    0    0  0.21377351104E+02  0.48898579197E+02  0.19030537980E+03  0.19764665383E+03  0.00000000000E+00 0.  1.
         11    1    1    2    0    0 -0.38804927662E+02 -0.11208246843E+02  0.65119237781E+02  0.76628730496E+02  0.00000000000E+00 0. -1.
</event>
<event>
 7    1  0.2788485E-009  0.5696599E+02  0.7561462E-02  0.1411024E+00
         -1   -1    0    0    0  501 -0.00000000000E+00  0.00000000000E+00  0.38364915448E+03  0.38364915448E+03  0.00000000000E+00 0.  1.
          1   -1    0    0  501    0  0.00000000000E+00 -0.00000000000E+00 -0.32736301479E+02  0.32736301479E+02  0.00000000000E+00 0. -1.
         25    2    1    2    0    0  0.91278857821E+01 -0.23872402996E+02  0.18781121880E+03  0.22710618262E+03  0.12510377435E+03 0.  0.
          5    1    3    3  502    0 -0.24787865919E+01 -0.31407120388E+01  0.19999564741E+03  0.20007933386E+03  0.41800000000E+01 0. -1.
         -5    1    3    3    0  502  0.11606672374E+02 -0.20731690957E+02 -0.12184428611E+02  0.27026848764E+02  0.41800000000E+01 0. -1.
        -11    1    1    2    0    0 -0.97649964414E+01  0.53501471528E+02  0.14423476787E+03  0.15414743227E+03  0.00000000000E+00 0.  1.
         11    1    1    2    0    0  0.63711065931E+00 -0.29629068532E+02  0.18866866338E+02  0.35131841077E+02  0.00000000000E+00 0. -1.
</event>
<event>
 7    1  0.2788485E-009  0.1189967E+03  0.7561462E-02  0.1244761E+00
          2   -1    0    0  501    0  0.00000000000E+00  0.00000000000E+00  0.14231160232E+04  0.14231160232E+04  0.00000000000E+00 0. -1.
         -2   -1    0    0    0  501 -0.00000000000E+00 -0.00000000000E+00 -0.18503453213E+02  0.18503453213E+02  0.00000000000E+00 0.  1.
         25    2    1    2    0    0 -0.57767366275E+02  0.45973326879E+02  0.11224225830E+04  0.11317818750E+04  0.12508853859E+03 0.  0.
          5    1    3    3  502    0  0.39131482024E+02  0.22983547842E+02  0.35118344571E+03  0.35412822720E+03  0.41800000000E+01 0.  1.
         -5    1    3    3    0  502 -0.96898848298E+02  0.22989779037E+02  0.77123913724E+03  0.77765364781E+03  0.41800000000E+01 0.  1.
        -11    1    1    2    0    0  0.51225211908E+02 -0.52454404300E+01  0.25565680759E+03  0.26079098958E+03  0.00000000000E+00 0. -1.
         11    1    1    2    0    0  0.65421543668E+01 -0.40727886449E+02  0.26533179413E+02  0.49046611791E+02  0.00000000000E+00 0.  1.
</event>
<event>
 7    1  0.2788485E-009  0.1339771E+03  0.7561462E-02  0.1221671E+00
         -2   -1    0    0    0  501 -0.00000000000E+00  0.00000000000E+00  0.37713175269E+02  0.37713175269E+02  0.00000000000E+00 0.  1.
          2   -1    0    0  501    0  0.00000000000E+00 -0.00000000000E+00 -0.72814382198E+03  0.72814382198E+03  0.00000000000E+00 0. -1.
         25    2    1    2    0    0 -0.11920143764E+03 -0.36784201839E+02 -0.45390858800E+03  0.48707719789E+03  0.12509648361E+03 0.  0.
          5    1    3    3  502    0 -0.10158660467E+03 -0.53629844919E+01 -0.15169043710E+03  0.18269116278E+03  0.41800000000E+01 0. -1.
         -5    1    3    3    0  502 -0.17614832971E+02 -0.31421217347E+02 -0.30221815089E+03  0.30438603511E+03  0.41800000000E+01 0. -1.
        -11    1    1    2    0    0  0.89594829685E+02  0.43379915353E+02 -0.10863670658E+03  0.14734647800E+03  0.00000000000E+00 0.  1.
         11    1    1    2    0    0  0.29606607956E+02 -0.65957135141E+01 -0.12788535214E+03  0.13143332136E+03  0.00000000000E+00 0. -1.
</event>
<event>
 7    1  0.2788485E-009  0.3094477E+03  0.7561462E-02  0.1080611E+00
          2   -1    0    0  501    0  0.00000000000E+00  0.00000000000E+00  0.12396750359E+04  0.12396750359E+04  0.00000000000E+00 0. -1.
         -2   -1    0    0    0  501 -0.00000000000E+00 -0.00000000000E+00 -0.78870433097E+02  0.78870433097E+02  0.00000000000E+00 0.  1.
         25    2    1    2    0    0  0.28366512564E+03 -0.68446323239E+02  0.64425600017E+03  0.71823542833E+03  0.12508210941E+03 0.  0.
          5    1    3    3  502    0  0.23716397931E+03 -0.10241512961E+03  0.55072719780E+03  0.60832025336E+03  0.41800000000E+01 0. -1.
         -5    1    3    3    0  502  0.46501146321E+02  0.33968806375E+02  0.93528802367E+02  0.10991517497E+03  0.41800000000E+01 0. -1.
        -11    1    1    2    0    0 -0.19599713069E+03  0.84895058079E+02  0.40100413595E+03  0.45434168109E+03  0.00000000000E+00 0. -1.
         11    1    1    2    0    0 -0.87667994942E+02 -0.16448734840E+02  0.11554446668E+03  0.14596835957E+03  0.00000000000E+00 0.  1.
</event>
<event>
 7    1  0.2788485E-009  0.1704303E+03  0.7561462E-02  0.1177400E+00
          1   -1    0    0  501    0  0.00000000000E+00  0.00000000000E+00  0.21999284023E+03  0.21999284023E+03  0.00000000000E+00 0. -1.
         -1   -1    0    0    0  501 -0.00000000000E+00 -0.00000000000E+00 -0.14777903911E+03  0.14777903911E+03  0.00000000000E+00 0.  1.
         25    2    1    2    0    0 -0.99707809119E+02  0.98667183007E+02  0.79642159330E+01  0.18811928746E+03  0.12509427396E+03 0.  0.
          5    1    3    3  502    0  0.39666145319E+01 -0.22435815299E+02 -0.14113288357E+02  0.27124843727E+02  0.41800000000E+01 0. -1.
         -5    1    3    3    0  502 -0.10367442365E+03  0.12110299831E+03  0.22077504290E+02  0.16099444374E+03  0.41800000000E+01 0. -1.
        -11    1    1    2    0    0  0.67133193991E+02 -0.15493214686E+02  0.58084074993E+02  0.90114733560E+02  0.00000000000E+00 0.  1.
         11    1    1    2    0    0  0.32574615128E+02 -0.83173968320E+02  0.61655101996E+01  0.89537858322E+02  0.00000000000E+00 0. -1.
</event>
<event>
 7    1  0.3049698E-009  0.1911990E+03  0.7561462E-02  0.1157384E+00
         -1   -1    0    0    0  501 -0.00000000000E+00  0.00000000000E+00  0.38070416525E+02  0.38070416525E+02  0.00000000000E+00 0.  1.
          1   -1    0    0  501    0  0.00000000000E+00 -0.00000000000E+00 -0.11255397631E+04  0.11255397631E+04  0.00000000000E+00 0. -1.
         25    2    1    2    0    0  0.87362873751E+02 -0.15247371468E+03 -0.56860440440E+03  0.60814555852E+03  0.12509814652E+03 0.  0.
          5    1    3    3  502    0  0.84288233760E+02 -0.16152680806E+03 -0.40391034425E+03  0.44312126406E+03  0.41800000000E+01 0. -1.
         -5    1    3    3    0  502  0.30746399914E+01  0.90530933845E+01 -0.16469406015E+03  0.16502429446E+03  0.41800000000E+01 0. -1.
        -11    1    1    2    0    0 -0.47818333140E+02  0.14048038275E+03 -0.32546613273E+03  0.35770034174E+03  0.00000000000E+00 0.  1.
         11    1    1    2    0    0 -0.39544540611E+02  0.11993331931E+02 -0.19339880948E+03  0.19776427941E+03  0.00000000000E+00 0. -1.
</event>
<event>
 7    1  0.2788485E-009  0.8146691E+02  0.7561462E-02  0.1324939E+00
         -1   -1    0    0    0  501 -0.00000000000E+00  0.00000000000E+00  0.36238636586E+02  0.36238636586E+02  0.00000000000E+00 0.  1.
          1   -1    0    0  501    0  0.00000000000E+00 -0.00000000000E+00 -0.44257532169E+03  0.44257532169E+03  0.00000000000E+00 0. -1.
         25    2    1    2    0    0 -0.14869957120E+02 -0.12733930811E+01 -0.31799331852E+03  0.34203769993E+03  0.12508916978E+03 0.  0.
          5    1    3    3  502    0 -0.16546766310E+02 -0.32019989778E+02 -0.18117334947E+02  0.40555954511E+02  0.41800000000E+01 0.  1.
         -5    1    3    3    0  502  0.16768091898E+01  0.30746596697E+02 -0.29987598358E+03  0.30148174542E+03  0.41800000000E+01 0.  1.
        -11    1    1    2    0    0 -0.30166817001E+02  0.29686749389E+02 -0.12548413916E+02  0.44145244694E+02  0.00000000000E+00 0.  1.
         11    1    1    2    0    0  0.45036774121E+02 -0.28413356308E+02 -0.75794952666E+02  0.92631013648E+02  0.00000000000E+00 0. -1.
</event>
<event>
 7    1  0.2788485E-009  0.8341744E+02  0.7561462E-02  0.1319624E+00
         -3   -1    0    0    0  501 -0.00000000000E+00  0.00000000000E+00  0.11954440118E+03  0.11954440118E+03  0.00000000000E+00 0.  1.
          3   -1    0    0  501    0  0.00000000000E+00 -0.00000000000E+00 -0.13220869480E+03  0.13220869480E+03  0.00000000000E+00 0. -1.
         25    2    1    2    0    0 -0.29523829666E+02  0.53882272764E+02  0.10275878242E+02  0.13974311056E+03  0.12509031712E+03 0.  0.
          5    1    3    3  502    0  0.11416735160E+02  0.11426465332E+02  0.60130538197E+02  0.62402403604E+02  0.41800000000E+01 0. -1.
         -5    1    3    3    0  502 -0.40940564826E+02  0.42455807431E+02 -0.49854659954E+02  0.77340706954E+02  0.41800000000E+01 0. -1.
        -11    1    1    2    0    0  0.19137231351E+02 -0.69599888620E+02 -0.43377666426E+02  0.84214013467E+02  0.00000000000E+00 0. -1.
         11    1    1    2    0    0  0.10386598314E+02  0.15717615856E+02  0.20437494562E+02  0.27795971952E+02  0.00000000000E+00 0.  1.
</event>
<event>
 7    1  0.2788485E-009  0.1970137E+03  0.7561462E-02  0.1152283E+00
          2   -1    0    0  501    0  0.00000000000E+00  0.00000000000E+00  0.93273319732E+03  0.93273319732E+03  0.00000000000E+00 0. -1.
         -2   -1    0    0    0  501 -0.00000000000E+00 -0.00000000000E+00 -0.47666179818E+02  0.47666179818E+02  0.00000000000E+00 0.  1.
         25    2    1    2    0    0  0.38504420008E+02  0.17048352158E+03  0.36589771542E+03  0.42435252402E+03  0.12508678987E+03 0.  0.
          5    1    3    3  502    0  0.33898601006E+02  0.81067088444E+00  0.12532986987E+03  0.12990312167E+03  0.41800000000E+01 0. -1.
         -5    1    3    3    0  502  0.46058190015E+01  0.16967285070E+03  0.24056784555E+03  0.29444940235E+03  0.41800000000E+01 0. -1.
        -11    1    1    2    0    0 -0.49252203605E+02 -0.53961688158E+02  0.28570881097E+03  0.29490196340E+03  0.00000000000E+00 0. -1.
         11    1    1    2    0    0  0.10747783598E+02 -0.11652183343E+03  0.23346049111E+03  0.26114488972E+03  0.00000000000E+00 0.  1.
</event>
<event>
 7    1  0.2788485E-009  0.9974294E+02  0.7561462E-02  0.1280837E+00
          2   -1    0    0  501    0  0.00000000000E+00  0.00000000000E+00  0.20295082491E+03  0.20295082491E+03  0.00000000000E+00 0. -1.
         -2   -1    0    0    0  501 -0.00000000000E+00 -0.00000000000E+00 -0.73583851529E+02  0.73583851529E+02  0.00000000000E+00 0.  1.
         25    2    1    2    0    0 -0.19674584097E+02  0.24385753344E+02  0.12501830183E+03  0.17960809371E+03  0.12509091617E+03 0.  0.
          5    1    3    3  502    0  0.11640685556E+02  0.57695836956E+02  0.11962053927E+03  0.13338238631E+03  0.41800000000E+01 0. -1.
         -5    1    3    3    0  502 -0.31315269654E+02 -0.33310083611E+02  0.53977625593E+01  0.46225707397E+02  0.41800000000E+01 0. -1.
        -11    1    1    2    0    0 -0.18468655034E+02  0.25678662257E+02 -0.83610629265E+01  0.32716850205E+02  0.00000000000E+00 0.  1.
         11    1    1    2    0    0  0.38143239131E+02 -0.50064415601E+02  0.12709734478E+02  0.64209732529E+02  0.00000000000E+00 0. -1.
</event>
<event>
 7    1  0.2788485E-009  0.1162901E+03  0.7561462E-02  0.1249346E+00
          2   -1    0    0  501    0  0.00000000000E+00  0.00000000000E+00  0.32104204630E+03  0.32104204630E+03  0.00000000000E+00 0. -1.
         -2   -1    0    0    0  501 -0.00000000000E+00 -0.00000000000E+00 -0.51355759132E+02  0.51355759132E+02  0.00000000000E+00 0.  1.
         25    2    1    2    0    0 -0.74534382763E+02 -0.22517006189E+02  0.19002256230E+03  0.24045430422E+03  0.12508920197E+03 0.  0.
          5    1    3    3  502    0 -0.91436471399E+02 -0.44128156449E+02  0.18662413340E+03  0.21249461654E+03  0.41800000000E+01 0.  1.
         -5    1    3    3    0  502  0.16902088636E+02  0.21611150259E+02  0.33984289072E+01  0.27959687674E+02  0.41800000000E+01 0.  1.
        -11    1    1    2    0    0  0.14282558414E+02  0.38344229734E+02  0.44317869741E+02  0.60318695336E+02  0.00000000000E+00 0. -1.
         11    1    1    2    0    0  0.60251824348E+02 -0.15827223545E+02  0.35345855120E+02  0.71624805875E+02  0.00000000000E+00 0.  1.
</event>
<event>
 7    1  0.3993095E-009  0.1012029E+03  0.7561462E-02  0.1277787E+00
         -2   -1    0    0    0  501 -0.00000000000E+00  0.00000000000E+00  0.14939014327E+03  0.14939014327E+03  0.00000000000E+00 0.  1.
          2   -1    0    0  501    0  0.00000000000E+00 -0.00000000000E+00 -0.10895193354E+03  0.10895193354E+03  0.00000000000E+00 0. -1.
         25    2    1    2    0    0  0.44076317423E+02 -0.45822189272E+02  0.42528665896E+02  0.14662307938E+03  0.12508894914E+03 0.  0.
          5    1    3    3  502    0  0.45376157918E+01  0.30534641869E+02 -0.22757953705E+02  0.38579154578E+02  0.41800000000E+01 0. -1.
         -5    1    3    3    0  502  0.39538701632E+02 -0.76356831141E+02  0.65286619601E+02  0.10804392481E+03  0.41800000000E+01 0. -1.
        -11    1    1    2    0    0 -0.36818189614E+02 -0.19268369705E+01  0.34989848507E+02  0.50828941418E+02  0.00000000000E+00 0.  1.
         11    1    1    2    0    0 -0.72581278094E+01  0.47749026243E+02 -0.37080304673E+02  0.60890056012E+02  0.00000000000E+00 0. -1.
</event>
<event>
 7    1  0.2788485E-009  0.9186284E+02  0.7561462E-02  0.1298402E+00
          2   -1    0    0  501    0  0.00000000000E+00  0.00000000000E+00  0.84276667035E+02  0.84276667035E+02  0.00000000000E+00 0. -1.
         -2   -1    0    0    0  501 -0.00000000000E+00 -0.00000000000E+00 -0.15214624486E+03  0.15214624486E+03  0.00000000000E+00 0.  1.
         25    2    1    2    0    0 -0.18940451133E+02  0.14900865893E+02 -0.26649201686E+02  0.13013445909E+03  0.12507606086E+03 0.  0.
          5    1    3    3  502    0 -0.45612983332E+02 -0.43122861813E+02 -0.18794849510E+02  0.65657019636E+02  0.41800000000E+01 0.  1.
         -5    1    3    3    0  502  0.26672532199E+02  0.58023727706E+02 -0.78543521765E+01  0.64477439457E+02  0.41800000000E+01 0.  1.
        -11    1    1    2    0    0 -0.11625189470E+02  0.11557315338E+02  0.24292755469E+02  0.29306220096E+02  0.00000000000E+00 0. -1.
         11    1    1    2    0    0  0.30565640603E+02 -0.26458181231E+02 -0.65513131610E+02  0.76982232710E+02  0.00000000000E+00 0.  1.
</event>
<event>
 7    1  0.2788485E-009  0.9839893E+02  0.7561462E-02  0.1283699E+00
          1   -1    0    0  501    0  0.00000000000E+00  0.00000000000E+00  0.47847943378E+02  0.47847943378E+02  0.00000000000E+00 0. -1.
         -1   -1    0    0    0  501 -0.00000000000E+00 -0.00000000000E+00 -0.33661118044E+03  0.33661118044E+03  0.00000000000E+00 0.  1.
         25    2    1    2    0    0 -0.32756769991E+00 -0.63380946900E+02 -0.13168115263E+03  0.19236479082E+03  0.12508810919E+03 0.  0.
          5    1    3    3  502    0 -0.29254323236E+02 -0.36793114475E+02 -0.14355109613E+03  0.15110902786E+03  0.41800000000E+01 0. -1.
         -5    1    3    3    0  502  0.28926755536E+02 -0.26587832424E+02  0.11869943499E+02  0.41255762962E+02  0.41800000000E+01 0. -1.
        -11    1    1    2    0    0  0.42281066450E+02  0.12380682842E+02 -0.71695299258E+02  0.84149782076E+02  0.00000000000E+00 0.  1.
         11    1    1    2    0    0 -0.41953498750E+02  0.51000264057E+02 -0.85386785174E+02  0.10794455092E+03  0.00000000000E+00 0. -1.
</event>
<event>
 7    1  0.2788485E-009  0.9417751E+02  0.7561462E-02  0.1293039E+00
          2   -1    0    0  501    0  0.00000000000E+00  0.00000000000E+00  0.70222559680E+02  0.70222559680E+02  0.00000000000E+00 0. -1.
         -2   -1    0    0    0  501 -0.00000000000E+00 -0.00000000000E+00 -0.22131258801E+03  0.22131258801E+03  0.00000000000E+00 0.  1.
         25    2    1    2    0    0 -0.29268086011E+02 -0.46363769859E+02 -0.93781968336E+02  0.16567706155E+03  0.12509041181E+03 0.  0.
          5    1    3    3  502    0 -0.45315396394E+02 -0.35475410544E+02 -0.11979234497E+03  0.13296491348E+03  0.41800000000E+01 0. -1.
         -5    1    3    3    0  502  0.16047310383E+02 -0.10888359315E+02  0.26010376632E+02  0.32712148075E+02  0.41800000000E+01 0. -1.
        -11    1    1    2    0    0  0.55055391417E+02  0.60176675158E+02 -0.33631902371E+02  0.88223767853E+02  0.00000000000E+00 0. -1.
         11    1    1    2    0    0 -0.25787305406E+02 -0.13812905299E+02 -0.23676157625E+02  0.37634318285E+02  0.00000000000E+00 0.  1.
</event>
<event>
 7    1  0.2788485E-009  0.1251596E+03  0.7561462E-02  0.1234820E+00
          2   -1    0    0  501    0  0.00000000000E+00  0.00000000000E+00  0.28139096104E+04  0.28139096104E+04  0.00000000000E+00 0. -1.
         -2   -1    0    0    0  501 -0.00000000000E+00 -0.00000000000E+00 -0.10808232548E+02  0.10808232548E+02  0.00000000000E+00 0.  1.
         25    2    1    2    0    0 -0.25017922969E+01 -0.10126479469E+03  0.22308925903E+04  0.22366918493E+04  0.12509141351E+03 0.  0.
          5    1    3    3  502    0 -0.25872142735E+02 -0.29187443539E+02  0.16948958438E+04  0.16953497186E+04  0.41800000000E+01 0.  1.
         -5    1    3    3    0  502  0.23370350438E+02 -0.72077351154E+02  0.53599674650E+03  0.54134213071E+03  0.41800000000E+01 0.  1.
        -11    1    1    2    0    0 -0.12137030951E+02 -0.14277863292E+02  0.92781344534E+02  0.94654861439E+02  0.00000000000E+00 0.  1.
         11    1    1    2    0    0  0.14638823247E+02  0.11554265798E+03  0.47942744295E+03  0.49337113213E+03  0.00000000000E+00 0. -1.
</event>
<event>
 7    1  0.2788485E-009  0.1013256E+03  0.7561462E-02  0.1277533E+00
         -1   -1    0    0    0  501 -0.00000000000E+00  0.00000000000E+00  0.55602169294E+02  0.55602169294E+02  0.00000000000E+00 0.  1.
          1   -1    0    0  501    0  0.00000000000E+00 -0.00000000000E+00 -0.33511562576E+03  0.33511562576E+03  0.00000000000E+00 0. -1.
         25    2    1    2    0    0 -0.39286586725E+02  0.58131029448E+02 -0.91854532464E+02  0.17031290866E+03  0.12508628718E+03 0.  0.
          5    1    3    3  502    0 -0.49001035654E+02  0.61365694209E+02 -0.85630883321E+00  0.78645124361E+02  0.41800000000E+01 0. -1.
         -5    1    3    3    0  502  0.97144489294E+01 -0.32346647602E+01 -0.90998223631E+02  0.91667784298E+02  0.41800000000E+01 0. -1.
        -11    1    1    2    0    0  0.40772129507E+02 -0.80657065289E+02 -0.16658740159E+03  0.18952385363E+03  0.00000000000E+00 0. -1.
         11    1    1    2    0    0 -0.14855427821E+01  0.22526035840E+02 -0.21071522414E+02  0.30881032769E+02  0.00000000000E+00 0.  1.
</event>
<event>
 7    1  0.2788485E-009  0.1332046E+03  0.7561462E-02  0.1222777E+00
          2   -1    0    0  501    0  0.00000000000E+00  0.00000000000E+00  0.43550849933E+03  0.43550849933E+03  0.00000000000E+00 0. -1.
         -2   -1    0    0    0  501 -0.00000000000E+00 -0.00000000000E+00 -0.53076406604E+02  0.53076406604E+02  0.00000000000E+00 0.  1.
         25    2    1    2    0    0  0.64129451088E+02 -0.86267395536E+02  0.23790019956E+03  0.28947943200E+03  0.12508871481E+03 0.  0.
          5    1    3    3  502    0 -0.10768297890E+02  0.19728803835E+02  0.59007255792E+01  0.23610864079E+02  0.41800000000E+01 0.  1.
         -5    1    3    3    0  502  0.74897748979E+02 -0.10599619937E+03  0.23199947398E+03  0.26586856792E+03  0.41800000000E+01 0.  1.
        -11    1    1    2    0    0 -0.17304457427E+02  0.21727054308E+01  0.83121279779E+02  0.84931219512E+02  0.00000000000E+00 0. -1.
         11    1    1    2    0    0 -0.46824993661E+02  0.84094690105E+02  0.61410613388E+02  0.11417425442E+03  0.00000000000E+00 0.  1.
</event>
<event>
 7    1  0.2788485E-009  0.2053978E+03  0.7561462E-02  0.1145263E+00
          2   -1    0    0  501    0  0.00000000000E+00  0.00000000000E+00  0.78830668179E+03  0.78830668179E+03  0.00000000000E+00 0. -1.
         -2   -1    0    0    0  501 -0.00000000000E+00 -0.00000000000E+00 -0.90337011784E+02  0.90337011784E+02  0.00000000000E+00 0.  1.
         25    2    1    2    0    0 -0.17195191319E+03 -0.44406655673E+02  0.83726262603E+02  0.23280176358E+03  0.12508861883E+03 0.  0.
          5    1    3    3  502    0 -0.11140345356E+02 -0.49042434364E+02  0.44203154503E+02  0.67086950528E+02  0.41800000000E+01 0. -1.
         -5    1    3    3    0  502 -0.16081156783E+03  0.46357786917E+01  0.39523108100E+02  0.16571481305E+03  0.41800000000E+01 0. -1.
        -11    1    1    2    0    0  0.68359925601E+02 -0.27086262327E+02  0.21479643630E+03  0.22703359682E+03  0.00000000000E+00 0.  1.
         11    1    1    2    0    0  0.10359198758E+03  0.71492918000E+02  0.39944697110E+03  0.41880833317E+03  0.00000000000E+00 0. -1.
</event>
<event>
 7    1  0.2788485E-009  0.9454598E+02  0.7561462E-02  0.1292202E+00
         -1   -1    0    0    0  501 -0.00000000000E+00  0.00000000000E+00  0.55156165946E+02  0.55156165946E+02  0.00000000000E+00 0.  1.
          1   -1    0    0  501    0  0.00000000000E+00 -0.00000000000E+00 -0.23373103184E+03  0.23373103184E+03  0.00000000000E+00 0. -1.
         25    2    1    2    0    0  0.17321982443E+01  0.60792605500E+00 -0.13358889963E+03  0.18302486575E+03  0.12509491314E+03 0.  0.
          5    1    3    3  502    0 -0.47193704652E+02 -0.37750005236E+02 -0.83046210533E+02  0.10279325921E+03  0.41800000000E+01 0. -1.
         -5    1    3    3    0  502  0.48925902897E+02  0.38357931291E+02 -0.50542689099E+02  0.80231606544E+02  0.41800000000E+01 0. -1.
        -11    1    1    2    0    0  0.19612247958E+02 -0.26296220413E+02  0.15871751272E+02  0.36442337554E+02  0.00000000000E+00 0.  1.
         11    1    1    2    0    0 -0.21344446202E+02  0.25688294358E+02 -0.60857717532E+02  0.69419994482E+02  0.00000000000E+00 0. -1.
</event>
<event>
 7    1  0.2788485E-009  0.6726898E+02  0.7561462E-02  0.1369634E+00
         -1   -1    0    0    0  501 -0.00000000000E+00  0.00000000000E+00  0.70763316809E+02  0.70763316809E+02  0.00000000000E+00 0.  1.
          1   -1    0    0  501    0  0.00000000000E+00 -0.00000000000E+00 -0.19163809984E+03  0.19163809984E+03  0.00000000000E+00 0. -1.
         25    2    1    2    0    0 -0.16447669789E+02 -0.32531988626E+02 -0.19331684181E+02  0.13171984575E+03  0.12509015799E+03 0.  0.
          5    1    3    3  502    0 -0.27527748107E+02 -0.12193520260E+02 -0.69746484976E+02  0.76082214864E+02  0.41800000000E+01 0.  1.
         -5    1    3    3    0  502  0.11080078318E+02 -0.20338468366E+02  0.50414800795E+02  0.55637630883E+02  0.41800000000E+01 0.  1.
        -11    1    1    2    0    0  0.43269377949E+02  0.31935585284E+02 -0.79385011570E+02  0.95885873503E+02  0.00000000000E+00 0.  1.
         11    1    1    2    0    0 -0.26821708160E+02  0.59640334223E+00 -0.22158087284E+02  0.34795697401E+02  0.00000000000E+00 0. -1.
</event>
<event>
 7    1  0.2788485E-009  0.1024024E+03  0.7561462E-02  0.1275324E+00
          3   -1    0    0  501    0  0.00000000000E+00  0.00000000000E+00  0.20224088605E+02  0.20224088605E+02  0.00000000000E+00 0. -1.
         -3   -1    0    0    0  501 -0.00000000000E+00 -0.00000000000E+00 -0.65706389491E+03  0.65706389491E+03  0.00000000000E+00 0.  1.
         25    2    1    2    0    0  0.80099096007E+01 -0.34876302964E+02 -0.32112947662E+03  0.34648398791E+03  0.12508596232E+03 0.  0.
          5    1    3    3  502    0  0.54682423685E+02  0.14729208864E+01 -0.72719757182E+02  0.91093207434E+02  0.41800000000E+01 0. -1.
         -5    1    3    3    0  502 -0.46672514084E+02 -0.36349223850E+02 -0.24840971943E+03  0.25539078048E+03  0.41800000000E+01 0. -1.
        -11    1    1    2    0    0  0.23432652178E+02  0.50393556203E+02 -0.12359286429E+03  0.13551308349E+03  0.00000000000E+00 0. -1.
         11    1    1    2    0    0 -0.31442561779E+02 -0.15517253239E+02 -0.19211746540E+03  0.19529091211E+03  0.00000000000E+00 0.  1.
</event>
<event>
 7    1  0.2788485E-009  0.1060117E+03  0.7561462E-02  0.1268139E+00
          2   -1    0    0  501    0  0.00000000000E+00  0.00000000000E+00  0.52573782555E+03  0.52573782555E+03  0.00000000000E+00 0. -1.
         -2   -1    0    0    0  501 -0.00000000000E+00 -0.00000000000E+00 -0.22305300414E+02  0.22305300414E+02  0.00000000000E+00 0.  1.
         25    2    1    2    0    0  0.17930828084E+02 -0.61727142090E+01  0.29464593559E+03  0.32066094263E+03  0.12509035043E+03 0.  0.
          5    1    3    3  502    0  0.53013165283E+02 -0.45427530945E+02  0.12819496878E+03  0.14603245763E+03  0.41800000000E+01 0. -1.
         -5    1    3    3    0  502 -0.35082337199E+02  0.39254816736E+02  0.16645096682E+03  0.17462848501E+03  0.41800000000E+01 0. -1.
        -11    1    1    2    0    0 -0.56570992570E+01  0.46640881524E+02  0.94792322494E+02  0.10579678164E+03  0.00000000000E+00 0.  1.
         11    1    1    2    0    0 -0.12273728827E+02 -0.40468167315E+02  0.11399426705E+03  0.12158540170E+03  0.00000000000E+00 0. -1.
</event>
<event>
 7    1  0.2788485E-009  0.1311092E+03  0.7561462E-02  0.1225819E+00
          2   -1    0    0  501    0  0.00000000000E+00  0.00000000000E+00  0.19842091436E+03  0.19842091436E+03  0.00000000000E+00 0. -1.
         -2   -1    0    0    0  501 -0.00000000000E+00 -0.00000000000E+00 -0.89494402130E+02  0.89494402130E+02  0.00000000000E+00 0.  1.
         25    2    1    2    0    0 -0.35736748753E+02  0.67349487393E+02  0.57029766297E+02  0.15720332171E+03  0.12508965365E+03 0.  0.
          5    1    3    3  502    0 -0.32768125660E+02  0.10322743250E+03  0.53266442177E+02  0.12076605128E+03  0.41800000000E+01 0.  1.
         -5    1    3    3    0  502 -0.29686230932E+01 -0.35877945105E+02  0.37633241208E+01  0.36437270431E+02  0.41800000000E+01 0.  1.
        -11    1    1    2    0    0 -0.18263836562E+02 -0.60454286238E+02  0.14886562926E+02  0.64883728363E+02  0.00000000000E+00 0. -1.
         11    1    1    2    0    0  0.54000585315E+02 -0.68952011546E+01  0.37010183005E+02  0.65828266417E+02  0.00000000000E+00 0.  1.
</event>
<event>
 7    1  0.2788485E-009  0.1033424E+03  0.7561462E-02  0.1273420E+00
          2   -1    0    0  501    0  0.00000000000E+00  0.00000000000E+00  0.92748098894E+02  0.92748098894E+02  0.00000000000E+00 0.  1.
         -2   -1    0    0    0  501 -0.00000000000E+00 -0.00000000000E+00 -0.13969237102E+03  0.13969237102E+03  0.00000000000E+00 0. -1.
         25    2    1    2    0    0  0.16008113735E+01  0.18551203506E+01 -0.57480971947E+02  0.13768850581E+03  0.12509219970E+03 0.  0.
          5    1    3    3  502    0  0.45991303916E+02 -0.37633559519E+02 -0.77081998289E+01  0.60069739325E+02  0.41800000000E+01 0.  1.
         -5    1    3    3    0  502 -0.44390492542E+02  0.39488679869E+02 -0.49772772118E+02  0.77618766483E+02  0.41800000000E+01 0.  1.
        -11    1    1    2    0    0 -0.29997088378E+02 -0.33544979356E+02  0.22829685776E+02  0.50460732295E+02  0.00000000000E+00 0.  1.
         11    1    1    2    0    0  0.28396277004E+02  0.31689859006E+02 -0.12292985954E+02  0.44291231809E+02  0.00000000000E+00 0. -1.
</event>
<event>
 7    1  0.2788485E-009  0.1797561E+03  0.7561462E-02  0.1168039E+00
         -2   -1    0    0    0  501 -0.00000000000E+00  0.00000000000E+00  0.53049405771E+03  0.53049405771E+03  0.00000000000E+00 0.  1.
          2   -1    0    0  501    0  0.00000000000E+00 -0.00000000000E+00 -0.81094719819E+02  0.81094719819E+02  0.00000000000E+00 0. -1.
         25    2    1    2    0    0 -0.12298478041E+03 -0.94599346513E+02  0.27305419212E+03  0.33805505106E+03  0.12509329775E+03 0.  0.
          5    1    3    3  502    0 -0.30867047371E+02  0.26071191512E+02  0.26562908369E+02  0.48533927734E+02  0.41800000000E+01 0. -1.
         -5    1    3    3    0  502 -0.92117733036E+02 -0.12067053803E+03  0.24649128375E+03  0.28952112332E+03  0.41800000000E+01 0. -1.
        -11    1    1    2    0    0  0.67875468048E+02  0.13872556004E+02  0.16010366756E+03  0.17444973872E+03  0.00000000000E+00 0.  1.
         11    1    1    2    0    0  0.55109312359E+02  0.80726790509E+02  0.16241478217E+02  0.99083987754E+02  0.00000000000E+00 0. -1.
</event>
<event>
 7    1  0.2788485E-009  0.1035127E+03  0.7561462E-02  0.1273078E+00
          2   -1    0    0  501    0  0.00000000000E+00  0.00000000000E+00  0.51175568088E+03  0.51175568088E+03  0.00000000000E+00 0.  1.
         -2   -1    0    0    0  501 -0.00000000000E+00 -0.00000000000E+00 -0.24797931858E+02  0.24797931858E+02  0.00000000000E+00 0. -1.
         25    2    1    2    0    0  0.11571522198E+02 -0.96974853015E+01  0.33864003727E+03  0.36132066885E+03  0.12509040553E+03 0.  0.
          5    1    3    3  502    0  0.89494018285E+01 -0.63688425588E+02  0.12174228930E+03  0.13774964520E+03  0.41800000000E+01 0.  1.
         -5    1    3    3    0  502  0.26221203690E+01  0.53990940286E+02  0.21689774796E+03  0.22357102366E+03  0.41800000000E+01 0.  1.
        -11    1    1    2    0    0 -0.64314617966E+01 -0.38931836051E+02  0.39017340970E+02  0.55492381959E+02  0.00000000000E+00 0.  1.
         11    1    1    2    0    0 -0.51400604010E+01  0.48629321353E+02  0.10930037079E+03  0.11974056193E+03  0.00000000000E+00 0. -1.
</event>
<event>
 7    1  0.2788485E-009  0.3464989E+03  0.7561462E-02  0.1064061E+00
         -1   -1    0    0    0  501 -0.00000000000E+00  0.00000000000E+00  0.10647191670E+04  0.10647191670E+04  0.00000000000E+00 0.  1.
          1   -1    0    0  501    0  0.00000000000E+00 -0.00000000000E+00 -0.16418474169E+03  0.16418474169E+03  0.00000000000E+00 0. -1.
         25    2    1    2    0    0  0.26919409466E+03 -0.21009923966E+03  0.13912520786E+03  0.38937189610E+03  0.12508996325E+03 0.  0.
          5    1    3    3  502    0  0.32170552045E+01 -0.16702054414E+02 -0.17797296363E+02  0.24970467029E+02  0.41800000000E+01 0. -1.
         -5    1    3    3    0  502  0.26597703945E+03 -0.19339718524E+03  0.15692250422E+03  0.36440142907E+03  0.41800000000E+01 0. -1.
        -11    1    1    2    0    0 -0.14686397877E+03  0.15135382220E+03  0.54153722276E+03  0.58115365558E+03  0.00000000000E+00 0. -1.
         11    1    1    2    0    0 -0.12233011589E+03  0.58745417453E+02  0.21987199465E+03  0.25837835698E+03  0.00000000000E+00 0.  1.
</event>
<event>
 7    1  0.2788485E-009  0.1183728E+03  0.7561462E-02  0.1245806E+00
         -1   -1    0    0    0  501 -0.00000000000E+00  0.00000000000E+00  0.14772465142E+03  0.14772465142E+03  0.00000000000E+00 0.  1.
          1   -1    0    0  501    0  0.00000000000E+00 -0.00000000000E+00 -0.11303510362E+03  0.11303510362E+03  0.00000000000E+00 0. -1.
         25    2    1    2    0    0  0.71527758504E+02 -0.12265235768E+02  0.32202324458E+02  0.14815758715E+03  0.12508806771E+03 0.  0.
          5    1    3    3  502    0  0.10562763411E+03  0.53927278946E+01  0.26467937019E+02  0.10910684072E+03  0.41800000000E+01 0.  1.
         -5    1    3    3    0  502 -0.34099875606E+02 -0.17657963663E+02  0.57343874389E+01  0.39050746425E+02  0.41800000000E+01 0.  1.
        -11    1    1    2    0    0 -0.23309511228E+02 -0.22834127769E+02 -0.30312680655E+02  0.44537504568E+02  0.00000000000E+00 0. -1.
         11    1    1    2    0    0 -0.48218247276E+02  0.35099363538E+02  0.32799903995E+02  0.68064663323E+02  0.00000000000E+00 0.  1.
</event>
<event>
 7    1  0.2788485E-009  0.1279119E+03  0.7561462E-02  0.1230587E+00
         -1   -1    0    0    0  501 -0.00000000000E+00  0.00000000000E+00  0.19025113423E+03  0.19025113423E+03  0.00000000000E+00 0.  1.
          1   -1    0    0  501    0  0.00000000000E+00 -0.00000000000E+00 -0.13904932694E+03  0.13904932694E+03  0.00000000000E+00 0. -1.
         25    2    1    2    0    0 -0.70773116016E+02  0.60730858535E+02 -0.49146226283E+02  0.16359578591E+03  0.12510459016E+03 0.  0.
          5    1    3    3  502    0  0.25048792942E+02  0.49295900173E+02 -0.35998698431E+02  0.66112831512E+02  0.41800000000E+01 0. -1.
         -5    1    3    3    0  502 -0.95821908958E+02  0.11434958362E+02 -0.13147527852E+02  0.97482954395E+02  0.41800000000E+01 0. -1.
        -11    1    1    2    0    0  0.43679169499E+02 -0.78750099168E+01  0.96461210003E+02  0.10618215794E+03  0.00000000000E+00 0.  1.
         11    1    1    2    0    0  0.27093946517E+02 -0.52855848618E+02  0.38868235771E+01  0.59522517324E+02  0.00000000000E+00 0. -1.
</event>
<event>
 7    1  0.2788485E-009  0.1748609E+03  0.7561462E-02  0.1172871E+00
         -1   -1    0    0    0  501 -0.00000000000E+00  0.00000000000E+00  0.47626169546E+02  0.47626169546E+02  0.00000000000E+00 0.  1.
          1   -1    0    0  501    0  0.00000000000E+00 -0.00000000000E+00 -0.74924477656E+03  0.74924477656E+03  0.00000000000E+00 0. -1.
         25    2    1    2    0    0 -0.11420309121E+03  0.10127942691E+03 -0.40962389830E+03  0.45468535274E+03  0.12508862289E+03 0.  0.
          5    1    3    3  502    0 -0.87912239276E+02  0.11400858140E+03 -0.22114877809E+03  0.26391432871E+03  0.41800000000E+01 0. -1.
         -5    1    3    3    0  502 -0.26290851929E+02 -0.12729154489E+02 -0.18847512021E+03  0.19077102403E+03  0.41800000000E+01 0. -1.
        -11    1    1    2    0    0 -0.14620456316E+02 -0.16103513441E+02 -0.56771944033E+02  0.60795842928E+02  0.00000000000E+00 0. -1.
         11    1    1    2    0    0  0.12882354752E+03 -0.85175913468E+02 -0.23522276468E+03  0.28138975045E+03  0.00000000000E+00 0.  1.
</event>
<event>
 7    1  0.2788485E-009  0.1201432E+03  0.7561462E-02  0.1242861E+00
         -2   -1    0    0    0  501 -0.00000000000E+00  0.00000000000E+00  0.81864715490E+02  0.81864715490E+02  0.00000000000E+00 0.  1.
          2   -1    0    0  501    0  0.00000000000E+00 -0.00000000000E+00 -0.27832002804E+03  0.27832002804E+03  0.00000000000E+00 0. -1.
         25    2    1    2    0    0 -0.56169641316E+02  0.61742587809E+02 -0.18027372590E+03  0.23476247882E+03  0.12509048508E+03 0.  0.
          5    1    3    3  502    0 -0.80505311533E+02  0.84407759736E+02 -0.14426947661E+03  0.18557189811E+03  0.41800000000E+01 0. -1.
         -5    1    3    3    0  502  0.24335670217E+02 -0.22665171927E+02 -0.36004249290E+02  0.49190580707E+02  0.41800000000E+01 0. -1.
        -11    1    1    2    0    0  0.55911358440E+02 -0.41065630273E+02  0.29419012013E+02  0.75352135074E+02  0.00000000000E+00 0.  1.
         11    1    1    2    0    0  0.25828287573E+00 -0.20676957535E+02 -0.45600598665E+02  0.50070129634E+02  0.00000000000E+00 0. -1.
</event>
<event>
 7    1  0.2788485E-009  0.1086835E+03  0.7561462E-02  0.1263028E+00
         -1   -1    0    0    0  501 -0.00000000000E+00  0.00000000000E+00  0.42137832081E+03  0.42137832081E+03  0.00000000000E+00 0.  1.
          1   -1    0    0  501    0  0.00000000000E+00 -0.00000000000E+00 -0.30235650666E+02  0.30235650666E+02  0.00000000000E+00 0. -1.
         25    2    1    2    0    0 -0.75674167854E+01  0.21486475938E+02  0.17327094297E+03  0.21491474002E+03  0.12508633560E+03 0.  0.
          5    1    3    3  502    0 -0.60602827058E+02 -0.12762376664E+02  0.67814810002E+02  0.91934225189E+02  0.41800000000E+01 0.  1.
         -5    1    3    3    0  502  0.53035410273E+02  0.34248852602E+02  0.10545613297E+03  0.12298051483E+03  0.41800000000E+01 0.  1.
        -11    1    1    2    0    0 -0.39667019937E+02  0.10648439351E+01  0.82070890340E+02  0.91160503534E+02  0.00000000000E+00 0. -1.
         11    1    1    2    0    0  0.47234436723E+02 -0.22551319873E+02  0.13580083684E+03  0.14553872792E+03  0.00000000000E+00 0.  1.
</event>
<event>
 7    1  0.2788485E-009  0.9785335E+02  0.7561462E-02  0.1284876E+00
         -2   -1    0    0    0  501 -0.00000000000E+00  0.00000000000E+00  0.52216512050E+03  0.52216512050E+03  0.00000000000E+00 0.  1.
          2   -1    0    0  501    0  0.00000000000E+00 -0.00000000000E+00 -0.24495725592E+02  0.24495725592E+02  0.00000000000E+00 0. -1.
         25    2    1    2    0    0  0.21306475099E+02  0.85922969332E+01  0.23330986840E+03  0.26572220239E+03  0.12508797186E+03 0.  0.
          5    1    3    3  502    0  0.61469345102E+02  0.23171974322E+02  0.20236289351E+03  0.21279951563E+03  0.41800000000E+01 0.  1.
         -5    1    3    3    0  502 -0.40162870002E+02 -0.14579677389E+02  0.30946974891E+02  0.52922686765E+02  0.41800000000E+01 0.  1.
        -11    1    1    2    0    0  0.28218310864E+02 -0.21842188373E+02  0.16843902500E+03  0.17217740677E+03  0.00000000000E+00 0.  1.
         11    1    1    2    0    0 -0.49524785964E+02  0.13249891440E+02  0.95920501512E+02  0.10876123693E+03  0.00000000000E+00 0. -1.
</event>
<event>
 7    1  0.2788485E-009  0.1630293E+03  0.7561462E-02  0.1185318E+00
          1   -1    0    0  501    0  0.00000000000E+00  0.00000000000E+00  0.74374359324E+03  0.74374359324E+03  0.00000000000E+00 0. -1.
         -1   -1    0    0    0  501 -0.00000000000E+00 -0.00000000000E+00 -0.41132393438E+02  0.41132393438E+02  0.00000000000E+00 0.  1.
         25    2    1    2    0    0  0.97937374960E+02  0.98559363944E+02  0.35496559283E+03  0.40119063704E+03  0.12509067721E+03 0.  0.
          5    1    3    3  502    0 -0.55019690164E+01  0.77621268642E+02  0.11395720607E+03  0.13805451903E+03  0.41800000000E+01 0.  1.
         -5    1    3    3    0  502  0.10343934398E+03  0.20938095301E+02  0.24100838675E+03  0.26313611801E+03  0.41800000000E+01 0.  1.
        -11    1    1    2    0    0 -0.64348076623E+02 -0.42363025551E+02  0.27635975168E+03  0.28689721722E+03  0.00000000000E+00 0. -1.
         11    1    1    2    0    0 -0.33589298337E+02 -0.56196338393E+02  0.71285855292E+02  0.96788132414E+02  0.00000000000E+00 0.  1.
</event>
<event>
 7    1  0.2788485E-009  0.8944287E+02  0.7561462E-02  0.1304206E+00
          2   -1    0    0  501    0  0.00000000000E+00  0.00000000000E+00  0.93345754175E+02  0.93345754175E+02  0.00000000000E+00 0. -1.
         -2   -1    0    0    0  501 -0.00000000000E+00 -0.00000000000E+00 -0.13043574177E+03  0.13043574177E+03  0.00000000000E+00 0.  1.
         25    2    1    2    0    0 -0.39889599435E+01  0.72660034837E+01 -0.44481353205E+02  0.13302833835E+03  0.12509692807E+03 0.  0.
          5    1    3    3  502    0 -0.15302909777E+02 -0.41307052667E+02  0.22319376658E+02  0.49558839999E+02  0.41800000000E+01 0.  1.
         -5    1    3    3    0  502  0.11313949833E+02  0.48573056151E+02 -0.66800729863E+02  0.83469498350E+02  0.41800000000E+01 0.  1.
        -11    1    1    2    0    0 -0.92960029997E+01 -0.44289361384E+02  0.19957843150E+02  0.49459869660E+02  0.00000000000E+00 0. -1.
         11    1    1    2    0    0  0.13284962943E+02  0.37023357900E+02 -0.12566477538E+02  0.41293287933E+02  0.00000000000E+00 0.  1.
</event>
<event>
 7    1  0.2788485E-009  0.1802152E+03  0.7561462E-02  0.1167595E+00
         -1   -1    0    0    0  501 -0.00000000000E+00  0.00000000000E+00  0.13307860764E+03  0.13307860764E+03  0.00000000000E+00 0.  1.
          1   -1    0    0  501    0  0.00000000000E+00 -0.00000000000E+00 -0.35100688892E+03  0.35100688892E+03  0.00000000000E+00 0. -1.
         25    2    1    2    0    0 -0.12864550136E+03 -0.11676779973E+03 -0.38952426474E+02  0.21759856918E+03  0.12508981456E+03 0.  0.
          5    1    3    3  502    0 -0.82539511985E+02 -0.10597980249E+03  0.26223584518E+02  0.13692931885E+03  0.41800000000E+01 0. -1.
         -5    1    3    3    0  502 -0.46105989373E+02 -0.10787997237E+02 -0.65176010992E+02  0.80669250333E+02  0.41800000000E+01 0. -1.
        -11    1    1    2    0    0  0.10474751211E+03  0.11338518810E+03 -0.10004691898E+03  0.18395006977E+03  0.00000000000E+00 0.  1.
         11    1    1    2    0    0  0.23897989249E+02  0.33826116309E+01 -0.78928935833E+02  0.82536857605E+02  0.00000000000E+00 0. -1.
</event>
<event>
 7    1  0.2788485E-009  0.8394912E+02  0.7561462E-02  0.1318204E+00
          2   -1    0    0  501    0  0.00000000000E+00  0.00000000000E+00  0.29079670743E+03  0.29079670743E+03  0.00000000000E+00 0. -1.
         -2   -1    0    0    0  501 -0.00000000000E+00 -0.00000000000E+00 -0.43119177645E+02  0.43119177645E+02  0.00000000000E+00 0.  1.
         25    2    1    2    0    0  0.10784629522E+02  0.86990783613E+01  0.16605377125E+03  0.20837011479E+03  0.12510902284E+03 0.  0.
          5    1    3    3  502    0 -0.39926681695E+02  0.28853349361E+02  0.21702282558E+02  0.53991824833E+02  0.41800000000E+01 0.  1.
         -5    1    3    3    0  502  0.50711311218E+02 -0.20154270999E+02  0.14435148869E+03  0.15437828996E+03  0.41800000000E+01 0.  1.
        -11    1    1    2    0    0  0.14920246157E+02 -0.27904916324E+02 -0.60217847556E+01  0.32211178061E+02  0.00000000000E+00 0.  1.
         11    1    1    2    0    0 -0.25704875679E+02  0.19205837962E+02  0.87645543296E+02  0.93334592222E+02  0.00000000000E+00 0. -1.
</event>
<event>
 7    1  0.2788485E-009  0.1002911E+03  0.7561462E-02  0.1279685E+00
         -1   -1    0    0    0  501 -0.00000000000E+00  0.00000000000E+00  0.24061385889E+03  0.24061385889E+03  0.00000000000E+00 0.  1.
          1   -1    0    0  501    0  0.00000000000E+00 -0.00000000000E+00 -0.56091061787E+02  0.56091061787E+02  0.00000000000E+00 0. -1.
         25    2    1    2    0    0 -0.11354947323E+01 -0.33073619363E+02  0.13983341208E+03  0.19051848455E+03  0.12509498862E+03 0.  0.
          5    1    3    3  502    0 -0.11115366317E+02  0.45015175709E+02  0.75797561820E+02  0.88953134798E+02  0.41800000000E+01 0. -1.
         -5    1    3    3    0  502  0.99798715842E+01 -0.78088795072E+02  0.64035850255E+02  0.10156534975E+03  0.41800000000E+01 0. -1.
        -11    1    1    2    0    0 -0.13901836614E+02  0.50381467275E+02  0.59264649773E+02  0.79018048690E+02  0.00000000000E+00 0.  1.
         11    1    1    2    0    0  0.15037331347E+02 -0.17307847912E+02 -0.14575264747E+02  0.27168387435E+02  0.00000000000E+00 0. -1.
</event>
<event>
 7    1  0.2788485E-009  0.1029582E+03  0.7561462E-02  0.1274195E+00
         -3   -1    0    0    0  501 -0.00000000000E+00  0.00000000000E+00  0.36793611611E+03  0.36793611611E+03  0.00000000000E+00 0.  1.
          3   -1    0    0  501    0  0.00000000000E+00 -0.00000000000E+00 -0.56536900518E+02  0.56536900518E+02  0.00000000000E+00 0. -1.
         25    2    1    2    0    0 -0.13621634032E+02 -0.21247908670E+02  0.34577675240E+02  0.13220280657E+03  0.12507975017E+03 0.  0.
          5    1    3    3  502    0 -0.53928765707E+02 -0.41706254328E+02 -0.94636322490E+01  0.68954739911E+02  0.41800000000E+01 0. -1.
         -5    1    3    3    0  502  0.40307131676E+02  0.20458345658E+02  0.44041307489E+02  0.63248066661E+02  0.41800000000E+01 0. -1.
        -11    1    1    2    0    0  0.49848245863E+02 -0.71820363597E+00  0.17561363693E+03  0.18255276746E+03  0.00000000000E+00 0.  1.
         11    1    1    2    0    0 -0.36226611831E+02  0.21966112306E+02  0.10120790342E+03  0.10971744260E+03  0.00000000000E+00 0. -1.
</event>
<event>
 7    1  0.2788485E-009  0.1071740E+03  0.7561462E-02  0.1265894E+00
         -2   -1    0    0    0  501 -0.00000000000E+00  0.00000000000E+00  0.40314435670E+03  0.40314435670E+03  0.00000000000E+00 0.  1.
          2   -1    0    0  501    0  0.00000000000E+00 -0.00000000000E+00 -0.33108004036E+02  0.33108004036E+02  0.00000000000E+00 0. -1.
         25    2    1    2    0    0 -0.34363683258E+02  0.85596268185E+01  0.25118442889E+03  0.28283389058E+03  0.12508901794E+03 0.  0.
          5    1    3    3  502    0 -0.12206555112E+02 -0.52637092416E+02  0.60102822694E+02  0.80928889659E+02  0.41800000000E+01 0.  1.
         -5    1    3    3    0  502 -0.22157128146E+02  0.61196719235E+02  0.19108160619E+03  0.20190500092E+03  0.41800000000E+01 0.  1.
        -11    1    1    2    0    0  0.44644263140E+02 -0.41177491918E+02  0.90522858027E+02  0.10900955874E+03  0.00000000000E+00 0.  1.
         11    1    1    2    0    0 -0.10280579882E+02  0.32617865099E+02  0.28329065751E+02  0.44408911410E+02  0.00000000000E+00 0. -1.
</event>
<event>
 7    1  0.3843371E-009  0.1858357E+03  0.7561462E-02  0.1162272E+00
          1   -1    0    0  501    0  0.00000000000E+00  0.00000000000E+00  0.10727448118E+04  0.10727448118E+04  0.00000000000E+00 0. -1.
         -1   -1    0    0    0  501 -0.00000000000E+00 -0.00000000000E+00 -0.39379581960E+02  0.39379581960E+02  0.00000000000E+00 0.  1.
         25    2    1    2    0    0  0.13303313829E+03  0.10987988548E+03  0.60609672764E+03  0.64247363292E+03  0.12509084951E+03 0.  0.
          5    1    3    3  502    0  0.27018427568E+02  0.69600578644E+02  0.10637848523E+03  0.13003111357E+03  0.41800000000E+01 0.  1.
         -5    1    3    3    0  502  0.10601471072E+03  0.40279306838E+02  0.49971824241E+03  0.51244251936E+03  0.41800000000E+01 0.  1.
        -11    1    1    2    0    0 -0.45951287753E+02 -0.78278747243E+02  0.13204653665E+03  0.16023536114E+03  0.00000000000E+00 0.  1.
         11    1    1    2    0    0 -0.87081850533E+02 -0.31601138239E+02  0.29522196557E+03  0.30941539972E+03  0.00000000000E+00 0. -1.
</event>
<event>
 7    1  0.2788485E-009  0.5642617E+02  0.7561462E-02  0.1413472E+00
         -1   -1    0    0    0  501 -0.00000000000E+00  0.00000000000E+00  0.93118410285E+02  0.93118410285E+02  0.00000000000E+00 0.  1.
          1   -1    0    0  501    0  0.00000000000E+00 -0.00000000000E+00 -0.13949351822E+03  0.13949351822E+03  0.00000000000E+00 0. -1.
         25    2    1    2    0    0  0.19002482386E+02  0.10099660839E+02  0.29497074912E+01  0.12696585436E+03  0.12509408425E+03 0.  0.
          5    1    3    3  502    0  0.71848205399E+01  0.11897939505E+02 -0.60524671105E+02  0.62240588229E+02  0.41800000000E+01 0.  1.
         -5    1    3    3    0  502  0.11817661846E+02 -0.17982786652E+01  0.63474378596E+02  0.64725266132E+02  0.41800000000E+01 0.  1.
        -11    1    1    2    0    0  0.18039508965E+02 -0.36142430080E+02 -0.24438346211E+01  0.40468153694E+02  0.00000000000E+00 0.  1.
         11    1    1    2    0    0 -0.37041991352E+02  0.26042769240E+02 -0.46880980808E+02  0.65177920453E+02  0.00000000000E+00 0. -1.
</event>
<event>
 7    1  0.2788485E-009  0.1175350E+03  0.7561462E-02  0.1247220E+00
         -1   -1    0    0    0  501 -0.00000000000E+00  0.00000000000E+00  0.31793167689E+03  0.31793167689E+03  0.00000000000E+00 0.  1.
          1   -1    0    0  501    0  0.00000000000E+00 -0.00000000000E+00 -0.61905426117E+02  0.61905426117E+02  0.00000000000E+00 0. -1.
         25    2    1    2    0    0  0.13698998407E+02 -0.87359137765E+02  0.12771267258E+03  0.19944284264E+03  0.12509052416E+03 0.  0.
          5    1    3    3  502    0  0.56094766028E+02 -0.73380378500E+02  0.12368812051E+03  0.15442644294E+03  0.41800000000E+01 0.  1.
         -5    1    3    3    0  502 -0.42395767621E+02 -0.13978759264E+02  0.40245520725E+01  0.45016399702E+02  0.41800000000E+01 0.  1.
        -11    1    1    2    0    0 -0.27128270268E+02  0.74068888782E+02  0.36965159757E+02  0.87112377817E+02  0.00000000000E+00 0. -1.
         11    1    1    2    0    0  0.13429271861E+02  0.13290248983E+02  0.91348418434E+02  0.93281882545E+02  0.00000000000E+00 0.  1.
</event>
